/*--------------------------------*- C++ -*----------------------------------*\
| =========                 |                                                 |
| \\      /  F ield         | OpenFOAM: The Open Source CFD Toolbox           |
|  \\    /   O peration     | Version:  v2012                                 |
|   \\  /    A nd           | Website:  www.openfoam.com                      |
|    \\/     M anipulation  |                                                 |
\*---------------------------------------------------------------------------*/
FoamFile
{
    version     2.0;
    format      ascii;
    class       volVectorField;
    location    "3.1";
    object      U_0;
}
// * * * * * * * * * * * * * * * * * * * * * * * * * * * * * * * * * * * * * //

dimensions      [0 1 -1 0 0 0 0];


internalField   nonuniform List<vector> 
167
(
(-0.0400455208072 -0.0275113070628 -1.31662634974e-23)
(-0.0407565817399 -0.0305474224729 -5.03393659754e-23)
(-0.0413456085945 -0.0337594423431 -8.03733241101e-22)
(-0.0414552869865 -0.0368642426415 -3.57918037223e-21)
(-0.0407725166192 -0.0408637286828 -6.2157538522e-21)
(-0.0398795550801 -0.0456054060298 -9.73412767122e-21)
(-0.0454952804104 -0.0390881923311 -1.54384960939e-20)
(-0.0652160272196 -0.04696575371 -2.06092910373e-20)
(-0.0476631141132 -0.0456337161805 -1.35324609994e-20)
(-0.0376161538636 -0.0312615688853 -6.43110307914e-23)
(-0.0380415416217 -0.0344205966647 -5.0995434441e-22)
(-0.0380717224421 -0.0373936898675 -2.94632864032e-21)
(-0.0377497403519 -0.0411290854914 -4.95295228511e-21)
(-0.0378537787565 -0.0452174142958 -7.13814559803e-21)
(-0.0452994953656 -0.0404636625811 -1.9242269126e-20)
(-0.0648798737922 -0.0506911722879 -2.19388577018e-20)
(-0.0440148817316 -0.0564613375706 -1.40335547104e-20)
(-0.0344438105988 -0.0318533510507 -6.04515339564e-23)
(-0.0348371837267 -0.0350188623462 -4.78897623017e-22)
(-0.0350657916046 -0.0379950001332 -1.92506630268e-21)
(-0.0352654461684 -0.0414064250252 -5.45878291257e-21)
(-0.0355485760975 -0.0444160600903 -1.3756323348e-20)
(-0.0391912487583 -0.0418297000457 -1.24060976774e-20)
(-0.0541764134712 -0.0564516291357 -4.59517205059e-21)
(-0.0326371714181 -0.0736519658577 -2.3564901478e-21)
(-0.030878044532 -0.0291163987181 -6.72860183105e-23)
(-0.0311673912836 -0.0323793485527 -6.23748689257e-23)
(-0.0314776820377 -0.035735733376 -4.08014338392e-22)
(-0.0318438933932 -0.0391099394393 -1.25249428769e-21)
(-0.0324732073389 -0.0434298196277 -3.60046330823e-21)
(-0.0324476134716 -0.0474064049911 -7.15163103177e-21)
(-0.0315334894409 -0.0446367799789 -5.13637295506e-21)
(-0.0378425752851 -0.0611344531091 1.86132126336e-20)
(-0.0253656045054 -0.0828428685431 1.16710426533e-20)
(-0.0276665499092 -0.0293426152034 -2.17700169614e-23)
(-0.0277349868501 -0.0327079968269 -1.03201362766e-22)
(-0.0277971892511 -0.0362498111478 -6.99344047488e-22)
(-0.0279424004555 -0.0400096522784 -2.62734989874e-21)
(-0.0286036660341 -0.0454538798927 -7.02102104817e-21)
(-0.0287135195153 -0.0509781990466 1.25226580598e-22)
(-0.0250486562812 -0.0483248576512 4.94684576632e-21)
(-0.0189088730406 -0.0624488305177 3.62289046691e-20)
(-0.0170975997743 -0.0737976109682 2.3026228136e-20)
(-0.0244135721121 -0.0293406419873 2.6145805846e-23)
(-0.024209264216 -0.0327464689754 -2.7223791017e-22)
(-0.0239173003594 -0.0363909573365 -1.37472024902e-21)
(-0.0236107297884 -0.0403808416978 -3.22643259157e-21)
(-0.023854626628 -0.0464492583686 -7.19820383301e-21)
(-0.0241202134475 -0.0530995289097 -1.17852626318e-20)
(-0.0208046093321 -0.0507296652944 -2.2564589875e-20)
(-0.0161965002396 -0.0616464060454 -3.62163511241e-20)
(-0.0144114619966 -0.0558210430906 -2.49885214105e-20)
(-0.0215511470527 -0.0259769520901 4.11219276774e-23)
(-0.0211796904056 -0.029076979104 -1.8722481752e-22)
(-0.0206839668564 -0.0324355873339 -6.4069546151e-22)
(-0.0199961717348 -0.0360477375909 -2.48328167124e-21)
(-0.019140448311 -0.040027271467 -4.01743708391e-21)
(-0.0185735364826 -0.046015549455 -4.83815196e-21)
(-0.0184085909175 -0.0531752954753 -7.96167330474e-21)
(-0.0161486661875 -0.0504192744131 -4.4410828808e-20)
(-0.0215054943793 -0.0644383881585 -1.0249974242e-19)
(-0.0109390183476 -0.055651661773 -7.71480865474e-20)
(-0.0190587356205 -0.022752932403 4.24978724288e-24)
(-0.0186105233047 -0.0255603999558 -2.70082825121e-23)
(-0.01803293163 -0.028555357485 -1.92094927688e-22)
(-0.017267336587 -0.0317814591876 -5.62018735591e-22)
(-0.0162018211837 -0.0352440228785 -2.45523127453e-21)
(-0.0148254048357 -0.0390172831153 -3.7183132747e-21)
(-0.0134021211527 -0.0443620929283 -5.56015611906e-21)
(-0.012167783379 -0.0517937143022 -1.77454794609e-22)
(-0.00915961162635 -0.0483648801662 -3.30710854336e-20)
(-0.0225465143648 -0.0680589649337 -8.69455697337e-20)
(-0.00653580788624 -0.0649053921491 -6.45332210664e-20)
(-0.0163752914741 -0.0222879900805 -1.18034621358e-23)
(-0.0157974397117 -0.0249743830085 -3.77335386116e-23)
(-0.0150440076552 -0.0278145006421 -1.35529338868e-22)
(-0.0140409461686 -0.0308241285179 -2.88563280779e-22)
(-0.0126634340602 -0.0340162854906 -1.47559866126e-21)
(-0.0108669731372 -0.0375206312307 -3.92832119433e-21)
(-0.00864644152048 -0.041981713636 -1.3690845017e-20)
(-0.00580668001128 -0.0491079155182 -1.44188386195e-20)
(-0.00023166524119 -0.0449491695554 -2.37960806261e-20)
(-0.0151886882022 -0.0671601865455 -5.46471132523e-20)
(-0.00098312540043 -0.0713393255462 -3.9989088132e-20)
(-0.0131420164581 -0.0242577369402 -3.44796534635e-23)
(-0.0122542043641 -0.0268770123959 -9.52363780473e-23)
(-0.011081868069 -0.029617007835 -3.75443477998e-22)
(-0.00947072465899 -0.0324918523362 -1.46898048788e-21)
(-0.00733968271537 -0.035660507873 -2.015116822e-21)
(-0.00458394447904 -0.039041043664 -1.13466911412e-20)
(-0.000284813579626 -0.0455947862831 -6.77388782256e-21)
(0.00852505897073 -0.0400301224262 -2.09037066926e-20)
(-0.00336117200687 -0.06040462854 -4.49133647509e-20)
(0.00385945042432 -0.0718690333201 -3.19155753507e-20)
(-0.0106812021347 -0.0234254138985 -2.11051098242e-23)
(-0.00970534762722 -0.0258215834399 -5.3455845214e-23)
(-0.0084312101914 -0.0282497212983 -4.35190545475e-22)
(-0.00665975181869 -0.0306914077491 -1.18733325465e-21)
(-0.004357420493 -0.033502309642 -9.07957209699e-22)
(-0.00140362902461 -0.0356461150247 -3.51206466993e-21)
(0.00384367768415 -0.0414468526371 -7.75151768363e-21)
(0.0145200116972 -0.0341293410344 -1.4916575988e-20)
(0.00811587260983 -0.0495856158853 -2.75349021443e-20)
(0.00893025874883 -0.0565635250588 -2.10647335216e-20)
(-0.00843519706751 -0.0225434294565 8.09037599334e-24)
(-0.00744457639577 -0.0246736314895 -4.35829786055e-23)
(-0.00614218400343 -0.0267583325895 -3.36961808682e-22)
(-0.00437320792753 -0.0288076911048 -1.75469250614e-21)
(-0.00209953423827 -0.0312587364952 -1.11341455729e-21)
(0.001001085209 -0.0323760690771 -1.93987576752e-21)
(0.00661395332663 -0.0371387032089 6.40216648221e-22)
(0.0165907409283 -0.0287990695245 -1.51444904191e-20)
(0.010872222665 -0.0383949384828 -3.12589937163e-20)
(0.0102171729724 -0.0350196309379 -2.47679951811e-20)
(-0.00640225369469 -0.0216586174054 6.70685534696e-23)
(-0.00545340619427 -0.0235357078374 9.00447377513e-23)
(-0.00419996951804 -0.0253014542204 -3.80920785417e-22)
(-0.00255811074099 -0.0269878880019 -2.6129593127e-21)
(-0.000380470613722 -0.0289522177344 -2.264885293e-21)
(0.00271463784879 -0.0293511237926 -4.37272137107e-21)
(0.00817486369238 -0.0330813486563 9.81505948566e-22)
(0.015160173762 -0.0247692610815 -1.91857226393e-20)
(0.00609931277736 -0.029015949383 -3.9962345264e-20)
(0.0081159828863 -0.0186795064844 -3.33888606044e-20)
(-0.00459072622298 -0.0207430049179 1.58570486328e-22)
(-0.00373820515645 -0.022356591671 2.26291436931e-22)
(-0.00259323537048 -0.0238132104534 2.43461376592e-23)
(-0.00110378554271 -0.0251495623712 -1.27900175937e-21)
(0.000964751092231 -0.0266123202369 -4.11175319965e-21)
(0.00382264557326 -0.0263819845231 -1.66261699813e-20)
(0.00855614126728 -0.0289999126601 -1.3074749832e-20)
(0.0113028160515 -0.0215543042776 -2.14922046501e-20)
(-0.00228065299961 -0.0206488405909 -3.71887587853e-20)
(0.00216482692935 -0.0117843453365 -3.67269963258e-20)
(-0.00352532113811 -0.0181971559118 2.23747859785e-22)
(-0.00300809155276 -0.0197376265899 3.57389953895e-22)
(-0.0023139648212 -0.0210904346532 5.75940461397e-22)
(-0.00137821986426 -0.0222252599961 2.55049881615e-22)
(-0.000114822264002 -0.0231238929928 -8.76724701452e-22)
(0.00169087733844 -0.0239986537671 -2.99873807823e-22)
(0.00408112865843 -0.0231138890854 -1.18238936877e-20)
(0.00768925938045 -0.0242293058437 -9.76449435032e-21)
(0.00648585253617 -0.0173609083959 -1.6874723058e-20)
(-0.010574566038 -0.0127603235786 -1.27572743081e-20)
(-0.0043591705713 -0.0111067247174 -1.16225563109e-20)
(-0.00201114901225 -0.0171810220157 5.26017928752e-22)
(-0.00166389722598 -0.0185249153666 5.50469326225e-22)
(-0.00118553744722 -0.0196476779321 8.74260358948e-22)
(-0.00050361202934 -0.0204721324764 5.11525540326e-22)
(0.000493915270984 -0.0209202812655 -2.66241643226e-22)
(0.0019983152067 -0.0211660414029 2.30605161036e-21)
(0.00382441768573 -0.0192973393487 2.23765412047e-22)
(0.00530743157614 -0.0180724487455 -4.62548443711e-21)
(8.58605150489e-05 -0.0112166501609 -1.8418876992e-21)
(-0.0130469318271 -0.00906476512818 1.62186164209e-20)
(-0.00499208036157 -0.0192717377326 1.65898739883e-20)
(-0.000615441539691 -0.0160973029557 7.08883307508e-22)
(-0.000484731677058 -0.0172654444584 7.9390221306e-22)
(-0.000313127345302 -0.018181477875 1.19250665653e-21)
(-8.11139152937e-06 -0.0186871051903 8.8774851006e-22)
(0.000495919775207 -0.0185122935289 -1.93743539159e-21)
(0.00111445161934 -0.018066716199 3.83726793613e-21)
(0.00178354941021 -0.0153217679132 -6.75522384952e-21)
(0.00289146802502 -0.0121774293715 -3.77776806718e-21)
(-0.000485670855585 -0.00525698314502 2.2683724036e-20)
(-0.00901673642525 -0.0125467950214 1.00238033283e-19)
(-0.00603749793696 -0.0276601802953 7.05932017153e-20)
)
;

boundaryField
{
    back
    {
        type            noSlip;
    }
    sides
    {
        type            noSlip;
    }
    bottom
    {
        type            noSlip;
    }
    front
    {
        type            noSlip;
    }
    atmosphere
    {
        type            pressureInletOutletVelocity;
        value           nonuniform List<vector> 
17
(
(0 -0.0456337161805 0)
(0 -0.0564613375706 0)
(0 -0.0736519658577 0)
(0 -0.0828428685431 0)
(0 -0.0737976109682 0)
(0 -0.0558210430906 0)
(0 -0.055651661773 0)
(0 -0.0649053921491 0)
(0 -0.0713393255462 0)
(0 -0.0718690333201 0)
(0 -0.0565635250588 0)
(0 -0.0350196309379 0)
(0 -0.0186795064844 0)
(0 -0.0117843453365 0)
(0 -0.0111067247174 0)
(0 -0.0192717377326 0)
(0 -0.0276601802953 0)
)
;
    }
    floatingObject
    {
        type            movingWallVelocity;
        value           nonuniform List<vector> 0();
    }
    procBoundary11to9
    {
        type            processor;
        value           nonuniform List<vector> 9((-0.0429654967746 -0.0267037819778 -2.65917638715e-23) (-0.0438360694594 -0.0296268810202 -1.0402965819e-22) (-0.0446586882632 -0.0327378679113 -5.48980821718e-22) (-0.0449777773675 -0.035768843742 -1.99372567608e-21) (-0.0440420535988 -0.0394336364466 -7.10515421123e-21) (-0.0418888221581 -0.044183123232 -2.76427113526e-21) (-0.0446933676635 -0.0372539288207 -1.03370110725e-20) (-0.0625305950471 -0.0456988380142 -1.58756001093e-20) (-0.0483044723689 -0.0406062946659 -1.06417555746e-20));
    }
    procBoundary11to10
    {
        type            processor;
        value           nonuniform List<vector> 
23
(
(-0.0393736377458 -0.0246612517314 -2.91714357673e-24)
(-0.037050532502 -0.0281794520789 -1.95101064787e-23)
(-0.037050532502 -0.0281794520789 -1.95101064787e-23)
(-0.0340047391333 -0.0287096349833 -1.43946478773e-23)
(-0.0340047391333 -0.0287096349833 -1.43946478773e-23)
(-0.030629272199 -0.0260363354041 -1.02361511515e-23)
(-0.0276038043001 -0.0262055961313 4.01275862858e-24)
(-0.024564081704 -0.0261905617325 2.22480544985e-23)
(-0.024564081704 -0.0261905617325 2.22480544985e-23)
(-0.0218393062575 -0.0230723339046 -1.83187706106e-23)
(-0.0218393062575 -0.0230723339046 -1.83187706106e-23)
(-0.0194037121384 -0.0200726221035 -1.15201694757e-23)
(-0.0168254834496 -0.0197150495809 1.51812695812e-24)
(-0.0138235900638 -0.0217341151492 -1.60155798242e-23)
(-0.0138235900638 -0.0217341151492 -1.60155798242e-23)
(-0.0114242442865 -0.0210815672219 6.66281474788e-24)
(-0.00918938068909 -0.0204091458785 3.2654962556e-23)
(-0.00712978587323 -0.0197172240244 5.74899838875e-23)
(-0.00523756058101 -0.0190038290659 8.54378762464e-23)
(-0.00523756058101 -0.0190038290659 8.54378762464e-23)
(-0.00391587533216 -0.0165197855128 5.08877535733e-22)
(-0.00226226906777 -0.0156651269997 5.96742256284e-22)
(-0.000699813700247 -0.0147399848614 1.04350120317e-21)
)
;
    }
}


// ************************************************************************* //
