/*--------------------------------*- C++ -*----------------------------------*\
| =========                 |                                                 |
| \\      /  F ield         | OpenFOAM: The Open Source CFD Toolbox           |
|  \\    /   O peration     | Version:  v2012                                 |
|   \\  /    A nd           | Website:  www.openfoam.com                      |
|    \\/     M anipulation  |                                                 |
\*---------------------------------------------------------------------------*/
FoamFile
{
    version     2.0;
    format      ascii;
    class       volScalarField;
    location    "2.9";
    object      epsilon;
}
// * * * * * * * * * * * * * * * * * * * * * * * * * * * * * * * * * * * * * //

dimensions      [0 2 -3 0 0 0 0];


internalField   nonuniform List<scalar> 
167
(
0.00224876332098
0.00226595476433
0.00228758115393
0.00232180839794
0.00238979750795
0.00253528120339
0.00283386155045
0.00342833019415
0.00487950415816
0.0111501899116
0.0484823778738
0.198921816582
0.00234559366421
0.00236056716365
0.0023808997772
0.00241642699101
0.00249092960259
0.00265096598187
0.00297207641932
0.00361617643446
0.00536074093545
0.0122101372513
0.0384662329631
0.107453861685
0.00256520792827
0.00258116062054
0.00260332152416
0.00264283039245
0.00272564383562
0.00290155942286
0.00325091688128
0.00394087278615
0.00578900408223
0.0129859854989
0.0400386282064
0.107476676774
0.00266399079268
0.00268673343785
0.00272718780065
0.00281130786903
0.00298863196014
0.00333851890055
0.00401515834414
0.00575130994231
0.012727871394
0.0413392500928
0.121182558811
0.0027192621438
0.00275923643212
0.00284176816498
0.003015072908
0.00335535337595
0.00399837642006
0.00554893492431
0.0119688071603
0.0426469500353
0.157866244966
0.00273393388928
0.00277280454718
0.00285275118111
0.00302034826447
0.00334869852762
0.00395859140979
0.00533381023205
0.011064851237
0.0420711184162
0.160449959298
0.00274281719239
0.00278035383335
0.00285751983972
0.00301955496468
0.00333824707696
0.00392739329089
0.00520512105404
0.0103773190189
0.0405125987245
0.161111012977
0.00275012490934
0.00278626486862
0.00286063688244
0.00301766813699
0.00332829405728
0.00390585521868
0.00514711270142
0.00999314320987
0.0388964445254
0.160944615649
0.00275723832179
0.00279202076605
0.00286371892374
0.00301568990816
0.00331833644351
0.00388660162001
0.00510368252518
0.00970789510567
0.0371604792623
0.159224377206
0.00276449331549
0.00279792098787
0.00286700918634
0.00301434817467
0.00331016233959
0.00386758296932
0.00504368961338
0.00931041705472
0.034701977945
0.155024836156
0.00277195505748
0.00280406220477
0.00287061247885
0.00301354957279
0.00330330495927
0.00385603811767
0.00502739254378
0.00899543342111
0.0287203518281
0.118457826709
0.00277955507833
0.00281038934992
0.00287444385807
0.00301315422246
0.00329793607644
0.00385319692621
0.00509278305101
0.00961556124689
0.0335928558258
0.142661457554
0.00278720862696
0.00281681557247
0.00287842037445
0.00301286980422
0.00329280597741
0.00385307364543
0.00517636663152
0.0102532363905
0.0369962171368
0.152227590171
0.00279485922842
0.00282330480425
0.00288252384997
0.00301265207146
0.00328642671316
0.00384064365499
0.00516194673799
0.0102785734196
0.0376940093468
0.156057387472
0.00280246889073
0.00282984985734
0.0028868791859
0.00301294457516
0.00327959148299
0.00381397149267
0.00502981929741
0.00966039644029
0.0371295799768
0.157921841936
0.00280995593868
0.00283641300385
0.00289159277088
0.00301469830245
0.00327824869628
0.00380982325518
0.00501310593542
0.00968144354451
0.038683849404
0.1620673655
)
;

boundaryField
{
    back
    {
        lowReCorrection 0;
        blending        stepwise;
        n               2;
        type            epsilonWallFunction;
        value           nonuniform List<scalar> 
167
(
0.00224876332098
0.00226595476433
0.00228758115393
0.00232180839794
0.00238979750795
0.00253528120339
0.00283386155045
0.00342833019415
0.00487950415816
0.0111501899116
0.0484823778738
0.198921816582
0.00234559366421
0.00236056716365
0.0023808997772
0.00241642699101
0.00249092960259
0.00265096598187
0.00297207641932
0.00361617643446
0.00536074093545
0.0122101372513
0.0384662329631
0.107453861685
0.00256520792827
0.00258116062054
0.00260332152416
0.00264283039245
0.00272564383562
0.00290155942286
0.00325091688128
0.00394087278615
0.00578900408223
0.0129859854989
0.0400386282064
0.107476676774
0.00266399079268
0.00268673343785
0.00272718780065
0.00281130786903
0.00298863196014
0.00333851890055
0.00401515834414
0.00575130994231
0.012727871394
0.0413392500928
0.121182558811
0.0027192621438
0.00275923643212
0.00284176816498
0.003015072908
0.00335535337595
0.00399837642006
0.00554893492431
0.0119688071603
0.0426469500353
0.157866244966
0.00273393388928
0.00277280454718
0.00285275118111
0.00302034826447
0.00334869852762
0.00395859140979
0.00533381023205
0.011064851237
0.0420711184162
0.160449959298
0.00274281719239
0.00278035383335
0.00285751983972
0.00301955496468
0.00333824707696
0.00392739329089
0.00520512105404
0.0103773190189
0.0405125987245
0.161111012977
0.00275012490934
0.00278626486862
0.00286063688244
0.00301766813699
0.00332829405728
0.00390585521868
0.00514711270142
0.00999314320987
0.0388964445254
0.160944615649
0.00275723832179
0.00279202076605
0.00286371892374
0.00301568990816
0.00331833644351
0.00388660162001
0.00510368252518
0.00970789510567
0.0371604792623
0.159224377206
0.00276449331549
0.00279792098787
0.00286700918634
0.00301434817467
0.00331016233959
0.00386758296932
0.00504368961338
0.00931041705472
0.034701977945
0.155024836156
0.00277195505748
0.00280406220477
0.00287061247885
0.00301354957279
0.00330330495927
0.00385603811767
0.00502739254378
0.00899543342111
0.0287203518281
0.118457826709
0.00277955507833
0.00281038934992
0.00287444385807
0.00301315422246
0.00329793607644
0.00385319692621
0.00509278305101
0.00961556124689
0.0335928558258
0.142661457554
0.00278720862696
0.00281681557247
0.00287842037445
0.00301286980422
0.00329280597741
0.00385307364543
0.00517636663152
0.0102532363905
0.0369962171368
0.152227590171
0.00279485922842
0.00282330480425
0.00288252384997
0.00301265207146
0.00328642671316
0.00384064365499
0.00516194673799
0.0102785734196
0.0376940093468
0.156057387472
0.00280246889073
0.00282984985734
0.0028868791859
0.00301294457516
0.00327959148299
0.00381397149267
0.00502981929741
0.00966039644029
0.0371295799768
0.157921841936
0.00280995593868
0.00283641300385
0.00289159277088
0.00301469830245
0.00327824869628
0.00380982325518
0.00501310593542
0.00968144354451
0.038683849404
0.1620673655
)
;
    }
    sides
    {
        lowReCorrection 0;
        blending        stepwise;
        n               2;
        type            epsilonWallFunction;
        value           nonuniform List<scalar> 
12
(
0.00224876332098
0.00226595476433
0.00228758115393
0.00232180839794
0.00238979750795
0.00253528120339
0.00283386155045
0.00342833019415
0.00487950415816
0.0111501899116
0.0484823778738
0.198921816582
)
;
    }
    bottom
    {
        lowReCorrection 0;
        blending        stepwise;
        n               2;
        type            epsilonWallFunction;
        value           nonuniform List<scalar> 0();
    }
    front
    {
        lowReCorrection 0;
        blending        stepwise;
        n               2;
        type            epsilonWallFunction;
        value           nonuniform List<scalar> 
167
(
0.00224876332098
0.00226595476433
0.00228758115393
0.00232180839794
0.00238979750795
0.00253528120339
0.00283386155045
0.00342833019415
0.00487950415816
0.0111501899116
0.0484823778738
0.198921816582
0.00234559366421
0.00236056716365
0.0023808997772
0.00241642699101
0.00249092960259
0.00265096598187
0.00297207641932
0.00361617643446
0.00536074093545
0.0122101372513
0.0384662329631
0.107453861685
0.00256520792827
0.00258116062054
0.00260332152416
0.00264283039245
0.00272564383562
0.00290155942286
0.00325091688128
0.00394087278615
0.00578900408223
0.0129859854989
0.0400386282064
0.107476676774
0.00266399079268
0.00268673343785
0.00272718780065
0.00281130786903
0.00298863196014
0.00333851890055
0.00401515834414
0.00575130994231
0.012727871394
0.0413392500928
0.121182558811
0.0027192621438
0.00275923643212
0.00284176816498
0.003015072908
0.00335535337595
0.00399837642006
0.00554893492431
0.0119688071603
0.0426469500353
0.157866244966
0.00273393388928
0.00277280454718
0.00285275118111
0.00302034826447
0.00334869852762
0.00395859140979
0.00533381023205
0.011064851237
0.0420711184162
0.160449959298
0.00274281719239
0.00278035383335
0.00285751983972
0.00301955496468
0.00333824707696
0.00392739329089
0.00520512105404
0.0103773190189
0.0405125987245
0.161111012977
0.00275012490934
0.00278626486862
0.00286063688244
0.00301766813699
0.00332829405728
0.00390585521868
0.00514711270142
0.00999314320987
0.0388964445254
0.160944615649
0.00275723832179
0.00279202076605
0.00286371892374
0.00301568990816
0.00331833644351
0.00388660162001
0.00510368252518
0.00970789510567
0.0371604792623
0.159224377206
0.00276449331549
0.00279792098787
0.00286700918634
0.00301434817467
0.00331016233959
0.00386758296932
0.00504368961338
0.00931041705472
0.034701977945
0.155024836156
0.00277195505748
0.00280406220477
0.00287061247885
0.00301354957279
0.00330330495927
0.00385603811767
0.00502739254378
0.00899543342111
0.0287203518281
0.118457826709
0.00277955507833
0.00281038934992
0.00287444385807
0.00301315422246
0.00329793607644
0.00385319692621
0.00509278305101
0.00961556124689
0.0335928558258
0.142661457554
0.00278720862696
0.00281681557247
0.00287842037445
0.00301286980422
0.00329280597741
0.00385307364543
0.00517636663152
0.0102532363905
0.0369962171368
0.152227590171
0.00279485922842
0.00282330480425
0.00288252384997
0.00301265207146
0.00328642671316
0.00384064365499
0.00516194673799
0.0102785734196
0.0376940093468
0.156057387472
0.00280246889073
0.00282984985734
0.0028868791859
0.00301294457516
0.00327959148299
0.00381397149267
0.00502981929741
0.00966039644029
0.0371295799768
0.157921841936
0.00280995593868
0.00283641300385
0.00289159277088
0.00301469830245
0.00327824869628
0.00380982325518
0.00501310593542
0.00968144354451
0.038683849404
0.1620673655
)
;
    }
    atmosphere
    {
        type            inletOutlet;
        inletValue      uniform 0.1;
        value           nonuniform List<scalar> 
16
(
0.1
0.107453861685
0.107476676774
0.121182558811
0.1
0.1
0.1
0.1
0.1
0.1
0.1
0.1
0.1
0.1
0.1
0.1
)
;
    }
    floatingObject
    {
        lowReCorrection 0;
        blending        stepwise;
        n               2;
        type            epsilonWallFunction;
        value           nonuniform List<scalar> 0();
    }
    procBoundary1to0
    {
        type            processor;
        value           nonuniform List<scalar> 10(0.00281729643141 0.00284291111177 0.00289640085473 0.00301711552433 0.00328136704794 0.00383214328733 0.00511240706829 0.0100618869099 0.0400885696305 0.162752505281);
    }
    procBoundary1to2
    {
        type            processor;
        value           nonuniform List<scalar> 
18
(
0.00223311339552
0.00233223965195
0.00255137409393
0.00264777638204
0.00264777638204
0.00269669188892
0.00269669188892
0.00271189651277
0.002721473684
0.00272954657685
0.00273740644456
0.00274541102261
0.00275357895883
0.0027618405421
0.00277012754821
0.00277836418541
0.00278649461851
0.00279446369505
)
;
    }
}


// ************************************************************************* //
