/*--------------------------------*- C++ -*----------------------------------*\
| =========                 |                                                 |
| \\      /  F ield         | OpenFOAM: The Open Source CFD Toolbox           |
|  \\    /   O peration     | Version:  v2012                                 |
|   \\  /    A nd           | Website:  www.openfoam.com                      |
|    \\/     M anipulation  |                                                 |
\*---------------------------------------------------------------------------*/
FoamFile
{
    version     2.0;
    format      ascii;
    class       volScalarField;
    location    "2.9";
    object      k_0;
}
// * * * * * * * * * * * * * * * * * * * * * * * * * * * * * * * * * * * * * //

dimensions      [0 2 -2 0 0 0 0];


internalField   nonuniform List<scalar> 
167
(
0.00353767550262
0.00355568259099
0.0035782705016
0.00361387461167
0.00368408434184
0.00383212428598
0.00412738119161
0.00468608962635
0.00592933456857
0.010286722033
0.0274038408305
0.0702334128611
0.00440774545104
0.0044264839489
0.00445186577988
0.00449604281232
0.0045879881612
0.00478245349737
0.00516124688754
0.00588230754644
0.00764770626775
0.0132391981775
0.0284512329139
0.0564325061866
0.00467874850834
0.0046981261414
0.00472497873983
0.00477266385679
0.0048718516586
0.00507928168881
0.00547921778793
0.00622935282819
0.00804977774935
0.0137942447817
0.0292213838323
0.0564404939069
0.00479810556672
0.00482537466388
0.00487369128723
0.00497340230686
0.00518039581209
0.00557721275814
0.00630739124116
0.00801479652293
0.0136108476114
0.0298508280004
0.0611422474471
0.00486424420808
0.00491179911411
0.00500926202204
0.00521090551117
0.00559594575998
0.00628980388426
0.00782566177423
0.0130641722875
0.0304770764338
0.0729302169086
0.00488172515844
0.0049278879507
0.00502216043
0.00521698195331
0.00558854415681
0.00624801079542
0.00762207163468
0.0123978117847
0.0302021150499
0.0737238024687
0.00489229415176
0.00493682839949
0.00502775556719
0.00521606841366
0.00557691002138
0.00621513999134
0.00749897447704
0.0118787688465
0.0294515430898
0.07392615834
0.00490098002513
0.00494382305754
0.00503141115712
0.00521389527938
0.00556581942741
0.00619239635884
0.00744315570935
0.0115837558001
0.0286629744053
0.0738752483769
0.00490942756394
0.00495062938578
0.00503502439301
0.00521161638837
0.00555471264589
0.00617202965718
0.00740122749419
0.0113622594717
0.0278036741652
0.0733479012958
0.00491803575813
0.0049576015243
0.00503888030721
0.00521007044718
0.00554558689655
0.00615187844191
0.00734311316061
0.0110499609413
0.0265634291679
0.0720524644798
0.0049268814117
0.00496485323716
0.00504310137462
0.00520915019167
0.0055379253709
0.00613962998156
0.00732728668241
0.0107993110026
0.0234157365472
0.0602222752765
0.00493588283511
0.00497231896439
0.00504758769671
0.00520869458625
0.00553192319374
0.00613661375842
0.00739068631758
0.0112900988651
0.0259943684248
0.0681688169815
0.00494493936943
0.00497989586549
0.00505224185848
0.00520836680768
0.00552618492274
0.00613648286614
0.0074713314823
0.0117838887247
0.027721679135
0.0711831005631
0.00495398413526
0.00498754121359
0.00505704236833
0.005208115874
0.00551904523969
0.00612327825765
0.0074574496878
0.0118032937131
0.0280691681324
0.0723720499255
0.00496297231842
0.00499524639709
0.00506213502942
0.00520845297865
0.00551139011016
0.00609489574186
0.00732964444397
0.0113251671042
0.027788259352
0.0729473388342
0.00497180773882
0.00500296691845
0.00506764370359
0.00521047388544
0.00550988562878
0.00609047556192
0.00731339853965
0.0113416105634
0.0285584374643
0.0742184193738
)
;

boundaryField
{
    back
    {
        type            kqRWallFunction;
        value           nonuniform List<scalar> 
167
(
0.00353767550262
0.00355568259099
0.0035782705016
0.00361387461167
0.00368408434184
0.00383212428598
0.00412738119161
0.00468608962635
0.00592933456857
0.010286722033
0.0274038408305
0.0702334128611
0.00440774545104
0.0044264839489
0.00445186577988
0.00449604281232
0.0045879881612
0.00478245349737
0.00516124688754
0.00588230754644
0.00764770626775
0.0132391981775
0.0284512329139
0.0564325061866
0.00467874850834
0.0046981261414
0.00472497873983
0.00477266385679
0.0048718516586
0.00507928168881
0.00547921778793
0.00622935282819
0.00804977774935
0.0137942447817
0.0292213838323
0.0564404939069
0.00479810556672
0.00482537466388
0.00487369128723
0.00497340230686
0.00518039581209
0.00557721275814
0.00630739124116
0.00801479652293
0.0136108476114
0.0298508280004
0.0611422474471
0.00486424420808
0.00491179911411
0.00500926202204
0.00521090551117
0.00559594575998
0.00628980388426
0.00782566177423
0.0130641722875
0.0304770764338
0.0729302169086
0.00488172515844
0.0049278879507
0.00502216043
0.00521698195331
0.00558854415681
0.00624801079542
0.00762207163468
0.0123978117847
0.0302021150499
0.0737238024687
0.00489229415176
0.00493682839949
0.00502775556719
0.00521606841366
0.00557691002138
0.00621513999134
0.00749897447704
0.0118787688465
0.0294515430898
0.07392615834
0.00490098002513
0.00494382305754
0.00503141115712
0.00521389527938
0.00556581942741
0.00619239635884
0.00744315570935
0.0115837558001
0.0286629744053
0.0738752483769
0.00490942756394
0.00495062938578
0.00503502439301
0.00521161638837
0.00555471264589
0.00617202965718
0.00740122749419
0.0113622594717
0.0278036741652
0.0733479012958
0.00491803575813
0.0049576015243
0.00503888030721
0.00521007044718
0.00554558689655
0.00615187844191
0.00734311316061
0.0110499609413
0.0265634291679
0.0720524644798
0.0049268814117
0.00496485323716
0.00504310137462
0.00520915019167
0.0055379253709
0.00613962998156
0.00732728668241
0.0107993110026
0.0234157365472
0.0602222752765
0.00493588283511
0.00497231896439
0.00504758769671
0.00520869458625
0.00553192319374
0.00613661375842
0.00739068631758
0.0112900988651
0.0259943684248
0.0681688169815
0.00494493936943
0.00497989586549
0.00505224185848
0.00520836680768
0.00552618492274
0.00613648286614
0.0074713314823
0.0117838887247
0.027721679135
0.0711831005631
0.00495398413526
0.00498754121359
0.00505704236833
0.005208115874
0.00551904523969
0.00612327825765
0.0074574496878
0.0118032937131
0.0280691681324
0.0723720499255
0.00496297231842
0.00499524639709
0.00506213502942
0.00520845297865
0.00551139011016
0.00609489574186
0.00732964444397
0.0113251671042
0.027788259352
0.0729473388342
0.00497180773882
0.00500296691845
0.00506764370359
0.00521047388544
0.00550988562878
0.00609047556192
0.00731339853965
0.0113416105634
0.0285584374643
0.0742184193738
)
;
    }
    sides
    {
        type            kqRWallFunction;
        value           nonuniform List<scalar> 
12
(
0.00353767550262
0.00355568259099
0.0035782705016
0.00361387461167
0.00368408434184
0.00383212428598
0.00412738119161
0.00468608962635
0.00592933456857
0.010286722033
0.0274038408305
0.0702334128611
)
;
    }
    bottom
    {
        type            kqRWallFunction;
        value           nonuniform List<scalar> 0();
    }
    front
    {
        type            kqRWallFunction;
        value           nonuniform List<scalar> 
167
(
0.00353767550262
0.00355568259099
0.0035782705016
0.00361387461167
0.00368408434184
0.00383212428598
0.00412738119161
0.00468608962635
0.00592933456857
0.010286722033
0.0274038408305
0.0702334128611
0.00440774545104
0.0044264839489
0.00445186577988
0.00449604281232
0.0045879881612
0.00478245349737
0.00516124688754
0.00588230754644
0.00764770626775
0.0132391981775
0.0284512329139
0.0564325061866
0.00467874850834
0.0046981261414
0.00472497873983
0.00477266385679
0.0048718516586
0.00507928168881
0.00547921778793
0.00622935282819
0.00804977774935
0.0137942447817
0.0292213838323
0.0564404939069
0.00479810556672
0.00482537466388
0.00487369128723
0.00497340230686
0.00518039581209
0.00557721275814
0.00630739124116
0.00801479652293
0.0136108476114
0.0298508280004
0.0611422474471
0.00486424420808
0.00491179911411
0.00500926202204
0.00521090551117
0.00559594575998
0.00628980388426
0.00782566177423
0.0130641722875
0.0304770764338
0.0729302169086
0.00488172515844
0.0049278879507
0.00502216043
0.00521698195331
0.00558854415681
0.00624801079542
0.00762207163468
0.0123978117847
0.0302021150499
0.0737238024687
0.00489229415176
0.00493682839949
0.00502775556719
0.00521606841366
0.00557691002138
0.00621513999134
0.00749897447704
0.0118787688465
0.0294515430898
0.07392615834
0.00490098002513
0.00494382305754
0.00503141115712
0.00521389527938
0.00556581942741
0.00619239635884
0.00744315570935
0.0115837558001
0.0286629744053
0.0738752483769
0.00490942756394
0.00495062938578
0.00503502439301
0.00521161638837
0.00555471264589
0.00617202965718
0.00740122749419
0.0113622594717
0.0278036741652
0.0733479012958
0.00491803575813
0.0049576015243
0.00503888030721
0.00521007044718
0.00554558689655
0.00615187844191
0.00734311316061
0.0110499609413
0.0265634291679
0.0720524644798
0.0049268814117
0.00496485323716
0.00504310137462
0.00520915019167
0.0055379253709
0.00613962998156
0.00732728668241
0.0107993110026
0.0234157365472
0.0602222752765
0.00493588283511
0.00497231896439
0.00504758769671
0.00520869458625
0.00553192319374
0.00613661375842
0.00739068631758
0.0112900988651
0.0259943684248
0.0681688169815
0.00494493936943
0.00497989586549
0.00505224185848
0.00520836680768
0.00552618492274
0.00613648286614
0.0074713314823
0.0117838887247
0.027721679135
0.0711831005631
0.00495398413526
0.00498754121359
0.00505704236833
0.005208115874
0.00551904523969
0.00612327825765
0.0074574496878
0.0118032937131
0.0280691681324
0.0723720499255
0.00496297231842
0.00499524639709
0.00506213502942
0.00520845297865
0.00551139011016
0.00609489574186
0.00732964444397
0.0113251671042
0.027788259352
0.0729473388342
0.00497180773882
0.00500296691845
0.00506764370359
0.00521047388544
0.00550988562878
0.00609047556192
0.00731339853965
0.0113416105634
0.0285584374643
0.0742184193738
)
;
    }
    atmosphere
    {
        type            inletOutlet;
        inletValue      uniform 0.1;
        value           nonuniform List<scalar> 
16
(
0.1
0.0564325061866
0.0564404939069
0.0611422474471
0.1
0.1
0.1
0.1
0.1
0.1
0.1
0.1
0.1
0.1
0.1
0.1
)
;
    }
    floatingObject
    {
        type            kqRWallFunction;
        value           nonuniform List<scalar> 0();
    }
    procBoundary1to0
    {
        type            processor;
        value           nonuniform List<scalar> 10(0.00498046259513 0.00501060506762 0.00507325973376 0.00521325872772 0.00551337916853 0.00611423995744 0.00740965982969 0.0116368188531 0.0292456779432 0.0744274445141);
    }
    procBoundary1to2
    {
        type            processor;
        value           nonuniform List<scalar> 
18
(
0.00352124313038
0.00439099998736
0.00466191209609
0.00477861661337
0.00477861661337
0.00483729089904
0.00483729089904
0.00485545642663
0.00486688120137
0.00487650109018
0.0048858580245
0.00489537803239
0.00490508279295
0.00491488906412
0.00492471569331
0.00493447289058
0.00494409482572
0.00495351672657
)
;
    }
}


// ************************************************************************* //
