/*--------------------------------*- C++ -*----------------------------------*\
| =========                 |                                                 |
| \\      /  F ield         | OpenFOAM: The Open Source CFD Toolbox           |
|  \\    /   O peration     | Version:  v2012                                 |
|   \\  /    A nd           | Website:  www.openfoam.com                      |
|    \\/     M anipulation  |                                                 |
\*---------------------------------------------------------------------------*/
FoamFile
{
    version     2.0;
    format      ascii;
    class       volScalarField;
    location    "2.9";
    object      p_rgh;
}
// * * * * * * * * * * * * * * * * * * * * * * * * * * * * * * * * * * * * * //

dimensions      [1 -1 -2 0 0 0 0];


internalField   nonuniform List<scalar> 
167
(
8746.55525022
8747.64408523
8748.7155888
8749.70684117
8750.57592493
8751.23262437
8751.51713386
8751.39012269
8750.475773
6990.15239771
843.780585085
-0.0103479495331
8746.53413575
8747.66961178
8748.81021424
8749.89333739
8750.82733417
8751.59091162
8752.03440096
8752.06766318
8751.272659
7005.54474331
847.999559348
0.013450538662
8746.46149167
8747.69958706
8748.96288353
8750.20202565
8751.3522533
8752.30579816
8753.03214836
8753.35277053
8752.77863263
7067.1584117
839.63947242
0.0695283713686
8747.68301531
8749.12438685
8750.58300614
8752.00808357
8753.29360325
8754.47847169
8755.3242388
8755.46686233
7147.60785715
838.273458921
0.0346180125637
8749.25717165
8750.98634986
8752.77911491
8754.58064363
8756.26838217
8757.85213924
8759.07613404
7231.74904156
859.294563943
0.0225310663984
8749.30648621
8751.34272357
8753.51838843
8755.81300421
8758.16795418
8760.66538528
8763.17677324
7313.76561612
905.889324708
9.37844141509e-05
8749.20706563
8751.54739008
8754.12336895
8756.94910694
8760.07608194
8763.42283511
8767.27000547
7382.03207981
967.760063356
-0.0228713059493
8748.87901481
8751.50848776
8754.45807426
8757.7744642
8761.53464779
8765.74553293
8770.89362996
7437.44137397
1032.34194064
-0.0405038140043
8748.25602402
8751.13773362
8754.40356103
8758.1189225
8762.40131543
8767.3832959
8773.58909929
7477.8194772
1094.39317188
-0.0548100517537
8747.29206472
8750.37097208
8753.86798696
8757.85518322
8762.45508504
8767.82279571
8774.78550871
7493.42394778
1146.40015779
-0.067114071991
8745.95268223
8749.1723604
8752.81069938
8756.92606962
8761.61645091
8766.97770479
8773.88227689
7473.22071508
1155.08663718
-0.0626064807306
8744.22763248
8747.53703657
8751.23799425
8755.35577838
8759.92095244
8764.87605473
8770.86281602
7419.14791283
1103.5714991
-0.0455759344644
8742.12202987
8745.48616729
8749.20284897
8753.25579392
8757.58764242
8761.99857294
8766.69853652
7302.44792355
1056.59014781
-0.0433191113323
8739.65506321
8743.06491184
8746.79120073
8750.7891735
8754.95963093
8759.08822714
8763.25320563
7244.27420381
1025.86506332
-0.041351038776
8736.8513384
8740.31192468
8744.06607129
8748.0591771
8752.18566685
8756.3559835
8760.83001842
7242.37605965
1023.53619437
-0.058239432658
8733.70625182
8737.23989213
8741.05094191
8745.09931195
8749.28433389
8753.57909874
8758.31777351
7242.21915819
987.016908021
-0.053387152268
)
;

boundaryField
{
    back
    {
        type            fixedFluxPressure;
        gradient        uniform 0;
        value           nonuniform List<scalar> 
167
(
8746.55525022
8747.64408523
8748.7155888
8749.70684117
8750.57592493
8751.23262437
8751.51713386
8751.39012269
8750.475773
6990.15239771
843.780585085
-0.0103479495331
8746.53413575
8747.66961178
8748.81021424
8749.89333739
8750.82733417
8751.59091162
8752.03440096
8752.06766318
8751.272659
7005.54474331
847.999559348
0.013450538662
8746.46149167
8747.69958706
8748.96288353
8750.20202565
8751.3522533
8752.30579816
8753.03214836
8753.35277053
8752.77863263
7067.1584117
839.63947242
0.0695283713686
8747.68301531
8749.12438685
8750.58300614
8752.00808357
8753.29360325
8754.47847169
8755.3242388
8755.46686233
7147.60785715
838.273458921
0.0346180125637
8749.25717165
8750.98634986
8752.77911491
8754.58064363
8756.26838217
8757.85213924
8759.07613404
7231.74904156
859.294563943
0.0225310663984
8749.30648621
8751.34272357
8753.51838843
8755.81300421
8758.16795418
8760.66538528
8763.17677324
7313.76561612
905.889324708
9.37844141509e-05
8749.20706563
8751.54739008
8754.12336895
8756.94910694
8760.07608194
8763.42283511
8767.27000547
7382.03207981
967.760063356
-0.0228713059493
8748.87901481
8751.50848776
8754.45807426
8757.7744642
8761.53464779
8765.74553293
8770.89362996
7437.44137397
1032.34194064
-0.0405038140043
8748.25602402
8751.13773362
8754.40356103
8758.1189225
8762.40131543
8767.3832959
8773.58909929
7477.8194772
1094.39317188
-0.0548100517537
8747.29206472
8750.37097208
8753.86798696
8757.85518322
8762.45508504
8767.82279571
8774.78550871
7493.42394778
1146.40015779
-0.067114071991
8745.95268223
8749.1723604
8752.81069938
8756.92606962
8761.61645091
8766.97770479
8773.88227689
7473.22071508
1155.08663718
-0.0626064807306
8744.22763248
8747.53703657
8751.23799425
8755.35577838
8759.92095244
8764.87605473
8770.86281602
7419.14791283
1103.5714991
-0.0455759344644
8742.12202987
8745.48616729
8749.20284897
8753.25579392
8757.58764242
8761.99857294
8766.69853652
7302.44792355
1056.59014781
-0.0433191113323
8739.65506321
8743.06491184
8746.79120073
8750.7891735
8754.95963093
8759.08822714
8763.25320563
7244.27420381
1025.86506332
-0.041351038776
8736.8513384
8740.31192468
8744.06607129
8748.0591771
8752.18566685
8756.3559835
8760.83001842
7242.37605965
1023.53619437
-0.058239432658
8733.70625182
8737.23989213
8741.05094191
8745.09931195
8749.28433389
8753.57909874
8758.31777351
7242.21915819
987.016908021
-0.053387152268
)
;
    }
    sides
    {
        type            fixedFluxPressure;
        gradient        uniform 0;
        value           nonuniform List<scalar> 
12
(
8746.55525022
8747.64408523
8748.7155888
8749.70684117
8750.57592493
8751.23262437
8751.51713386
8751.39012269
8750.475773
6990.15239771
843.780585085
-0.0103479495331
)
;
    }
    bottom
    {
        type            fixedFluxPressure;
        gradient        nonuniform List<scalar> 0();
        value           nonuniform List<scalar> 0();
    }
    front
    {
        type            fixedFluxPressure;
        gradient        uniform 0;
        value           nonuniform List<scalar> 
167
(
8746.55525022
8747.64408523
8748.7155888
8749.70684117
8750.57592493
8751.23262437
8751.51713386
8751.39012269
8750.475773
6990.15239771
843.780585085
-0.0103479495331
8746.53413575
8747.66961178
8748.81021424
8749.89333739
8750.82733417
8751.59091162
8752.03440096
8752.06766318
8751.272659
7005.54474331
847.999559348
0.013450538662
8746.46149167
8747.69958706
8748.96288353
8750.20202565
8751.3522533
8752.30579816
8753.03214836
8753.35277053
8752.77863263
7067.1584117
839.63947242
0.0695283713686
8747.68301531
8749.12438685
8750.58300614
8752.00808357
8753.29360325
8754.47847169
8755.3242388
8755.46686233
7147.60785715
838.273458921
0.0346180125637
8749.25717165
8750.98634986
8752.77911491
8754.58064363
8756.26838217
8757.85213924
8759.07613404
7231.74904156
859.294563943
0.0225310663984
8749.30648621
8751.34272357
8753.51838843
8755.81300421
8758.16795418
8760.66538528
8763.17677324
7313.76561612
905.889324708
9.37844141509e-05
8749.20706563
8751.54739008
8754.12336895
8756.94910694
8760.07608194
8763.42283511
8767.27000547
7382.03207981
967.760063356
-0.0228713059493
8748.87901481
8751.50848776
8754.45807426
8757.7744642
8761.53464779
8765.74553293
8770.89362996
7437.44137397
1032.34194064
-0.0405038140043
8748.25602402
8751.13773362
8754.40356103
8758.1189225
8762.40131543
8767.3832959
8773.58909929
7477.8194772
1094.39317188
-0.0548100517537
8747.29206472
8750.37097208
8753.86798696
8757.85518322
8762.45508504
8767.82279571
8774.78550871
7493.42394778
1146.40015779
-0.067114071991
8745.95268223
8749.1723604
8752.81069938
8756.92606962
8761.61645091
8766.97770479
8773.88227689
7473.22071508
1155.08663718
-0.0626064807306
8744.22763248
8747.53703657
8751.23799425
8755.35577838
8759.92095244
8764.87605473
8770.86281602
7419.14791283
1103.5714991
-0.0455759344644
8742.12202987
8745.48616729
8749.20284897
8753.25579392
8757.58764242
8761.99857294
8766.69853652
7302.44792355
1056.59014781
-0.0433191113323
8739.65506321
8743.06491184
8746.79120073
8750.7891735
8754.95963093
8759.08822714
8763.25320563
7244.27420381
1025.86506332
-0.041351038776
8736.8513384
8740.31192468
8744.06607129
8748.0591771
8752.18566685
8756.3559835
8760.83001842
7242.37605965
1023.53619437
-0.058239432658
8733.70625182
8737.23989213
8741.05094191
8745.09931195
8749.28433389
8753.57909874
8758.31777351
7242.21915819
987.016908021
-0.053387152268
)
;
    }
    atmosphere
    {
        type            totalPressure;
        rho             rho;
        psi             none;
        gamma           1;
        p0              uniform 0;
        value           nonuniform List<scalar> 
16
(
-0.000131914635264
0
0
0
-1.04579408638e-06
-0.000337555678651
-0.00121275826009
-0.00214942723999
-0.00287482257696
-0.003842950572
-0.00480302192877
-0.00437594385669
-0.00339446918227
-0.00301590289872
-0.00434208234379
-0.00363014844805
)
;
    }
    floatingObject
    {
        type            fixedFluxPressure;
        gradient        nonuniform List<scalar> 0();
        value           nonuniform List<scalar> 0();
    }
    procBoundary1to0
    {
        type            processor;
        value           nonuniform List<scalar> 10(8730.24244208 8733.87312181 8737.78519961 8741.92764661 8746.20262021 8750.60970978 8755.3378438 7220.06722191 924.585961074 -0.0271516736636);
    }
    procBoundary1to2
    {
        type            processor;
        value           nonuniform List<scalar> 
18
(
8745.50066821
8745.43933666
8745.30204109
8746.32895118
8746.32895118
8747.61722371
8747.61722371
8747.44320695
8747.09820518
8746.53227531
8745.69983711
8744.5585563
8743.08181885
8741.25353104
8739.07156218
8736.54065624
8733.66680364
8730.46000864
)
;
    }
}


// ************************************************************************* //
