/*--------------------------------*- C++ -*----------------------------------*\
| =========                 |                                                 |
| \\      /  F ield         | OpenFOAM: The Open Source CFD Toolbox           |
|  \\    /   O peration     | Version:  v2012                                 |
|   \\  /    A nd           | Website:  www.openfoam.com                      |
|    \\/     M anipulation  |                                                 |
\*---------------------------------------------------------------------------*/
FoamFile
{
    version     2.0;
    format      ascii;
    class       volScalarField;
    location    "2.9";
    object      rAU;
}
// * * * * * * * * * * * * * * * * * * * * * * * * * * * * * * * * * * * * * //

dimensions      [-1 3 1 0 0 0 0];


internalField   nonuniform List<scalar> 
167
(
3.26257055522e-05
3.25855829042e-05
3.25405087715e-05
3.26324962653e-05
3.26969736804e-05
3.26774846678e-05
3.26226840146e-05
3.25001397957e-05
3.23908678504e-05
4.0907755381e-05
0.000330373728536
0.0128560891961
3.21659516517e-05
3.21557569598e-05
3.21614794636e-05
3.21875485433e-05
3.21961972544e-05
3.21789393932e-05
3.20253019893e-05
3.18023833557e-05
3.17136619945e-05
3.98683766531e-05
0.000317054006945
0.0151625052024
3.20899848268e-05
3.2087400747e-05
3.20915868231e-05
3.20996342779e-05
3.2106712388e-05
3.2081754104e-05
3.19357081716e-05
3.16866760589e-05
3.15973468072e-05
3.93591215099e-05
0.000318788585971
0.0148436543848
3.20792225283e-05
3.20808312668e-05
3.20855102153e-05
3.20934962172e-05
3.20500269312e-05
3.19433008503e-05
3.17130237081e-05
3.16124914169e-05
3.87194491951e-05
0.000310446788959
0.0149584701061
3.20780925627e-05
3.20795912444e-05
3.20857013144e-05
3.20369225302e-05
3.19740467169e-05
3.1808893159e-05
3.1698028441e-05
3.82256726627e-05
0.000294189915628
0.0122034394787
3.2078180396e-05
3.20751575733e-05
3.2087893015e-05
3.20277819253e-05
3.19958429121e-05
3.18205695894e-05
3.16783851402e-05
3.78403761836e-05
0.000275528208964
0.0116704940389
3.20767857742e-05
3.2075888654e-05
3.20892356647e-05
3.20253155687e-05
3.20266493644e-05
3.17303414551e-05
3.1503753462e-05
3.73340115591e-05
0.000255401631488
0.0111387778363
3.20787058787e-05
3.20775459573e-05
3.20854284199e-05
3.20322580241e-05
3.20537771676e-05
3.16727192427e-05
3.12429691893e-05
3.66896188398e-05
0.000236168698896
0.0106662304263
3.20785486067e-05
3.20768705106e-05
3.20841808771e-05
3.20384650758e-05
3.20609032277e-05
3.16335006604e-05
3.10050766451e-05
3.63621058992e-05
0.00022800078459
0.0102909074249
3.20799956282e-05
3.20791345113e-05
3.20812485749e-05
3.2044693979e-05
3.20536685514e-05
3.15794035487e-05
3.09368389205e-05
3.64235677404e-05
0.000223869618255
0.0100738597974
3.20809537556e-05
3.20808461023e-05
3.20825133812e-05
3.20667736823e-05
3.20672232666e-05
3.15235589038e-05
3.08262737278e-05
3.63862610472e-05
0.000221202801388
0.0102826785396
3.20829951793e-05
3.20841539442e-05
3.20839178958e-05
3.20853250082e-05
3.20868702617e-05
3.14812139062e-05
3.07106188838e-05
3.62583980747e-05
0.00022184462386
0.00853359114148
3.20842117694e-05
3.20856457519e-05
3.20827291434e-05
3.20909413537e-05
3.20750912791e-05
3.14482591307e-05
3.06889374659e-05
3.65473472933e-05
0.000223654414441
0.00989655909668
3.20855395899e-05
3.20867934536e-05
3.20818167683e-05
3.20931398788e-05
3.20748262244e-05
3.14563664583e-05
3.06999241843e-05
3.68158299568e-05
0.000230356672759
0.0103179717886
3.20862757984e-05
3.2086132575e-05
3.20761288936e-05
3.20733747559e-05
3.20529422742e-05
3.15323271186e-05
3.09024138601e-05
3.71132138908e-05
0.000232492350848
0.00981956938652
3.20876725038e-05
3.20861557208e-05
3.20722304831e-05
3.20608918472e-05
3.20732945648e-05
3.15959179598e-05
3.10117682277e-05
3.72686907278e-05
0.000239682018949
0.0105833640518
)
;

boundaryField
{
    back
    {
        type            calculated;
        value           nonuniform List<scalar> 
167
(
3.26257055522e-05
3.25855829042e-05
3.25405087715e-05
3.26324962653e-05
3.26969736804e-05
3.26774846678e-05
3.26226840146e-05
3.25001397957e-05
3.23908678504e-05
4.0907755381e-05
0.000330373728536
0.0128560891961
3.21659516517e-05
3.21557569598e-05
3.21614794636e-05
3.21875485433e-05
3.21961972544e-05
3.21789393932e-05
3.20253019893e-05
3.18023833557e-05
3.17136619945e-05
3.98683766531e-05
0.000317054006945
0.0151625052024
3.20899848268e-05
3.2087400747e-05
3.20915868231e-05
3.20996342779e-05
3.2106712388e-05
3.2081754104e-05
3.19357081716e-05
3.16866760589e-05
3.15973468072e-05
3.93591215099e-05
0.000318788585971
0.0148436543848
3.20792225283e-05
3.20808312668e-05
3.20855102153e-05
3.20934962172e-05
3.20500269312e-05
3.19433008503e-05
3.17130237081e-05
3.16124914169e-05
3.87194491951e-05
0.000310446788959
0.0149584701061
3.20780925627e-05
3.20795912444e-05
3.20857013144e-05
3.20369225302e-05
3.19740467169e-05
3.1808893159e-05
3.1698028441e-05
3.82256726627e-05
0.000294189915628
0.0122034394787
3.2078180396e-05
3.20751575733e-05
3.2087893015e-05
3.20277819253e-05
3.19958429121e-05
3.18205695894e-05
3.16783851402e-05
3.78403761836e-05
0.000275528208964
0.0116704940389
3.20767857742e-05
3.2075888654e-05
3.20892356647e-05
3.20253155687e-05
3.20266493644e-05
3.17303414551e-05
3.1503753462e-05
3.73340115591e-05
0.000255401631488
0.0111387778363
3.20787058787e-05
3.20775459573e-05
3.20854284199e-05
3.20322580241e-05
3.20537771676e-05
3.16727192427e-05
3.12429691893e-05
3.66896188398e-05
0.000236168698896
0.0106662304263
3.20785486067e-05
3.20768705106e-05
3.20841808771e-05
3.20384650758e-05
3.20609032277e-05
3.16335006604e-05
3.10050766451e-05
3.63621058992e-05
0.00022800078459
0.0102909074249
3.20799956282e-05
3.20791345113e-05
3.20812485749e-05
3.2044693979e-05
3.20536685514e-05
3.15794035487e-05
3.09368389205e-05
3.64235677404e-05
0.000223869618255
0.0100738597974
3.20809537556e-05
3.20808461023e-05
3.20825133812e-05
3.20667736823e-05
3.20672232666e-05
3.15235589038e-05
3.08262737278e-05
3.63862610472e-05
0.000221202801388
0.0102826785396
3.20829951793e-05
3.20841539442e-05
3.20839178958e-05
3.20853250082e-05
3.20868702617e-05
3.14812139062e-05
3.07106188838e-05
3.62583980747e-05
0.00022184462386
0.00853359114148
3.20842117694e-05
3.20856457519e-05
3.20827291434e-05
3.20909413537e-05
3.20750912791e-05
3.14482591307e-05
3.06889374659e-05
3.65473472933e-05
0.000223654414441
0.00989655909668
3.20855395899e-05
3.20867934536e-05
3.20818167683e-05
3.20931398788e-05
3.20748262244e-05
3.14563664583e-05
3.06999241843e-05
3.68158299568e-05
0.000230356672759
0.0103179717886
3.20862757984e-05
3.2086132575e-05
3.20761288936e-05
3.20733747559e-05
3.20529422742e-05
3.15323271186e-05
3.09024138601e-05
3.71132138908e-05
0.000232492350848
0.00981956938652
3.20876725038e-05
3.20861557208e-05
3.20722304831e-05
3.20608918472e-05
3.20732945648e-05
3.15959179598e-05
3.10117682277e-05
3.72686907278e-05
0.000239682018949
0.0105833640518
)
;
    }
    sides
    {
        type            calculated;
        value           nonuniform List<scalar> 
12
(
3.26257055522e-05
3.25855829042e-05
3.25405087715e-05
3.26324962653e-05
3.26969736804e-05
3.26774846678e-05
3.26226840146e-05
3.25001397957e-05
3.23908678504e-05
4.0907755381e-05
0.000330373728536
0.0128560891961
)
;
    }
    bottom
    {
        type            calculated;
        value           nonuniform List<scalar> 0();
    }
    front
    {
        type            calculated;
        value           nonuniform List<scalar> 
167
(
3.26257055522e-05
3.25855829042e-05
3.25405087715e-05
3.26324962653e-05
3.26969736804e-05
3.26774846678e-05
3.26226840146e-05
3.25001397957e-05
3.23908678504e-05
4.0907755381e-05
0.000330373728536
0.0128560891961
3.21659516517e-05
3.21557569598e-05
3.21614794636e-05
3.21875485433e-05
3.21961972544e-05
3.21789393932e-05
3.20253019893e-05
3.18023833557e-05
3.17136619945e-05
3.98683766531e-05
0.000317054006945
0.0151625052024
3.20899848268e-05
3.2087400747e-05
3.20915868231e-05
3.20996342779e-05
3.2106712388e-05
3.2081754104e-05
3.19357081716e-05
3.16866760589e-05
3.15973468072e-05
3.93591215099e-05
0.000318788585971
0.0148436543848
3.20792225283e-05
3.20808312668e-05
3.20855102153e-05
3.20934962172e-05
3.20500269312e-05
3.19433008503e-05
3.17130237081e-05
3.16124914169e-05
3.87194491951e-05
0.000310446788959
0.0149584701061
3.20780925627e-05
3.20795912444e-05
3.20857013144e-05
3.20369225302e-05
3.19740467169e-05
3.1808893159e-05
3.1698028441e-05
3.82256726627e-05
0.000294189915628
0.0122034394787
3.2078180396e-05
3.20751575733e-05
3.2087893015e-05
3.20277819253e-05
3.19958429121e-05
3.18205695894e-05
3.16783851402e-05
3.78403761836e-05
0.000275528208964
0.0116704940389
3.20767857742e-05
3.2075888654e-05
3.20892356647e-05
3.20253155687e-05
3.20266493644e-05
3.17303414551e-05
3.1503753462e-05
3.73340115591e-05
0.000255401631488
0.0111387778363
3.20787058787e-05
3.20775459573e-05
3.20854284199e-05
3.20322580241e-05
3.20537771676e-05
3.16727192427e-05
3.12429691893e-05
3.66896188398e-05
0.000236168698896
0.0106662304263
3.20785486067e-05
3.20768705106e-05
3.20841808771e-05
3.20384650758e-05
3.20609032277e-05
3.16335006604e-05
3.10050766451e-05
3.63621058992e-05
0.00022800078459
0.0102909074249
3.20799956282e-05
3.20791345113e-05
3.20812485749e-05
3.2044693979e-05
3.20536685514e-05
3.15794035487e-05
3.09368389205e-05
3.64235677404e-05
0.000223869618255
0.0100738597974
3.20809537556e-05
3.20808461023e-05
3.20825133812e-05
3.20667736823e-05
3.20672232666e-05
3.15235589038e-05
3.08262737278e-05
3.63862610472e-05
0.000221202801388
0.0102826785396
3.20829951793e-05
3.20841539442e-05
3.20839178958e-05
3.20853250082e-05
3.20868702617e-05
3.14812139062e-05
3.07106188838e-05
3.62583980747e-05
0.00022184462386
0.00853359114148
3.20842117694e-05
3.20856457519e-05
3.20827291434e-05
3.20909413537e-05
3.20750912791e-05
3.14482591307e-05
3.06889374659e-05
3.65473472933e-05
0.000223654414441
0.00989655909668
3.20855395899e-05
3.20867934536e-05
3.20818167683e-05
3.20931398788e-05
3.20748262244e-05
3.14563664583e-05
3.06999241843e-05
3.68158299568e-05
0.000230356672759
0.0103179717886
3.20862757984e-05
3.2086132575e-05
3.20761288936e-05
3.20733747559e-05
3.20529422742e-05
3.15323271186e-05
3.09024138601e-05
3.71132138908e-05
0.000232492350848
0.00981956938652
3.20876725038e-05
3.20861557208e-05
3.20722304831e-05
3.20608918472e-05
3.20732945648e-05
3.15959179598e-05
3.10117682277e-05
3.72686907278e-05
0.000239682018949
0.0105833640518
)
;
    }
    atmosphere
    {
        type            calculated;
        value           nonuniform List<scalar> 
16
(
0.0128560891961
0.0151625052024
0.0148436543848
0.0149584701061
0.0122034394787
0.0116704940389
0.0111387778363
0.0106662304263
0.0102909074249
0.0100738597974
0.0102826785396
0.00853359114148
0.00989655909668
0.0103179717886
0.00981956938652
0.0105833640518
)
;
    }
    floatingObject
    {
        type            calculated;
        value           nonuniform List<scalar> 0();
    }
    procBoundary1to0
    {
        type            processor;
        value           nonuniform List<scalar> 10(3.20879610273e-05 3.20857566758e-05 3.20692471427e-05 3.2038458077e-05 3.20557362764e-05 3.15639307574e-05 3.0902461572e-05 3.73515421823e-05 0.000261387974242 0.0112276370034);
    }
    procBoundary1to2
    {
        type            processor;
        value           nonuniform List<scalar> 
18
(
3.26424400216e-05
3.21753629513e-05
3.20938298626e-05
3.20796460725e-05
3.20796460725e-05
3.20752654539e-05
3.20752654539e-05
3.20756715076e-05
3.20759919194e-05
3.20754658868e-05
3.20771691418e-05
3.20776820885e-05
3.20793162182e-05
3.20800088049e-05
3.20811545985e-05
3.2083198084e-05
3.20842462423e-05
3.20861185561e-05
)
;
    }
}


// ************************************************************************* //
