/*--------------------------------*- C++ -*----------------------------------*\
| =========                 |                                                 |
| \\      /  F ield         | OpenFOAM: The Open Source CFD Toolbox           |
|  \\    /   O peration     | Version:  v2012                                 |
|   \\  /    A nd           | Website:  www.openfoam.com                      |
|    \\/     M anipulation  |                                                 |
\*---------------------------------------------------------------------------*/
FoamFile
{
    version     2.0;
    format      ascii;
    class       volScalarField;
    location    "0.7";
    object      epsilon;
}
// * * * * * * * * * * * * * * * * * * * * * * * * * * * * * * * * * * * * * //

dimensions      [0 2 -3 0 0 0 0];


internalField   nonuniform List<scalar> 
166
(
0.0395261960165
0.0395563363466
0.0395891031587
0.0396241985212
0.0396616537009
0.0397041706862
0.0397714691727
0.0399748560449
0.0408307354009
0.0442927183446
0.0563404985351
0.0917222200086
0.179129538853
0.0395419936005
0.0395665807168
0.0395938180476
0.0396240570578
0.0396570544249
0.0396925380111
0.0397306031582
0.0397742592678
0.0398449201314
0.0400614381604
0.0409658036898
0.0445706233236
0.0569180919689
0.0926251743053
0.179689389952
0.0378558164193
0.0372354283788
0.0395837455749
0.0396110355681
0.0396358111009
0.0396633451211
0.0396940078265
0.039727583075
0.0397638233678
0.0398028889861
0.039848130391
0.0399228074855
0.0401539019563
0.0411104937999
0.0448661894072
0.0575243185303
0.093559936803
0.180281282478
0.0379380342027
0.0373017488622
0.0392105370876
0.0395821682386
0.0396536060435
0.0396812590471
0.0397065022153
0.0397346447649
0.0397660778222
0.0398006065926
0.0398380065705
0.0398785052722
0.0399258247343
0.0400052195201
0.0402523528216
0.0412647430072
0.0451785424268
0.0581564664599
0.0945207106423
0.180904097834
0.0380188865202
0.0373678203192
0.0392794920766
0.03965216811
0.0397241953221
0.0397524663216
0.0397784728568
0.0398075590772
0.0398401361994
0.0398760275688
0.0399150301279
0.0399574413922
0.0400073822107
0.0400922377928
0.0403568399596
0.0414282382295
0.0455059317104
0.058809157858
0.0954988675444
0.18154976546
0.0380977409111
0.037433282637
0.0393483701498
0.039722393337
0.0397952571555
0.0398244191237
0.0398515060986
0.0398818983601
0.0399160259778
0.0399537283739
0.0399948228131
0.0400396791752
0.040092839524
0.0401839314994
0.0404673409273
0.0416004119671
0.0458462378769
0.0594775378757
0.0964840884336
0.182185929965
0.0381738617003
0.0374977008963
0.0394168074631
0.03979251442
0.0398664832097
0.0398968302073
0.0399253403912
0.0399574329212
0.0399935559143
0.0400335635008
0.0400772925213
0.0401251865932
0.0401822237515
0.0402803487382
0.0405837402364
0.0417803281162
0.0461956977753
0.0601495825356
0.0974426116885
0.182642841213
0.0382464020634
0.0375605636488
0.0394843720399
0.0398621382096
0.0399375048394
0.0399693560017
0.0399996624725
0.0400338865474
0.0400724941441
0.0401153530745
0.040162319569
0.040213910734
0.040275544139
0.0403815035441
0.0407058064838
0.041966758813
0.0465505903689
0.0608157172365
0.0983097662504
0.182247092213
0.0383143961174
0.0376212761058
0.0395505558108
0.0399308001402
0.0400078857973
0.0400415892844
0.0400740999215
0.0401109293039
0.0401525604809
0.0401988748461
0.0402497486599
0.0403057700942
0.04037278329
0.0404873538979
0.0408330839987
0.0421575445597
0.0469034737959
0.0614489906553
0.0989995278189
0.181738662439
)
;

boundaryField
{
    back
    {
        lowReCorrection 0;
        blending        stepwise;
        n               2;
        type            epsilonWallFunction;
        value           nonuniform List<scalar> 
166
(
0.0395261960165
0.0395563363466
0.0395891031587
0.0396241985212
0.0396616537009
0.0397041706862
0.0397714691727
0.0399748560449
0.0408307354009
0.0442927183446
0.0563404985351
0.0917222200086
0.179129538853
0.0395419936005
0.0395665807168
0.0395938180476
0.0396240570578
0.0396570544249
0.0396925380111
0.0397306031582
0.0397742592678
0.0398449201314
0.0400614381604
0.0409658036898
0.0445706233236
0.0569180919689
0.0926251743053
0.179689389952
0.0378558164193
0.0372354283788
0.0395837455749
0.0396110355681
0.0396358111009
0.0396633451211
0.0396940078265
0.039727583075
0.0397638233678
0.0398028889861
0.039848130391
0.0399228074855
0.0401539019563
0.0411104937999
0.0448661894072
0.0575243185303
0.093559936803
0.180281282478
0.0379380342027
0.0373017488622
0.0392105370876
0.0395821682386
0.0396536060435
0.0396812590471
0.0397065022153
0.0397346447649
0.0397660778222
0.0398006065926
0.0398380065705
0.0398785052722
0.0399258247343
0.0400052195201
0.0402523528216
0.0412647430072
0.0451785424268
0.0581564664599
0.0945207106423
0.180904097834
0.0380188865202
0.0373678203192
0.0392794920766
0.03965216811
0.0397241953221
0.0397524663216
0.0397784728568
0.0398075590772
0.0398401361994
0.0398760275688
0.0399150301279
0.0399574413922
0.0400073822107
0.0400922377928
0.0403568399596
0.0414282382295
0.0455059317104
0.058809157858
0.0954988675444
0.18154976546
0.0380977409111
0.037433282637
0.0393483701498
0.039722393337
0.0397952571555
0.0398244191237
0.0398515060986
0.0398818983601
0.0399160259778
0.0399537283739
0.0399948228131
0.0400396791752
0.040092839524
0.0401839314994
0.0404673409273
0.0416004119671
0.0458462378769
0.0594775378757
0.0964840884336
0.182185929965
0.0381738617003
0.0374977008963
0.0394168074631
0.03979251442
0.0398664832097
0.0398968302073
0.0399253403912
0.0399574329212
0.0399935559143
0.0400335635008
0.0400772925213
0.0401251865932
0.0401822237515
0.0402803487382
0.0405837402364
0.0417803281162
0.0461956977753
0.0601495825356
0.0974426116885
0.182642841213
0.0382464020634
0.0375605636488
0.0394843720399
0.0398621382096
0.0399375048394
0.0399693560017
0.0399996624725
0.0400338865474
0.0400724941441
0.0401153530745
0.040162319569
0.040213910734
0.040275544139
0.0403815035441
0.0407058064838
0.041966758813
0.0465505903689
0.0608157172365
0.0983097662504
0.182247092213
0.0383143961174
0.0376212761058
0.0395505558108
0.0399308001402
0.0400078857973
0.0400415892844
0.0400740999215
0.0401109293039
0.0401525604809
0.0401988748461
0.0402497486599
0.0403057700942
0.04037278329
0.0404873538979
0.0408330839987
0.0421575445597
0.0469034737959
0.0614489906553
0.0989995278189
0.181738662439
)
;
    }
    sides
    {
        lowReCorrection 0;
        blending        stepwise;
        n               2;
        type            epsilonWallFunction;
        value           nonuniform List<scalar> 0();
    }
    bottom
    {
        lowReCorrection 0;
        blending        stepwise;
        n               2;
        type            epsilonWallFunction;
        value           nonuniform List<scalar> 7(0.0378558164193 0.0379380342027 0.0380188865202 0.0380977409111 0.0381738617003 0.0382464020634 0.0383143961174);
    }
    front
    {
        lowReCorrection 0;
        blending        stepwise;
        n               2;
        type            epsilonWallFunction;
        value           nonuniform List<scalar> 
166
(
0.0395261960165
0.0395563363466
0.0395891031587
0.0396241985212
0.0396616537009
0.0397041706862
0.0397714691727
0.0399748560449
0.0408307354009
0.0442927183446
0.0563404985351
0.0917222200086
0.179129538853
0.0395419936005
0.0395665807168
0.0395938180476
0.0396240570578
0.0396570544249
0.0396925380111
0.0397306031582
0.0397742592678
0.0398449201314
0.0400614381604
0.0409658036898
0.0445706233236
0.0569180919689
0.0926251743053
0.179689389952
0.0378558164193
0.0372354283788
0.0395837455749
0.0396110355681
0.0396358111009
0.0396633451211
0.0396940078265
0.039727583075
0.0397638233678
0.0398028889861
0.039848130391
0.0399228074855
0.0401539019563
0.0411104937999
0.0448661894072
0.0575243185303
0.093559936803
0.180281282478
0.0379380342027
0.0373017488622
0.0392105370876
0.0395821682386
0.0396536060435
0.0396812590471
0.0397065022153
0.0397346447649
0.0397660778222
0.0398006065926
0.0398380065705
0.0398785052722
0.0399258247343
0.0400052195201
0.0402523528216
0.0412647430072
0.0451785424268
0.0581564664599
0.0945207106423
0.180904097834
0.0380188865202
0.0373678203192
0.0392794920766
0.03965216811
0.0397241953221
0.0397524663216
0.0397784728568
0.0398075590772
0.0398401361994
0.0398760275688
0.0399150301279
0.0399574413922
0.0400073822107
0.0400922377928
0.0403568399596
0.0414282382295
0.0455059317104
0.058809157858
0.0954988675444
0.18154976546
0.0380977409111
0.037433282637
0.0393483701498
0.039722393337
0.0397952571555
0.0398244191237
0.0398515060986
0.0398818983601
0.0399160259778
0.0399537283739
0.0399948228131
0.0400396791752
0.040092839524
0.0401839314994
0.0404673409273
0.0416004119671
0.0458462378769
0.0594775378757
0.0964840884336
0.182185929965
0.0381738617003
0.0374977008963
0.0394168074631
0.03979251442
0.0398664832097
0.0398968302073
0.0399253403912
0.0399574329212
0.0399935559143
0.0400335635008
0.0400772925213
0.0401251865932
0.0401822237515
0.0402803487382
0.0405837402364
0.0417803281162
0.0461956977753
0.0601495825356
0.0974426116885
0.182642841213
0.0382464020634
0.0375605636488
0.0394843720399
0.0398621382096
0.0399375048394
0.0399693560017
0.0399996624725
0.0400338865474
0.0400724941441
0.0401153530745
0.040162319569
0.040213910734
0.040275544139
0.0403815035441
0.0407058064838
0.041966758813
0.0465505903689
0.0608157172365
0.0983097662504
0.182247092213
0.0383143961174
0.0376212761058
0.0395505558108
0.0399308001402
0.0400078857973
0.0400415892844
0.0400740999215
0.0401109293039
0.0401525604809
0.0401988748461
0.0402497486599
0.0403057700942
0.04037278329
0.0404873538979
0.0408330839987
0.0421575445597
0.0469034737959
0.0614489906553
0.0989995278189
0.181738662439
)
;
    }
    atmosphere
    {
        type            inletOutlet;
        inletValue      uniform 0.1;
        value           uniform 0.1;
    }
    floatingObject
    {
        lowReCorrection 0;
        blending        stepwise;
        n               2;
        type            epsilonWallFunction;
        value           nonuniform List<scalar> 0();
    }
    procBoundary0to1
    {
        type            processor;
        value           nonuniform List<scalar> 10(0.0395587857117 0.0395959780907 0.0396377507497 0.039702290346 0.0398939588773 0.0407051838245 0.0440329384081 0.0557938918938 0.0908576359606 0.178603444722);
    }
    procBoundary0to2
    {
        type            processor;
        value           nonuniform List<scalar> 
14
(
0.0394605655761
0.0394909013809
0.0395237521682
0.0394742744481
0.039498947062
0.039498947062
0.0377727648418
0.03716915983
0.0395148101208
0.0395148101208
0.0391417860365
0.0391417860365
0.0395126550022
0.0395126550022
)
;
    }
    procBoundary0to4
    {
        type            processor;
        value           nonuniform List<scalar> 8(0.0383767546538 0.0376791531508 0.0396147652982 0.0399979534544 0.0400771100721 0.0401130461708 0.040148208031 0.040188163848);
    }
    procBoundary0to5
    {
        type            processor;
        value           nonuniform List<scalar> 
12
(
0.0402334151241
0.0402838527462
0.0403393789752
0.0404006457152
0.0404738889143
0.0405977967454
0.0409649388656
0.0423500864008
0.0472464152202
0.0620329732968
0.0995691603448
0.181764353192
)
;
    }
}


// ************************************************************************* //
