/*--------------------------------*- C++ -*----------------------------------*\
| =========                 |                                                 |
| \\      /  F ield         | OpenFOAM: The Open Source CFD Toolbox           |
|  \\    /   O peration     | Version:  v2012                                 |
|   \\  /    A nd           | Website:  www.openfoam.com                      |
|    \\/     M anipulation  |                                                 |
\*---------------------------------------------------------------------------*/
FoamFile
{
    version     2.0;
    format      ascii;
    class       volScalarField;
    location    "0.7";
    object      k_0;
}
// * * * * * * * * * * * * * * * * * * * * * * * * * * * * * * * * * * * * * //

dimensions      [0 2 -2 0 0 0 0];


internalField   nonuniform List<scalar> 
166
(
0.0289715234344
0.0289862495389
0.0290022546597
0.0290193922764
0.0290376766486
0.0290584250522
0.0290912517629
0.0291903470406
0.0296055263939
0.031256202302
0.0366940044841
0.0507805839943
0.0793401087152
0.028979242359
0.0289912539298
0.0290045573084
0.0290193232078
0.0290354317452
0.0290527490115
0.0290713204364
0.0290926123096
0.0291270583885
0.0292324810349
0.0296707806087
0.0313868061043
0.0369443651466
0.0511133106527
0.0795053356669
0.0232368491958
0.0278410465025
0.0289996380219
0.0290129651929
0.0290250617673
0.0290385022078
0.029053466223
0.029069847199
0.0290875232414
0.0291065713108
0.0291286228566
0.0291650036864
0.0292774437653
0.0297406038095
0.0315254123827
0.0372062278156
0.0514566212167
0.079679832398
0.02327048192
0.0278740953856
0.0288170716759
0.0289988676302
0.0290337485357
0.0290472450311
0.0290595626304
0.0290732919284
0.0290886226641
0.0291054586063
0.0291236890336
0.0291434234856
0.0291664731382
0.0292051264678
0.0293252799316
0.0298149498004
0.0316715605538
0.0374783095143
0.0518082955697
0.0798632394703
0.0233035323889
0.0279070007031
0.0288508465921
0.0290330466432
0.0290681945628
0.0290819844704
0.0290946669407
0.0291088479912
0.0291247269385
0.0291422163273
0.0291612158094
0.0291818687666
0.0292061790152
0.0292474619306
0.029376006415
0.029893651184
0.0318243830507
0.0377582009019
0.0521651107466
0.08005315403
0.0233357435939
0.0279395835325
0.028884564109
0.0290673154873
0.0291028505839
0.0291170665625
0.0291302679079
0.0291450765866
0.0291617008409
0.029180060935
0.0292000662898
0.0292218951824
0.0292477545736
0.0292920389216
0.0294296048895
0.0299764182916
0.0319828470827
0.0380437489812
0.0525232733949
0.080240053305
0.0233668170762
0.0279716281622
0.0289180463832
0.029101513367
0.0291375659999
0.0291523507753
0.0291662372574
0.0291818646422
0.029199449648
0.0292189195317
0.0292401930519
0.0292634839321
0.0292912090083
0.0293388757075
0.0294860116195
0.0300627854121
0.0321451660563
0.0383297862741
0.052870562343
0.0803741554113
0.0233964097684
0.0280028813246
0.0289510826764
0.0291354488492
0.0291721612005
0.0291876694933
0.0292024218534
0.0292190767174
0.0292378590906
0.0292587026497
0.0292815353158
0.0293066060005
0.0293365426535
0.0293879737187
0.0295451066314
0.0301521490975
0.0323095900856
0.0386122587632
0.0531837669833
0.0802580107384
0.0234241308206
0.0280330488883
0.0289834255474
0.0291688961652
0.0292064241001
0.0292228245366
0.0292386401613
0.0292565515835
0.0292767916878
0.0292993004306
0.0293240151013
0.0293512184602
0.0293837427416
0.0294393069566
0.029606661663
0.0302434634387
0.0324726694646
0.0388798417372
0.0534322424972
0.0801086729778
)
;

boundaryField
{
    back
    {
        type            kqRWallFunction;
        value           nonuniform List<scalar> 
166
(
0.0289715234344
0.0289862495389
0.0290022546597
0.0290193922764
0.0290376766486
0.0290584250522
0.0290912517629
0.0291903470406
0.0296055263939
0.031256202302
0.0366940044841
0.0507805839943
0.0793401087152
0.028979242359
0.0289912539298
0.0290045573084
0.0290193232078
0.0290354317452
0.0290527490115
0.0290713204364
0.0290926123096
0.0291270583885
0.0292324810349
0.0296707806087
0.0313868061043
0.0369443651466
0.0511133106527
0.0795053356669
0.0232368491958
0.0278410465025
0.0289996380219
0.0290129651929
0.0290250617673
0.0290385022078
0.029053466223
0.029069847199
0.0290875232414
0.0291065713108
0.0291286228566
0.0291650036864
0.0292774437653
0.0297406038095
0.0315254123827
0.0372062278156
0.0514566212167
0.079679832398
0.02327048192
0.0278740953856
0.0288170716759
0.0289988676302
0.0290337485357
0.0290472450311
0.0290595626304
0.0290732919284
0.0290886226641
0.0291054586063
0.0291236890336
0.0291434234856
0.0291664731382
0.0292051264678
0.0293252799316
0.0298149498004
0.0316715605538
0.0374783095143
0.0518082955697
0.0798632394703
0.0233035323889
0.0279070007031
0.0288508465921
0.0290330466432
0.0290681945628
0.0290819844704
0.0290946669407
0.0291088479912
0.0291247269385
0.0291422163273
0.0291612158094
0.0291818687666
0.0292061790152
0.0292474619306
0.029376006415
0.029893651184
0.0318243830507
0.0377582009019
0.0521651107466
0.08005315403
0.0233357435939
0.0279395835325
0.028884564109
0.0290673154873
0.0291028505839
0.0291170665625
0.0291302679079
0.0291450765866
0.0291617008409
0.029180060935
0.0292000662898
0.0292218951824
0.0292477545736
0.0292920389216
0.0294296048895
0.0299764182916
0.0319828470827
0.0380437489812
0.0525232733949
0.080240053305
0.0233668170762
0.0279716281622
0.0289180463832
0.029101513367
0.0291375659999
0.0291523507753
0.0291662372574
0.0291818646422
0.029199449648
0.0292189195317
0.0292401930519
0.0292634839321
0.0292912090083
0.0293388757075
0.0294860116195
0.0300627854121
0.0321451660563
0.0383297862741
0.052870562343
0.0803741554113
0.0233964097684
0.0280028813246
0.0289510826764
0.0291354488492
0.0291721612005
0.0291876694933
0.0292024218534
0.0292190767174
0.0292378590906
0.0292587026497
0.0292815353158
0.0293066060005
0.0293365426535
0.0293879737187
0.0295451066314
0.0301521490975
0.0323095900856
0.0386122587632
0.0531837669833
0.0802580107384
0.0234241308206
0.0280330488883
0.0289834255474
0.0291688961652
0.0292064241001
0.0292228245366
0.0292386401613
0.0292565515835
0.0292767916878
0.0292993004306
0.0293240151013
0.0293512184602
0.0293837427416
0.0294393069566
0.029606661663
0.0302434634387
0.0324726694646
0.0388798417372
0.0534322424972
0.0801086729778
)
;
    }
    sides
    {
        type            kqRWallFunction;
        value           nonuniform List<scalar> 0();
    }
    bottom
    {
        type            kqRWallFunction;
        value           nonuniform List<scalar> 7(0.0232368491958 0.02327048192 0.0233035323889 0.0233357435939 0.0233668170762 0.0233964097684 0.0234241308206);
    }
    front
    {
        type            kqRWallFunction;
        value           nonuniform List<scalar> 
166
(
0.0289715234344
0.0289862495389
0.0290022546597
0.0290193922764
0.0290376766486
0.0290584250522
0.0290912517629
0.0291903470406
0.0296055263939
0.031256202302
0.0366940044841
0.0507805839943
0.0793401087152
0.028979242359
0.0289912539298
0.0290045573084
0.0290193232078
0.0290354317452
0.0290527490115
0.0290713204364
0.0290926123096
0.0291270583885
0.0292324810349
0.0296707806087
0.0313868061043
0.0369443651466
0.0511133106527
0.0795053356669
0.0232368491958
0.0278410465025
0.0289996380219
0.0290129651929
0.0290250617673
0.0290385022078
0.029053466223
0.029069847199
0.0290875232414
0.0291065713108
0.0291286228566
0.0291650036864
0.0292774437653
0.0297406038095
0.0315254123827
0.0372062278156
0.0514566212167
0.079679832398
0.02327048192
0.0278740953856
0.0288170716759
0.0289988676302
0.0290337485357
0.0290472450311
0.0290595626304
0.0290732919284
0.0290886226641
0.0291054586063
0.0291236890336
0.0291434234856
0.0291664731382
0.0292051264678
0.0293252799316
0.0298149498004
0.0316715605538
0.0374783095143
0.0518082955697
0.0798632394703
0.0233035323889
0.0279070007031
0.0288508465921
0.0290330466432
0.0290681945628
0.0290819844704
0.0290946669407
0.0291088479912
0.0291247269385
0.0291422163273
0.0291612158094
0.0291818687666
0.0292061790152
0.0292474619306
0.029376006415
0.029893651184
0.0318243830507
0.0377582009019
0.0521651107466
0.08005315403
0.0233357435939
0.0279395835325
0.028884564109
0.0290673154873
0.0291028505839
0.0291170665625
0.0291302679079
0.0291450765866
0.0291617008409
0.029180060935
0.0292000662898
0.0292218951824
0.0292477545736
0.0292920389216
0.0294296048895
0.0299764182916
0.0319828470827
0.0380437489812
0.0525232733949
0.080240053305
0.0233668170762
0.0279716281622
0.0289180463832
0.029101513367
0.0291375659999
0.0291523507753
0.0291662372574
0.0291818646422
0.029199449648
0.0292189195317
0.0292401930519
0.0292634839321
0.0292912090083
0.0293388757075
0.0294860116195
0.0300627854121
0.0321451660563
0.0383297862741
0.052870562343
0.0803741554113
0.0233964097684
0.0280028813246
0.0289510826764
0.0291354488492
0.0291721612005
0.0291876694933
0.0292024218534
0.0292190767174
0.0292378590906
0.0292587026497
0.0292815353158
0.0293066060005
0.0293365426535
0.0293879737187
0.0295451066314
0.0301521490975
0.0323095900856
0.0386122587632
0.0531837669833
0.0802580107384
0.0234241308206
0.0280330488883
0.0289834255474
0.0291688961652
0.0292064241001
0.0292228245366
0.0292386401613
0.0292565515835
0.0292767916878
0.0292993004306
0.0293240151013
0.0293512184602
0.0293837427416
0.0294393069566
0.029606661663
0.0302434634387
0.0324726694646
0.0388798417372
0.0534322424972
0.0801086729778
)
;
    }
    atmosphere
    {
        type            inletOutlet;
        inletValue      uniform 0.1;
        value           uniform 0.1;
    }
    floatingObject
    {
        type            kqRWallFunction;
        value           nonuniform List<scalar> 0();
    }
    procBoundary0to1
    {
        type            processor;
        value           nonuniform List<scalar> 10(0.0289874460969 0.0290056121957 0.0290260086882 0.0290575075976 0.0291509520506 0.0295448053381 0.0311338692948 0.0364562860914 0.0504609715269 0.0791846873963);
    }
    procBoundary0to2
    {
        type            processor;
        value           nonuniform List<scalar> 
14
(
0.0289394444485
0.0289542742561
0.0289703292434
0.0289461465685
0.0289582067897
0.0289582067897
0.023202850663
0.0278080038955
0.0289659594858
0.0289659594858
0.028783376934
0.028783376934
0.0289649062833
0.0289649062833
)
;
    }
    procBoundary0to4
    {
        type            processor;
        value           nonuniform List<scalar> 8(0.0234495398701 0.0280617924518 0.0290147863829 0.0292015900494 0.0292401043092 0.0292575809236 0.029274675956 0.0292940956632);
    }
    procBoundary0to5
    {
        type            processor;
        value           nonuniform List<scalar> 
12
(
0.0293160813499
0.029340577152
0.0293675324944
0.0293972602342
0.0294327794573
0.0294928197068
0.029670363023
0.0303354787367
0.032630762897
0.0391257838353
0.0536370086548
0.0801162222928
)
;
    }
}


// ************************************************************************* //
