/*--------------------------------*- C++ -*----------------------------------*\
| =========                 |                                                 |
| \\      /  F ield         | OpenFOAM: The Open Source CFD Toolbox           |
|  \\    /   O peration     | Version:  v2012                                 |
|   \\  /    A nd           | Website:  www.openfoam.com                      |
|    \\/     M anipulation  |                                                 |
\*---------------------------------------------------------------------------*/
FoamFile
{
    version     2.0;
    format      ascii;
    class       surfaceVectorField;
    location    "0.7";
    object      Uf_0;
}
// * * * * * * * * * * * * * * * * * * * * * * * * * * * * * * * * * * * * * //

dimensions      [0 1 -1 0 0 0 0];


internalField   nonuniform List<vector> 
302
(
(0.108125513343 -0.0489614624486 -3.40265452334e-24)
(0.110980380014 -0.0452226797672 -1.35362586983e-23)
(0.108976517509 -0.0557466186431 -3.25600528364e-24)
(0.111927984378 -0.0518929813215 -4.10856916909e-24)
(0.109826865247 -0.0627472007181 -2.83891890588e-24)
(0.112901537267 -0.0587859712467 -7.33801371151e-24)
(0.110641328393 -0.069979625691 -6.27272501502e-24)
(0.113866583155 -0.0659214656436 9.65443616234e-25)
(0.11138021569 -0.0774570999712 -6.78627189662e-24)
(0.114784053678 -0.0733173958021 -1.78584532254e-23)
(0.111998763373 -0.0851889209993 8.15502599433e-24)
(0.115609833478 -0.0809918009436 3.01446505902e-24)
(0.112444092565 -0.0931792747162 3.07833519274e-23)
(0.116293631258 -0.0889375521501 2.47692041924e-23)
(0.112628231767 -0.101426375597 2.13821552428e-22)
(0.11677390175 -0.0971001960556 2.94905141085e-23)
(0.112354495727 -0.109918999807 7.69260580124e-23)
(0.116929299548 -0.105707001684 2.28397139465e-22)
(0.111173574302 -0.118621448964 -9.9655377907e-23)
(0.116475198279 -0.115236933149 -1.5771249368e-22)
(0.108189924133 -0.127434025833 1.32233095309e-21)
(0.114753726738 -0.123220731562 -7.63373846464e-22)
(0.116954834749 -0.13655624857 1.42429547031e-21)
(0.110801249178 -0.125697131612 -1.94554978719e-21)
(0.135981416964 -0.15300205614 -5.77065518781e-22)
(0.112837354621 -0.0351572818628 -1.45547402348e-23)
(0.115437142867 -0.0316251901254 -7.35466529871e-24)
(0.113776122022 -0.0414900937428 -1.87003595945e-23)
(0.116421474784 -0.0378133496405 -9.65681071355e-24)
(0.11479583378 -0.0480238096122 -1.42421733441e-23)
(0.117514074775 -0.0442021957325 -1.33692964291e-23)
(0.115867943526 -0.0547837534582 -8.19057759696e-24)
(0.118687896886 -0.0508199373793 -1.55001987483e-23)
(0.116959270351 -0.0617933890729 -3.5336511894e-24)
(0.119911132905 -0.0576935360489 -4.13351964937e-24)
(0.118031803184 -0.0690737853338 -1.06202845941e-23)
(0.121146931317 -0.0648476837436 -2.2930103616e-24)
(0.11904234176 -0.0766429592048 -8.05771626971e-24)
(0.122353178003 -0.0723055504139 -1.35910201632e-23)
(0.119941601496 -0.0845150123137 1.9628643257e-23)
(0.123481837844 -0.0800906492389 8.97021074608e-24)
(0.120671132741 -0.0926988435677 2.34763663735e-23)
(0.124477421124 -0.0881991485959 2.68419602297e-23)
(0.121135059759 -0.101197297386 4.40661011455e-23)
(0.125272321691 -0.0965828743359 2.58204830982e-23)
(0.121119061671 -0.110003170611 -6.24141222749e-24)
(0.125735150721 -0.105487992529 1.37088566962e-22)
(0.120131493783 -0.119082695294 -8.21430962237e-22)
(0.125554711292 -0.11535049028 3.95161323426e-22)
(0.117409553459 -0.128351641329 -4.03125458674e-21)
(0.124022672096 -0.123787659982 -3.50834514415e-22)
(0.129702804272 -0.138086413581 -3.94691077628e-21)
(0.120536016398 -0.127107052535 -8.67896420088e-21)
(0.153132034097 -0.156095341794 -2.86465790571e-21)
(0.11425152265 -0.00537899268009 5.25290737669e-22)
(0.115587611298 -0.00331954799772 -1.76856473088e-22)
(0.118192196374 -0.0077373033224 1.3514891735e-21)
(0.11802584856 -0.0281529358341 -1.26626962728e-23)
(0.120447910748 -0.0247614274514 -2.80826920388e-23)
(0.119029560123 -0.034182127813 -2.45673577749e-24)
(0.121466307351 -0.0306211598117 -8.71824729554e-24)
(0.12016753667 -0.0404079389101 -4.32574754813e-24)
(0.122647262445 -0.0366748040027 -1.17455880315e-23)
(0.121414649382 -0.0468615431757 -1.46273218333e-23)
(0.123967653928 -0.0429543479556 1.08609359737e-23)
(0.122740869517 -0.0535729963355 -1.14431408007e-23)
(0.125399318361 -0.0494927957564 -2.7028958689e-23)
(0.124111041472 -0.0605707983332 -2.89287882157e-24)
(0.126908895739 -0.05632225205 -1.18215900697e-23)
(0.125484574848 -0.0678813331676 -5.26374593066e-24)
(0.128457420945 -0.0634728907259 8.32290901124e-24)
(0.12681490744 -0.0755282051291 3.43690685264e-24)
(0.130000002485 -0.0709738860122 -2.05461487193e-23)
(0.128048277117 -0.0835312762923 1.61835277187e-23)
(0.131484863277 -0.0788550712676 1.92400543298e-23)
(0.129120700638 -0.0919052946814 2.91860769544e-23)
(0.132851400034 -0.0871169143431 3.11867040498e-23)
(0.129928509381 -0.100659234525 1.18842948915e-22)
(0.134026231573 -0.0957199511683 7.8994004498e-23)
(0.130238794778 -0.109792928457 5.38491302616e-22)
(0.134868826184 -0.104929588604 4.16511578977e-22)
(0.129514679699 -0.119279002713 8.65757771248e-22)
(0.135040777794 -0.115140307248 -5.47304811418e-22)
(0.127182928897 -0.129042386173 -4.99854412855e-21)
(0.133786056051 -0.124047212003 -4.52540214077e-21)
(0.143779700991 -0.139423612228 -7.59671133031e-21)
(0.130917235313 -0.128422540575 -1.07920206559e-20)
(0.172451920158 -0.159103736513 -5.6914487954e-21)
(0.119618051922 -0.00516299934661 6.49341962741e-22)
(0.120750571705 -0.00319698990819 -6.5382720088e-22)
(0.121314891986 -0.0104967609616 8.23305433127e-22)
(0.123525915233 -0.00738271687329 5.56443129956e-22)
(0.122068085185 -0.0159218014402 -1.19258514859e-22)
(0.124355177596 -0.0128182075887 -2.11521998617e-22)
(0.122887720472 -0.0214592083997 -9.39187839301e-23)
(0.125145236242 -0.0182589591122 -1.73815302355e-22)
(0.123894471745 -0.0271436868972 -2.41382430615e-23)
(0.126132357981 -0.0237564981625 -2.95729004888e-23)
(0.125088773558 -0.0330116623526 -1.80070995496e-23)
(0.127334256653 -0.0294266286443 -4.74112264003e-24)
(0.12645106357 -0.0390995120971 3.44109549028e-24)
(0.128735087119 -0.0353119910809 -1.90831702766e-23)
(0.127955449506 -0.0454431854148 -1.54070088205e-24)
(0.13031130004 -0.0414492487821 1.55750320814e-23)
(0.129570760928 -0.0520778962104 -2.7407407958e-23)
(0.132033996296 -0.0478765681869 -2.60952002186e-23)
(0.131260217916 -0.05903771048 -6.05802236854e-25)
(0.133868671192 -0.0546316675613 -2.15630701973e-23)
(0.132981002689 -0.0663550177742 -6.95949377745e-24)
(0.135774684176 -0.0617508205105 2.00155414259e-23)
(0.134683496919 -0.0740598560405 -4.74300124214e-24)
(0.137704795317 -0.0692700045668 -2.03579033864e-23)
(0.136309684529 -0.0821788757944 3.42432306609e-23)
(0.139603839827 -0.0772262637122 2.48051237159e-23)
(0.137790387929 -0.0907339061109 8.09946315934e-23)
(0.141406394635 -0.0856254490069 2.06912150565e-23)
(0.139014979285 -0.0997416849451 3.7666263456e-22)
(0.143033985375 -0.0944390845878 1.0483408979e-22)
(0.139732082453 -0.109210985122 -6.69284535057e-22)
(0.144338113319 -0.103954822556 4.78812018381e-22)
(0.139384575445 -0.119121861837 -5.93846472343e-21)
(0.144951651249 -0.114527339782 -2.04736664499e-21)
(0.137552762057 -0.129461548634 -1.03188786681e-20)
(0.144125746279 -0.123865789231 -8.22451319e-21)
(0.159287304964 -0.140524975258 -8.88675812101e-21)
(0.141980651777 -0.129608891504 -7.4567017094e-21)
(0.194129863985 -0.161726295986 -5.43364003807e-21)
(0.124753229361 -0.00491096642456 -7.46726033665e-22)
(0.125661504976 -0.0030521159892 -9.54915332246e-22)
(0.12658076948 -0.00999528372448 -4.78384301788e-22)
(0.128610197539 -0.0069717938467 -5.05362231117e-22)
(0.127439884578 -0.0151780627384 -2.66078786112e-22)
(0.129537922006 -0.0121452938925 -2.63314062205e-22)
(0.128395330842 -0.0204841355164 -1.09469418913e-22)
(0.13045127762 -0.0173265000298 -1.92638199841e-22)
(0.129575384225 -0.0259521316401 -1.01757800673e-23)
(0.131600326669 -0.0225785307118 -3.20797148645e-23)
(0.130981471532 -0.0316227276687 -5.81719336702e-24)
(0.133004827883 -0.0280204234046 -9.2172810479e-24)
(0.132593989151 -0.0375369263474 -6.94923368547e-24)
(0.134649261103 -0.0336990224204 -1.01822570616e-23)
(0.134386680603 -0.0437357299599 -8.97946725516e-24)
(0.136510076453 -0.0396558838292 5.90133425579e-24)
(0.136327688448 -0.0502599000474 -2.02508624579e-23)
(0.138558134388 -0.0459346459626 -2.95807497815e-23)
(0.138379104183 -0.0571496066857 -9.41726534492e-25)
(0.140758340484 -0.052579083432 -1.08010057369e-23)
(0.140496400059 -0.0644439395104 6.61713181699e-24)
(0.143068975447 -0.0596321780262 1.38993728086e-23)
(0.142627385699 -0.0721802552266 9.1902215717e-24)
(0.14544106858 -0.0671375216457 -2.84963298067e-23)
(0.144710204618 -0.080393057216 1.12531081115e-23)
(0.147816602815 -0.0751402881427 3.62933683188e-23)
(0.146671148416 -0.0891124841371 4.45306732528e-23)
(0.15012579095 -0.0836527846851 5.27072288368e-24)
(0.148393364195 -0.0983649202534 2.06983473611e-22)
(0.152286402822 -0.0926603689625 9.92024381058e-23)
(0.149605968303 -0.108169283403 -8.9927009155e-22)
(0.154142470173 -0.1024782133 2.73828106976e-22)
(0.149756270103 -0.118513233572 -4.33341511155e-21)
(0.155295603429 -0.113404770779 -1.90218633736e-21)
(0.148571363462 -0.129438017823 -5.36233623125e-21)
(0.155050533937 -0.123169649695 -5.04417008607e-21)
(0.176303884015 -0.14123052093 -4.00358362645e-21)
(0.153773146862 -0.13062877304 1.31455029024e-21)
(0.217970928649 -0.163103779411 -1.23015829865e-21)
(0.129619079157 -0.00461946270637 -7.13551529698e-22)
(0.130280937909 -0.00288260603827 -9.18236818481e-22)
(0.131581872574 -0.0094141153482 -2.90291991534e-22)
(0.133404819429 -0.00649959342857 6.38690260278e-23)
(0.132555886367 -0.0143142474266 -1.89873475934e-22)
(0.134438024509 -0.0113684688289 8.84829471054e-23)
(0.133659947055 -0.019348451768 -1.15248495792e-22)
(0.135485455011 -0.0162470216041 -9.94479586677e-23)
(0.135030210677 -0.0245592873113 -3.1121215845e-23)
(0.136811138221 -0.0212106859544 -3.57097898607e-23)
(0.136669475538 -0.0299917367556 -1.35823447425e-23)
(0.138437255293 -0.0263812057969 -2.49481472119e-23)
(0.138558525287 -0.0356915527942 2.66831087963e-24)
(0.14034905513 -0.0318096228109 -1.22638857689e-23)
(0.140671252532 -0.0417050148814 -1.46999482706e-23)
(0.142523514241 -0.0375425228604 -1.46154049818e-23)
(0.142975699051 -0.0480787765863 -2.01308930606e-23)
(0.144931867522 -0.0436292617902 -3.33100046792e-23)
(0.145433481268 -0.0548596045486 4.04009360621e-24)
(0.147539134893 -0.0501200507083 -1.38734679018e-23)
(0.147999065384 -0.0620939663893 -2.12140888151e-23)
(0.150303299951 -0.0570651402507 4.84772607048e-24)
(0.150618382344 -0.0698274355494 -1.39318305961e-24)
(0.153174499768 -0.0645165303074 -4.91560836218e-23)
(0.153226372315 -0.0781035314761 3.0310983091e-23)
(0.156092664866 -0.0725284773446 2.90912964984e-23)
(0.155745739919 -0.0869621593054 5.99424877367e-23)
(0.158984394068 -0.0811209423871 1.08359803074e-23)
(0.158054416608 -0.0964405483978 1.66047071471e-22)
(0.161764779858 -0.0902969667052 2.16108734879e-23)
(0.159867317146 -0.10656904011 -7.29088138836e-22)
(0.164270962176 -0.100402132913 7.23431374035e-23)
(0.16065877723 -0.117363477097 -2.61294131188e-21)
(0.166090047112 -0.111649865858 -1.22070272599e-21)
(0.160266606724 -0.128922440843 1.63271643542e-21)
(0.166609501215 -0.121900287579 -3.79296364146e-21)
(0.19447387294 -0.14143160766 4.08797561804e-21)
(0.166282304243 -0.131368834326 -2.83262744865e-21)
(0.242263066896 -0.159694979705 -2.77098205467e-21)
(0.134174180763 -0.00428513257637 -1.40816262755e-22)
(0.134566039888 -0.0026861239078 -7.00409699743e-22)
(0.136276202963 -0.00874637200925 4.42643964667e-22)
(0.137866028816 -0.00596138217446 2.95185636653e-22)
(0.137373820771 -0.0133197466574 1.78908464372e-22)
(0.139011371497 -0.0104792605996 2.43888880151e-22)
(0.138639027419 -0.0180375701072 -1.99092527361e-23)
(0.140203254426 -0.0150081236251 -4.84880858919e-23)
(0.140216119865 -0.0229462437634 -2.95367212275e-23)
(0.141719791871 -0.019636413515 -3.29150077814e-23)
(0.142109705389 -0.0280950205094 -2.36296882383e-23)
(0.14358601521 -0.0244878556998 -1.80972635715e-23)
(0.14430147909 -0.0335344503819 -2.95476016303e-23)
(0.145788469388 -0.0296175865554 -1.40940006941e-23)
(0.146766099501 -0.0393162294885 -3.32254613904e-23)
(0.148305276074 -0.0350772657505 -2.85754849523e-23)
(0.149472229661 -0.0454931641191 -2.70525795204e-23)
(0.151108780503 -0.0409221094005 -3.57395054964e-23)
(0.152381837082 -0.0521190338722 -1.30658354375e-23)
(0.154164976586 -0.0472090422913 -1.78470716323e-23)
(0.155449302793 -0.0592483060868 -2.30942687363e-23)
(0.157432538029 -0.0539960477433 -1.80417841548e-23)
(0.158619646551 -0.0669356598341 -1.86716040638e-23)
(0.160861816484 -0.0613442409011 -5.83835094136e-23)
(0.16182560402 -0.0752348847237 9.61629371478e-24)
(0.164391855651 -0.0693179092843 1.82634365443e-23)
(0.164987367408 -0.0841975547549 -2.74956339414e-23)
(0.167947039912 -0.0779464479589 2.79028105457e-23)
(0.167977617035 -0.0938736358113 -7.20930605796e-23)
(0.17144085181 -0.087255415727 8.98803180782e-23)
(0.170504126294 -0.104302475177 -4.19271449748e-22)
(0.174699807783 -0.0976161462498 3.23994029112e-22)
(0.172097998888 -0.11552469819 -2.40072505557e-21)
(0.17731228384 -0.109135815646 1.52261408471e-22)
(0.17259773203 -0.127723707985 -8.25830752553e-21)
(0.178808516187 -0.120102884778 -7.61768586695e-22)
(0.211744045742 -0.140558526916 -9.69158512136e-21)
(0.17911714746 -0.131489992228 -8.88862381765e-21)
(0.257489817138 -0.138476269469 -5.67060886615e-21)
(0.13837375658 -0.00390475843814 -2.64407800335e-22)
(0.138470765863 -0.00246034721844 -6.63516683206e-22)
(0.140618220751 -0.00798545400281 9.6430552136e-23)
(0.141946693831 -0.00535276728762 4.74486273903e-22)
(0.141847639614 -0.0121843491103 1.64923298869e-23)
(0.143210240259 -0.0094697043668 6.46819734498e-23)
(0.143285912031 -0.0165373617527 -6.14938409372e-23)
(0.144556246669 -0.0135980236081 -8.83230519866e-23)
(0.145085737843 -0.0210945483656 -2.14755501254e-23)
(0.146276964644 -0.0178398528334 -3.57435090942e-23)
(0.147254037295 -0.025909312411 -8.56157602729e-24)
(0.14840077081 -0.0223199479205 -1.0299126396e-23)
(0.149774018086 -0.0310369423074 -1.31218840161e-23)
(0.150916093358 -0.0270973351925 -1.02822814428e-23)
(0.152621820887 -0.0365345764375 -3.10895290583e-23)
(0.15380290317 -0.0322286979757 -1.5127160493e-25)
(0.155767582885 -0.0424613168007 -2.65339976083e-23)
(0.157035506362 -0.0377751170223 -2.73742959898e-23)
(0.159174627365 -0.0488782393055 -2.28230203495e-23)
(0.160581873678 -0.0438003297735 -1.78715433824e-23)
(0.162798420365 -0.0558483046439 -5.3331024832e-23)
(0.164402567103 -0.050370338524 -1.26514975256e-23)
(0.166584410786 -0.0634361057302 -2.14484688055e-23)
(0.168449575154 -0.0575558762611 -7.05417487875e-23)
(0.17046478528 -0.0717070571559 3.65499533752e-23)
(0.172662767296 -0.0654320085895 3.23040586447e-23)
(0.174359102495 -0.0807267690382 1.45278762565e-22)
(0.176966725553 -0.0740397480557 3.52833308179e-23)
(0.178135080415 -0.0905619445618 4.85967407769e-22)
(0.181276022079 -0.0834317962881 2.16200050601e-22)
(0.181502105748 -0.101269635869 8.9552688733e-22)
(0.185407515351 -0.0939901092287 5.29114595831e-22)
(0.184062268914 -0.112933030879 1.79121787734e-21)
(0.188975701195 -0.105721978181 1.83029432714e-22)
(0.185175663812 -0.125717732446 -1.39208487881e-21)
(0.191593231027 -0.117765831984 -1.89856761944e-21)
(0.216501183974 -0.137874927353 -4.86764756244e-21)
(0.191274135896 -0.130565239201 -1.02389322717e-20)
(0.223925940194 -0.121404082472 -9.71021184958e-21)
(0.142169876055 -0.00347535550443 7.53773910321e-23)
(0.144559012339 -0.00712527727814 4.42737695217e-22)
(0.145927618742 -0.0108985624956 -4.01334084237e-23)
(0.147549889799 -0.0148345575721 -6.25727201436e-23)
(0.149587167607 -0.0189866918423 -2.45670853648e-23)
(0.152049250782 -0.0234122859031 -1.20198318115e-23)
(0.154921536028 -0.028171228962 2.68833096838e-24)
(0.158182432234 -0.0333260324508 3.56396146359e-24)
(0.161804499483 -0.0389420112909 -1.87118417639e-23)
(0.165753589647 -0.0450876025911 -7.70002055843e-24)
(0.169987669047 -0.0518345257519 -2.9862221481e-23)
(0.174454342441 -0.0592578018073 -1.67892213374e-23)
(0.179087585185 -0.0674354163413 3.10374360874e-23)
(0.183809254006 -0.0764486414818 1.06204618854e-22)
(0.188485443593 -0.086383082897 2.59347238663e-22)
(0.192842991527 -0.0973222301904 -1.83382858785e-22)
(0.19649395619 -0.109405193078 -3.50675606406e-21)
(0.197608259891 -0.122618154621 -1.07454150123e-20)
(0.206094327782 -0.134627697679 -1.50814965589e-20)
)
;

boundaryField
{
    back
    {
        type            calculated;
        value           uniform (0 0 0);
    }
    sides
    {
        type            calculated;
        value           nonuniform List<vector> 0();
    }
    bottom
    {
        type            calculated;
        value           uniform (0 0 0);
    }
    front
    {
        type            calculated;
        value           uniform (0 0 0);
    }
    atmosphere
    {
        type            calculated;
        value           nonuniform List<vector> 9((0 -0.151807168746 0) (0 -0.155237076709 0) (0 -0.158743496265 0) (0 -0.162202873111 0) (0 -0.165071512191 0) (0 -0.165723588785 0) (0 -0.155784523901 0) (0 -0.104311320138 0) (0 -0.121194390542 0));
    }
    floatingObject
    {
        type            calculated;
        value           nonuniform List<vector> 0();
    }
    procBoundary0to1
    {
        type            processor;
        value           nonuniform List<vector> 10((0.106634253016 -0.0667370936965 5.79849786113e-24) (0.107306666646 -0.0740574744124 -8.0968365166e-24) (0.107878099252 -0.081611895293 4.55300588921e-25) (0.108303343999 -0.0893907606046 5.35893719469e-24) (0.108526858424 -0.0973355367242 3.8940840028e-23) (0.108436708001 -0.105654349659 3.41869308632e-22) (0.107772772719 -0.114862838162 -6.55678349928e-22) (0.105941153537 -0.122448223509 -1.98379228258e-21) (0.10167902945 -0.124198492443 5.53614405092e-22) (0.120730540855 -0.149919795322 -1.93718346166e-22));
    }
    procBoundary0to2
    {
        type            processor;
        value           nonuniform List<vector> 
14
(
(0.104391721254 -0.0460442267814 -2.68331401784e-24)
(0.10514287993 -0.0527449475528 -2.46919393448e-24)
(0.105901021745 -0.0596373902817 -7.20625795479e-24)
(0.109278551673 -0.0324594110526 -1.46868382211e-23)
(0.107304822284 -0.0423727804096 -1.1551042758e-23)
(0.110088687367 -0.0387527624952 -1.67151436541e-23)
(0.110208699088 -0.0034220544723 -1.89760979226e-22)
(0.112645678815 -0.00804056399817 6.55083133855e-22)
(0.112003561294 -0.028998631409 -1.44651939711e-23)
(0.114583448103 -0.0256101371678 -1.97732249452e-23)
(0.115822594692 -0.0109255928947 5.47347675037e-22)
(0.118930214989 -0.0133959575633 1.9163934666e-23)
(0.117175550427 -0.0222883975668 -5.71988196693e-23)
(0.119607890601 -0.0190570971006 -1.23034911561e-22)
)
;
    }
    procBoundary0to4
    {
        type            processor;
        value           nonuniform List<vector> 8((0.141946090504 -0.00220301825424 -4.69884745941e-22) (0.14559658709 -0.00466989594844 3.72429245974e-22) (0.146983502382 -0.00833265745849 -9.659037562e-23) (0.148492226381 -0.0120059094804 -1.20967479666e-22) (0.150429091879 -0.0158062436563 -3.19706413141e-23) (0.15282636481 -0.0198582725908 3.04863836684e-24) (0.155675040926 -0.0242245953069 -6.25613847398e-24) (0.158957709299 -0.0289667079832 1.14369295706e-23));
    }
    procBoundary0to5
    {
        type            processor;
        value           nonuniform List<vector> 
12
(
(0.162651479325 -0.0341513902999 -1.68667903692e-23)
(0.166727441631 -0.0398491010486 -1.25514170066e-23)
(0.171149453892 -0.046133872875 2.37830475647e-23)
(0.175872806631 -0.0530861972169 -3.45898339726e-23)
(0.180840339563 -0.0607922605363 6.88924743193e-23)
(0.185979923376 -0.0693065819912 3.47045867065e-23)
(0.191210459416 -0.0787103515442 2.01551730804e-22)
(0.196346681249 -0.0893745097507 2.86950438023e-22)
(0.201058689483 -0.101258114551 -1.20622393702e-21)
(0.204806200879 -0.11454797903 -5.87993539367e-21)
(0.203283766677 -0.128647932659 -1.24104138303e-20)
(0.210492594938 -0.126330589473 -1.22336385981e-20)
)
;
    }
}


// ************************************************************************* //
