/*--------------------------------*- C++ -*----------------------------------*\
| =========                 |                                                 |
| \\      /  F ield         | OpenFOAM: The Open Source CFD Toolbox           |
|  \\    /   O peration     | Version:  v2012                                 |
|   \\  /    A nd           | Website:  www.openfoam.com                      |
|    \\/     M anipulation  |                                                 |
\*---------------------------------------------------------------------------*/
FoamFile
{
    version     2.0;
    format      ascii;
    class       volScalarField;
    location    "0.8";
    object      ddt0(epsilon);
}
// * * * * * * * * * * * * * * * * * * * * * * * * * * * * * * * * * * * * * //

dimensions      [0 2 -4 0 0 0 0];


internalField   nonuniform List<scalar> 
164
(
-0.063162018358
-0.0602357955822
-0.0626928514506
-0.0630492463339
-0.0631273539143
-0.0632246043486
-0.0629243254521
-0.0600530988492
-0.0739022709166
-0.0720381365711
-0.0725334970696
-0.0751678780723
-0.0616706492367
-0.0659138781131
-0.0633457924648
-0.0603506062588
-0.0628090516901
-0.0631653809378
-0.0632513348801
-0.0634077925946
-0.0636299573447
-0.0637043688955
-0.0637215556604
-0.0639769644615
-0.0645487157463
-0.0654769849605
-0.0667243661113
-0.0679986893937
-0.0635277583289
-0.0604820079081
-0.0629298868287
-0.0632749562944
-0.0633537336233
-0.0635056498842
-0.0637645735427
-0.0641259601816
-0.0645556772607
-0.0650559351557
-0.0656365692814
-0.0663222378915
-0.0671005508291
-0.0678789228548
-0.0636988782923
-0.0606228869322
-0.0630459956683
-0.0633709242205
-0.063437029561
-0.0635745820389
-0.0638101498441
-0.0641408780552
-0.0645536860634
-0.065025692715
-0.0655504163274
-0.0661355206838
-0.0667787355415
-0.0674556226884
-0.0638510286276
-0.0607646464845
-0.063149623416
-0.0634474712139
-0.0634984408014
-0.0636201731683
-0.0638299397329
-0.0641174600655
-0.0644748304026
-0.0648893529688
-0.0653550999072
-0.0658750052083
-0.066450772225
-0.0670828960762
-0.0639780063346
-0.0608991235544
-0.0632352887844
-0.0635015752387
-0.0635368076246
-0.0636430395991
-0.0638290893557
-0.0640804578542
-0.0643902178565
-0.0647525777975
-0.0651651408681
-0.0656306375525
-0.066153993385
-0.0667476219796
-0.0640758007093
-0.0610195817919
-0.0632995029532
-0.0635321668406
-0.0635522583884
-0.0636439428439
-0.0638082463371
-0.0640284506071
-0.0642980472541
-0.0646147974874
-0.0649791011726
-0.0653947779648
-0.0658692010764
-0.0664209012834
-0.0641424441673
-0.0611210377508
-0.0633405083703
-0.0635395707611
-0.063545828708
-0.0636241214687
-0.0637683744438
-0.0639607400554
-0.0641952248674
-0.064471359872
-0.0647911903337
-0.0651591185429
-0.0655828013492
-0.0660815018363
-0.0641779728829
-0.0612001588458
-0.0633579061128
-0.0635250647185
-0.0635191695859
-0.0635852197215
-0.0637108905662
-0.0638779054578
-0.0640808582497
-0.0643200821129
-0.0645983945372
-0.0649200519311
-0.0652916042215
-0.0657297341113
-0.0641847211586
-0.0612551529337
-0.0633522720839
-0.0634905259808
-0.0634743454055
-0.0635292442511
-0.0636376557246
-0.0637813673665
-0.0639555823643
-0.0641609129328
-0.0644001988053
-0.0646771037543
-0.0649965717927
-0.0653727122436
-0.0641669149076
-0.0612852676991
-0.0633248378539
-0.0634382374305
-0.063413733799
-0.0634585083559
-0.063550906849
-0.0636731271427
-0.0638209280704
-0.0639949598197
-0.0641976098037
-0.0644318501197
-0.0647008128584
-0.0650163610102
-0.0636789861284
-0.0638240784909
-0.0639926398691
-0.0641866283289
-0.0644072131477
-0.0646637082521
-0.0639442095685
-0.0641192607651
-0.0643189687716
-0.0639863905306
)
;

boundaryField
{
    back
    {
        type            calculated;
        value           nonuniform List<scalar> 
164
(
-0.063162018358
-0.0602357955822
-0.0626928514506
-0.0630492463339
-0.0631273539143
-0.0632246043486
-0.0629243254521
-0.0600530988492
-0.0739022709166
-0.0720381365711
-0.0725334970696
-0.0751678780723
-0.0616706492367
-0.0659138781131
-0.0633457924648
-0.0603506062588
-0.0628090516901
-0.0631653809378
-0.0632513348801
-0.0634077925946
-0.0636299573447
-0.0637043688955
-0.0637215556604
-0.0639769644615
-0.0645487157463
-0.0654769849605
-0.0667243661113
-0.0679986893937
-0.0635277583289
-0.0604820079081
-0.0629298868287
-0.0632749562944
-0.0633537336233
-0.0635056498842
-0.0637645735427
-0.0641259601816
-0.0645556772607
-0.0650559351557
-0.0656365692814
-0.0663222378915
-0.0671005508291
-0.0678789228548
-0.0636988782923
-0.0606228869322
-0.0630459956683
-0.0633709242205
-0.063437029561
-0.0635745820389
-0.0638101498441
-0.0641408780552
-0.0645536860634
-0.065025692715
-0.0655504163274
-0.0661355206838
-0.0667787355415
-0.0674556226884
-0.0638510286276
-0.0607646464845
-0.063149623416
-0.0634474712139
-0.0634984408014
-0.0636201731683
-0.0638299397329
-0.0641174600655
-0.0644748304026
-0.0648893529688
-0.0653550999072
-0.0658750052083
-0.066450772225
-0.0670828960762
-0.0639780063346
-0.0608991235544
-0.0632352887844
-0.0635015752387
-0.0635368076246
-0.0636430395991
-0.0638290893557
-0.0640804578542
-0.0643902178565
-0.0647525777975
-0.0651651408681
-0.0656306375525
-0.066153993385
-0.0667476219796
-0.0640758007093
-0.0610195817919
-0.0632995029532
-0.0635321668406
-0.0635522583884
-0.0636439428439
-0.0638082463371
-0.0640284506071
-0.0642980472541
-0.0646147974874
-0.0649791011726
-0.0653947779648
-0.0658692010764
-0.0664209012834
-0.0641424441673
-0.0611210377508
-0.0633405083703
-0.0635395707611
-0.063545828708
-0.0636241214687
-0.0637683744438
-0.0639607400554
-0.0641952248674
-0.064471359872
-0.0647911903337
-0.0651591185429
-0.0655828013492
-0.0660815018363
-0.0641779728829
-0.0612001588458
-0.0633579061128
-0.0635250647185
-0.0635191695859
-0.0635852197215
-0.0637108905662
-0.0638779054578
-0.0640808582497
-0.0643200821129
-0.0645983945372
-0.0649200519311
-0.0652916042215
-0.0657297341113
-0.0641847211586
-0.0612551529337
-0.0633522720839
-0.0634905259808
-0.0634743454055
-0.0635292442511
-0.0636376557246
-0.0637813673665
-0.0639555823643
-0.0641609129328
-0.0644001988053
-0.0646771037543
-0.0649965717927
-0.0653727122436
-0.0641669149076
-0.0612852676991
-0.0633248378539
-0.0634382374305
-0.063413733799
-0.0634585083559
-0.063550906849
-0.0636731271427
-0.0638209280704
-0.0639949598197
-0.0641976098037
-0.0644318501197
-0.0647008128584
-0.0650163610102
-0.0636789861284
-0.0638240784909
-0.0639926398691
-0.0641866283289
-0.0644072131477
-0.0646637082521
-0.0639442095685
-0.0641192607651
-0.0643189687716
-0.0639863905306
)
;
    }
    sides
    {
        type            calculated;
        value           nonuniform List<scalar> 0();
    }
    bottom
    {
        type            calculated;
        value           nonuniform List<scalar> 
11
(
-0.063162018358
-0.0633457924648
-0.0635277583289
-0.0636988782923
-0.0638510286276
-0.0639780063346
-0.0640758007093
-0.0641424441673
-0.0641779728829
-0.0641847211586
-0.0641669149076
)
;
    }
    front
    {
        type            calculated;
        value           nonuniform List<scalar> 
164
(
-0.063162018358
-0.0602357955822
-0.0626928514506
-0.0630492463339
-0.0631273539143
-0.0632246043486
-0.0629243254521
-0.0600530988492
-0.0739022709166
-0.0720381365711
-0.0725334970696
-0.0751678780723
-0.0616706492367
-0.0659138781131
-0.0633457924648
-0.0603506062588
-0.0628090516901
-0.0631653809378
-0.0632513348801
-0.0634077925946
-0.0636299573447
-0.0637043688955
-0.0637215556604
-0.0639769644615
-0.0645487157463
-0.0654769849605
-0.0667243661113
-0.0679986893937
-0.0635277583289
-0.0604820079081
-0.0629298868287
-0.0632749562944
-0.0633537336233
-0.0635056498842
-0.0637645735427
-0.0641259601816
-0.0645556772607
-0.0650559351557
-0.0656365692814
-0.0663222378915
-0.0671005508291
-0.0678789228548
-0.0636988782923
-0.0606228869322
-0.0630459956683
-0.0633709242205
-0.063437029561
-0.0635745820389
-0.0638101498441
-0.0641408780552
-0.0645536860634
-0.065025692715
-0.0655504163274
-0.0661355206838
-0.0667787355415
-0.0674556226884
-0.0638510286276
-0.0607646464845
-0.063149623416
-0.0634474712139
-0.0634984408014
-0.0636201731683
-0.0638299397329
-0.0641174600655
-0.0644748304026
-0.0648893529688
-0.0653550999072
-0.0658750052083
-0.066450772225
-0.0670828960762
-0.0639780063346
-0.0608991235544
-0.0632352887844
-0.0635015752387
-0.0635368076246
-0.0636430395991
-0.0638290893557
-0.0640804578542
-0.0643902178565
-0.0647525777975
-0.0651651408681
-0.0656306375525
-0.066153993385
-0.0667476219796
-0.0640758007093
-0.0610195817919
-0.0632995029532
-0.0635321668406
-0.0635522583884
-0.0636439428439
-0.0638082463371
-0.0640284506071
-0.0642980472541
-0.0646147974874
-0.0649791011726
-0.0653947779648
-0.0658692010764
-0.0664209012834
-0.0641424441673
-0.0611210377508
-0.0633405083703
-0.0635395707611
-0.063545828708
-0.0636241214687
-0.0637683744438
-0.0639607400554
-0.0641952248674
-0.064471359872
-0.0647911903337
-0.0651591185429
-0.0655828013492
-0.0660815018363
-0.0641779728829
-0.0612001588458
-0.0633579061128
-0.0635250647185
-0.0635191695859
-0.0635852197215
-0.0637108905662
-0.0638779054578
-0.0640808582497
-0.0643200821129
-0.0645983945372
-0.0649200519311
-0.0652916042215
-0.0657297341113
-0.0641847211586
-0.0612551529337
-0.0633522720839
-0.0634905259808
-0.0634743454055
-0.0635292442511
-0.0636376557246
-0.0637813673665
-0.0639555823643
-0.0641609129328
-0.0644001988053
-0.0646771037543
-0.0649965717927
-0.0653727122436
-0.0641669149076
-0.0612852676991
-0.0633248378539
-0.0634382374305
-0.063413733799
-0.0634585083559
-0.063550906849
-0.0636731271427
-0.0638209280704
-0.0639949598197
-0.0641976098037
-0.0644318501197
-0.0647008128584
-0.0650163610102
-0.0636789861284
-0.0638240784909
-0.0639926398691
-0.0641866283289
-0.0644072131477
-0.0646637082521
-0.0639442095685
-0.0641192607651
-0.0643189687716
-0.0639863905306
)
;
    }
    atmosphere
    {
        type            calculated;
        value           nonuniform List<scalar> 0();
    }
    floatingObject
    {
        type            calculated;
        value           nonuniform List<scalar> 4(-0.0739022709166 -0.0720381365711 -0.0725334970696 -0.0751678780723);
    }
    procBoundary8to3
    {
        type            processor;
        value           nonuniform List<scalar> 8(-0.0629889418201 -0.0601474277271 -0.0625960017092 -0.0629354974219 -0.062955623975 -0.0628015522371 -0.0612348915437 -0.0670680191874);
    }
    procBoundary8to6
    {
        type            processor;
        value           nonuniform List<scalar> 
16
(
-0.0781124847665
-0.0641810432731
-0.0687441770017
-0.0692518315072
-0.0686975369391
-0.0681905181706
-0.0678073687331
-0.0674682978617
-0.0671277607025
-0.0667483589076
-0.0663327307658
-0.0659114463613
-0.0654928227077
-0.0650761526873
-0.0646651411026
-0.0642645780333
)
;
    }
    procBoundary8to7
    {
        type            processor;
        value           nonuniform List<scalar> 
17
(
-0.0641292434802
-0.0612901546167
-0.0632771398725
-0.0633706440244
-0.0633398269339
-0.0633754544262
-0.0634530512464
-0.0635555412385
-0.0635555412385
-0.063532172903
-0.0636507185079
-0.0637877022735
-0.0637877022735
-0.0637073232448
-0.0638404058578
-0.0638404058578
-0.0636700142746
)
;
    }
}


// ************************************************************************* //
