/*--------------------------------*- C++ -*----------------------------------*\
| =========                 |                                                 |
| \\      /  F ield         | OpenFOAM: The Open Source CFD Toolbox           |
|  \\    /   O peration     | Version:  v2012                                 |
|   \\  /    A nd           | Website:  www.openfoam.com                      |
|    \\/     M anipulation  |                                                 |
\*---------------------------------------------------------------------------*/
FoamFile
{
    version     2.0;
    format      ascii;
    class       volScalarField;
    location    "0.8";
    object      nut;
}
// * * * * * * * * * * * * * * * * * * * * * * * * * * * * * * * * * * * * * //

dimensions      [0 2 -1 0 0 0 0];


internalField   nonuniform List<scalar> 
164
(
0.00114228638364
0.00167305371697
0.00171296088447
0.00172597230993
0.00173118262811
0.0017333341785
0.00172789194885
0.00169486804746
0.00123921548923
0.00122964105072
0.00123281062933
0.00124654375013
0.00171623759886
0.00175614838804
0.00114501583433
0.00167570645892
0.00171566643824
0.00172890835056
0.00173462830924
0.00173852673621
0.00174143806564
0.00174081720887
0.00174351442836
0.00174826259262
0.00175538392866
0.00176499415349
0.00177728024265
0.00179012559323
0.00114792807682
0.00167893974442
0.00171885729512
0.0017321232483
0.00173793417476
0.00174215958645
0.00174653419627
0.00175145492759
0.00175740901851
0.0017641333324
0.00177144700778
0.00177934753202
0.00178778672336
0.00179637352661
0.00115088225294
0.0016825636524
0.0017223215556
0.00173543399002
0.0017411109428
0.00174519790292
0.00174946192847
0.00175443356764
0.00176022345675
0.00176660033253
0.00177336032488
0.00178043535007
0.00178782063089
0.00179548474735
0.00115375353541
0.00168636435986
0.00172585222326
0.00173866910552
0.00174408767826
0.00174790206529
0.00175181307773
0.00175629855675
0.00176144944934
0.00176714463683
0.00177324323272
0.00177967120852
0.00178642791027
0.00179356235389
0.00115644548786
0.00169015255216
0.00172927964458
0.00174169761444
0.0017467879733
0.00175028932911
0.0017538313728
0.00175784589404
0.00176241643855
0.00176748729507
0.00177297158579
0.00177881036101
0.00178499572921
0.00179160229308
0.00115889257638
0.00169378261416
0.00173248063984
0.00174443253285
0.00174916036034
0.00175234197832
0.0017555354687
0.0017591337358
0.00176321170149
0.0017677438426
0.00177267789004
0.00177797194796
0.0017836195799
0.00178971612244
0.00116105698279
0.00169715346702
0.00173537536531
0.0017468246049
0.00175118045849
0.00175405243709
0.00175692510222
0.00176015522329
0.00176380923763
0.00176787534697
0.00177232185185
0.0017771208646
0.00178227384884
0.00178790882449
0.00116292409113
0.00170020316396
0.00173791927048
0.00174885309421
0.00175284457147
0.00175542632672
0.00175800772502
0.00176091118153
0.00176419503147
0.00176785385705
0.00177186835702
0.00177622135209
0.00178092619662
0.00178615880007
0.00116449716447
0.00170289965537
0.00174009357109
0.00175051704304
0.00175416295775
0.00175647880267
0.001758798379
0.00176141176909
0.00176436966961
0.00176766990003
0.00177130070247
0.00177525307535
0.00177955321563
0.00178443190657
0.00116579029725
0.00170522926885
0.00174189633974
0.00175182834988
0.00175515465828
0.00175723090433
0.00175931681274
0.00176167263827
0.00176434205968
0.00176732472904
0.0017706137832
0.00177420646306
0.00177814238414
0.00178271361177
0.00176412547884
0.00176682590675
0.00176980972505
0.00177307913386
0.00177668750849
0.0017809942769
0.00177187352487
0.00177518864942
0.00177927402883
0.00177755330582
)
;

boundaryField
{
    back
    {
        type            nutkWallFunction;
        blending        stepwise;
        Cmu             0.09;
        kappa           0.41;
        E               9.8;
        value           nonuniform List<scalar> 
164
(
0.000147410158165
0.000160454379547
0.000163842223489
0.000164922358883
0.00016535131549
0.000165531609215
0.000165071954553
0.000162226767736
0.000158497945199
0.00015737505738
0.000157741271063
0.000159348241597
0.00016405626274
0.000167522711637
0.00014771820542
0.000160677143627
0.000164068945609
0.000165167819582
0.000165638739852
0.000165964573483
0.000166213166959
0.000166166000685
0.000166387529404
0.000166787732319
0.000167396503722
0.000168224892115
0.000169285713425
0.000170392035413
0.000148046146424
0.000160948188672
0.000164335481615
0.000165435663451
0.00016591361151
0.000166265856901
0.000166635660575
0.000167055050924
0.000167561972352
0.000168134850876
0.000168759246409
0.000169435977863
0.000170160403827
0.000170896073203
0.000148378105413
0.000161251612897
0.000164624058083
0.000165710608538
0.00016617696002
0.000166517157649
0.000166876736137
0.000167298725655
0.000167791354411
0.000168334503509
0.000168911115505
0.000169515903075
0.000170148289819
0.000170804491712
0.000148700024211
0.000161569496987
0.000164917396928
0.00016597838312
0.000166422872883
0.000166740024269
0.000167069499284
0.000167449676262
0.000167887465768
0.000168372264183
0.000168892200391
0.000169441301146
0.000170019534478
0.000170630880051
0.000149001051972
0.000161885950521
0.000165201385256
0.000166228159682
0.00016664506843
0.000166935902084
0.000167234093275
0.000167574065014
0.000167962197085
0.000168393582125
0.000168860946831
0.000169359556326
0.000169888957401
0.000170455789539
0.000149273829866
0.000162188731849
0.000165465803552
0.000166452796362
0.000166839361374
0.000167103387689
0.000167372070203
0.000167676556855
0.00016802256177
0.000168407831246
0.000168828067137
0.000169279989266
0.000169763387722
0.000170286897126
0.000149514132349
0.000162469330977
0.000165704054257
0.000166648296131
0.000167003818117
0.00016724192555
0.000167483452894
0.000167756549127
0.000168066274232
0.00016841159396
0.000168789979535
0.000169199327601
0.000169640083459
0.000170123576781
0.00014972036925
0.000162722521382
0.000165912485796
0.000166813033383
0.000167138220616
0.000167352054966
0.000167568915249
0.000167814129927
0.00016809213706
0.000168402473117
0.000168743666774
0.000169114486293
0.000169516290195
0.000169964171776
0.000149893016106
0.000162945600039
0.000166089596833
0.000166947024083
0.000167243507761
0.000167435109023
0.00016762977092
0.000167850190002
0.000168100220425
0.000168379684793
0.000168687736803
0.00016902379115
0.000169390181044
0.000169806367062
0.000150033819285
0.000163137418316
0.000166235292192
0.000167051350617
0.000167321347747
0.000167492913948
0.000167667735312
0.000167866098239
0.000168091318035
0.000168343377005
0.000168621817469
0.000168926534914
0.000169260885575
0.000169649255631
0.000168066609972
0.000168294252736
0.000168546169887
0.000168822626024
0.000169128018014
0.000169492144895
0.000168712382118
0.000168991722297
0.000169335184363
0.000169178573753
)
;
    }
    sides
    {
        type            nutkWallFunction;
        blending        stepwise;
        Cmu             0.09;
        kappa           0.41;
        E               9.8;
        value           nonuniform List<scalar> 0();
    }
    bottom
    {
        type            nutkWallFunction;
        blending        stepwise;
        Cmu             0.09;
        kappa           0.41;
        E               9.8;
        value           nonuniform List<scalar> 
11
(
7.84349539004e-05
7.85986123299e-05
7.87728377306e-05
7.89491955465e-05
7.91202172423e-05
7.9280138531e-05
7.94250504749e-05
7.9552708774e-05
7.96622691494e-05
7.97539846435e-05
7.98287833239e-05
)
;
    }
    front
    {
        type            nutkWallFunction;
        blending        stepwise;
        Cmu             0.09;
        kappa           0.41;
        E               9.8;
        value           nonuniform List<scalar> 
164
(
0.000147410158165
0.000160454379547
0.000163842223489
0.000164922358883
0.00016535131549
0.000165531609215
0.000165071954553
0.000162226767736
0.000158497945199
0.00015737505738
0.000157741271063
0.000159348241597
0.00016405626274
0.000167522711637
0.00014771820542
0.000160677143627
0.000164068945609
0.000165167819582
0.000165638739852
0.000165964573483
0.000166213166959
0.000166166000685
0.000166387529404
0.000166787732319
0.000167396503722
0.000168224892115
0.000169285713425
0.000170392035413
0.000148046146424
0.000160948188672
0.000164335481615
0.000165435663451
0.00016591361151
0.000166265856901
0.000166635660575
0.000167055050924
0.000167561972352
0.000168134850876
0.000168759246409
0.000169435977863
0.000170160403827
0.000170896073203
0.000148378105413
0.000161251612897
0.000164624058083
0.000165710608538
0.00016617696002
0.000166517157649
0.000166876736137
0.000167298725655
0.000167791354411
0.000168334503509
0.000168911115505
0.000169515903075
0.000170148289819
0.000170804491712
0.000148700024211
0.000161569496987
0.000164917396928
0.00016597838312
0.000166422872883
0.000166740024269
0.000167069499284
0.000167449676262
0.000167887465768
0.000168372264183
0.000168892200391
0.000169441301146
0.000170019534478
0.000170630880051
0.000149001051972
0.000161885950521
0.000165201385256
0.000166228159682
0.00016664506843
0.000166935902084
0.000167234093275
0.000167574065014
0.000167962197085
0.000168393582125
0.000168860946831
0.000169359556326
0.000169888957401
0.000170455789539
0.000149273829866
0.000162188731849
0.000165465803552
0.000166452796362
0.000166839361374
0.000167103387689
0.000167372070203
0.000167676556855
0.00016802256177
0.000168407831246
0.000168828067137
0.000169279989266
0.000169763387722
0.000170286897126
0.000149514132349
0.000162469330977
0.000165704054257
0.000166648296131
0.000167003818117
0.00016724192555
0.000167483452894
0.000167756549127
0.000168066274232
0.00016841159396
0.000168789979535
0.000169199327601
0.000169640083459
0.000170123576781
0.00014972036925
0.000162722521382
0.000165912485796
0.000166813033383
0.000167138220616
0.000167352054966
0.000167568915249
0.000167814129927
0.00016809213706
0.000168402473117
0.000168743666774
0.000169114486293
0.000169516290195
0.000169964171776
0.000149893016106
0.000162945600039
0.000166089596833
0.000166947024083
0.000167243507761
0.000167435109023
0.00016762977092
0.000167850190002
0.000168100220425
0.000168379684793
0.000168687736803
0.00016902379115
0.000169390181044
0.000169806367062
0.000150033819285
0.000163137418316
0.000166235292192
0.000167051350617
0.000167321347747
0.000167492913948
0.000167667735312
0.000167866098239
0.000168091318035
0.000168343377005
0.000168621817469
0.000168926534914
0.000169260885575
0.000169649255631
0.000168066609972
0.000168294252736
0.000168546169887
0.000168822626024
0.000169128018014
0.000169492144895
0.000168712382118
0.000168991722297
0.000169335184363
0.000169178573753
)
;
    }
    atmosphere
    {
        type            calculated;
        value           nonuniform List<scalar> 0();
    }
    floatingObject
    {
        type            nutkWallFunction;
        blending        stepwise;
        Cmu             0.09;
        kappa           0.41;
        E               9.8;
        value           nonuniform List<scalar> 4(8.43244577696e-05 8.37281210157e-05 8.39226102599e-05 8.4776012548e-05);
    }
    procBoundary8to3
    {
        type            processor;
        value           nonuniform List<scalar> 8(0.00113991398708 0.00167114870077 0.00171097095715 0.00172351469993 0.00172746525851 0.00172558709016 0.00170532785285 0.00119063550981);
    }
    procBoundary8to6
    {
        type            processor;
        value           nonuniform List<scalar> 
16
(
0.00125122920709
0.00172922901502
0.00178343663736
0.00180214700337
0.00180525421431
0.00180381298777
0.00180151667686
0.00179913903661
0.0017968669279
0.00179478666943
0.00179290155207
0.00179111969558
0.00178942517519
0.00178780691281
0.00178626757218
0.00178480325766
)
;
    }
    procBoundary8to7
    {
        type            processor;
        value           nonuniform List<scalar> 
17
(
0.00116682297847
0.00170718965602
0.00174333658555
0.0017528068682
0.00175584368683
0.00175770664204
0.00175958490285
0.00176171205248
0.00176171205248
0.00176373521038
0.00176618429825
0.00176889488562
0.00176889488562
0.00177059537236
0.00177364866278
0.00177364866278
0.00177583589935
)
;
    }
}


// ************************************************************************* //
