/*--------------------------------*- C++ -*----------------------------------*\
| =========                 |                                                 |
| \\      /  F ield         | OpenFOAM: The Open Source CFD Toolbox           |
|  \\    /   O peration     | Version:  v2012                                 |
|   \\  /    A nd           | Website:  www.openfoam.com                      |
|    \\/     M anipulation  |                                                 |
\*---------------------------------------------------------------------------*/
FoamFile
{
    version     2.0;
    format      ascii;
    class       volScalarField;
    location    "1.5";
    object      epsilon_0;
}
// * * * * * * * * * * * * * * * * * * * * * * * * * * * * * * * * * * * * * //

dimensions      [0 2 -3 0 0 0 0];


internalField   nonuniform List<scalar> 
164
(
0.0102569900464
0.0104190996192
0.0112983742149
0.0116034723762
0.0117182957913
0.011779457813
0.0118306686251
0.0118845006792
0.0102974621931
0.0104670711647
0.0113404131456
0.0116357138895
0.0117428467362
0.0117984293357
0.0118449096753
0.0118940231704
0.0119486007816
0.0120090923483
0.0120755885153
0.0103304570986
0.0105074993844
0.0113745535866
0.0116605093332
0.0117606300915
0.0118112796543
0.011853619998
0.0118985944989
0.011948729789
0.0120044771966
0.0120659801243
0.0121340767715
0.0122131610235
0.0103565447878
0.0105407847005
0.0114013064082
0.0116784452422
0.0117722300112
0.0118185463539
0.0118572750904
0.0118986248734
0.0119448544724
0.0119963788881
0.012053395607
0.0121170050442
0.0121927969705
0.0123048343266
0.0103763095613
0.0105673631112
0.0114212118322
0.0116901105424
0.0117782183591
0.0118207522588
0.0118563407986
0.0118945175189
0.0119373011823
0.0119850673421
0.0120380689916
0.0120977058533
0.012170921142
0.0122875884844
0.0103903358706
0.0105876871179
0.0114348040711
0.0116960696682
0.01177913402
0.0118183909841
0.0118512677816
0.0118866873989
0.0119264614962
0.0119709231563
0.012020349316
0.0120764644282
0.012147851189
0.0122712062986
0.0103992180884
0.0106022158645
0.0114425949642
0.0116968486694
0.0117754750394
0.0118119279459
0.0118424907291
0.0118755367884
0.0119126940775
0.0119542521163
0.0120005388169
0.0120536402151
0.0121240164608
0.0122554304436
0.0104038718035
0.0106112708753
0.0114449554512
0.0116928690941
0.0117676768011
0.011801772671
0.0118303889358
0.0118614197143
0.0118963408459
0.0119354010866
0.011979013059
0.0120297027984
0.0120999641544
0.0122405365939
0.0104050763655
0.0106151357115
0.0114422484097
0.0116845555555
0.0117561467383
0.0117883058967
0.0118153190673
0.0118446743623
0.0118777330634
0.0119147120427
0.011956144538
0.0120051221041
0.0120763712978
0.0122278014855
0.010403497445
0.010614200703
0.0114348205263
0.0116722788379
0.0117412487794
0.0117718695779
0.011797601391
0.0118256037553
0.0118571603054
0.0118924761915
0.011932248198
0.0119802459715
0.012053782575
0.0122183663681
0.0126777892818
0.013956131366
0.0104001075354
0.0106086919372
0.0114229404899
0.0116563473505
0.0117232953781
0.0117527579999
0.0117775095662
0.0118044696573
0.0118348612751
0.0118689280167
0.0119075490398
0.0119553605395
0.0120327345652
0.0122135669764
0.0127192504591
0.014097979824
0.0103955633895
0.0105988197705
0.0114069643023
0.0116370793709
0.0117025604352
0.0117312040977
0.0117552468134
0.0117814508459
0.0118109981904
0.011844199698
0.0118821727979
0.0119306265635
0.012013526421
0.0122144799225
0.0127750506797
0.0142753786879
)
;

boundaryField
{
    back
    {
        lowReCorrection 0;
        blending        stepwise;
        n               2;
        type            epsilonWallFunction;
        value           nonuniform List<scalar> 
164
(
0.0102569900464
0.0104190996192
0.0112983742149
0.0116034723762
0.0117182957913
0.011779457813
0.0118306686251
0.0118845006792
0.0102974621931
0.0104670711647
0.0113404131456
0.0116357138895
0.0117428467362
0.0117984293357
0.0118449096753
0.0118940231704
0.0119486007816
0.0120090923483
0.0120755885153
0.0103304570986
0.0105074993844
0.0113745535866
0.0116605093332
0.0117606300915
0.0118112796543
0.011853619998
0.0118985944989
0.011948729789
0.0120044771966
0.0120659801243
0.0121340767715
0.0122131610235
0.0103565447878
0.0105407847005
0.0114013064082
0.0116784452422
0.0117722300112
0.0118185463539
0.0118572750904
0.0118986248734
0.0119448544724
0.0119963788881
0.012053395607
0.0121170050442
0.0121927969705
0.0123048343266
0.0103763095613
0.0105673631112
0.0114212118322
0.0116901105424
0.0117782183591
0.0118207522588
0.0118563407986
0.0118945175189
0.0119373011823
0.0119850673421
0.0120380689916
0.0120977058533
0.012170921142
0.0122875884844
0.0103903358706
0.0105876871179
0.0114348040711
0.0116960696682
0.01177913402
0.0118183909841
0.0118512677816
0.0118866873989
0.0119264614962
0.0119709231563
0.012020349316
0.0120764644282
0.012147851189
0.0122712062986
0.0103992180884
0.0106022158645
0.0114425949642
0.0116968486694
0.0117754750394
0.0118119279459
0.0118424907291
0.0118755367884
0.0119126940775
0.0119542521163
0.0120005388169
0.0120536402151
0.0121240164608
0.0122554304436
0.0104038718035
0.0106112708753
0.0114449554512
0.0116928690941
0.0117676768011
0.011801772671
0.0118303889358
0.0118614197143
0.0118963408459
0.0119354010866
0.011979013059
0.0120297027984
0.0120999641544
0.0122405365939
0.0104050763655
0.0106151357115
0.0114422484097
0.0116845555555
0.0117561467383
0.0117883058967
0.0118153190673
0.0118446743623
0.0118777330634
0.0119147120427
0.011956144538
0.0120051221041
0.0120763712978
0.0122278014855
0.010403497445
0.010614200703
0.0114348205263
0.0116722788379
0.0117412487794
0.0117718695779
0.011797601391
0.0118256037553
0.0118571603054
0.0118924761915
0.011932248198
0.0119802459715
0.012053782575
0.0122183663681
0.0126777892818
0.013956131366
0.0104001075354
0.0106086919372
0.0114229404899
0.0116563473505
0.0117232953781
0.0117527579999
0.0117775095662
0.0118044696573
0.0118348612751
0.0118689280167
0.0119075490398
0.0119553605395
0.0120327345652
0.0122135669764
0.0127192504591
0.014097979824
0.0103955633895
0.0105988197705
0.0114069643023
0.0116370793709
0.0117025604352
0.0117312040977
0.0117552468134
0.0117814508459
0.0118109981904
0.011844199698
0.0118821727979
0.0119306265635
0.012013526421
0.0122144799225
0.0127750506797
0.0142753786879
)
;
    }
    sides
    {
        lowReCorrection 0;
        blending        stepwise;
        n               2;
        type            epsilonWallFunction;
        value           nonuniform List<scalar> 0();
    }
    bottom
    {
        lowReCorrection 0;
        blending        stepwise;
        n               2;
        type            epsilonWallFunction;
        value           nonuniform List<scalar> 
12
(
0.0102569900464
0.0102974621931
0.0103304570986
0.0103565447878
0.0103763095613
0.0103903358706
0.0103992180884
0.0104038718035
0.0104050763655
0.010403497445
0.0104001075354
0.0103955633895
)
;
    }
    front
    {
        lowReCorrection 0;
        blending        stepwise;
        n               2;
        type            epsilonWallFunction;
        value           nonuniform List<scalar> 
164
(
0.0102569900464
0.0104190996192
0.0112983742149
0.0116034723762
0.0117182957913
0.011779457813
0.0118306686251
0.0118845006792
0.0102974621931
0.0104670711647
0.0113404131456
0.0116357138895
0.0117428467362
0.0117984293357
0.0118449096753
0.0118940231704
0.0119486007816
0.0120090923483
0.0120755885153
0.0103304570986
0.0105074993844
0.0113745535866
0.0116605093332
0.0117606300915
0.0118112796543
0.011853619998
0.0118985944989
0.011948729789
0.0120044771966
0.0120659801243
0.0121340767715
0.0122131610235
0.0103565447878
0.0105407847005
0.0114013064082
0.0116784452422
0.0117722300112
0.0118185463539
0.0118572750904
0.0118986248734
0.0119448544724
0.0119963788881
0.012053395607
0.0121170050442
0.0121927969705
0.0123048343266
0.0103763095613
0.0105673631112
0.0114212118322
0.0116901105424
0.0117782183591
0.0118207522588
0.0118563407986
0.0118945175189
0.0119373011823
0.0119850673421
0.0120380689916
0.0120977058533
0.012170921142
0.0122875884844
0.0103903358706
0.0105876871179
0.0114348040711
0.0116960696682
0.01177913402
0.0118183909841
0.0118512677816
0.0118866873989
0.0119264614962
0.0119709231563
0.012020349316
0.0120764644282
0.012147851189
0.0122712062986
0.0103992180884
0.0106022158645
0.0114425949642
0.0116968486694
0.0117754750394
0.0118119279459
0.0118424907291
0.0118755367884
0.0119126940775
0.0119542521163
0.0120005388169
0.0120536402151
0.0121240164608
0.0122554304436
0.0104038718035
0.0106112708753
0.0114449554512
0.0116928690941
0.0117676768011
0.011801772671
0.0118303889358
0.0118614197143
0.0118963408459
0.0119354010866
0.011979013059
0.0120297027984
0.0120999641544
0.0122405365939
0.0104050763655
0.0106151357115
0.0114422484097
0.0116845555555
0.0117561467383
0.0117883058967
0.0118153190673
0.0118446743623
0.0118777330634
0.0119147120427
0.011956144538
0.0120051221041
0.0120763712978
0.0122278014855
0.010403497445
0.010614200703
0.0114348205263
0.0116722788379
0.0117412487794
0.0117718695779
0.011797601391
0.0118256037553
0.0118571603054
0.0118924761915
0.011932248198
0.0119802459715
0.012053782575
0.0122183663681
0.0126777892818
0.013956131366
0.0104001075354
0.0106086919372
0.0114229404899
0.0116563473505
0.0117232953781
0.0117527579999
0.0117775095662
0.0118044696573
0.0118348612751
0.0118689280167
0.0119075490398
0.0119553605395
0.0120327345652
0.0122135669764
0.0127192504591
0.014097979824
0.0103955633895
0.0105988197705
0.0114069643023
0.0116370793709
0.0117025604352
0.0117312040977
0.0117552468134
0.0117814508459
0.0118109981904
0.011844199698
0.0118821727979
0.0119306265635
0.012013526421
0.0122144799225
0.0127750506797
0.0142753786879
)
;
    }
    atmosphere
    {
        type            inletOutlet;
        inletValue      nonuniform List<scalar> 0();
        value           nonuniform List<scalar> 0();
    }
    floatingObject
    {
        lowReCorrection 0;
        blending        stepwise;
        n               2;
        type            epsilonWallFunction;
        value           nonuniform List<scalar> 0();
    }
    procBoundary7to6
    {
        type            processor;
        value           nonuniform List<scalar> 
11
(
0.0125418387686
0.0125593569483
0.0125817164648
0.0126031669337
0.0126230371096
0.0126471743851
0.0126471743851
0.0138414239929
0.017249156223
0.0175299219887
0.0179217971428
)
;
    }
    procBoundary7to8
    {
        type            processor;
        value           nonuniform List<scalar> 
17
(
0.0102084490796
0.0103632054784
0.0112479303336
0.0115631681471
0.0116863336538
0.011753755804
0.0118103488813
0.0118695486705
0.0119441128681
0.0119441128681
0.0120099364537
0.0120820365477
0.0121486354429
0.0121486354429
0.0122314962269
0.0123227730138
0.0123227730138
)
;
    }
    procBoundary7to9
    {
        type            processor;
        value           nonuniform List<scalar> 
16
(
0.0103874905775
0.0105851963304
0.0113877696407
0.0116150481704
0.0116793699401
0.0117074271981
0.0117309912607
0.0117566891842
0.0117856903392
0.0118183688101
0.0118561479859
0.0119059591152
0.0119958399385
0.0122205318458
0.0128459097797
0.0144923628298
)
;
    }
}


// ************************************************************************* //
