/*--------------------------------*- C++ -*----------------------------------*\
| =========                 |                                                 |
| \\      /  F ield         | OpenFOAM: The Open Source CFD Toolbox           |
|  \\    /   O peration     | Version:  v2012                                 |
|   \\  /    A nd           | Website:  www.openfoam.com                      |
|    \\/     M anipulation  |                                                 |
\*---------------------------------------------------------------------------*/
FoamFile
{
    version     2.0;
    format      ascii;
    class       volVectorField;
    location    "1.6";
    object      ddtCorrDdt0(U);
}
// * * * * * * * * * * * * * * * * * * * * * * * * * * * * * * * * * * * * * //

dimensions      [0 1 -2 0 0 0 0];


internalField   nonuniform List<vector> 
167
(
(0.25161069191 0.0187773183864 2.75108451592e-22)
(0.256691297751 0.0238252635763 5.05308932139e-23)
(0.263214623267 0.0286030913834 9.19384707911e-24)
(0.271247065785 0.0330398388542 -4.78607983038e-25)
(0.28091261835 0.0370343420798 3.56116036421e-23)
(0.292381011891 0.0404713242355 9.10665716453e-23)
(0.305879126693 0.0432166015514 -3.73881224126e-24)
(0.321718583439 0.0451193581089 -5.06108995126e-23)
(0.240096544902 0.00977220242549 -4.64371470072e-22)
(0.242019222467 0.0163369623522 -4.36822926654e-23)
(0.245745813344 0.0233266584695 9.84542813987e-23)
(0.251015971706 0.0297830962506 5.01261391437e-23)
(0.257788288492 0.0360565848351 4.956436964e-23)
(0.26614065047 0.0421092140874 -1.04387750093e-23)
(0.276208223275 0.0478778491929 -3.74710503047e-23)
(0.288171158744 0.0532974327021 3.85476673793e-23)
(0.302263609567 0.0583027512891 -1.18417655377e-23)
(0.318795516028 0.0628480123318 -1.02563423088e-22)
(0.33818110514 0.0669531145752 8.67205629395e-23)
(0.232700285748 0.011716018719 2.45538936619e-22)
(0.234673103198 0.0195311165051 3.34210723548e-22)
(0.238487737597 0.0280033144008 1.7565167366e-22)
(0.24386808372 0.0359131670037 -2.4110976971e-23)
(0.250782568401 0.0437334994709 2.16020735255e-23)
(0.259314485001 0.0514592947888 -5.5282863759e-24)
(0.269601447193 0.0590638004725 -2.81047716171e-24)
(0.281821536292 0.0665266851236 5.51051772352e-23)
(0.296197658001 0.0738376041961 -1.32299728487e-24)
(0.313009519029 0.0810197193129 -4.16396852504e-23)
(0.33259707893 0.088166964982 8.68507234754e-23)
(0.223971384473 0.0136853663009 -1.53323015674e-21)
(0.225963021379 0.022757164834 5.88436624624e-23)
(0.22980653295 0.0327368136292 2.03609682023e-22)
(0.235213958164 0.0421194915858 -2.11398520867e-23)
(0.242160382093 0.0515074558585 4.38485502491e-23)
(0.250729683425 0.060926615917 5.0775134938e-25)
(0.261055774856 0.0703828350097 -4.64192505695e-23)
(0.273307475844 0.0798928232695 1.15486011781e-22)
(0.287689472042 0.0894865003146 1.78972500909e-23)
(0.304449111506 0.0992292317117 2.57238042212e-23)
(0.210834925928 0.00680276215199 -2.12202622292e-22)
(0.213903334515 0.0156514000106 -3.20506264918e-22)
(0.215883464685 0.0259680148311 3.93324256379e-22)
(0.219695974925 0.0374551178493 9.57491084936e-23)
(0.225047364508 0.0483051523589 -1.11140151909e-23)
(0.231917054998 0.0592529877859 3.49633744423e-23)
(0.240386125849 0.0703527636692 1.92620557362e-23)
(0.250581005838 0.0816389180525 1.29044818467e-22)
(0.262658045054 0.0931588655059 4.4305685408e-23)
(0.276803100993 0.104973967896 4.35885769752e-23)
(0.293238365452 0.117182807134 5.9207436125e-24)
(0.199579080243 0.00760051527533 7.88821721563e-22)
(0.20250983712 0.0175849448212 -9.40648376914e-22)
(0.20444990287 0.0291175113215 -3.48755421886e-22)
(0.208172722513 0.0420869889564 5.56023372861e-22)
(0.213387670875 0.0543755610562 1.08140587725e-22)
(0.220076904736 0.0668496548362 1.14606085553e-23)
(0.228316418246 0.0795886926037 7.91501225896e-23)
(0.238222836625 0.0926520490173 4.25726177576e-23)
(0.249938490062 0.106113358464 1.09371785788e-22)
(0.263631022425 0.120061248967 6.39138774294e-23)
(0.279501252111 0.134626511467 -4.82963461125e-24)
(0.187062467135 0.00837136853353 1.38535813385e-21)
(0.189824673507 0.0194572356012 3.07077084666e-22)
(0.191697687769 0.0321616855116 5.21433375131e-22)
(0.195274822895 0.0465642117917 1.20070329799e-22)
(0.200277565493 0.0602412355212 3.70135933877e-23)
(0.206689788436 0.0741850195312 6.09910912595e-23)
(0.214580837999 0.0884972458005 3.45919478485e-23)
(0.224055979167 0.103258946903 -8.59537881266e-23)
(0.23524246033 0.118566185322 1.03448428401e-22)
(0.248289396843 0.134531116759 6.85086191218e-23)
(0.173337730184 0.00910170709638 6.54087747026e-22)
(0.175900689895 0.0212404537924 7.8392010909e-22)
(0.177680898632 0.0350591312381 1.63957160723e-22)
(0.181059880984 0.0508229639269 1.50022049068e-22)
(0.18578047886 0.0658193810468 3.10767145323e-23)
(0.191827692562 0.0811562346588 1.5459690511e-23)
(0.199263144898 0.0969544118178 9.83804009573e-24)
(0.208179646665 0.113313341297 5.74565914641e-24)
(0.21868826762 0.130347786438 4.55409560994e-23)
(0.15847521484 0.00977785961641 -6.15190934947e-23)
(0.160808271153 0.0229072991609 -1.11388735154e-21)
(0.162470423337 0.0377709178309 1.18986056074e-21)
(0.165602491428 0.0548044843367 2.35446978592e-22)
(0.169977578712 0.0710349098853 2.08288112362e-22)
(0.175581326574 0.0876711227617 3.86531056794e-23)
(0.182466722117 0.104849957684 1.0961589265e-22)
(0.190713444382 0.122685992996 1.18411200732e-22)
(0.200416109522 0.141309166969 9.95739905857e-23)
(0.142563319256 0.0103855072904 9.01879012175e-22)
(0.144632748944 0.0244304403769 -3.34273468019e-22)
(0.146151001283 0.0402600375998 1.3785206295e-21)
(0.148990808017 0.0584553835562 2.63802963532e-22)
(0.152964285933 0.075821202604 4.92407498191e-23)
(0.158056578279 0.0936489372356 6.96973705702e-23)
(0.164310848803 0.112088216917 1.16464714312e-23)
(0.171793263594 0.1312660956 6.946659007e-23)
(0.180582522315 0.151324526857 -4.83162933136e-23)
(0.190769345603 0.172422436205 -4.67109810752e-24)
(0.125709488675 0.0109086437746 2.78941443402e-22)
(0.127475923888 0.0257794435495 1.04285861601e-21)
(0.128818808343 0.0424901016042 5.89060232915e-22)
(0.131324119621 0.0617277675795 3.77840351253e-22)
(0.134848509816 0.0801209904122 1.53942490364e-22)
(0.139373014813 0.0990213145661 -3.60454586317e-23)
(0.144928847514 0.118588805706 9.10947900933e-23)
(0.151568368566 0.1389613196 -7.44124582687e-24)
(0.159355386388 0.160290660559 6.00920471706e-23)
(0.168363528486 0.182743646419 1.06943618678e-22)
(0.10805310787 0.0113248814396 7.19343073416e-22)
(0.109458563956 0.0269152561723 -9.47596827182e-22)
(0.110581593536 0.0444230015385 1.60634323827e-21)
(0.112714972315 0.0645804243682 2.45091773419e-22)
(0.115755041318 0.0838883650665 2.05107137858e-23)
(0.119669137155 0.103733474845 6.57497944051e-23)
(0.12447318126 0.124286610346 2.03423646745e-23)
(0.130206071402 0.145696905474 2.2662521212e-23)
(0.136918583518 0.168125287019 5.36584466575e-23)
(0.144669973853 0.191744880447 3.31759829895e-23)
(0.0897843586559 0.0115967788434 6.10452262562e-22)
(0.0907157007975 0.0277780198016 5.7430055653e-22)
(0.0915404037471 0.0460170495541 4.79535414189e-22)
(0.0932801361967 0.0669857982513 2.55119670045e-22)
(0.0958215295603 0.0870959175058 8.37929907917e-23)
(0.0990989555823 0.107749504251 1.07456594546e-22)
(0.103110983319 0.129135789869 4.9454702308e-23)
(0.107885991468 0.151418741202 7.13847888657e-23)
(0.11346519826 0.174768841323 2.9776747435e-23)
(0.119896768281 0.199365019807 3.96497740924e-23)
(0.0711865621036 0.0116435493936 3.54362556189e-22)
(0.07127394393 0.0282592262842 7.2193443614e-22)
(0.0716486698129 0.0472307075546 7.56239826341e-22)
(0.0730372707503 0.0689537313209 8.38942521999e-23)
(0.0751047141168 0.0897513000921 -3.56933372e-22)
(0.0777372305411 0.111063764089 1.05066780113e-22)
(0.080927956012 0.13312036474 -1.57250752161e-22)
(0.0847040327635 0.156105494248 1.58528455094e-22)
(0.0891012442714 0.180198759417 3.72261425474e-22)
(0.0941586707925 0.20558345295 -4.34850348295e-22)
(0.0476701938828 0.0112156802963 1.38318216456e-21)
(0.0492237909355 0.028013121803 5.53734405659e-22)
(0.0493603643577 0.0480563927594 8.50123085162e-22)
(0.0506160935734 0.0705978628074 2.52980795048e-22)
(0.0522179886097 0.0919253482314 2.20065011982e-22)
(0.0541524317763 0.113717707446 1.11657059417e-21)
(0.0564609420257 0.136272078085 3.30657068575e-22)
(0.0591856185664 0.15978794944 1.20705171982e-21)
(0.062362410196 0.184447170379 1.75798788057e-21)
(0.0284283036064 0.012836198968 3.41108382291e-22)
(0.0308527541713 0.0298479865523 9.18161304641e-22)
(0.0293498877945 0.0490311675391 3.52884058491e-22)
(0.0310161994054 0.0721017331701 1.20525784726e-22)
(0.032355714732 0.0935695004793 -7.88483508531e-23)
(0.0337255853838 0.115642861347 -2.93533354474e-22)
(0.0352436111325 0.13855891402 1.10583095916e-21)
(0.0369723651347 0.162485590643 -1.81670966354e-21)
(0.0389511883929 0.187592858064 8.41549845516e-22)
(0.0125500792719 0.0125345009279 5.27973168892e-23)
(0.013479109367 0.0281214505069 2.13470529624e-22)
(0.0118347904506 0.04809430415 -3.13383193176e-22)
(0.012878106823 0.0732226835202 -5.90799092107e-22)
(0.0135515912806 0.0940215338504 3.01745530737e-22)
(0.0141326403409 0.115839126698 6.09445612179e-22)
(0.0147155934614 0.138619716482 -4.13980876629e-23)
(0.0153397363616 0.162461814827 2.8685140164e-22)
(0.0160253158953 0.187512744632 5.45178142178e-22)
)
;

boundaryField
{
    back
    {
        type            calculated;
        value           uniform (0 0 0);
    }
    sides
    {
        type            calculated;
        value           uniform (0 0 0);
    }
    bottom
    {
        type            calculated;
        value           uniform (0 0 0);
    }
    front
    {
        type            calculated;
        value           uniform (0 0 0);
    }
    atmosphere
    {
        type            calculated;
        value           nonuniform List<vector> 0();
    }
    floatingObject
    {
        type            calculated;
        value           nonuniform List<vector> 0();
    }
    procBoundary10to9
    {
        type            processor;
        value           nonuniform List<vector> 
15
(
(0.25613541194 0.0144209557525 2.46635274285e-22)
(0.260955089049 0.0181305962155 5.60630378163e-24)
(0.267132173579 0.0214946836239 1.81680039431e-23)
(0.274714854206 0.0244116889023 -1.05684628402e-24)
(0.283806090033 0.0267448959219 1.78266556851e-23)
(0.294550001945 0.0283309512988 6.62725488689e-23)
(0.30714122047 0.0289679440513 3.90487019415e-23)
(0.321846785715 0.028400972501 7.68477775517e-24)
(0.246185982933 0.00788112296298 1.36944248854e-22)
(0.248027812575 0.0132209690583 2.63961211059e-22)
(0.248027812575 0.0132209690583 2.63961211059e-22)
(0.236792216958 0.00438356049355 4.83389014195e-22)
(0.229446796971 0.00518149842927 -5.79025575682e-22)
(0.220795850596 0.00599199469116 9.75913014935e-22)
(0.220795850596 0.00599199469116 9.75913014935e-22)
)
;
    }
    procBoundary10to11
    {
        type            processor;
        value           nonuniform List<vector> 
23
(
(0.340341348703 0.0460247597599 4.69906423875e-23)
(0.340341348703 0.0460247597599 4.69906423875e-23)
(0.361002725516 0.0707524836092 5.06426722374e-23)
(0.355366308811 0.0954143125412 -3.2563168411e-23)
(0.323871645533 0.109241495355 1.72345570344e-22)
(0.323871645533 0.109241495355 1.72345570344e-22)
(0.312219495486 0.129930272778 5.78894328939e-23)
(0.297783392793 0.149988626671 3.73892464312e-24)
(0.263375701004 0.151315566621 -8.08746877156e-23)
(0.263375701004 0.151315566621 -8.08746877156e-23)
(0.230918160796 0.148189809374 -3.36819786262e-23)
(0.230918160796 0.148189809374 -3.36819786262e-23)
(0.211684050451 0.160867560336 1.90308668422e-22)
(0.211684050451 0.160867560336 1.90308668422e-22)
(0.202459909513 0.194773911752 3.42494334477e-23)
(0.178677890868 0.206540411674 4.69830616654e-23)
(0.153528839366 0.216779156256 2.19893714755e-23)
(0.127236329727 0.225433737478 6.76273856883e-23)
(0.0999199378291 0.232489160691 1.39349939753e-22)
(0.0660245792708 0.210433746928 -6.40941944724e-22)
(0.0660245792708 0.210433746928 -6.40941944724e-22)
(0.0412111979281 0.214057933125 6.94520499744e-22)
(0.0167870078307 0.213952333117 -7.238795319e-22)
)
;
    }
}


// ************************************************************************* //
