/*--------------------------------*- C++ -*----------------------------------*\
| =========                 |                                                 |
| \\      /  F ield         | OpenFOAM: The Open Source CFD Toolbox           |
|  \\    /   O peration     | Version:  v2012                                 |
|   \\  /    A nd           | Website:  www.openfoam.com                      |
|    \\/     M anipulation  |                                                 |
\*---------------------------------------------------------------------------*/
FoamFile
{
    version     2.0;
    format      ascii;
    class       surfaceVectorField;
    location    "1.6";
    object      ddtCorrDdt0(Uf);
}
// * * * * * * * * * * * * * * * * * * * * * * * * * * * * * * * * * * * * * //

dimensions      [0 1 -2 0 0 0 0];


internalField   nonuniform List<vector> 
304
(
(0.254150994831 0.0213725513368 1.62819672403e-22)
(0.248866259497 0.0210519884279 1.86781366495e-22)
(0.259952960509 0.0263155930134 2.98623701465e-23)
(0.254053481364 0.0268041799135 5.03285161788e-23)
(0.267230844526 0.0309568996484 4.35761954803e-24)
(0.260717593011 0.0323298381092 2.93791083596e-23)
(0.276079842068 0.0352081693823 1.75664978295e-23)
(0.2689317791 0.0375745264708 -5.45869149617e-24)
(0.28664681512 0.0389650005673 6.33390876437e-23)
(0.278827228546 0.0424560956363 -9.29723331306e-25)
(0.299130069292 0.0421047661387 4.3663879702e-23)
(0.290581361059 0.0468843784688 6.48071195123e-23)
(0.313798855066 0.0444855876063 -2.71748558769e-23)
(0.30442864803 0.0507596764203 -7.79028888949e-24)
(0.320687056039 0.0539836852204 -7.65871613004e-23)
(0.241057883684 0.0134116118567 -2.54026881369e-22)
(0.236593906087 0.0107441105723 -1.09416266727e-22)
(0.243882517906 0.0200714429957 2.73859943667e-23)
(0.238543274934 0.0179340394287 1.45264215441e-22)
(0.248380892525 0.0266137385663 7.42902102712e-23)
(0.242323805613 0.0256649864351 1.37052977529e-22)
(0.254402130099 0.0330038717122 4.98452543919e-23)
(0.247663227428 0.0328481316271 1.30075810863e-23)
(0.261964469481 0.039195562934 1.95627973154e-23)
(0.254525819827 0.039895042153 3.55832215828e-23)
(0.271174436872 0.0451342537365 -2.3954912657e-23)
(0.262993031729 0.0467842544381 -7.9835306926e-24)
(0.282189691009 0.0507589563693 5.38308537289e-25)
(0.273202492108 0.0534708248327 -2.01407637332e-23)
(0.295217384155 0.0560054298116 1.33529509208e-23)
(0.285334837641 0.0599120589129 4.68264223072e-23)
(0.310529562797 0.0608139721207 -5.72025943129e-23)
(0.299619984868 0.0660701777426 -6.5823814113e-24)
(0.328488310584 0.0651482136517 -7.92143007431e-24)
(0.31635257884 0.0719338658224 -7.21015541693e-23)
(0.335902243349 0.0775600397786 8.67856432074e-23)
(0.233686694473 0.0160330276779 2.89874830083e-22)
(0.228544278804 0.01270069251 -6.43845610062e-22)
(0.236580420398 0.0240477274792 2.54931198604e-22)
(0.230528418791 0.0211441406695 1.96527193005e-22)
(0.241177910659 0.0320028235793 7.57703483444e-23)
(0.234368595875 0.030370064015 1.89630677842e-22)
(0.247325326061 0.0398877836331 -1.25445172276e-24)
(0.239778195764 0.0390163292947 -2.26254145289e-23)
(0.255048526701 0.0476839947718 8.03689357481e-24)
(0.246729578719 0.0476204776647 3.27253118873e-23)
(0.264457966097 0.0553700436516 -4.16938176881e-24)
(0.255306990166 0.0561929553529 -2.51026751326e-24)
(0.275711491742 0.0629255442019 2.61473500367e-23)
(0.265647027817 0.0647233177411 -2.46148638656e-23)
(0.289009597146 0.0703365976728 2.68910899752e-23)
(0.27792382906 0.0732097541965 8.52955945082e-23)
(0.304603588515 0.0776053442198 -2.14813412676e-23)
(0.292351176447 0.0816620522554 8.28712640304e-24)
(0.32280329898 0.0847680135561 2.26055191125e-23)
(0.30918987281 0.0901244755123 -7.95794051461e-24)
(0.224967202926 0.0186854416108 -7.3719324714e-22)
(0.219154663491 0.0146683831558 -9.2686821083e-22)
(0.227884777164 0.0280711965719 1.31226672243e-22)
(0.221142538376 0.0243625898325 2.26083959421e-22)
(0.232510245557 0.0374573525166 9.12349149682e-23)
(0.224982359066 0.0350959657393 1.49679395258e-22)
(0.238687170128 0.0468571775145 1.13543490812e-23)
(0.230378336276 0.0452123219723 -1.61269336388e-23)
(0.246445032759 0.0562785940209 2.21781507992e-23)
(0.237308179587 0.0553802218222 3.94059623457e-23)
(0.25589272914 0.0657307749608 -2.29557496101e-23)
(0.245854871694 0.0656396897931 9.8849035428e-24)
(0.26718162535 0.0752287033237 3.45333806059e-23)
(0.25614919982 0.0760108765311 4.13127839486e-23)
(0.280498473943 0.0847983952917 6.66916309361e-23)
(0.268354239711 0.0865258443877 7.98958485946e-23)
(0.296069291774 0.0944844814684 2.18105271561e-23)
(0.282665173997 0.0972302341055 3.07429135331e-23)
(0.299315558442 0.108206019423 1.58222739168e-23)
(0.212369130222 0.0106031940418 -2.66354443605e-22)
(0.205436463745 0.00720163871366 2.88309549636e-22)
(0.2148933996 0.0213293866148 3.64089957305e-23)
(0.208428331786 0.0166181724159 -6.30577320916e-22)
(0.217789719805 0.0320813896011 2.44536682436e-22)
(0.210390430706 0.0275427630763 2.22844172468e-23)
(0.222371669717 0.0428934607461 4.23175466513e-23)
(0.214170228794 0.0397710534029 3.25886240677e-22)
(0.228482209753 0.0538015399192 1.19246796257e-23)
(0.219470253217 0.0513403567075 4.85132862669e-23)
(0.236151590423 0.0648381100107 2.71127150893e-23)
(0.226271663401 0.063051321311 2.32119914988e-23)
(0.245483565843 0.0760396733846 7.41534371014e-23)
(0.234653415731 0.0749707281364 4.92060891629e-23)
(0.256619525446 0.0874513899564 8.66752519373e-23)
(0.244737627495 0.0871454835349 8.58087181121e-23)
(0.269730573023 0.0991316908918 4.39471311916e-23)
(0.256674088799 0.0996361119847 7.6838735598e-23)
(0.285020733223 0.111156596513 2.47546602939e-23)
(0.270640336824 0.112517608432 5.37512272023e-23)
(0.286848624362 0.125904659301 5.45554500626e-25)
(0.201044458681 0.0118858959327 -7.59133276754e-23)
(0.193550430609 0.00798594190443 1.0870899277e-21)
(0.203479869995 0.0239253023645 -6.447018994e-22)
(0.196388798933 0.0185210902112 -3.16785646124e-22)
(0.206311312691 0.0360180924092 1.03633975488e-22)
(0.19829754694 0.0306395984166 8.63389766228e-23)
(0.210780196694 0.048228669603 3.32081980293e-22)
(0.201959608555 0.0443256003741 3.3804685133e-22)
(0.216732287806 0.0606138111658 5.98005981399e-23)
(0.20708512828 0.0573083982887 7.25770905561e-23)
(0.224196661491 0.0732281662499 4.53053655724e-23)
(0.213657387093 0.0705173371837 3.62258499074e-23)
(0.233269627435 0.0861322644979 6.08613701736e-23)
(0.221749447771 0.0840429692021 5.68710352191e-23)
(0.244080663344 0.0993973517214 7.59722017728e-23)
(0.231472700729 0.0979554979601 -2.16905851845e-23)
(0.256784756244 0.113108798739 8.66428316087e-23)
(0.242962716989 0.112339771893 1.06410107095e-22)
(0.271566137268 0.127370684726 2.95421214091e-23)
(0.256378638822 0.127296182863 6.62112482756e-23)
(0.188443570321 0.0131253308657 8.46217609256e-22)
(0.180424967963 0.00873653781495 1.01972294044e-21)
(0.190761180638 0.026434511949 4.14255229898e-22)
(0.18307949536 0.0203488446968 5.45498596878e-22)
(0.193486255332 0.0398233774482 3.20751852465e-22)
(0.184908594487 0.0336104083749 3.42695267927e-22)
(0.197776194194 0.0533844871826 7.85419615936e-23)
(0.188398465334 0.0486935878593 1.35046189434e-22)
(0.203483676965 0.0671934087805 4.90023423236e-23)
(0.193276234585 0.063030308284 3.404515396e-23)
(0.210635313218 0.0813243352126 4.7791519554e-23)
(0.199526546887 0.077670627095 3.82253908852e-23)
(0.219318408583 0.0958586930505 -2.5680920139e-23)
(0.207215218925 0.0927258288092 2.22149939721e-23)
(0.229649219749 0.110889650259 8.74732013745e-24)
(0.216441832044 0.1082861441 -4.01040644901e-23)
(0.241765928586 0.1265263309 8.59785237617e-23)
(0.227326160144 0.12445698588 7.44946922504e-23)
(0.17461921004 0.0143031697406 7.19003928058e-22)
(0.166121666731 0.00943978335639 2.96284326766e-22)
(0.176790794263 0.0288204545937 4.73938634907e-22)
(0.168562089381 0.0220738764767 -1.64983621224e-22)
(0.179370389808 0.0434426881666 1.56989604896e-22)
(0.170286277312 0.0364150245345 6.76908860731e-22)
(0.183420179922 0.0582879019415 9.05493818e-23)
(0.173553221946 0.0528137241318 1.9273451383e-22)
(0.188804085711 0.0734479249447 2.32682025217e-23)
(0.178116239753 0.068427145466 1.19682413447e-22)
(0.19554541873 0.0890136681172 1.26488653034e-23)
(0.183960880124 0.0844136787103 2.70563980952e-23)
(0.203721395782 0.105084159941 7.79184962107e-24)
(0.191144812378 0.100902184751 5.97269663728e-23)
(0.213433957143 0.121771270441 2.56433076229e-23)
(0.19975473455 0.117999667147 6.20784299392e-23)
(0.209893832247 0.135828476703 7.25574733426e-23)
(0.159641742997 0.0154014572474 -5.87703222516e-22)
(0.150720077223 0.0100816834534 4.2017995934e-22)
(0.161639347245 0.0310483507339 3.79866046003e-23)
(0.152915074189 0.0236688697689 -7.24080409778e-22)
(0.164036457382 0.0468252999879 7.12653769665e-22)
(0.154509244298 0.0390154777154 1.28419059512e-21)
(0.16779003507 0.0628722840557 2.21867545477e-22)
(0.157506206429 0.0566299339465 2.49624971062e-22)
(0.172779452643 0.0792941759819 1.23470609021e-22)
(0.161694367422 0.0734280562446 1.28764431091e-22)
(0.179024024345 0.0961955036281 7.41344991646e-23)
(0.167059604844 0.0906600299986 5.41752381248e-23)
(0.186590083249 0.113689819268 1.14013546691e-22)
(0.173650506028 0.1084690873 6.06311820405e-23)
(0.195564776952 0.131904168385 1.08992595659e-22)
(0.181540315234 0.126976044298 9.3938895401e-23)
(0.190815935528 0.146316846913 2.56288486361e-23)
(0.1435980341 0.0164021298135 2.83802772078e-22)
(0.134317812163 0.0106470755325 5.90410227789e-22)
(0.145391875114 0.033084460703 5.2212358074e-22)
(0.136232617546 0.0251049419632 3.54292573997e-22)
(0.14757090465 0.0499242875606 8.21161796515e-22)
(0.13766932936 0.041375069602 9.83790431207e-22)
(0.150977546975 0.067077994245 1.56521856676e-22)
(0.140352462153 0.0600915755679 3.20821657392e-22)
(0.155510432106 0.0846590145535 5.94690601947e-23)
(0.144113353598 0.0779710965081 1.01591620091e-22)
(0.161183713541 0.102782215714 4.06719210007e-23)
(0.148936429933 0.0963351259009 1.68259559692e-23)
(0.168052056199 0.121573080318 4.05565307506e-23)
(0.154859634023 0.115338511311 5.13706307622e-23)
(0.176187892955 0.14117074046 1.05751483782e-23)
(0.161942472154 0.1351137076 3.10126721216e-23)
(0.185675933959 0.16173010221 -2.64936957106e-23)
(0.170256093644 0.155807593708 5.88787692848e-24)
(0.179882308333 0.177583041312 5.11362602852e-23)
(0.126592706281 0.017284219348 6.60900029708e-22)
(0.11703345 0.0111167626071 4.99142258409e-22)
(0.128147366115 0.0348936686269 8.15959424464e-22)
(0.118623033565 0.0263473498609 4.76308944155e-23)
(0.130071463982 0.0526960222071 4.83450292084e-22)
(0.119866879386 0.0434565515714 1.09770173559e-21)
(0.133086314719 0.0708530977855 2.65891420808e-22)
(0.122195341033 0.0631540959738 3.11466062336e-22)
(0.137110762314 0.0894803085208 5.8948515866e-23)
(0.125486139049 0.0820046777394 8.72266020748e-23)
(0.142150931163 0.108700049826 2.75246657308e-23)
(0.129716698346 0.101377394705 1.48521678867e-23)
(0.14824860804 0.128648110574 4.18267721332e-23)
(0.134911548017 0.121437708026 5.57185773839e-23)
(0.155461877477 0.149474098519 2.63254006719e-23)
(0.14111625991 0.142329112537 7.61063769258e-24)
(0.163859457437 0.171341898786 8.35178329243e-23)
(0.148387749848 0.164207973789 5.6875246914e-23)
(0.15679180183 0.187244263433 7.00598008337e-23)
(0.108755835913 0.0180169684022 -1.14126876883e-22)
(0.0990163254356 0.0114608301415 6.64897667989e-22)
(0.110020078746 0.0364344243544 3.29373205545e-22)
(0.100205429271 0.0273466379869 -1.86648135326e-22)
(0.111648282926 0.0551003587693 9.25717505846e-22)
(0.10120083798 0.0452200255463 1.04293932623e-21)
(0.114235006817 0.0741555309952 1.32801243603e-22)
(0.103140117152 0.0657831113097 2.50105721732e-22)
(0.117712089236 0.0937086403938 4.31302540954e-23)
(0.105933024492 0.0854921412862 5.21518522887e-23)
(0.122071159207 0.113889484 4.30460795398e-23)
(0.109535866978 0.105741489548 8.66031944756e-23)
(0.127339626331 0.134845159396 2.15024429433e-23)
(0.113955855025 0.126711200108 3.48985334913e-23)
(0.13356232746 0.156735584963 3.81604839348e-23)
(0.119225624101 0.148557823338 4.70236550389e-23)
(0.140794278686 0.179732556102 4.34172148235e-23)
(0.125390256775 0.171447064171 4.17175970462e-23)
(0.132502955041 0.195554950127 3.64128785409e-23)
(0.0902500297267 0.0185436524727 5.92376409546e-22)
(0.08047249881 0.0116201641185 4.82407409376e-22)
(0.0911280522723 0.0376479602276 5.2691798536e-22)
(0.0811009571242 0.0280186230429 6.48117496335e-22)
(0.0924102699719 0.0571062058027 3.67327542117e-22)
(0.0817424755666 0.0466238785544 6.17887620265e-22)
(0.0945508328785 0.076961191313 1.69456330418e-22)
(0.0832850793571 0.0679697647861 1.69506961122e-22)
(0.0974602425713 0.0973134496902 9.56247926689e-23)
(0.085580772473 0.0884236087989 -1.36570190604e-22)
(0.101104969451 0.118309750883 7.84556484271e-23)
(0.0885396043733 0.10940663417 1.06261687329e-22)
(0.105498487393 0.140114101942 6.04197455869e-23)
(0.092151529047 0.131128077304 -5.38980249263e-23)
(0.110675594864 0.162898294356 5.05807681503e-23)
(0.09644128948 0.153762117725 1.1495662198e-22)
(0.116680983271 0.186841106819 3.47132607637e-23)
(0.10144699181 0.17748380037 2.01019086455e-22)
(0.10721218575 0.202474236379 -1.97600287101e-22)
(0.0712302530168 0.018717823128 5.38148496165e-22)
(0.0617544824189 0.011429614845 8.68772360374e-22)
(0.0714613068715 0.0384480814777 7.3908713124e-22)
(0.061370519798 0.0281361740436 6.378344209e-22)
(0.0723429702816 0.0587174244651 4.2006703927e-22)
(0.0614730103375 0.047643550157 8.03181455752e-22)
(0.0740709924336 0.0792843946034 -1.365195599e-22)
(0.0627180646258 0.0697757970642 1.68437523624e-22)
(0.076420972329 0.100295771975 -1.25933295944e-22)
(0.0645694268563 0.0908383241618 -6.8434180009e-23)
(0.0793325932765 0.121949077893 -2.60919860239e-23)
(0.0668863842526 0.112390735768 6.10818687142e-22)
(0.0828159943877 0.144435668624 6.38851466849e-25)
(0.0696650347021 0.134696221413 8.6703158207e-23)
(0.0869026385175 0.167939778361 2.65394940284e-22)
(0.072937115934 0.157946721844 6.82790087456e-22)
(0.0916299575319 0.192645917889 -3.12944614104e-23)
(0.0767407256464 0.182322964898 1.06512465302e-21)
(0.0484469924092 0.0179144837027 9.68458285109e-22)
(0.0438397748659 0.0120259396322 8.62145273425e-22)
(0.0492920776466 0.0387469601967 7.01928745411e-22)
(0.0405378544476 0.0289305541776 7.3594785515e-22)
(0.0499882289656 0.0600653472395 5.51551940105e-22)
(0.0401545066139 0.0485437801492 6.01503571826e-22)
(0.0514170410916 0.0812172746119 2.36522903515e-22)
(0.0415661144648 0.0713497979887 1.86753289887e-22)
(0.053185210193 0.102705962697 6.68317803076e-22)
(0.0430808111152 0.0927474243554 7.06083305645e-23)
(0.055306686901 0.124841381236 7.23613831373e-22)
(0.044751112755 0.114680284396 4.11518619848e-22)
(0.0578232802961 0.147840629777 7.68854394197e-22)
(0.046665956614 0.137415496052 7.18244013869e-22)
(0.0607740143812 0.17189189991 1.48251980019e-21)
(0.048885994473 0.161136770042 -3.04828971862e-22)
(0.0514519107232 0.186020014221 1.29976886304e-21)
(0.0296405288889 0.0194487928192 6.29634843466e-22)
(0.024390752896 0.012685349948 1.9695284959e-22)
(0.0301013209829 0.0399153814686 6.35522681566e-22)
(0.0200710872385 0.0289847185296 5.65815917133e-22)
(0.0301830435999 0.0615365382133 2.36704921608e-22)
(0.0185332556074 0.0485627358445 1.97504326573e-23)
(0.0316859570687 0.0827473922147 2.08387169363e-23)
(0.0203552699555 0.0726622083452 -2.35136653691e-22)
(0.0330406500579 0.104462205577 -1.86190852664e-22)
(0.0213661102324 0.0937955171648 1.11448589942e-22)
(0.0344845982582 0.126928160884 4.06148802345e-22)
(0.0222853500841 0.115740994023 1.57956128852e-22)
(0.0361079881336 0.150316207183 -3.55439352189e-22)
(0.0232781428124 0.138589315251 5.3221643575e-22)
(0.0379617767638 0.174796898373 -4.87579909013e-22)
(0.0244055643421 0.162473702735 -7.64929130951e-22)
(0.025700372551 0.187552801348 6.93363993847e-22)
(0.0130145943195 0.0243906507492 1.33133923257e-22)
(0.0126569499088 0.0444616724362 -4.9956331776e-23)
(0.0123564486368 0.0629949124175 -4.52091142641e-22)
(0.0132148490518 0.0833502208443 -1.44526780685e-22)
(0.0138421158107 0.104716416738 4.55595571458e-22)
(0.0144241169011 0.127001884728 2.84023762258e-22)
(0.0150276649115 0.150280170069 1.22726656989e-22)
(0.0156825261284 0.174685899682 4.16014771909e-22)
)
;

boundaryField
{
    back
    {
        type            calculated;
        value           uniform (0 0 0);
    }
    sides
    {
        type            calculated;
        value           uniform (0 0 0);
    }
    bottom
    {
        type            calculated;
        value           uniform (0 0 0);
    }
    front
    {
        type            calculated;
        value           uniform (0 0 0);
    }
    atmosphere
    {
        type            calculated;
        value           nonuniform List<vector> 0();
    }
    floatingObject
    {
        type            calculated;
        value           nonuniform List<vector> 0();
    }
    procBoundary10to9
    {
        type            processor;
        value           nonuniform List<vector> 
15
(
(0.254038157147 0.0165991370694 2.60871862939e-22)
(0.258996837684 0.0209779298959 2.80685984978e-23)
(0.265359142437 0.0250488875037 1.36809255111e-23)
(0.273183277534 0.0287257638783 -7.67727133529e-25)
(0.282584247759 0.0318896190009 2.67191296636e-23)
(0.293721385455 0.0344011377671 7.86695602571e-23)
(0.306809693163 0.0360922728014 1.76549448501e-23)
(0.322146346379 0.0367601653049 -2.14630608787e-23)
(0.243320260871 0.00882666269424 -1.63713610609e-22)
(0.249819252243 0.0162011578854 2.69534831326e-22)
(0.245203451621 0.0147789657053 1.10139459197e-22)
(0.23844438093 0.00668584471249 9.50877206155e-24)
(0.23107354136 0.00798380345772 -1.66743319532e-22)
(0.222383617535 0.00929604988184 -2.78658570904e-22)
(0.216039876086 0.00639737842157 3.81855196322e-22)
)
;
    }
    procBoundary10to11
    {
        type            processor;
        value           nonuniform List<vector> 
23
(
(0.331029966071 0.0459443028211 -1.81012856259e-24)
(0.339799164447 0.0564889371675 6.68556026635e-23)
(0.349591915328 0.0690446390994 6.86816175884e-23)
(0.343981693871 0.0919272813375 2.71437775322e-23)
(0.328742792491 0.0987042301683 1.2959814691e-22)
(0.31416037852 0.104358775442 9.90346872828e-23)
(0.302728930469 0.123623636776 3.19050882532e-23)
(0.288642322452 0.142308058051 -5.45354984065e-25)
(0.271911253774 0.142971039044 -4.28521611634e-23)
(0.255832548923 0.14289678843 -6.18303429689e-24)
(0.240008141062 0.141360463066 1.74133202478e-23)
(0.224803214208 0.139203495325 5.9294887366e-24)
(0.206050079987 0.150981717699 1.44941329504e-22)
(0.20157740372 0.16664499827 9.28187851575e-23)
(0.196614627558 0.183424312593 1.47891676701e-23)
(0.173520709677 0.194431627453 7.69633401717e-23)
(0.149099406609 0.204020642292 2.75826772325e-23)
(0.123566549004 0.212131327462 5.36385798903e-23)
(0.0970393043108 0.218746071654 -1.47750204271e-22)
(0.081111614998 0.208008599939 -5.37896146509e-22)
(0.0641934947334 0.197180739649 5.58522967923e-22)
(0.0400811931605 0.200548647944 7.6803517263e-22)
(0.016406161863 0.200386327567 -8.93506948612e-23)
)
;
    }
}


// ************************************************************************* //
