/*--------------------------------*- C++ -*----------------------------------*\
| =========                 |                                                 |
| \\      /  F ield         | OpenFOAM: The Open Source CFD Toolbox           |
|  \\    /   O peration     | Version:  v2012                                 |
|   \\  /    A nd           | Website:  www.openfoam.com                      |
|    \\/     M anipulation  |                                                 |
\*---------------------------------------------------------------------------*/
FoamFile
{
    version     2.0;
    format      ascii;
    class       surfaceVectorField;
    location    "1.6";
    object      Uf_0;
}
// * * * * * * * * * * * * * * * * * * * * * * * * * * * * * * * * * * * * * //

dimensions      [0 1 -1 0 0 0 0];


internalField   nonuniform List<vector> 
304
(
(-0.0115375217959 -0.00405390132207 -9.29450494961e-23)
(-0.0111012916781 -0.00338298604366 -1.82999278342e-22)
(-0.0111846877254 -0.0051232823078 -1.9640553417e-23)
(-0.0108114947989 -0.00440548090075 -3.44126133788e-23)
(-0.0107179546141 -0.00617363776157 -2.65855284446e-25)
(-0.0104106676619 -0.00541281911565 4.60146547952e-24)
(-0.010131478593 -0.0071952342044 9.57894826659e-24)
(-0.00990207448945 -0.00639209661888 2.45485162893e-24)
(-0.00940828997341 -0.00817522401673 2.13613721115e-23)
(-0.00927282879927 -0.00732870014026 -6.96262086737e-24)
(-0.00852711200429 -0.00909664889548 1.95709355766e-23)
(-0.00850536579898 -0.00820606215927 2.55647464898e-23)
(-0.00746293621283 -0.00993784551671 3.15438980807e-24)
(-0.00757896546079 -0.00900158829181 6.15708866084e-24)
(-0.00646918021366 -0.00968870934946 -1.92143125292e-23)
(-0.0104547062908 -0.00175247910343 1.35461520532e-22)
(-0.00965456552212 -0.000866373713429 4.08414136787e-22)
(-0.0106896030079 -0.00275126639394 -4.00397332351e-22)
(-0.0101920056238 -0.00222648385584 -4.23402049283e-22)
(-0.0105056107607 -0.00374701889564 -1.24466842225e-22)
(-0.010105540854 -0.00312746040136 -1.88878203596e-22)
(-0.0101730168331 -0.00472311335579 -1.01705944823e-23)
(-0.00983540377054 -0.00406551828489 -3.99825912352e-23)
(-0.00973703767252 -0.00566847089428 7.3221723929e-24)
(-0.00946531440765 -0.00497883566428 -1.897935034e-24)
(-0.00919407850253 -0.006570686713 -1.4086717505e-23)
(-0.00899986233938 -0.00585270795273 -2.93483858735e-24)
(-0.00853095448944 -0.00741392498007 -2.75924648905e-24)
(-0.00842959222243 -0.006670062658 -1.83456124261e-23)
(-0.00773115849724 -0.00817779549274 1.21508995741e-23)
(-0.00774149243858 -0.00741148190418 1.33963147223e-23)
(-0.00677528908029 -0.00883611541875 -1.62116136764e-23)
(-0.00692063427495 -0.0080507051724 -1.62557459542e-24)
(-0.00563704131863 -0.00935581758508 -1.72387799103e-23)
(-0.00594945292892 -0.00855723532181 -2.53229719305e-23)
(-0.00480050127876 -0.00890189518283 -1.24047026746e-25)
(-0.00950916477216 -0.00161592566615 -1.50449433029e-22)
(-0.00876453755737 -0.00075460043725 6.33786137058e-22)
(-0.009727360232 -0.00254381352175 -2.11882920528e-22)
(-0.00926411868145 -0.00206437824164 -1.28222240035e-24)
(-0.00955814397106 -0.00346294660613 -1.04393952606e-22)
(-0.00918641054072 -0.00289364705412 -1.08375545017e-22)
(-0.00925500373856 -0.00435522962547 -3.17099317869e-23)
(-0.00894312489325 -0.00375652392618 -3.81066303625e-23)
(-0.00886116081802 -0.00520792974554 -1.21549460143e-23)
(-0.00861261889195 -0.00458760231039 -7.18569427182e-24)
(-0.00837551332543 -0.00600673451627 -7.19373350837e-24)
(-0.00820106119669 -0.00537117167503 -7.00027067516e-24)
(-0.00778900427642 -0.00673370091799 -2.19005121469e-24)
(-0.0077026272312 -0.00608860969722 -1.19105634549e-23)
(-0.00709055880948 -0.00736598064088 -3.801594472e-25)
(-0.00710921055782 -0.0067187187047 8.53538818705e-24)
(-0.0062676714967 -0.00787420821212 -1.07369328495e-23)
(-0.00641239182149 -0.00723301323916 -6.43648344861e-24)
(-0.0053025901441 -0.00822070670209 -8.20823904693e-24)
(-0.00560293558531 -0.00759929862797 -1.26044125099e-23)
(-0.00862919158514 -0.00149222614825 7.82953347686e-22)
(-0.00793519902648 -0.000653923604073 1.46614745985e-21)
(-0.00883473102189 -0.00235662414078 1.02225153111e-22)
(-0.00839972338952 -0.00191977868747 2.06979160138e-22)
(-0.00868574371682 -0.00320812228281 -4.20882227731e-23)
(-0.0083349166906 -0.0026864555954 -6.44546748841e-23)
(-0.00841872487918 -0.00402785228849 -1.35823928474e-23)
(-0.00812340026025 -0.0034848048258 -3.06038131846e-23)
(-0.00807507026583 -0.00480210721733 -2.03101893273e-24)
(-0.00783836937508 -0.00424687941732 -1.26485054089e-25)
(-0.00765629715362 -0.00551554547732 -1.17171006216e-23)
(-0.00748762696682 -0.00495676012981 -1.01866718728e-23)
(-0.00715763095359 -0.00614918782786 -1.18512405312e-24)
(-0.00706898634727 -0.00559525773377 -4.9040344508e-24)
(-0.00657371504875 -0.00667911756214 2.47906418564e-24)
(-0.00657927710439 -0.00614060810516 -1.95302576844e-24)
(-0.00589952158583 -0.00707501341993 -8.30396310908e-24)
(-0.00601648403135 -0.00656380351215 -5.80613179379e-25)
(-0.00537987567067 -0.00683384396586 3.40828360357e-24)
(-0.0064229469949 -0.000607258551115 1.41871535992e-21)
(-0.00491855654546 -0.000828919893901 8.0338439415e-22)
(-0.00780715299741 -0.00138364721386 8.90173272307e-22)
(-0.00715881347567 -0.000565863149279 1.52133908379e-21)
(-0.00800287604853 -0.00219319234307 4.02993321428e-23)
(-0.00759018288635 -0.0017950493497 -2.04199303514e-23)
(-0.00787769323125 -0.00298721345735 -5.29702652955e-23)
(-0.00754090158188 -0.00250912500764 -1.16465681932e-22)
(-0.00765088560622 -0.00374673193835 -1.71479053912e-23)
(-0.00736388850794 -0.00325433977862 -3.39949909597e-23)
(-0.00736209498468 -0.00445781015808 -8.28213799418e-24)
(-0.0071272974493 -0.00396129276272 -1.00214088743e-23)
(-0.00701540518722 -0.00510495599687 -3.37360570197e-24)
(-0.00684048556284 -0.004614624398 -8.22954461384e-24)
(-0.00661019786053 -0.00566922902981 -5.67193616612e-24)
(-0.00650471461371 -0.00519551310336 3.96595233162e-24)
(-0.00614656579907 -0.00612714625642 -5.01270313346e-24)
(-0.00612135543497 -0.00568276971859 -8.59914410794e-24)
(-0.0056264881545 -0.0064493260083 1.11316335333e-23)
(-0.00569428365607 -0.00604844010309 9.09242938342e-24)
(-0.00522997286161 -0.00626516462637 2.38601641366e-23)
(-0.0057511863463 -0.00055995014898 9.06008118021e-22)
(-0.00435860995882 -0.000823578732223 -2.17539294048e-22)
(-0.00703454673348 -0.00129186079256 6.10745881129e-22)
(-0.00642690797167 -0.000491341474535 1.622895162e-21)
(-0.00722215195258 -0.00205562834101 -1.77184944427e-22)
(-0.00682642188141 -0.00169138102162 -1.7881917208e-22)
(-0.00712252272834 -0.00280274420933 -9.74904075966e-23)
(-0.0067937933151 -0.00236310904357 -1.11711921033e-22)
(-0.00693752885802 -0.00351468941835 -2.68684944428e-23)
(-0.00665195114028 -0.00306662672306 -2.70410665668e-23)
(-0.0067050161484 -0.00417797871263 -9.96881549399e-24)
(-0.00646401494927 -0.00373216642354 -6.18306285851e-24)
(-0.00643142408162 -0.00477776987509 -8.89986580246e-25)
(-0.00624069858274 -0.00434559852105 -5.03278658456e-25)
(-0.00611991845451 -0.00529619512848 1.0387443898e-24)
(-0.00598628956312 -0.00488928100471 -4.25096065129e-24)
(-0.00577532479233 -0.00571123721294 5.50598840893e-24)
(-0.00570629327876 -0.00534362884831 2.26275914138e-24)
(-0.00540552737198 -0.00599644035341 2.18209599868e-23)
(-0.00540906062268 -0.00568296261592 1.77597869906e-23)
(-0.00512102918461 -0.000521352328127 4.99347749934e-22)
(-0.00383726310888 -0.000821893388113 -3.02406004841e-22)
(-0.00630252090781 -0.00121732764948 8.33330108794e-22)
(-0.0057309397336 -0.000430551353762 1.80717384687e-21)
(-0.00648270670001 -0.00194450996418 -1.13346148687e-22)
(-0.00609924781415 -0.00160882660255 2.37924125593e-22)
(-0.00640873471492 -0.00265515414081 -4.12625800036e-23)
(-0.00608315798301 -0.00224820620144 -4.64033392806e-24)
(-0.00626490516174 -0.00333176181455 -6.35563498254e-24)
(-0.00597535189177 -0.00292090153731 -1.12559725055e-23)
(-0.00608713815882 -0.00396190583297 3.28247397703e-24)
(-0.00583387742849 -0.00355784087595 1.32459938353e-24)
(-0.0058839031132 -0.00453210553268 -3.8642527295e-24)
(-0.00567050171587 -0.00414669408706 -4.03366096599e-24)
(-0.00566153719715 -0.00502618339184 -3.02694589971e-24)
(-0.00549219963375 -0.00467171142731 -1.15742416283e-23)
(-0.0054287159892 -0.00542505391013 1.45165577231e-23)
(-0.00530740129692 -0.0051156640359 1.20111789352e-24)
(-0.00452395457504 -0.000491375215972 1.00542009209e-21)
(-0.00334589516709 -0.000823954559022 7.27626275086e-22)
(-0.0056023813669 -0.00115981209236 1.21176786367e-21)
(-0.005062511674 -0.000383407807242 2.08309162876e-21)
(-0.00577504132138 -0.00185919378195 3.46629940351e-22)
(-0.00539987576159 -0.00154670404623 4.9714315877e-22)
(-0.00572546810737 -0.00254310450173 2.536627357e-23)
(-0.00539925690681 -0.00216288464244 3.03638894991e-23)
(-0.0056202427274 -0.0031955933402 -3.57573813943e-24)
(-0.00532287141717 -0.00281451076852 -3.14980967799e-24)
(-0.00549319093926 -0.00380581760184 -5.99153555949e-24)
(-0.00522365846003 -0.00343420481711 -5.12873734752e-24)
(-0.00535437623024 -0.00436215443332 -1.17436498648e-23)
(-0.00511416247118 -0.00401189575322 -1.18682019307e-23)
(-0.00521261141589 -0.00485104348772 -7.34617783509e-24)
(-0.00500329179279 -0.00453425549696 -1.30095635255e-23)
(-0.00490183225162 -0.0049868844298 -3.82187647508e-24)
(-0.00395163001446 -0.000470098378608 1.80529781176e-21)
(-0.00287580567783 -0.000830254768662 7.28069829919e-22)
(-0.00492593567272 -0.00111875422523 1.36846692387e-21)
(-0.00441386617131 -0.00035000126898 3.01952830349e-21)
(-0.00509043180615 -0.00179816204298 1.80877107918e-22)
(-0.00472047872545 -0.00150384813624 6.91698988467e-22)
(-0.00506293369663 -0.00246384505022 1.84780625106e-24)
(-0.00473358402147 -0.00210457095644 5.65522550229e-23)
(-0.0049921893019 -0.00310191311854 -4.70280888607e-24)
(-0.00468481120466 -0.00274327242434 1.6756317058e-24)
(-0.0049097664786 -0.00370353092903 -1.10054037188e-23)
(-0.00462204399272 -0.0033551969212 -4.05336305339e-24)
(-0.00482684026644 -0.00425938265528 -1.31341155915e-23)
(-0.0045583024522 -0.00393283478954 -1.0566705409e-23)
(-0.00475405978954 -0.00475886344154 -9.48526216553e-24)
(-0.00450378692895 -0.00446555288418 -7.82297845389e-24)
(-0.00447105449156 -0.00494208530103 -8.53653642726e-24)
(-0.00339551992574 -0.000458002669538 1.94230032165e-21)
(-0.0024178134195 -0.000842078844108 1.2342243698e-22)
(-0.00426548046161 -0.00109356394958 2.34276036808e-21)
(-0.00377831671953 -0.000331014915542 2.33275591439e-21)
(-0.0044209317711 -0.00175927015848 5.67374135572e-22)
(-0.00405478443962 -0.00147877264097 7.14268017641e-22)
(-0.00441234997482 -0.00241347341893 5.63800804777e-23)
(-0.00407939138487 -0.00206974823478 6.5116995907e-23)
(-0.00437068212666 -0.00304488239916 2.32507753848e-24)
(-0.00405340953617 -0.00270160489023 7.09490026535e-24)
(-0.00432516510276 -0.00364695645375 -3.61466474365e-24)
(-0.00401997125776 -0.00331299149538 9.30337952095e-25)
(-0.00428768261587 -0.00421294427563 -5.25556827145e-24)
(-0.00399230591225 -0.0038989767918 -3.69546801309e-24)
(-0.00427006504644 -0.0047352264451 -6.87425271562e-24)
(-0.00398147450351 -0.00445164651784 1.35468843158e-24)
(-0.00428747995003 -0.00520541541521 -1.43684418258e-23)
(-0.00400080364687 -0.00496294077771 -1.22235936715e-23)
(-0.00406815029807 -0.00542184362378 -1.41734236004e-23)
(-0.00284717803083 -0.00045650897773 5.13878029728e-22)
(-0.00196131648494 -0.000862236614167 -2.23509303476e-22)
(-0.00361480129744 -0.00108390700807 7.04263563952e-22)
(-0.00315093221845 -0.000328399950543 1.66360058944e-21)
(-0.00376044269789 -0.00173976660686 2.12010877976e-22)
(-0.00339893824924 -0.0014696500771 6.62380581948e-22)
(-0.00376693738804 -0.00238688216687 1.58318156947e-23)
(-0.00343228742145 -0.00205381854759 8.67780289315e-23)
(-0.0037479062178 -0.00301707085296 5.70016067896e-24)
(-0.00342322824941 -0.00268245611472 3.70829775371e-23)
(-0.00373042137995 -0.00362605474609 8.49534682654e-25)
(-0.00341098741655 -0.00329809482969 1.14075654439e-23)
(-0.00372672186253 -0.0042094575595 2.91478868994e-24)
(-0.00340889206877 -0.00389799652658 1.58775365905e-23)
(-0.00374912765171 -0.00476268257355 -3.99465252433e-24)
(-0.00342821491348 -0.00447670428307 1.03889948786e-23)
(-0.00381327170813 -0.00528115767793 -1.20285754461e-23)
(-0.00348226127641 -0.00502920636584 -1.41950426829e-23)
(-0.00358866796005 -0.00554868677205 -6.13486829551e-24)
(-0.00230182910881 -0.000468802803299 9.26213256232e-22)
(-0.00149252767816 -0.000896593125928 -6.69181106446e-22)
(-0.00297433979433 -0.00109006707548 1.62171760743e-21)
(-0.00252968363112 -0.000346910041234 2.0666860061e-21)
(-0.00311005554825 -0.00173617854738 5.37147732903e-22)
(-0.00275284230878 -0.00147404583137 8.33799523411e-22)
(-0.00312705633025 -0.00237759364142 1.08029190774e-22)
(-0.0027908857577 -0.00205051904304 1.64561003834e-22)
(-0.00312334404145 -0.00300948674811 4.2790382302e-23)
(-0.00279134377136 -0.00267683917803 1.16385714651e-22)
(-0.00312442855921 -0.00362925723418 2.64355673517e-23)
(-0.00279121728588 -0.003299081836 7.0421031035e-23)
(-0.00314253665471 -0.00423440266864 2.33517427792e-23)
(-0.00280373479821 -0.00391566325285 7.57621914559e-23)
(-0.00318969823723 -0.0048229984582 1.88604720072e-25)
(-0.00283958268653 -0.00452295521714 5.54966428953e-23)
(-0.00328094385698 -0.00539415745031 -8.30133553227e-24)
(-0.00291103271004 -0.00511860553131 7.28828716286e-25)
(-0.0030343360394 -0.00569980812203 4.03832417858e-23)
(-0.00175804485544 -0.000502011316739 4.71291643418e-22)
(-0.000990532742421 -0.000954980697576 -1.76773069861e-22)
(-0.00235321140965 -0.00111382343641 1.27876792207e-21)
(-0.00191788988591 -0.000393253046116 2.09409509893e-21)
(-0.0024793985671 -0.0017436358006 4.61212794342e-22)
(-0.00212304829749 -0.00148489620356 5.52117650684e-22)
(-0.00250018355239 -0.00237682399402 1.72917527711e-22)
(-0.00215771376671 -0.00204697747899 1.97805342446e-22)
(-0.0025029103102 -0.00301078615031 1.44016363384e-22)
(-0.00215739274103 -0.00266870916642 3.48031509242e-22)
(-0.00251253214977 -0.00364262964843 1.19747655139e-22)
(-0.00215937621162 -0.00329706623927 2.59252048608e-22)
(-0.00254058770866 -0.0042705530611 1.07907091572e-22)
(-0.00217580113794 -0.00392951849496 2.36305158297e-22)
(-0.00259777143568 -0.00489465847611 5.60368668915e-23)
(-0.00221544256155 -0.00456329091031 2.33193857112e-22)
(-0.00269720910947 -0.00551720004519 4.94134060343e-23)
(-0.0022884107104 -0.00519816534191 9.41346962047e-24)
(-0.0024078558757 -0.00583486984659 1.88488708738e-22)
(-0.00119450985004 -0.000565622285 1.44603038565e-21)
(-0.000424929585388 -0.0010288441648 6.53002351728e-22)
(-0.00174605014501 -0.00115242389468 1.36744482754e-21)
(-0.00133110970406 -0.000447875930283 3.5125293597e-21)
(-0.00185987513824 -0.00174679450347 2.88710198789e-22)
(-0.00152869930875 -0.0014669935828 5.54919172074e-22)
(-0.00187051748576 -0.00236415270728 3.72919323977e-22)
(-0.00154037510127 -0.00200046952358 1.13677812844e-22)
(-0.00186671880775 -0.00299744983329 4.63267194466e-22)
(-0.00152411005101 -0.0026102475561 4.42447501755e-22)
(-0.00187291560578 -0.00363898865089 3.75809551765e-22)
(-0.00151784310177 -0.00323739188132 5.7551283076e-22)
(-0.0018981472023 -0.00428592358942 3.61591923836e-22)
(-0.00152885937421 -0.00387625287815 1.13251755671e-22)
(-0.00195022160798 -0.00493943302799 1.86570459841e-22)
(-0.00156188902348 -0.00452434026245 7.27872132301e-22)
(-0.0020389068505 -0.00560457407545 1.48488772324e-22)
(-0.00162320278692 -0.00518302643091 2.23629474219e-22)
(-0.000651707599725 -0.000628054250523 2.71950132578e-21)
(0.000203101195497 -0.000957997969902 5.03574445135e-22)
(-0.00117120930417 -0.00115078174569 2.70000370424e-21)
(-0.0008084069876 -0.000320204371506 2.72074419878e-21)
(-0.00125703020414 -0.00167918186631 3.7988678613e-22)
(-0.00100032394623 -0.00129334055853 4.27477414719e-22)
(-0.00123412602647 -0.00226904250604 1.83205990622e-22)
(-0.000950537092387 -0.00178471102492 -3.49980098355e-22)
(-0.0012089079267 -0.00289078225382 5.54693138049e-22)
(-0.000902387754967 -0.00235960282486 4.89414024696e-22)
(-0.00119954908086 -0.00352787381461 3.12955034666e-22)
(-0.000880760271748 -0.00295221724098 1.43751842364e-21)
(-0.00120876546386 -0.00417606978851 4.79531964136e-22)
(-0.000880655178254 -0.00355818161502 -1.05241814246e-21)
(-0.00123980305776 -0.00483772049725 7.6493114668e-22)
(-0.000900202787675 -0.00417677362853 1.39618285063e-21)
(-0.000941383363529 -0.00481088910305 8.92330506259e-22)
(0.000363559837477 -0.000365129353107 5.04817318136e-22)
(0.000568204217081 -0.000362527242878 1.60259764645e-22)
(-0.000252973381786 -0.000854366169265 4.48217909261e-22)
(-0.000319197120038 0.000364990322809 5.14850622948e-22)
(-0.000312685996743 -0.00135115774499 -3.02389469766e-22)
(-0.000503558944725 -0.000656946076773 2.81340605835e-22)
(-0.000232253751591 -0.00189570230802 -4.37720642807e-23)
(-0.000406016588733 -0.00103814834431 -7.32556828652e-23)
(-0.000183022064064 -0.00245954913705 1.37223931029e-21)
(-0.000338559388709 -0.00149337194932 5.32060137743e-22)
(-0.000165010837319 -0.00303345764104 7.2145246512e-23)
(-0.000306861195458 -0.00193200080466 1.66079326584e-21)
(-0.000168365359118 -0.00361755671152 -1.35767255971e-22)
(-0.000296548661068 -0.0023676284371 -7.96259669956e-22)
(-0.000189717952815 -0.00421657171955 1.52358221021e-21)
(-0.000301154315483 -0.00280887025165 2.04960450561e-21)
(-0.000318963784337 -0.00326294784631 1.29099778802e-21)
(-0.000317930557429 0.000568190495713 1.70293069457e-22)
(-0.000857814562761 0.000248979584008 3.47973319522e-22)
(-0.00087934336375 -0.000254592419223 5.10474392735e-22)
(-0.000794431415235 -0.000660619978549 5.02576519158e-22)
(-0.000743558029743 -0.000999186542364 8.20614093298e-22)
(-0.000722416889746 -0.0013060494541 7.92388349373e-22)
(-0.000719533370996 -0.00160258670188 1.38911209162e-21)
(-0.00072974970058 -0.00190372066102 1.81702008342e-21)
)
;

boundaryField
{
    back
    {
        type            calculated;
        value           uniform (0 0 0);
    }
    sides
    {
        type            calculated;
        value           uniform (0 0 0);
    }
    bottom
    {
        type            calculated;
        value           uniform (0 0 0);
    }
    front
    {
        type            calculated;
        value           uniform (0 0 0);
    }
    atmosphere
    {
        type            calculated;
        value           nonuniform List<vector> 0();
    }
    floatingObject
    {
        type            calculated;
        value           nonuniform List<vector> 0();
    }
    procBoundary10to9
    {
        type            processor;
        value           nonuniform List<vector> 
15
(
(-0.0121811071685 -0.00365314298248 -1.29251938564e-22)
(-0.0118808713005 -0.00476717575604 -2.57982959348e-23)
(-0.0114610159546 -0.00587802219622 -6.80166939311e-25)
(-0.010923663763 -0.00697532399383 7.54981950736e-24)
(-0.0102528133378 -0.00804772740219 1.87894168937e-23)
(-0.00942679392307 -0.00908229399857 3.53842556831e-23)
(-0.00842017110286 -0.0100607423273 1.52191126939e-23)
(-0.00720322944554 -0.0109609762793 -1.48144548717e-24)
(-0.0106118308526 -0.000987062097002 9.02828002803e-22)
(-0.0117289676546 -0.00297408648895 -1.35232725435e-22)
(-0.0111907950469 -0.00240260617098 -3.52630779444e-22)
(-0.00877008859415 -0.000795222111656 1.77217072969e-22)
(-0.00792486811081 -0.000725900757668 1.22016642852e-22)
(-0.00714483624166 -0.00066288683702 4.90476816659e-22)
(-0.00552581377398 -0.000837779938235 4.43044716721e-22)
)
;
    }
    procBoundary10to11
    {
        type            processor;
        value           nonuniform List<vector> 
23
(
(-0.00618383413151 -0.0106718586428 4.79933432364e-24)
(-0.00514061262913 -0.0102433345983 6.77486694253e-24)
(-0.00427432895881 -0.00969588393296 3.50652073459e-23)
(-0.00416459132105 -0.00835708439155 2.73909373028e-23)
(-0.00466409741507 -0.00778720847069 9.77389901806e-24)
(-0.00512688715246 -0.00729805161246 5.37772555504e-24)
(-0.00505061225061 -0.0065992103144 2.61724765576e-23)
(-0.00501835300873 -0.00611938913049 5.14307745792e-23)
(-0.00510699897121 -0.00588509589079 2.52064536261e-23)
(-0.00519803067206 -0.0057057939642 2.11452806299e-23)
(-0.00512828358366 -0.00545590747521 6.21281057794e-24)
(-0.00507957579509 -0.00525657303601 -7.10262925159e-24)
(-0.00470526621466 -0.00518959185101 -5.48500276842e-24)
(-0.00447684808427 -0.00534729324302 -1.1316908167e-23)
(-0.00435974033721 -0.00561401020405 -3.07376357709e-23)
(-0.00393953405139 -0.00576055525641 -1.37883947957e-23)
(-0.0034359594685 -0.0059483975244 1.90401223995e-24)
(-0.00285620614764 -0.0061435957312 7.52958371269e-23)
(-0.00217750104101 -0.00629046476304 2.87670245752e-22)
(-0.00172188342445 -0.00585565518537 -1.63107887475e-23)
(-0.00129801683142 -0.00551947884965 5.88299131477e-23)
(-0.000229942972292 -0.00483894275398 -2.23683270368e-23)
(-0.000750140948921 -0.00222265879693 1.03573619202e-21)
)
;
    }
}


// ************************************************************************* //
