/*--------------------------------*- C++ -*----------------------------------*\
| =========                 |                                                 |
| \\      /  F ield         | OpenFOAM: The Open Source CFD Toolbox           |
|  \\    /   O peration     | Version:  v2012                                 |
|   \\  /    A nd           | Website:  www.openfoam.com                      |
|    \\/     M anipulation  |                                                 |
\*---------------------------------------------------------------------------*/
FoamFile
{
    version     2.0;
    format      ascii;
    class       volScalarField;
    location    "2.6";
    object      ddt0(epsilon);
}
// * * * * * * * * * * * * * * * * * * * * * * * * * * * * * * * * * * * * * //

dimensions      [0 2 -4 0 0 0 0];


internalField   nonuniform List<scalar> 
164
(
-0.00258087972879
-0.00267061095543
-0.00292545809598
-0.00303170581512
-0.00308527018343
-0.00311726017774
-0.00307426054934
-0.00280560158829
-0.00327871774093
-0.0031885263744
-0.00321001654178
-0.00314340582348
-0.00191615252266
-0.000205183169815
-0.00260162744935
-0.00268622978174
-0.00294205670959
-0.00304919830121
-0.00310203378305
-0.00313593622978
-0.00315389124682
-0.00314355642951
-0.00305442029944
-0.00303247385137
-0.00309845974606
-0.00307104642336
-0.00259461837205
-0.00123642538005
-0.00262640764123
-0.00270682812333
-0.00296359113334
-0.00307101931415
-0.00312284373866
-0.0031563776472
-0.00318471865139
-0.00321106567589
-0.00322903130455
-0.0032473694399
-0.0032858341564
-0.00330917454096
-0.00305338957364
-0.00198183292468
-0.00265394269617
-0.00273107488452
-0.00298855545191
-0.00309571542176
-0.00314636067443
-0.00317790628563
-0.00320512684622
-0.0032333554875
-0.00326270522123
-0.0032894094319
-0.00331846217495
-0.00334096629357
-0.00323180050799
-0.00257077499234
-0.00268289312022
-0.00275748853973
-0.00301536029856
-0.0031215110977
-0.0031706797353
-0.00320009438962
-0.0032243840178
-0.0032489944186
-0.00327525903564
-0.00330113625097
-0.003326044668
-0.00334286737089
-0.00329020455609
-0.00291727229882
-0.00271199689558
-0.00278461303144
-0.00304250614371
-0.00314701235131
-0.00319437528923
-0.00322195618977
-0.00324409910483
-0.00326608357964
-0.00328955099679
-0.00331395329759
-0.0033377509786
-0.00335464946192
-0.00333049332857
-0.00313693710448
-0.00274039922838
-0.00281138718663
-0.00306892688476
-0.00317128313344
-0.00321653225249
-0.00324237661674
-0.00326295927729
-0.00328336286028
-0.00330529705623
-0.00332878542721
-0.00335234967563
-0.00337040700444
-0.00336186827393
-0.00327525996194
-0.00276757658908
-0.00283709618723
-0.00309393104146
-0.00319377448666
-0.00323667460603
-0.00326075316301
-0.00328000391006
-0.00329930623034
-0.00332025414031
-0.00334305552506
-0.00336630144277
-0.0033844211493
-0.00338463353315
-0.00337513847609
-0.00279327791684
-0.00286131767519
-0.0031171617137
-0.00321420440688
-0.00325467730014
-0.00327700426229
-0.00329496499409
-0.00331324647071
-0.00333331674742
-0.00335534279656
-0.00337799464084
-0.00339785863336
-0.0034298891764
-0.00365632126954
-0.00281702463544
-0.00288373064469
-0.00313834871842
-0.00323252260535
-0.00327054919172
-0.00329119121464
-0.00330794168973
-0.00332522527162
-0.00334436316361
-0.00336540438427
-0.00338659448332
-0.00339983051655
-0.00338714631492
-0.00338918966818
-0.00283887924951
-0.00290422903649
-0.00315746786124
-0.0032487255067
-0.00328438545517
-0.00330342909905
-0.00331907154269
-0.00333542180346
-0.00335366730302
-0.0033739517458
-0.00339512285142
-0.00341169887363
-0.00340760097093
-0.0033778790222
-0.00336148697711
-0.00338113023037
-0.00340275538262
-0.00342624339439
-0.00346117811019
-0.00358658955821
-0.00343980748601
-0.00351303776247
-0.00378477949859
-0.00368572962114
)
;

boundaryField
{
    back
    {
        type            calculated;
        value           nonuniform List<scalar> 
164
(
-0.00258087972879
-0.00267061095543
-0.00292545809598
-0.00303170581512
-0.00308527018343
-0.00311726017774
-0.00307426054934
-0.00280560158829
-0.00327871774093
-0.0031885263744
-0.00321001654178
-0.00314340582348
-0.00191615252266
-0.000205183169815
-0.00260162744935
-0.00268622978174
-0.00294205670959
-0.00304919830121
-0.00310203378305
-0.00313593622978
-0.00315389124682
-0.00314355642951
-0.00305442029944
-0.00303247385137
-0.00309845974606
-0.00307104642336
-0.00259461837205
-0.00123642538005
-0.00262640764123
-0.00270682812333
-0.00296359113334
-0.00307101931415
-0.00312284373866
-0.0031563776472
-0.00318471865139
-0.00321106567589
-0.00322903130455
-0.0032473694399
-0.0032858341564
-0.00330917454096
-0.00305338957364
-0.00198183292468
-0.00265394269617
-0.00273107488452
-0.00298855545191
-0.00309571542176
-0.00314636067443
-0.00317790628563
-0.00320512684622
-0.0032333554875
-0.00326270522123
-0.0032894094319
-0.00331846217495
-0.00334096629357
-0.00323180050799
-0.00257077499234
-0.00268289312022
-0.00275748853973
-0.00301536029856
-0.0031215110977
-0.0031706797353
-0.00320009438962
-0.0032243840178
-0.0032489944186
-0.00327525903564
-0.00330113625097
-0.003326044668
-0.00334286737089
-0.00329020455609
-0.00291727229882
-0.00271199689558
-0.00278461303144
-0.00304250614371
-0.00314701235131
-0.00319437528923
-0.00322195618977
-0.00324409910483
-0.00326608357964
-0.00328955099679
-0.00331395329759
-0.0033377509786
-0.00335464946192
-0.00333049332857
-0.00313693710448
-0.00274039922838
-0.00281138718663
-0.00306892688476
-0.00317128313344
-0.00321653225249
-0.00324237661674
-0.0032629592773
-0.00328336286028
-0.00330529705623
-0.00332878542721
-0.00335234967563
-0.00337040700444
-0.00336186827393
-0.00327525996194
-0.00276757658908
-0.00283709618723
-0.00309393104146
-0.00319377448666
-0.00323667460603
-0.00326075316301
-0.00328000391006
-0.00329930623034
-0.00332025414031
-0.00334305552506
-0.00336630144277
-0.0033844211493
-0.00338463353315
-0.00337513847609
-0.00279327791684
-0.00286131767519
-0.0031171617137
-0.00321420440688
-0.00325467730014
-0.00327700426229
-0.00329496499409
-0.00331324647071
-0.00333331674742
-0.00335534279656
-0.00337799464084
-0.00339785863336
-0.0034298891764
-0.00365632126954
-0.00281702463544
-0.00288373064469
-0.00313834871842
-0.00323252260535
-0.00327054919172
-0.00329119121464
-0.00330794168973
-0.00332522527162
-0.00334436316361
-0.00336540438427
-0.00338659448332
-0.00339983051655
-0.00338714631492
-0.00338918966818
-0.00283887924951
-0.00290422903649
-0.00315746786124
-0.0032487255067
-0.00328438545517
-0.00330342909905
-0.00331907154269
-0.00333542180346
-0.00335366730302
-0.0033739517458
-0.00339512285142
-0.00341169887363
-0.00340760097093
-0.0033778790222
-0.00336148697711
-0.00338113023037
-0.00340275538262
-0.00342624339439
-0.00346117811019
-0.00358658955821
-0.00343980748601
-0.00351303776247
-0.00378477949859
-0.00368572962114
)
;
    }
    sides
    {
        type            calculated;
        value           nonuniform List<scalar> 0();
    }
    bottom
    {
        type            calculated;
        value           nonuniform List<scalar> 
11
(
-0.00258087972879
-0.00260162744935
-0.00262640764123
-0.00265394269617
-0.00268289312022
-0.00271199689558
-0.00274039922838
-0.00276757658908
-0.00279327791684
-0.00281702463544
-0.00283887924951
)
;
    }
    front
    {
        type            calculated;
        value           nonuniform List<scalar> 
164
(
-0.00258087972879
-0.00267061095543
-0.00292545809598
-0.00303170581512
-0.00308527018343
-0.00311726017774
-0.00307426054934
-0.00280560158829
-0.00327871774093
-0.0031885263744
-0.00321001654178
-0.00314340582348
-0.00191615252266
-0.000205183169815
-0.00260162744935
-0.00268622978174
-0.00294205670959
-0.00304919830121
-0.00310203378305
-0.00313593622978
-0.00315389124682
-0.00314355642951
-0.00305442029944
-0.00303247385137
-0.00309845974606
-0.00307104642336
-0.00259461837205
-0.00123642538005
-0.00262640764123
-0.00270682812333
-0.00296359113334
-0.00307101931415
-0.00312284373866
-0.0031563776472
-0.00318471865139
-0.00321106567589
-0.00322903130455
-0.0032473694399
-0.0032858341564
-0.00330917454096
-0.00305338957364
-0.00198183292468
-0.00265394269617
-0.00273107488452
-0.00298855545191
-0.00309571542176
-0.00314636067443
-0.00317790628563
-0.00320512684622
-0.0032333554875
-0.00326270522123
-0.0032894094319
-0.00331846217495
-0.00334096629357
-0.00323180050799
-0.00257077499234
-0.00268289312022
-0.00275748853973
-0.00301536029856
-0.0031215110977
-0.0031706797353
-0.00320009438962
-0.0032243840178
-0.0032489944186
-0.00327525903564
-0.00330113625097
-0.003326044668
-0.00334286737089
-0.00329020455609
-0.00291727229882
-0.00271199689558
-0.00278461303144
-0.00304250614371
-0.00314701235131
-0.00319437528923
-0.00322195618977
-0.00324409910483
-0.00326608357964
-0.00328955099679
-0.00331395329759
-0.0033377509786
-0.00335464946192
-0.00333049332857
-0.00313693710448
-0.00274039922838
-0.00281138718663
-0.00306892688476
-0.00317128313344
-0.00321653225249
-0.00324237661674
-0.0032629592773
-0.00328336286028
-0.00330529705623
-0.00332878542721
-0.00335234967563
-0.00337040700444
-0.00336186827393
-0.00327525996194
-0.00276757658908
-0.00283709618723
-0.00309393104146
-0.00319377448666
-0.00323667460603
-0.00326075316301
-0.00328000391006
-0.00329930623034
-0.00332025414031
-0.00334305552506
-0.00336630144277
-0.0033844211493
-0.00338463353315
-0.00337513847609
-0.00279327791684
-0.00286131767519
-0.0031171617137
-0.00321420440688
-0.00325467730014
-0.00327700426229
-0.00329496499409
-0.00331324647071
-0.00333331674742
-0.00335534279656
-0.00337799464084
-0.00339785863336
-0.0034298891764
-0.00365632126954
-0.00281702463544
-0.00288373064469
-0.00313834871842
-0.00323252260535
-0.00327054919172
-0.00329119121464
-0.00330794168973
-0.00332522527162
-0.00334436316361
-0.00336540438427
-0.00338659448332
-0.00339983051655
-0.00338714631492
-0.00338918966818
-0.00283887924951
-0.00290422903649
-0.00315746786124
-0.0032487255067
-0.00328438545517
-0.00330342909905
-0.00331907154269
-0.00333542180346
-0.00335366730302
-0.0033739517458
-0.00339512285142
-0.00341169887363
-0.00340760097093
-0.0033778790222
-0.00336148697711
-0.00338113023037
-0.00340275538262
-0.00342624339439
-0.00346117811019
-0.00358658955821
-0.00343980748601
-0.00351303776247
-0.00378477949859
-0.00368572962114
)
;
    }
    atmosphere
    {
        type            calculated;
        value           nonuniform List<scalar> 0();
    }
    floatingObject
    {
        type            calculated;
        value           nonuniform List<scalar> 4(-0.00327871774093 -0.0031885263744 -0.00321001654178 -0.00314340582348);
    }
    procBoundary8to3
    {
        type            processor;
        value           nonuniform List<scalar> 8(-0.00256665175992 -0.00266161115226 -0.00291590933577 -0.0030196268614 -0.00306233433211 -0.00304603299622 -0.00288967571898 -0.00315517644147);
    }
    procBoundary8to6
    {
        type            processor;
        value           nonuniform List<scalar> 
16
(
-0.00180541601875
0.00175429251652
0.00684193629073
0.00328210812852
0.00162399413339
-0.00022831966095
-0.00156019960589
-0.00249154850487
-0.00310825805853
-0.00356410081433
-0.00486770853888
-0.00395440594721
-0.00357937541519
-0.00414141432107
-0.00475161050201
-0.00457227974072
)
;
    }
    procBoundary8to7
    {
        type            processor;
        value           nonuniform List<scalar> 
17
(
-0.00285865144154
-0.00292279174432
-0.00317453036429
-0.00326294096046
-0.00329636481428
-0.00331393332017
-0.00332854329581
-0.00334403256946
-0.00334403256946
-0.00336790350516
-0.00338697296224
-0.00340907949904
-0.00340907949904
-0.00343584458763
-0.00348478367188
-0.00348478367188
-0.00358005162719
)
;
    }
}


// ************************************************************************* //
