/*--------------------------------*- C++ -*----------------------------------*\
| =========                 |                                                 |
| \\      /  F ield         | OpenFOAM: The Open Source CFD Toolbox           |
|  \\    /   O peration     | Version:  v2012                                 |
|   \\  /    A nd           | Website:  www.openfoam.com                      |
|    \\/     M anipulation  |                                                 |
\*---------------------------------------------------------------------------*/
FoamFile
{
    version     2.0;
    format      ascii;
    class       volScalarField;
    location    "2.6";
    object      k;
}
// * * * * * * * * * * * * * * * * * * * * * * * * * * * * * * * * * * * * * //

dimensions      [0 2 -2 0 0 0 0];


internalField   nonuniform List<scalar> 
164
(
0.00401063344933
0.00500259491258
0.00531620302724
0.00543762768787
0.00547985958725
0.00545521106053
0.00531277484525
0.00500552320854
0.0046242620678
0.0046584453738
0.00483412901526
0.00516468057388
0.00554560569612
0.00649968055653
0.00403292902749
0.00502411255601
0.00533822710282
0.00546328669817
0.00551874997021
0.00553982612849
0.00552972722026
0.00548352552744
0.00542757467639
0.00548924243426
0.00556657700877
0.00562484345423
0.00581206253721
0.00651459182705
0.00405715472837
0.00504888960116
0.0053633013714
0.00548979086185
0.00555062646264
0.00558795225482
0.00561512552499
0.00563615644162
0.00565946631643
0.00571432390683
0.0057767633179
0.00582893522352
0.00594200379538
0.00637484336668
0.0040823536394
0.00507570754244
0.00539023515205
0.00551665157974
0.00557840361319
0.00561964364626
0.00565611556902
0.0056932245105
0.00573433318424
0.00578610811549
0.00584410018851
0.00590338241298
0.00599395985364
0.00627973688424
0.00410749133582
0.00510331107738
0.00541784637957
0.00554327757237
0.00560392512608
0.00564448965105
0.00568122714666
0.00571979079617
0.00576219173708
0.00581017160235
0.00586320411033
0.00592127340804
0.00600302829865
0.00622097826709
0.00413172536942
0.00513062460061
0.00544511132188
0.00556907985754
0.00562779359101
0.00566620615019
0.0057006189731
0.00573673870319
0.00577631110317
0.00582002256306
0.00586801643862
0.00592199347817
0.00599834302666
0.00618730580552
0.00415446089367
0.00515684196142
0.00547125418548
0.00559351951076
0.00564999341748
0.00568591482729
0.00571755173343
0.0057505723052
0.00578673072643
0.00582652668148
0.00587037627679
0.00592142004175
0.0059990536632
0.00619611422649
0.00417535073199
0.00518140699927
0.00549572252982
0.00561618132636
0.00567032463733
0.0057037741649
0.00573278030314
0.00576292910746
0.00579596593517
0.00583244158018
0.00587318772164
0.00592343145892
0.00601066954501
0.0062512985365
0.00419432936315
0.00520401020314
0.0055182037077
0.00563679185545
0.00568865407385
0.00571977088782
0.00574637590456
0.00577400444026
0.00580441242289
0.00583833256921
0.00587759381344
0.00593235162925
0.00605175603474
0.00641871340228
0.00421106579668
0.00522439644117
0.00553846427799
0.00565523722519
0.00570491211474
0.0057338814721
0.00575834215942
0.0057837423755
0.00581183099188
0.00584333760371
0.00588004216082
0.00593142603984
0.00604400992338
0.00639874791094
0.00422566337016
0.00524251565077
0.00555645942085
0.00567147254279
0.00571908529667
0.00574608273346
0.00576864101727
0.00579206970921
0.00581808175642
0.00584737092669
0.00588139575343
0.00592755282209
0.0060215498194
0.00630799273619
0.00582313382863
0.00585047609515
0.00588249751741
0.00592651299544
0.00601665150172
0.00628573455413
0.00592859441902
0.00602798149454
0.00632702397755
0.00630594082554
)
;

boundaryField
{
    back
    {
        type            kqRWallFunction;
        value           nonuniform List<scalar> 
164
(
0.00401063344933
0.00500259491258
0.00531620302724
0.00543762768787
0.00547985958725
0.00545521106053
0.00531277484525
0.00500552320854
0.0046242620678
0.0046584453738
0.00483412901526
0.00516468057388
0.00554560569612
0.00649968055653
0.00403292902749
0.00502411255601
0.00533822710282
0.00546328669817
0.00551874997021
0.00553982612849
0.00552972722026
0.00548352552744
0.00542757467639
0.00548924243426
0.00556657700877
0.00562484345423
0.00581206253721
0.00651459182705
0.00405715472837
0.00504888960116
0.0053633013714
0.00548979086185
0.00555062646264
0.00558795225482
0.00561512552499
0.00563615644162
0.00565946631643
0.00571432390683
0.0057767633179
0.00582893522352
0.00594200379538
0.00637484336668
0.0040823536394
0.00507570754244
0.00539023515205
0.00551665157974
0.00557840361319
0.00561964364626
0.00565611556902
0.0056932245105
0.00573433318424
0.00578610811549
0.00584410018851
0.00590338241298
0.00599395985364
0.00627973688424
0.00410749133582
0.00510331107738
0.00541784637957
0.00554327757237
0.00560392512608
0.00564448965105
0.00568122714666
0.00571979079617
0.00576219173708
0.00581017160235
0.00586320411033
0.00592127340804
0.00600302829865
0.00622097826709
0.00413172536942
0.00513062460061
0.00544511132188
0.00556907985754
0.00562779359101
0.00566620615019
0.0057006189731
0.00573673870319
0.00577631110317
0.00582002256306
0.00586801643862
0.00592199347817
0.00599834302666
0.00618730580552
0.00415446089367
0.00515684196142
0.00547125418548
0.00559351951076
0.00564999341748
0.00568591482729
0.00571755173343
0.0057505723052
0.00578673072643
0.00582652668148
0.00587037627679
0.00592142004175
0.0059990536632
0.00619611422649
0.00417535073199
0.00518140699927
0.00549572252982
0.00561618132636
0.00567032463733
0.0057037741649
0.00573278030314
0.00576292910746
0.00579596593517
0.00583244158018
0.00587318772164
0.00592343145892
0.00601066954501
0.0062512985365
0.00419432936315
0.00520401020314
0.0055182037077
0.00563679185545
0.00568865407385
0.00571977088782
0.00574637590456
0.00577400444026
0.00580441242289
0.00583833256921
0.00587759381344
0.00593235162925
0.00605175603474
0.00641871340228
0.00421106579668
0.00522439644117
0.00553846427799
0.00565523722519
0.00570491211474
0.0057338814721
0.00575834215942
0.0057837423755
0.00581183099188
0.00584333760371
0.00588004216082
0.00593142603984
0.00604400992338
0.00639874791094
0.00422566337016
0.00524251565077
0.00555645942085
0.00567147254279
0.00571908529667
0.00574608273346
0.00576864101727
0.00579206970921
0.00581808175642
0.00584737092669
0.00588139575343
0.00592755282209
0.0060215498194
0.00630799273619
0.00582313382863
0.00585047609515
0.00588249751741
0.00592651299544
0.00601665150172
0.00628573455413
0.00592859441902
0.00602798149454
0.00632702397755
0.00630594082554
)
;
    }
    sides
    {
        type            kqRWallFunction;
        value           nonuniform List<scalar> 0();
    }
    bottom
    {
        type            kqRWallFunction;
        value           nonuniform List<scalar> 
11
(
0.00401063344933
0.00403292902749
0.00405715472837
0.0040823536394
0.00410749133582
0.00413172536942
0.00415446089367
0.00417535073199
0.00419432936315
0.00421106579668
0.00422566337016
)
;
    }
    front
    {
        type            kqRWallFunction;
        value           nonuniform List<scalar> 
164
(
0.00401063344933
0.00500259491258
0.00531620302724
0.00543762768787
0.00547985958725
0.00545521106053
0.00531277484525
0.00500552320854
0.0046242620678
0.0046584453738
0.00483412901526
0.00516468057388
0.00554560569612
0.00649968055653
0.00403292902749
0.00502411255601
0.00533822710282
0.00546328669817
0.00551874997021
0.00553982612849
0.00552972722026
0.00548352552744
0.00542757467639
0.00548924243426
0.00556657700877
0.00562484345423
0.00581206253721
0.00651459182705
0.00405715472837
0.00504888960116
0.0053633013714
0.00548979086185
0.00555062646264
0.00558795225482
0.00561512552499
0.00563615644162
0.00565946631643
0.00571432390683
0.0057767633179
0.00582893522352
0.00594200379538
0.00637484336668
0.0040823536394
0.00507570754244
0.00539023515205
0.00551665157974
0.00557840361319
0.00561964364626
0.00565611556902
0.0056932245105
0.00573433318424
0.00578610811549
0.00584410018851
0.00590338241298
0.00599395985364
0.00627973688424
0.00410749133582
0.00510331107738
0.00541784637957
0.00554327757237
0.00560392512608
0.00564448965105
0.00568122714666
0.00571979079617
0.00576219173708
0.00581017160235
0.00586320411033
0.00592127340804
0.00600302829865
0.00622097826709
0.00413172536942
0.00513062460061
0.00544511132188
0.00556907985754
0.00562779359101
0.00566620615019
0.0057006189731
0.00573673870319
0.00577631110317
0.00582002256306
0.00586801643862
0.00592199347817
0.00599834302666
0.00618730580552
0.00415446089367
0.00515684196142
0.00547125418548
0.00559351951076
0.00564999341748
0.00568591482729
0.00571755173343
0.0057505723052
0.00578673072643
0.00582652668148
0.00587037627679
0.00592142004175
0.0059990536632
0.00619611422649
0.00417535073199
0.00518140699927
0.00549572252982
0.00561618132636
0.00567032463733
0.0057037741649
0.00573278030314
0.00576292910746
0.00579596593517
0.00583244158018
0.00587318772164
0.00592343145892
0.00601066954501
0.0062512985365
0.00419432936315
0.00520401020314
0.0055182037077
0.00563679185545
0.00568865407385
0.00571977088782
0.00574637590456
0.00577400444026
0.00580441242289
0.00583833256921
0.00587759381344
0.00593235162925
0.00605175603474
0.00641871340228
0.00421106579668
0.00522439644117
0.00553846427799
0.00565523722519
0.00570491211474
0.0057338814721
0.00575834215942
0.0057837423755
0.00581183099188
0.00584333760371
0.00588004216082
0.00593142603984
0.00604400992338
0.00639874791094
0.00422566337016
0.00524251565077
0.00555645942085
0.00567147254279
0.00571908529667
0.00574608273346
0.00576864101727
0.00579206970921
0.00581808175642
0.00584737092669
0.00588139575343
0.00592755282209
0.0060215498194
0.00630799273619
0.00582313382863
0.00585047609515
0.00588249751741
0.00592651299544
0.00601665150172
0.00628573455413
0.00592859441902
0.00602798149454
0.00632702397755
0.00630594082554
)
;
    }
    atmosphere
    {
        type            inletOutlet;
        inletValue      nonuniform List<scalar> 0();
        value           nonuniform List<scalar> 0();
    }
    floatingObject
    {
        type            kqRWallFunction;
        value           nonuniform List<scalar> 4(0.0046242620678 0.0046584453738 0.00483412901526 0.00516468057388);
    }
    procBoundary8to3
    {
        type            processor;
        value           nonuniform List<scalar> 8(0.00399170469088 0.00498552097337 0.00529818243535 0.00541389115342 0.00544126758972 0.00538390490093 0.00516855588221 0.0044611621235);
    }
    procBoundary8to6
    {
        type            processor;
        value           nonuniform List<scalar> 
16
(
0.00528637874963
0.00671147517575
0.0086583178046
0.00834648900224
0.00771484526266
0.0073017990398
0.00702788221547
0.00686803746674
0.00687329255818
0.00703681625179
0.00749434711475
0.00748422725647
0.00722847115882
0.00713531684878
0.00721135452269
0.00715844240801
)
;
    }
    procBoundary8to7
    {
        type            processor;
        value           nonuniform List<scalar> 
17
(
0.00423817207991
0.00525839553587
0.00557218525772
0.00568552122171
0.00573121364416
0.00575641977777
0.00577726656205
0.00579895999178
0.00579895999178
0.00582701113641
0.00585277671465
0.00588362066549
0.00588362066549
0.00592557434072
0.00601976654363
0.00601976654363
0.00623791767256
)
;
    }
}


// ************************************************************************* //
