/*--------------------------------*- C++ -*----------------------------------*\
| =========                 |                                                 |
| \\      /  F ield         | OpenFOAM: The Open Source CFD Toolbox           |
|  \\    /   O peration     | Version:  v2012                                 |
|   \\  /    A nd           | Website:  www.openfoam.com                      |
|    \\/     M anipulation  |                                                 |
\*---------------------------------------------------------------------------*/
FoamFile
{
    version     2.0;
    format      ascii;
    class       volScalarField;
    location    "0.4";
    object      epsilon_0;
}
// * * * * * * * * * * * * * * * * * * * * * * * * * * * * * * * * * * * * * //

dimensions      [0 2 -3 0 0 0 0];


internalField   nonuniform List<scalar> 
164
(
0.0828372556353
0.0775551338413
0.0800507759622
0.0804414271501
0.0805531382039
0.0806513047533
0.0807665729623
0.080902324895
0.0828561691789
0.0775883178847
0.0800523881655
0.0804257784365
0.0805255035146
0.0806107099882
0.0807103345165
0.0808273103327
0.0809619842817
0.0811143379549
0.0812843687085
0.0828648790574
0.0775925531646
0.0800338110905
0.0803948261242
0.0804846969376
0.0805585749589
0.0806443732357
0.0807446556685
0.0808595556812
0.0809889699769
0.0811326120079
0.0812900437013
0.0814612124327
0.0828661085426
0.077570706029
0.0799982903738
0.0803512519018
0.0804330481076
0.0804970163358
0.0805706777282
0.0806564218608
0.0807542752282
0.0808639725316
0.0809850697433
0.081116948318
0.0812593107681
0.0814170974063
0.0828469345444
0.0775353016894
0.0799518657231
0.080298117457
0.0803728995988
0.0804282328336
0.0804913575076
0.0805645542888
0.0806477629807
0.0807406222349
0.0808425970089
0.0809529804089
0.0810713112134
0.0812015127816
0.0828093062544
0.0774897778218
0.0798970774958
0.0802375759613
0.0803062803232
0.0803541437233
0.0804081916626
0.0804706309718
0.0805413435134
0.0806199176563
0.0807057780114
0.0807981906839
0.0808966083072
0.081004125339
0.0827563229483
0.0774362418431
0.0798358780309
0.0801714850222
0.0802349620378
0.0802764114839
0.0803226954874
0.0803759710343
0.08043608976
0.0805026203236
0.0805749820699
0.0806524536102
0.0807344552556
0.0808234233569
0.0826909048185
0.0773765412188
0.0797699553161
0.0801014479805
0.0801604658259
0.0801964485924
0.0802361361812
0.0802816566955
0.0803328509118
0.0803892885404
0.0804504062761
0.0805155183428
0.0805840482064
0.0806579196984
0.0826157083059
0.0773122908492
0.0797007569909
0.0800288299885
0.0800840766242
0.0801154343558
0.0801495565577
0.0801885579315
0.0802322814048
0.0802803109779
0.0803321136539
0.0803870510733
0.0804445736968
0.0805062052455
0.082533088099
0.0772448843103
0.0796295126288
0.0799547786752
0.0800068629841
0.0800343378119
0.0800637991594
0.0800973587931
0.0801348699353
0.0801759382934
0.0802200669483
0.0802666699784
0.0803152363659
0.0803669750986
0.0804383678647
0.0806530609576
0.0824451004724
0.0771755040763
0.0795572473221
0.0798802404979
0.0799296980454
0.0799539414231
0.0799795316664
0.0800085842178
0.0800409668767
0.0800763099751
0.0801141539914
0.0801539664895
0.0801952783467
0.0802390481255
0.0802992397287
0.0804840250206
0.082353493869
0.0771051345889
0.0794848012445
0.0798059849412
0.0798532849817
0.0798748659428
0.0798972709453
0.0799226228249
0.0799508054711
0.079981474087
0.0800142063797
0.0800485214107
0.0800839897084
0.0801213731039
0.0801725516626
0.0803325290719
)
;

boundaryField
{
    back
    {
        lowReCorrection 0;
        blending        stepwise;
        n               2;
        type            epsilonWallFunction;
        value           nonuniform List<scalar> 
164
(
0.0828372556353
0.0775551338413
0.0800507759622
0.0804414271501
0.0805531382039
0.0806513047533
0.0807665729623
0.080902324895
0.0828561691789
0.0775883178847
0.0800523881655
0.0804257784365
0.0805255035146
0.0806107099882
0.0807103345165
0.0808273103327
0.0809619842817
0.0811143379549
0.0812843687085
0.0828648790574
0.0775925531646
0.0800338110905
0.0803948261242
0.0804846969376
0.0805585749589
0.0806443732357
0.0807446556685
0.0808595556812
0.0809889699769
0.0811326120079
0.0812900437013
0.0814612124327
0.0828661085426
0.077570706029
0.0799982903738
0.0803512519018
0.0804330481076
0.0804970163358
0.0805706777282
0.0806564218608
0.0807542752282
0.0808639725316
0.0809850697433
0.081116948318
0.0812593107681
0.0814170974063
0.0828469345444
0.0775353016894
0.0799518657231
0.080298117457
0.0803728995988
0.0804282328336
0.0804913575076
0.0805645542888
0.0806477629807
0.0807406222349
0.0808425970089
0.0809529804089
0.0810713112134
0.0812015127816
0.0828093062544
0.0774897778218
0.0798970774958
0.0802375759613
0.0803062803232
0.0803541437233
0.0804081916626
0.0804706309718
0.0805413435134
0.0806199176563
0.0807057780114
0.0807981906839
0.0808966083072
0.081004125339
0.0827563229483
0.0774362418431
0.0798358780309
0.0801714850222
0.0802349620378
0.0802764114839
0.0803226954874
0.0803759710343
0.08043608976
0.0805026203236
0.0805749820699
0.0806524536102
0.0807344552556
0.0808234233569
0.0826909048185
0.0773765412188
0.0797699553161
0.0801014479805
0.0801604658259
0.0801964485924
0.0802361361812
0.0802816566955
0.0803328509118
0.0803892885404
0.0804504062761
0.0805155183428
0.0805840482064
0.0806579196984
0.0826157083059
0.0773122908492
0.0797007569909
0.0800288299885
0.0800840766242
0.0801154343558
0.0801495565577
0.0801885579315
0.0802322814048
0.0802803109779
0.0803321136539
0.0803870510733
0.0804445736968
0.0805062052455
0.082533088099
0.0772448843103
0.0796295126288
0.0799547786752
0.0800068629841
0.0800343378119
0.0800637991594
0.0800973587931
0.0801348699353
0.0801759382934
0.0802200669483
0.0802666699784
0.0803152363659
0.0803669750986
0.0804383678647
0.0806530609576
0.0824451004724
0.0771755040763
0.0795572473221
0.0798802404979
0.0799296980454
0.0799539414231
0.0799795316664
0.0800085842178
0.0800409668767
0.0800763099751
0.0801141539914
0.0801539664895
0.0801952783467
0.0802390481255
0.0802992397287
0.0804840250206
0.082353493869
0.0771051345889
0.0794848012445
0.0798059849412
0.0798532849817
0.0798748659428
0.0798972709453
0.0799226228249
0.0799508054711
0.079981474087
0.0800142063797
0.0800485214107
0.0800839897084
0.0801213731039
0.0801725516626
0.0803325290719
)
;
    }
    sides
    {
        lowReCorrection 0;
        blending        stepwise;
        n               2;
        type            epsilonWallFunction;
        value           nonuniform List<scalar> 0();
    }
    bottom
    {
        lowReCorrection 0;
        blending        stepwise;
        n               2;
        type            epsilonWallFunction;
        value           nonuniform List<scalar> 
12
(
0.0828372556353
0.0828561691789
0.0828648790574
0.0828661085426
0.0828469345444
0.0828093062544
0.0827563229483
0.0826909048185
0.0826157083059
0.082533088099
0.0824451004724
0.082353493869
)
;
    }
    front
    {
        lowReCorrection 0;
        blending        stepwise;
        n               2;
        type            epsilonWallFunction;
        value           nonuniform List<scalar> 
164
(
0.0828372556353
0.0775551338413
0.0800507759622
0.0804414271501
0.0805531382039
0.0806513047533
0.0807665729623
0.080902324895
0.0828561691789
0.0775883178847
0.0800523881655
0.0804257784365
0.0805255035146
0.0806107099882
0.0807103345165
0.0808273103327
0.0809619842817
0.0811143379549
0.0812843687085
0.0828648790574
0.0775925531646
0.0800338110905
0.0803948261242
0.0804846969376
0.0805585749589
0.0806443732357
0.0807446556685
0.0808595556812
0.0809889699769
0.0811326120079
0.0812900437013
0.0814612124327
0.0828661085426
0.077570706029
0.0799982903738
0.0803512519018
0.0804330481076
0.0804970163358
0.0805706777282
0.0806564218608
0.0807542752282
0.0808639725316
0.0809850697433
0.081116948318
0.0812593107681
0.0814170974063
0.0828469345444
0.0775353016894
0.0799518657231
0.080298117457
0.0803728995988
0.0804282328336
0.0804913575076
0.0805645542888
0.0806477629807
0.0807406222349
0.0808425970089
0.0809529804089
0.0810713112134
0.0812015127816
0.0828093062544
0.0774897778218
0.0798970774958
0.0802375759613
0.0803062803232
0.0803541437233
0.0804081916626
0.0804706309718
0.0805413435134
0.0806199176563
0.0807057780114
0.0807981906839
0.0808966083072
0.081004125339
0.0827563229483
0.0774362418431
0.0798358780309
0.0801714850222
0.0802349620378
0.0802764114839
0.0803226954874
0.0803759710343
0.08043608976
0.0805026203236
0.0805749820699
0.0806524536102
0.0807344552556
0.0808234233569
0.0826909048185
0.0773765412188
0.0797699553161
0.0801014479805
0.0801604658259
0.0801964485924
0.0802361361812
0.0802816566955
0.0803328509118
0.0803892885404
0.0804504062761
0.0805155183428
0.0805840482064
0.0806579196984
0.0826157083059
0.0773122908492
0.0797007569909
0.0800288299885
0.0800840766242
0.0801154343558
0.0801495565577
0.0801885579315
0.0802322814048
0.0802803109779
0.0803321136539
0.0803870510733
0.0804445736968
0.0805062052455
0.082533088099
0.0772448843103
0.0796295126288
0.0799547786752
0.0800068629841
0.0800343378119
0.0800637991594
0.0800973587931
0.0801348699353
0.0801759382934
0.0802200669483
0.0802666699784
0.0803152363659
0.0803669750986
0.0804383678647
0.0806530609576
0.0824451004724
0.0771755040763
0.0795572473221
0.0798802404979
0.0799296980454
0.0799539414231
0.0799795316664
0.0800085842178
0.0800409668767
0.0800763099751
0.0801141539914
0.0801539664895
0.0801952783467
0.0802390481255
0.0802992397287
0.0804840250206
0.082353493869
0.0771051345889
0.0794848012445
0.0798059849412
0.0798532849817
0.0798748659428
0.0798972709453
0.0799226228249
0.0799508054711
0.079981474087
0.0800142063797
0.0800485214107
0.0800839897084
0.0801213731039
0.0801725516626
0.0803325290719
)
;
    }
    atmosphere
    {
        type            inletOutlet;
        inletValue      nonuniform List<scalar> 0();
        value           nonuniform List<scalar> 0();
    }
    floatingObject
    {
        lowReCorrection 0;
        blending        stepwise;
        n               2;
        type            epsilonWallFunction;
        value           nonuniform List<scalar> 0();
    }
    procBoundary7to6
    {
        type            processor;
        value           nonuniform List<scalar> 
11
(
0.0816366422879
0.0813827264163
0.0811536515765
0.0809469884741
0.0807603404852
0.0805914729488
0.0805914729488
0.0808422308412
0.0817382362733
0.0814532945994
0.0812019174337
)
;
    }
    procBoundary7to8
    {
        type            processor;
        value           nonuniform List<scalar> 
17
(
0.0828012355053
0.0774929006922
0.0800269064842
0.0804392969541
0.0805650924257
0.0806779244953
0.0808108674771
0.0809679855004
0.0810593199413
0.0810593199413
0.0812380150231
0.0814389343127
0.0814718986722
0.0814718986722
0.0816773158306
0.0816522653792
0.0816522653792
)
;
    }
    procBoundary7to9
    {
        type            processor;
        value           nonuniform List<scalar> 
16
(
0.0822597449871
0.0770345858319
0.0794128538482
0.0797326263495
0.0797781765942
0.0797975888119
0.0798174010963
0.0798397453676
0.0798645212194
0.0798914075502
0.0799200170454
0.0799499131757
0.0799807019451
0.0800129893632
0.0800569299604
0.0801963152952
)
;
    }
}


// ************************************************************************* //
