/*--------------------------------*- C++ -*----------------------------------*\
| =========                 |                                                 |
| \\      /  F ield         | OpenFOAM: The Open Source CFD Toolbox           |
|  \\    /   O peration     | Version:  v2012                                 |
|   \\  /    A nd           | Website:  www.openfoam.com                      |
|    \\/     M anipulation  |                                                 |
\*---------------------------------------------------------------------------*/
FoamFile
{
    version     2.0;
    format      ascii;
    class       volVectorField;
    location    "0.4";
    object      U_0;
}
// * * * * * * * * * * * * * * * * * * * * * * * * * * * * * * * * * * * * * //

dimensions      [0 1 -1 0 0 0 0];


internalField   nonuniform List<vector> 
164
(
(-0.114313553464 0.00128851455526 -2.50614175478e-23)
(-0.117535685564 0.00365031244979 -1.07714999933e-22)
(-0.119987288692 0.00596490644418 -6.16169735579e-23)
(-0.123452092555 0.00810406366894 -4.94146730463e-23)
(-0.128142542496 0.00989265902167 -5.3511074485e-23)
(-0.134130221464 0.0112054584938 -5.05080542069e-23)
(-0.141476071673 0.0118720083465 -5.21627861802e-23)
(-0.150223611046 0.0116648189928 -6.34233872188e-23)
(-0.116189355177 0.000648765602071 -4.09030249404e-23)
(-0.119339271434 0.00206428535065 5.8222118368e-23)
(-0.121613108982 0.003230394023 -9.96028969451e-23)
(-0.12477648291 0.00420562267301 -6.00672601864e-23)
(-0.129029514557 0.00479556334704 -4.34964074473e-23)
(-0.134421210467 0.00486734802251 -1.96468085789e-23)
(-0.140978403465 0.00426235309231 -1.59359646891e-23)
(-0.148722219387 0.00275793169712 7.64470418743e-24)
(-0.157647370441 9.79869443941e-05 -1.00596782495e-22)
(-0.167734518259 -0.00396641981412 -3.88013817542e-23)
(-0.178909464689 -0.00974752680859 8.07692009973e-23)
(-0.117055090608 9.01969942934e-05 -1.60099954191e-22)
(-0.120108727699 0.000625123166573 1.04924937565e-22)
(-0.122157424627 0.000746030038019 -3.55992436129e-23)
(-0.124997893451 0.000686720621427 -4.05470158569e-23)
(-0.128790232201 0.000231060002842 -1.74716233926e-23)
(-0.133563391772 -0.000760403481827 -7.1244624435e-24)
(-0.139320247366 -0.00244628033102 -2.50611388197e-23)
(-0.146064666878 -0.00502258534198 2.83614792798e-24)
(-0.153748191196 -0.00870841894786 -1.28696187663e-23)
(-0.162310500268 -0.0137397954243 -4.00765616825e-23)
(-0.171663491794 -0.0203865328516 1.94802666805e-23)
(-0.181661161416 -0.0289503615576 -2.467404201e-22)
(-0.19209678743 -0.0397617981988 3.20948190383e-22)
(-0.116974519167 -0.000459654906941 -8.49876739819e-23)
(-0.119914753674 -0.000667329439022 6.08010229061e-22)
(-0.121745129478 -0.00145870942704 1.2887536154e-22)
(-0.124251224215 -0.00243672200027 -2.17392939337e-23)
(-0.127579614843 -0.0037919834934 -2.41086144924e-23)
(-0.131739170291 -0.00568235414243 -3.55928963286e-23)
(-0.136716575351 -0.0082566935691 -7.72536328464e-23)
(-0.142483056511 -0.0116874351868 -7.75522256901e-23)
(-0.148981530062 -0.0161661606716 -4.43380716247e-23)
(-0.156129761268 -0.0219007692658 -1.59772411908e-22)
(-0.163811717995 -0.0291188828759 -1.48362010145e-22)
(-0.171863058275 -0.0380661799472 -1.19802438578e-22)
(-0.180060719913 -0.0490034610783 -2.82005523174e-22)
(-0.188106304566 -0.0621871612074 -1.19180960614e-22)
(-0.116041784077 -0.000908537673196 -8.77508133591e-23)
(-0.118864657715 -0.00179645894039 5.57698698367e-22)
(-0.120497074253 -0.00338356471249 6.99815201199e-23)
(-0.122672537 -0.00515225260651 -4.8797178869e-23)
(-0.125544624234 -0.00727488410111 -3.69780457327e-23)
(-0.129110086244 -0.00991366013637 -1.77622655754e-23)
(-0.13334032938 -0.0132052503998 -2.81408723582e-23)
(-0.138189627337 -0.0173019483815 -2.29910496798e-23)
(-0.143589004132 -0.0223695272296 -8.18930713369e-23)
(-0.149442476791 -0.0285850339696 -5.72664940784e-23)
(-0.155620403221 -0.0361359968498 4.32950005491e-23)
(-0.161949994993 -0.0452172539501 -4.40719535585e-23)
(-0.168206091005 -0.0560271370027 2.63789739253e-22)
(-0.174098531195 -0.0687466710853 -7.81744527792e-23)
(-0.114409507907 -0.00129458733738 -1.75111709233e-22)
(-0.117095446264 -0.00277336970164 5.61545516584e-22)
(-0.118527574049 -0.00503854432294 9.73069621634e-23)
(-0.120387059094 -0.00747537929334 -3.050006503e-23)
(-0.122824228108 -0.0102388567706 -1.85222972263e-23)
(-0.125827734285 -0.013488139528 -2.66193802024e-23)
(-0.129359265022 -0.0173462255403 -3.49635131521e-23)
(-0.133362952156 -0.0219461709647 -5.13139548156e-23)
(-0.137761467416 -0.0274293446234 -3.9814143209e-23)
(-0.142451724205 -0.0339431038346 -1.03197584899e-22)
(-0.147299347217 -0.0416382649451 -3.95913374565e-23)
(-0.152132050744 -0.050664988861 -7.02433242243e-23)
(-0.156732755586 -0.0611680481602 -1.2632550151e-22)
(-0.160830615018 -0.073267427448 -1.27399755299e-22)
(-0.112174071672 -0.00162064511092 -4.41638882008e-22)
(-0.1147145339 -0.00360701570117 -1.66884436944e-22)
(-0.115952019952 -0.0064400314888 -2.30055995643e-22)
(-0.117513667854 -0.00943077087859 -1.10617634359e-22)
(-0.119544411353 -0.0127175113163 -3.90253738795e-23)
(-0.122027260833 -0.0164529743502 -2.08553468557e-23)
(-0.124917965628 -0.0207456859772 -3.910025764e-23)
(-0.128155026896 -0.0257100838459 1.64051104024e-23)
(-0.13165709703 -0.031464887675 -2.75508732013e-23)
(-0.135319241096 -0.0381302468594 -5.73282635752e-23)
(-0.139008670318 -0.0458245536837 3.65453781413e-23)
(-0.142560170298 -0.0546599161954 -9.93526381054e-23)
(-0.145771418774 -0.0647369277183 2.34790670306e-23)
(-0.148397367843 -0.0761280311097 1.13059012429e-23)
(-0.109429960735 -0.00188974727566 -3.14140345659e-22)
(-0.111821645383 -0.00430461055872 -3.8157711836e-22)
(-0.112875465767 -0.00760516338066 -1.44151324102e-22)
(-0.114161239937 -0.0110464528818 -7.83450271469e-23)
(-0.11581874946 -0.0147506049247 -1.26259168173e-23)
(-0.117827500306 -0.018862357936 1.34625192276e-24)
(-0.12014009396 -0.0234759139944 6.91437405462e-27)
(-0.122692851984 -0.0286882100064 -1.31086303224e-24)
(-0.125404001526 -0.0345973225407 -3.75532097205e-23)
(-0.128170783463 -0.0412992764571 2.81511069709e-24)
(-0.130866393349 -0.0488846694432 3.24794022767e-23)
(-0.133336990778 -0.0574340898612 -3.1162099926e-23)
(-0.135398823488 -0.0670128964978 6.88154134934e-23)
(-0.136835602294 -0.0776579515683 -1.82405858853e-23)
(-0.106264966078 -0.00210669378905 -4.39896075212e-22)
(-0.108508117208 -0.00487602127031 4.61552608241e-22)
(-0.109392517561 -0.00855313650027 -1.27145453789e-22)
(-0.11042729053 -0.0123526504105 -4.85621563972e-23)
(-0.111747594947 -0.0163807747752 -2.08841553914e-23)
(-0.113331274635 -0.0207734017928 -3.45920660751e-23)
(-0.115130074146 -0.0256112048323 -1.5689754232e-24)
(-0.117080716813 -0.0309751019903 1.09220880729e-23)
(-0.119103742105 -0.0369447790803 -3.36178609452e-23)
(-0.121101445463 -0.0435954089301 4.67753185808e-24)
(-0.122955861894 -0.0509943356105 3.59263878897e-23)
(-0.12452695515 -0.0591967146365 -2.06190688601e-23)
(-0.125651255437 -0.0682407418336 2.99540729287e-23)
(-0.126141470851 -0.0781373278052 -5.81293551103e-24)
(-0.102759819858 -0.00227678805887 -4.32835909564e-22)
(-0.104856968626 -0.00533272436665 2.80472437904e-22)
(-0.105587836377 -0.00930496392632 1.38289580568e-22)
(-0.106397941293 -0.0133810735543 -6.26666675551e-24)
(-0.107418178081 -0.0176516984118 -5.94329407401e-24)
(-0.108626223708 -0.0222435636338 -1.54977733224e-23)
(-0.109974736272 -0.0272248602513 -1.45623695968e-24)
(-0.111402731853 -0.0326621339067 7.81813500831e-25)
(-0.112835009872 -0.0386190295594 8.04685016182e-24)
(-0.114180815858 -0.045153076173 2.39503478434e-23)
(-0.115332638796 -0.0523125488922 3.76867476438e-24)
(-0.116165313996 -0.0601325620096 -1.71930954387e-23)
(-0.116535899104 -0.0686310374338 8.08708013701e-24)
(-0.116284425805 -0.0778005193736 8.81789817049e-24)
(-0.115236011058 -0.0875879782031 1.77616611943e-23)
(-0.113198856278 -0.0979702338473 5.4090334535e-23)
(-0.0989873941065 -0.00240554030639 -2.58864891838e-22)
(-0.10094266676 -0.00568703968566 1.4856464996e-23)
(-0.101536370155 -0.00988241691547 -4.34579750824e-23)
(-0.102148309829 -0.0141636779069 -9.27305520563e-23)
(-0.102905327929 -0.0186066737975 -1.8842055015e-23)
(-0.103786001747 -0.0233288744534 -4.92564815951e-24)
(-0.10474517099 -0.0283871422848 -2.89542639415e-24)
(-0.105725464683 -0.0338353525611 -7.58137668412e-25)
(-0.106657217249 -0.0397234044077 -2.77112247256e-23)
(-0.107457707117 -0.0460941437478 4.25741411995e-25)
(-0.108030568011 -0.0529805080671 -6.70533567994e-24)
(-0.108265664087 -0.0604022451215 -1.40451465042e-23)
(-0.108039712036 -0.0683624757268 8.01766778523e-24)
(-0.107217568586 -0.0768413104289 4.65774545059e-24)
(-0.105654736055 -0.0857808335924 -1.70105981592e-23)
(-0.103195152098 -0.0951426311004 9.33519659612e-23)
(-0.0950122309065 -0.00249819815748 -2.12520637199e-22)
(-0.0968308925098 -0.00595117958711 1.81536636794e-22)
(-0.0973035647793 -0.0103070013548 -1.79084390443e-22)
(-0.0977431480187 -0.0147317716968 -1.41222363458e-22)
(-0.0982724512198 -0.0192875340468 -2.43186951041e-23)
(-0.0988716638134 -0.0240826702428 -1.95614004662e-23)
(-0.0994986587496 -0.0291639251727 -1.8034423771e-23)
(-0.100100517716 -0.034574167458 5.2080498985e-24)
(-0.100613828812 -0.0403516805031 -1.86321157324e-23)
(-0.10096435528 -0.046527271256 -1.27081730431e-23)
(-0.101066953217 -0.0531218024145 1.19744400248e-23)
(-0.100825995549 -0.0601434776985 -4.66104146485e-24)
(-0.100136301 -0.0675849356726 5.00320491236e-24)
(-0.0988848766664 -0.0754183722189 1.20021360673e-23)
(-0.0969534783764 -0.0835845092254 -1.98660319083e-23)
(-0.0942162592089 -0.0920369525624 7.67345065249e-23)
)
;

boundaryField
{
    back
    {
        type            noSlip;
    }
    sides
    {
        type            noSlip;
    }
    bottom
    {
        type            noSlip;
    }
    front
    {
        type            noSlip;
    }
    atmosphere
    {
        type            pressureInletOutletVelocity;
        value           nonuniform List<vector> 0();
    }
    floatingObject
    {
        type            movingWallVelocity;
        value           nonuniform List<vector> 0();
    }
    procBoundary7to6
    {
        type            processor;
        value           nonuniform List<vector> 
11
(
(-0.195618518961 -0.0778511436931 -4.79882020902e-22)
(-0.179268119131 -0.0835126586063 3.42593960953e-22)
(-0.164099553919 -0.0870259408211 -8.84476084573e-23)
(-0.150150958598 -0.0888440319366 8.14066553262e-23)
(-0.137400248971 -0.0893465220713 -1.71206867574e-23)
(-0.125788333041 -0.0888440274967 2.14557027727e-23)
(-0.125788333041 -0.0888440274967 2.14557027727e-23)
(-0.124357849769 -0.100366487675 8.86875740508e-23)
(-0.109991015407 -0.109096298957 6.79761435755e-22)
(-0.0996954173801 -0.10503716743 6.28157450808e-22)
(-0.0905591811372 -0.100850671064 3.33998290621e-22)
)
;
    }
    procBoundary7to8
    {
        type            processor;
        value           nonuniform List<vector> 
17
(
(-0.111328648341 0.00199635971237 1.11294193877e-23)
(-0.114585943836 0.00536502589593 3.7116585312e-23)
(-0.117173093242 0.00892162973747 -1.90937726883e-23)
(-0.120895321501 0.012347255678 2.94582695865e-24)
(-0.125966022047 0.0154784766971 -3.82082092991e-23)
(-0.132489815994 0.0182095238912 -5.57150038387e-23)
(-0.140569774297 0.0203684640067 -4.81529298719e-23)
(-0.150306175722 0.0217263264522 -7.76583364211e-23)
(-0.160427594039 0.0103234431417 -1.10328067869e-22)
(-0.160427594039 0.0103234431417 -1.10328067869e-22)
(-0.1721041723 0.00754442318082 -1.58935854526e-22)
(-0.185221549261 0.00296912079099 -1.42898762069e-22)
(-0.191064919981 -0.0176096020971 -1.42869150461e-22)
(-0.191064919981 -0.0176096020971 -1.42869150461e-22)
(-0.204030149475 -0.0279552313326 -3.02052558569e-23)
(-0.202680622802 -0.0531671672889 -4.39160034524e-22)
(-0.202680622802 -0.0531671672889 -4.39160034524e-22)
)
;
    }
    procBoundary7to9
    {
        type            processor;
        value           nonuniform List<vector> 
16
(
(-0.090890632145 -0.00255982659852 -2.61216240389e-22)
(-0.0925787409114 -0.00613706234546 -2.00230535754e-23)
(-0.0929458822793 -0.010599477318 -9.21628718976e-23)
(-0.0932376013278 -0.015115252191 -6.72108150524e-23)
(-0.0935725996319 -0.0197337711262 -7.4114188521e-24)
(-0.0939331168383 -0.0245546872131 5.57723887588e-24)
(-0.0942805698669 -0.0296158339697 -1.25042990448e-24)
(-0.0945669391992 -0.0349506325479 7.27938480081e-25)
(-0.0947353471798 -0.0405876609366 -6.98067561588e-24)
(-0.0947200612263 -0.0465480159544 1.97758131284e-25)
(-0.0944468027488 -0.0528432439727 5.57205634676e-24)
(-0.0938334221018 -0.059473050131 -1.16277171147e-24)
(-0.0927910768605 -0.066422954665 -5.5301591463e-24)
(-0.0912261870628 -0.0736606389132 -7.08932554955e-24)
(-0.0890429049397 -0.0811278175304 -2.92264840429e-23)
(-0.0861409492895 -0.0887748742899 4.03699550468e-23)
)
;
    }
}


// ************************************************************************* //
