/*--------------------------------*- C++ -*----------------------------------*\
| =========                 |                                                 |
| \\      /  F ield         | OpenFOAM: The Open Source CFD Toolbox           |
|  \\    /   O peration     | Version:  v2012                                 |
|   \\  /    A nd           | Website:  www.openfoam.com                      |
|    \\/     M anipulation  |                                                 |
\*---------------------------------------------------------------------------*/
FoamFile
{
    version     2.0;
    format      ascii;
    class       volScalarField;
    location    "3.3";
    object      ddt0(epsilon);
}
// * * * * * * * * * * * * * * * * * * * * * * * * * * * * * * * * * * * * * //

dimensions      [0 2 -4 0 0 0 0];


internalField   nonuniform List<scalar> 
164
(
-0.00147656718418
-0.00155692165886
-0.0016917860261
-0.00173812600357
-0.00174805607951
-0.00172176065464
-0.00163837430983
-0.0014826135417
-0.00168812706717
-0.00173004224829
-0.0018794943359
-0.00212750987586
-0.00194519481165
-0.00273172427192
-0.00148455994917
-0.00156506766365
-0.00169972261923
-0.00174743079009
-0.00176516353218
-0.00176662631601
-0.00175047095883
-0.00172388594532
-0.00167660452775
-0.00171470334456
-0.00176425539834
-0.00180191261419
-0.00196208570802
-0.00256096719255
-0.00149301779104
-0.00157380496978
-0.0017081855249
-0.0017561978973
-0.00177686616508
-0.00178842459122
-0.00179517230963
-0.00179793192876
-0.00180146024567
-0.00183020113292
-0.00186281155004
-0.00188929326986
-0.00198815712736
-0.00238734037794
-0.00150167339808
-0.00158270068424
-0.00171678667145
-0.00176440471552
-0.00178551059773
-0.00179962346922
-0.00181262015185
-0.00182585498976
-0.00184149771776
-0.00186569329386
-0.00189425824441
-0.00192451605292
-0.00199392012609
-0.00226583293166
-0.00151012790644
-0.00159134718752
-0.00172516421074
-0.00177206102351
-0.00179257620936
-0.00180659300866
-0.00182038705597
-0.00183562702907
-0.00185309053896
-0.00187440357486
-0.00189917731358
-0.00192789355787
-0.0019820999046
-0.00218167717351
-0.00151807212612
-0.00159942943287
-0.00173304747045
-0.00177913430445
-0.00179869416448
-0.00181173700189
-0.0018245933463
-0.00183900759998
-0.00185538865696
-0.0018741648887
-0.00189536611494
-0.00192016925078
-0.00196430231313
-0.00212406327717
-0.00152529836453
-0.00160675791883
-0.00174026943889
-0.00178557445943
-0.00180410492025
-0.00181598946265
-0.00182752783445
-0.00184045227175
-0.00185509474662
-0.00187151517769
-0.00188974334577
-0.0019115691117
-0.00195369858271
-0.00211393074627
-0.00153170417099
-0.00161321071357
-0.00174669938822
-0.00179130671851
-0.00180886638394
-0.00181963606154
-0.00182990214359
-0.00184136359147
-0.00185432322538
-0.00186879509463
-0.00188517678847
-0.00190769170217
-0.00196342499558
-0.0021805190467
-0.00153737539865
-0.00161871965748
-0.00175230472733
-0.00179633611997
-0.00181303175276
-0.00182280970638
-0.00183193771128
-0.00184210278537
-0.00185363711
-0.00186670257543
-0.00188259135044
-0.00190999018505
-0.00199352444512
-0.00230550069358
-0.00154216908708
-0.0016232450855
-0.00175708351081
-0.00180070090483
-0.00181666990046
-0.00182558738243
-0.00183372357427
-0.00184274038006
-0.00185299795569
-0.00186462934851
-0.00187882385644
-0.00190363767692
-0.001981578597
-0.00228143274221
-0.00154619289077
-0.00162681224135
-0.00176106455396
-0.00180444070275
-0.00181981741103
-0.00182799796297
-0.00183528309054
-0.00184331455919
-0.00185241273995
-0.00186265484574
-0.00187470715614
-0.00189371920673
-0.00194941347701
-0.00217395382806
-0.00185198739641
-0.00186111681464
-0.00187189028252
-0.00188865867349
-0.00193636062407
-0.00212773295647
-0.00188857725846
-0.00194254145124
-0.00214930773341
-0.00214167217167
)
;

boundaryField
{
    back
    {
        type            calculated;
        value           nonuniform List<scalar> 
164
(
-0.00147656718418
-0.00155692165886
-0.0016917860261
-0.00173812600357
-0.00174805607951
-0.00172176065464
-0.00163837430983
-0.0014826135417
-0.00168812706717
-0.00173004224829
-0.0018794943359
-0.00212750987586
-0.00194519481165
-0.00273172427192
-0.00148455994917
-0.00156506766365
-0.00169972261923
-0.00174743079009
-0.00176516353218
-0.00176662631601
-0.00175047095883
-0.00172388594532
-0.00167660452775
-0.00171470334456
-0.00176425539834
-0.00180191261419
-0.00196208570802
-0.00256096719255
-0.00149301779104
-0.00157380496978
-0.0017081855249
-0.0017561978973
-0.00177686616508
-0.00178842459122
-0.00179517230963
-0.00179793192876
-0.00180146024567
-0.00183020113292
-0.00186281155004
-0.00188929326986
-0.00198815712736
-0.00238734037794
-0.00150167339808
-0.00158270068424
-0.00171678667145
-0.00176440471552
-0.00178551059773
-0.00179962346922
-0.00181262015185
-0.00182585498976
-0.00184149771776
-0.00186569329386
-0.00189425824441
-0.00192451605292
-0.00199392012609
-0.00226583293166
-0.00151012790644
-0.00159134718752
-0.00172516421074
-0.00177206102351
-0.00179257620936
-0.00180659300866
-0.00182038705597
-0.00183562702907
-0.00185309053896
-0.00187440357486
-0.00189917731358
-0.00192789355787
-0.0019820999046
-0.00218167717351
-0.00151807212612
-0.00159942943287
-0.00173304747045
-0.00177913430445
-0.00179869416448
-0.00181173700189
-0.0018245933463
-0.00183900759998
-0.00185538865696
-0.0018741648887
-0.00189536611494
-0.00192016925078
-0.00196430231313
-0.00212406327717
-0.00152529836453
-0.00160675791883
-0.00174026943889
-0.00178557445943
-0.00180410492025
-0.00181598946265
-0.00182752783445
-0.00184045227175
-0.00185509474662
-0.00187151517769
-0.00188974334577
-0.0019115691117
-0.00195369858271
-0.00211393074627
-0.00153170417099
-0.00161321071357
-0.00174669938822
-0.00179130671851
-0.00180886638394
-0.00181963606154
-0.00182990214359
-0.00184136359147
-0.00185432322538
-0.00186879509463
-0.00188517678847
-0.00190769170217
-0.00196342499558
-0.0021805190467
-0.00153737539865
-0.00161871965748
-0.00175230472733
-0.00179633611997
-0.00181303175276
-0.00182280970638
-0.00183193771128
-0.00184210278537
-0.00185363711
-0.00186670257543
-0.00188259135044
-0.00190999018505
-0.00199352444512
-0.00230550069358
-0.00154216908708
-0.0016232450855
-0.00175708351081
-0.00180070090483
-0.00181666990046
-0.00182558738243
-0.00183372357427
-0.00184274038006
-0.00185299795569
-0.00186462934851
-0.00187882385644
-0.00190363767692
-0.001981578597
-0.00228143274221
-0.00154619289077
-0.00162681224135
-0.00176106455396
-0.00180444070275
-0.00181981741103
-0.00182799796297
-0.00183528309054
-0.00184331455919
-0.00185241273995
-0.00186265484574
-0.00187470715614
-0.00189371920673
-0.00194941347701
-0.00217395382806
-0.00185198739641
-0.00186111681464
-0.00187189028252
-0.00188865867349
-0.00193636062407
-0.00212773295647
-0.00188857725846
-0.00194254145124
-0.00214930773341
-0.00214167217167
)
;
    }
    sides
    {
        type            calculated;
        value           nonuniform List<scalar> 0();
    }
    bottom
    {
        type            calculated;
        value           nonuniform List<scalar> 
11
(
-0.00147656718418
-0.00148455994917
-0.00149301779104
-0.00150167339808
-0.00151012790644
-0.00151807212612
-0.00152529836453
-0.00153170417099
-0.00153737539865
-0.00154216908708
-0.00154619289077
)
;
    }
    front
    {
        type            calculated;
        value           nonuniform List<scalar> 
164
(
-0.00147656718418
-0.00155692165886
-0.0016917860261
-0.00173812600357
-0.00174805607951
-0.00172176065464
-0.00163837430983
-0.0014826135417
-0.00168812706717
-0.00173004224829
-0.0018794943359
-0.00212750987586
-0.00194519481165
-0.00273172427192
-0.00148455994917
-0.00156506766365
-0.00169972261923
-0.00174743079009
-0.00176516353218
-0.00176662631601
-0.00175047095883
-0.00172388594532
-0.00167660452775
-0.00171470334456
-0.00176425539834
-0.00180191261419
-0.00196208570802
-0.00256096719255
-0.00149301779104
-0.00157380496978
-0.0017081855249
-0.0017561978973
-0.00177686616508
-0.00178842459122
-0.00179517230963
-0.00179793192876
-0.00180146024567
-0.00183020113292
-0.00186281155004
-0.00188929326986
-0.00198815712736
-0.00238734037794
-0.00150167339808
-0.00158270068424
-0.00171678667145
-0.00176440471552
-0.00178551059773
-0.00179962346922
-0.00181262015185
-0.00182585498976
-0.00184149771776
-0.00186569329386
-0.00189425824441
-0.00192451605292
-0.00199392012609
-0.00226583293166
-0.00151012790644
-0.00159134718752
-0.00172516421074
-0.00177206102351
-0.00179257620936
-0.00180659300866
-0.00182038705597
-0.00183562702907
-0.00185309053896
-0.00187440357486
-0.00189917731358
-0.00192789355787
-0.0019820999046
-0.00218167717351
-0.00151807212612
-0.00159942943287
-0.00173304747045
-0.00177913430445
-0.00179869416448
-0.00181173700189
-0.0018245933463
-0.00183900759998
-0.00185538865696
-0.0018741648887
-0.00189536611494
-0.00192016925078
-0.00196430231313
-0.00212406327717
-0.00152529836453
-0.00160675791883
-0.00174026943889
-0.00178557445943
-0.00180410492025
-0.00181598946265
-0.00182752783445
-0.00184045227175
-0.00185509474662
-0.00187151517769
-0.00188974334577
-0.0019115691117
-0.00195369858271
-0.00211393074627
-0.00153170417099
-0.00161321071357
-0.00174669938822
-0.00179130671851
-0.00180886638394
-0.00181963606154
-0.00182990214359
-0.00184136359147
-0.00185432322538
-0.00186879509463
-0.00188517678847
-0.00190769170217
-0.00196342499558
-0.0021805190467
-0.00153737539865
-0.00161871965748
-0.00175230472733
-0.00179633611997
-0.00181303175276
-0.00182280970638
-0.00183193771128
-0.00184210278537
-0.00185363711
-0.00186670257543
-0.00188259135044
-0.00190999018505
-0.00199352444512
-0.00230550069358
-0.00154216908708
-0.0016232450855
-0.00175708351081
-0.00180070090483
-0.00181666990046
-0.00182558738243
-0.00183372357427
-0.00184274038006
-0.00185299795569
-0.00186462934851
-0.00187882385644
-0.00190363767692
-0.001981578597
-0.00228143274221
-0.00154619289077
-0.00162681224135
-0.00176106455396
-0.00180444070275
-0.00181981741103
-0.00182799796297
-0.00183528309054
-0.00184331455919
-0.00185241273995
-0.00186265484574
-0.00187470715614
-0.00189371920673
-0.00194941347701
-0.00217395382806
-0.00185198739641
-0.00186111681464
-0.00187189028252
-0.00188865867349
-0.00193636062407
-0.00212773295647
-0.00188857725846
-0.00194254145124
-0.00214930773341
-0.00214167217167
)
;
    }
    atmosphere
    {
        type            calculated;
        value           nonuniform List<scalar> 0();
    }
    floatingObject
    {
        type            calculated;
        value           nonuniform List<scalar> 4(-0.00168812706717 -0.00173004224829 -0.0018794943359 -0.00212750987586);
    }
    procBoundary8to3
    {
        type            processor;
        value           nonuniform List<scalar> 8(-0.00146955705992 -0.00154972928003 -0.00168431773247 -0.0017284644627 -0.00173303547328 -0.00169693545377 -0.00158653289017 -0.00167614063716);
    }
    procBoundary8to6
    {
        type            processor;
        value           nonuniform List<scalar> 
16
(
-0.00243751017462
-0.00291512816939
-0.00479986070888
-0.00428943313379
-0.00372258238176
-0.00332711154156
-0.00303981500586
-0.00285459977104
-0.00283457651367
-0.00302177770115
-0.00332399119183
-0.00327530807941
-0.00299788318054
-0.00285250684598
-0.00287922926025
-0.00284118870968
)
;
    }
    procBoundary8to7
    {
        type            processor;
        value           nonuniform List<scalar> 
17
(
-0.00154959610563
-0.0016295455369
-0.00176437457089
-0.00180765914877
-0.00182257686234
-0.00183014220457
-0.00183668158122
-0.00184383735033
-0.00184383735033
-0.00185168483585
-0.00186005832781
-0.00187044456354
-0.00187044456354
-0.00188599218078
-0.00193792903187
-0.00193792903187
-0.00208854213573
)
;
    }
}


// ************************************************************************* //
