/*--------------------------------*- C++ -*----------------------------------*\
| =========                 |                                                 |
| \\      /  F ield         | OpenFOAM: The Open Source CFD Toolbox           |
|  \\    /   O peration     | Version:  v2012                                 |
|   \\  /    A nd           | Website:  www.openfoam.com                      |
|    \\/     M anipulation  |                                                 |
\*---------------------------------------------------------------------------*/
FoamFile
{
    version     2.0;
    format      ascii;
    class       volVectorField;
    location    "3.3";
    object      ddtCorrDdt0(U);
}
// * * * * * * * * * * * * * * * * * * * * * * * * * * * * * * * * * * * * * //

dimensions      [0 1 -2 0 0 0 0];


internalField   nonuniform List<vector> 
164
(
(0.0172613266056 -0.00292962289402 2.85420352284e-22)
(0.0170281195507 -0.00999783296694 1.74246402486e-21)
(0.0165505349144 -0.0166671352567 6.08640391881e-21)
(0.0154380813338 -0.0234625722654 1.30604668352e-20)
(0.0132673028019 -0.0309940708611 -8.91310969654e-21)
(0.00883160926037 -0.0399705281254 -2.92290127628e-19)
(-0.0017753102964 -0.0543169511506 -1.53030111872e-18)
(-0.0266968973442 -0.0867844371456 -3.63911701107e-18)
(0.0147748113551 -0.121385067789 -7.07311595669e-18)
(0.0154299932259 -0.144425118293 -6.00391437906e-19)
(0.010406143146 -0.181847951924 3.46123040192e-18)
(-3.26908743625e-05 -0.206930257671 2.47067275561e-18)
(0.118867313736 -0.196101838815 4.14217436478e-18)
(0.105530781333 -0.157180502682 5.70781044819e-18)
(0.0238664769239 -0.00299951996862 4.15996736322e-23)
(0.0236575693671 -0.0103932964558 1.02448729035e-21)
(0.0232974769647 -0.0176994843299 2.37508360062e-21)
(0.0224045680221 -0.0255434428913 3.95254493275e-21)
(0.020858971053 -0.0346233783133 -4.65656331986e-21)
(0.0186501787028 -0.0452284513283 -9.97969109804e-20)
(0.016162963776 -0.0580585293888 -4.59531328285e-19)
(0.0159281891338 -0.0788590270099 -1.01256912381e-18)
(0.0259587223978 -0.100433886514 -2.36947975156e-18)
(0.038278025549 -0.116083692799 -2.32546432984e-19)
(0.0491647719834 -0.135629067087 1.01921283965e-18)
(0.0590147593892 -0.161032255018 -1.25357037792e-18)
(0.0829944037643 -0.177180243548 4.01773703855e-19)
(0.0935168582551 -0.171887440562 1.14672198037e-18)
(0.0305587630097 -0.00300579036723 1.11954833385e-22)
(0.0304619843421 -0.0104659813713 4.81176583109e-22)
(0.0305905446149 -0.0179076511788 8.14522108686e-22)
(0.0306380400418 -0.0258652407507 1.02028670383e-21)
(0.0307380391002 -0.035003897726 -2.00119372812e-21)
(0.0310628078023 -0.0457524692197 -3.05503260701e-20)
(0.0320318004494 -0.0588858528636 -1.3324052494e-19)
(0.0352476038476 -0.0750660466414 -3.45589422049e-19)
(0.0445994933177 -0.0925162631992 -8.94907162492e-19)
(0.0541590641656 -0.108596597179 -9.04532605812e-19)
(0.0625270323881 -0.123206261754 -1.00309269043e-18)
(0.0704360069334 -0.141185156177 -1.45060491033e-18)
(0.088700707272 -0.159458130009 -4.45674204558e-19)
(0.10730874583 -0.175210105299 5.83456079227e-19)
(0.0371303261036 -0.00291731666979 1.48221985087e-22)
(0.0371740401466 -0.0101993637037 2.5174666306e-22)
(0.0377829589313 -0.0174729729583 2.271952485e-22)
(0.0385957634645 -0.025212549226 -2.43593450612e-23)
(0.0398227745276 -0.0340425970634 -1.38450083182e-21)
(0.041678368048 -0.0442461037116 -1.09416142158e-20)
(0.0446416052343 -0.0561807803716 -4.17357487377e-20)
(0.0498967783385 -0.0697902771825 -1.03721623547e-19)
(0.0585527881145 -0.0843755367628 -1.99839507832e-19)
(0.0694381002277 -0.0986976330199 -2.27958711197e-19)
(0.0808852657954 -0.112749053901 -2.39338351933e-19)
(0.0930774255968 -0.128968732413 -3.34430295363e-19)
(0.107685472385 -0.148855946147 -9.23115878786e-20)
(0.124695510828 -0.168290909489 1.61422848103e-19)
(0.0433766186785 -0.00272939550876 9.57382406641e-23)
(0.0435568210633 -0.00959931380471 3.53824645281e-22)
(0.0446096566686 -0.0164347588168 1.64596532484e-22)
(0.0461057486042 -0.0236410703036 2.07254539589e-22)
(0.0483267439052 -0.0317642801375 -5.36666211232e-22)
(0.0515339792075 -0.0409187971698 -2.91148836732e-21)
(0.0561425229085 -0.0512452846975 -1.14909761424e-20)
(0.0627642688341 -0.0626942266544 -2.88658601789e-20)
(0.0718395856118 -0.0749857690803 -5.05043383048e-20)
(0.083141421991 -0.0875478592253 -5.86520748032e-20)
(0.0959034521537 -0.100534613994 -5.77488854829e-20)
(0.110267120302 -0.11535485302 -7.54846128788e-20)
(0.127075190117 -0.133283136677 -5.31310068337e-20)
(0.145946934258 -0.153400902109 -1.89767396282e-20)
(0.0491186941972 -0.00245229119911 1.81670200668e-22)
(0.0494089246607 -0.00870418358138 3.27240552066e-22)
(0.0508372742922 -0.0148720602772 2.53878846968e-22)
(0.0528912429455 -0.0213008396888 2.78304485429e-22)
(0.0558841468342 -0.0284482106704 -2.05650430867e-22)
(0.0600857310458 -0.0363230826099 -6.59480552595e-22)
(0.0658079490974 -0.0449894721722 -2.50749762628e-21)
(0.0734011916136 -0.0544308914834 -6.08466283337e-21)
(0.0831947137453 -0.0645061193742 -1.1276763588e-20)
(0.09528622636 -0.0750161154118 -1.32625562887e-20)
(0.109477563111 -0.0861882697676 -1.16203692909e-20)
(0.126089721842 -0.0988386623696 -1.18388188899e-20)
(0.145854116009 -0.113949239246 -9.44023177833e-21)
(0.16889884719 -0.132077484446 -4.28332606194e-21)
(0.0542091222681 -0.00210112455533 -1.98984871066e-22)
(0.0545715500713 -0.00756971653381 2.41148162468e-22)
(0.0562916406892 -0.0128933167781 -5.64546390418e-23)
(0.0587597214208 -0.0183757061183 -1.23691204244e-22)
(0.0623005881634 -0.0243863754519 -1.28267646533e-22)
(0.0671718825359 -0.0308714897638 -5.13408603276e-23)
(0.0736189607608 -0.0378579204323 -5.33991094579e-22)
(0.0819102602985 -0.0453141933763 -1.183515316e-21)
(0.092348872529 -0.0531459297729 -1.93746344905e-21)
(0.105166112644 -0.061279911459 -2.34352732788e-21)
(0.120550296743 -0.0699058978233 -1.63083667836e-21)
(0.138987061271 -0.0794529280414 -1.23600227492e-21)
(0.161346569655 -0.0905589362553 5.79994555973e-22)
(0.188287157334 -0.104500684446 3.38404975343e-21)
(0.0585150057946 -0.00170342269448 -5.09877571151e-22)
(0.0589313466267 -0.0062677327023 -8.97181552839e-23)
(0.0608575545779 -0.0106258912337 -2.70966560901e-22)
(0.0635890242187 -0.0150569228849 1.19635531355e-23)
(0.0674786663197 -0.0198451234964 -1.36322859982e-22)
(0.0727521231582 -0.0248900277886 8.9854338634e-24)
(0.0796180190544 -0.0301763356813 -1.20257827788e-22)
(0.0883221914738 -0.0356396354199 -1.78961864974e-22)
(0.0991618281811 -0.0411760800999 -3.54240374023e-22)
(0.112465479631 -0.0467044328433 -3.59909905497e-22)
(0.128640315326 -0.0522816564075 -2.28212016786e-22)
(0.148381040485 -0.058003722748 1.28453319208e-22)
(0.172683888584 -0.0640656333086 1.66496998787e-21)
(0.202496651076 -0.0711524586435 9.49409763628e-21)
(0.0619789602835 -0.00125867091678 -4.44445672392e-22)
(0.0624249856038 -0.0048478371103 -5.51246442148e-23)
(0.0644617972441 -0.00819224124847 -5.84328594154e-23)
(0.0673314173301 -0.0115199881251 -5.10652460361e-23)
(0.0713844678005 -0.01504183557 -4.96096491988e-23)
(0.0768270201285 -0.0186384442194 -3.85690376032e-23)
(0.0838404472469 -0.0222398849247 -4.89116347073e-24)
(0.0926437961112 -0.0257356157985 -1.03623617091e-22)
(0.103529370293 -0.0289699154374 -1.52573412224e-22)
(0.11684225555 -0.0317728692649 -1.08105353208e-23)
(0.133050024756 -0.033992605067 4.48915081968e-23)
(0.152890364984 -0.035349382357 8.63630432875e-22)
(0.177357391737 -0.0354718351164 1.91904620884e-21)
(0.207428751015 -0.0342007722553 1.19726435598e-20)
(0.0645920748701 -0.000800183875107 8.90346532675e-23)
(0.065018036852 -0.00339545835671 4.06673354308e-23)
(0.0670805817774 -0.0057037196691 1.38622254667e-22)
(0.0699697968403 -0.00791396344949 -1.50274822595e-23)
(0.0740109836271 -0.0101848715923 -5.74591796725e-23)
(0.0794034667097 -0.0123626333464 3.20256469904e-24)
(0.0863025211035 -0.0143396816522 4.23948601133e-23)
(0.0948968704538 -0.0159512813238 1.00770612989e-22)
(0.105440004011 -0.0169860722362 -5.10745951275e-23)
(0.118236076555 -0.0171894692088 1.22111833523e-23)
(0.133704872964 -0.016248910849 2.53288473917e-22)
(0.152422367149 -0.0136678064386 -3.43334735004e-22)
(0.175120139047 -0.00871395194313 1.30682047572e-21)
(0.202634276834 -0.000498865002121 8.16687115908e-21)
(0.0663282924723 -0.000351837396328 -1.38188986585e-22)
(0.0666931395614 -0.00196329629601 4.08497639416e-22)
(0.0687174645066 -0.00325721388439 3.9540915974e-23)
(0.0715104213696 -0.0043855216126 1.20630630943e-22)
(0.0753912364799 -0.00545505604885 -3.11807123591e-23)
(0.0805441292144 -0.00628684973559 5.95111202099e-23)
(0.0870915652025 -0.00673671174115 2.72365066628e-23)
(0.0951956279579 -0.0066067617341 -1.30829258092e-22)
(0.105046213811 -0.00564282418321 5.72092678203e-23)
(0.116878027304 -0.0035217931284 6.79134852289e-23)
(0.131026908209 0.000142370899425 -1.04113399012e-22)
(0.147891692339 0.00593443512688 4.02245046507e-22)
(0.167938169861 0.0146718219266 4.61968403129e-22)
(0.191638149746 0.0275735326622 7.94632854907e-21)
(0.102578500354 0.00471055761418 -5.43715289672e-23)
(0.113152759841 0.0088286461559 5.02316564555e-23)
(0.125625000679 0.014800802664 1.12788732655e-22)
(0.140279544938 0.0232169458437 2.30586607247e-22)
(0.157247725257 0.0349282419468 1.66335920716e-21)
(0.176539168739 0.0512026890032 6.76277284478e-21)
(0.129717478541 0.037823450789 4.380280211e-23)
(0.143016773221 0.0518239778426 2.93501937948e-22)
(0.157356981988 0.0701894598219 3.63544937112e-21)
(0.136266889215 0.0830113484525 -1.67433598265e-21)
)
;

boundaryField
{
    back
    {
        type            calculated;
        value           uniform (0 0 0);
    }
    sides
    {
        type            calculated;
        value           nonuniform List<vector> 0();
    }
    bottom
    {
        type            calculated;
        value           uniform (0 0 0);
    }
    front
    {
        type            calculated;
        value           uniform (0 0 0);
    }
    atmosphere
    {
        type            calculated;
        value           nonuniform List<vector> 0();
    }
    floatingObject
    {
        type            calculated;
        value           nonuniform List<vector> 4((0 -1.80626387255e-14 2.25782984069e-15) (0 -1.80626387255e-14 2.25782984069e-15) (0 0 0) (0 -3.61252774511e-14 2.25782984069e-15));
    }
    procBoundary8to3
    {
        type            processor;
        value           nonuniform List<vector> 8((0.01076246798 -0.00286099633302 1.35017452733e-22) (0.0105476675573 -0.00975575069967 4.14857032064e-21) (0.0100731088812 -0.0161473370588 1.12736349144e-20) (0.00897464879444 -0.0222938338382 2.43305177618e-20) (0.00666062832732 -0.0276324540073 5.76487259809e-20) (0.00233478487579 -0.0309310221935 8.83089010737e-20) (-0.00857983912253 -0.0330147872129 1.66584346129e-19) (-0.0364455597803 -0.00923872913537 1.31817368478e-18));
    }
    procBoundary8to6
    {
        type            processor;
        value           nonuniform List<vector> 
16
(
(0.105409514721 -0.0353817084304 1.09147291096e-18)
(0.0678564946645 -0.108516484003 1.27328115896e-18)
(0.0842030065416 -0.163150470038 3.11966227371e-18)
(0.10090455015 -0.17821413409 2.57225091998e-18)
(0.115946204468 -0.189589413133 9.44500103707e-19)
(0.138397527384 -0.188022187068 1.65364012368e-19)
(0.165146253135 -0.177838674767 5.13697052089e-21)
(0.194371346833 -0.156189436465 4.93158401135e-21)
(0.219160525902 -0.122948707061 1.37810788572e-20)
(0.237273254725 -0.0786831643732 2.07906116353e-20)
(0.242689236826 -0.0305704723588 3.83388903417e-20)
(0.235333153149 0.0125662194303 4.67717265346e-20)
(0.219130156283 0.0467071515059 2.4633795017e-20)
(0.196742737255 0.0738869218019 2.29107237796e-20)
(0.171078217521 0.0946100105022 1.35013054273e-20)
(0.144300360763 0.107853913093 -2.57028266469e-21)
)
;
    }
    procBoundary8to7
    {
        type            processor;
        value           nonuniform List<vector> 
17
(
(0.0671801242856 6.24495792432e-05 1.29791045351e-22)
(0.0674591550164 -0.000599912486175 2.27756064163e-23)
(0.0693735607309 -0.000926159714271 1.3013762687e-22)
(0.0719706363078 -0.00104157298801 2.75347677418e-23)
(0.0755577520904 -0.000995279453468 -8.002507715e-23)
(0.080309749722 -0.000597343678916 -3.01690900077e-23)
(0.0863112761807 0.000326374392263 -1.21456224019e-23)
(0.0936852483478 0.00200462513306 3.06051495305e-23)
(0.0936852483478 0.00200462513306 3.06051495305e-23)
(0.0983625410865 0.0138236330504 1.31848772872e-22)
(0.107388989927 0.0195352520974 -6.89822990202e-23)
(0.117810633205 0.0273282151094 -1.8085912913e-22)
(0.117810633205 0.0273282151094 -1.8085912913e-22)
(0.117259465251 0.0487817855505 1.44586131758e-22)
(0.126780685893 0.0638272475398 -6.42966941388e-22)
(0.126780685893 0.0638272475398 -6.42966941388e-22)
(0.115314768688 0.0894677617944 -1.13178949122e-21)
)
;
    }
}


// ************************************************************************* //
