/*--------------------------------*- C++ -*----------------------------------*\
| =========                 |                                                 |
| \\      /  F ield         | OpenFOAM: The Open Source CFD Toolbox           |
|  \\    /   O peration     | Version:  v2012                                 |
|   \\  /    A nd           | Website:  www.openfoam.com                      |
|    \\/     M anipulation  |                                                 |
\*---------------------------------------------------------------------------*/
FoamFile
{
    version     2.0;
    format      ascii;
    class       volVectorField;
    location    "4.1";
    object      U_0;
}
// * * * * * * * * * * * * * * * * * * * * * * * * * * * * * * * * * * * * * //

dimensions      [0 1 -1 0 0 0 0];


internalField   nonuniform List<vector> 
166
(
(0.0511837553602 0.000252702957408 -4.39163134528e-22)
(0.0501162179673 0.000572259469735 -2.40022524009e-22)
(0.0495574970263 0.000900985415085 -1.18785870873e-22)
(0.0496960029622 0.00123336833688 4.81582680635e-23)
(0.0503924842972 0.00155370596009 2.25825593472e-23)
(0.0514768151558 0.0018863623801 -3.53321032099e-24)
(0.0528613856887 0.00223986497378 -5.48946506882e-25)
(0.0545256675286 0.00261691116732 5.21636700699e-25)
(0.0564767299348 0.00302243290319 1.15476898446e-23)
(0.0587374682361 0.00346169351047 7.59078938987e-24)
(0.061341931388 0.00393781535872 -2.57385600597e-23)
(0.0643407138133 0.00445463667802 -3.83426648871e-25)
(0.067813493761 0.00501028272456 -6.26711766303e-23)
(0.0718882257184 0.00560103933383 -3.56769299122e-23)
(0.0765790945074 0.00592208067085 -2.0152112521e-21)
(0.0812983572033 0.00765206516282 1.48301335258e-21)
(0.0863488344429 0.00664619930985 -6.72516921421e-21)
(0.0931873936587 0.0176244070941 -1.21939905522e-20)
(0.160194610632 0.00698263161966 -1.32923514787e-20)
(0.148631779735 -0.0110448205641 -1.34878688753e-20)
(0.05068547905 0.000363479927348 -4.53377376714e-22)
(0.0496484733918 0.000905423907082 -2.25502435209e-22)
(0.0491136506573 0.00145247031856 -9.24672320482e-23)
(0.0492572059025 0.00201200843104 1.24582122735e-23)
(0.0499417969131 0.00256650875499 6.64676149327e-24)
(0.0510032965479 0.00314223493756 3.30860815804e-24)
(0.0523577991249 0.00375183378923 2.0288530048e-23)
(0.0539849782728 0.00440194556692 -6.34127574552e-24)
(0.0558939494338 0.00510217508954 3.46247772416e-23)
(0.0581064552903 0.00586422859522 4.98783579553e-23)
(0.060651968787 0.00669958183177 -1.23432754665e-23)
(0.0635820041778 0.00761951464482 -2.82005063525e-23)
(0.0669760255902 0.00863333858613 -1.9848003786e-22)
(0.0709748521985 0.00977843966442 -7.68534592855e-22)
(0.0757220575208 0.0107297217816 -1.74840514057e-21)
(0.0808093465119 0.0132171189971 7.97578170142e-22)
(0.0864250312204 0.0134376268965 -4.68481867361e-21)
(0.0929252162557 0.0226929729503 -1.29562052429e-20)
(0.169929109783 0.0120108730496 -1.43140881591e-20)
(0.135418397148 -0.0196544666125 -5.75849823974e-21)
(0.0499676315134 0.000471586621924 -4.34793229056e-22)
(0.048961662145 0.0012323945899 -2.05957046498e-22)
(0.0484489063329 0.00199308807121 -1.04805426571e-22)
(0.0485920385914 0.0027732082494 -4.15730729996e-23)
(0.0492563725941 0.00355446853464 -2.26869634756e-23)
(0.0502836658826 0.00436635617688 -6.50806575228e-24)
(0.0515951634331 0.00522449753761 -1.49339321353e-25)
(0.0531684049822 0.00614023161468 1.78321542503e-23)
(0.0550112046165 0.00712685790814 -1.03025713567e-24)
(0.0571422051316 0.00819748310233 8.59830557874e-25)
(0.0595918540879 0.00937310891688 -1.23097185794e-23)
(0.0623989196259 0.010675787027 -8.53495099662e-23)
(0.0656519173706 0.0121227114685 -3.47803236845e-22)
(0.0695128663204 0.0137708820416 -1.1219857864e-21)
(0.0742164929464 0.0153121118182 -9.82806022509e-22)
(0.0797474937718 0.0183975273964 -1.76306145722e-21)
(0.0857991928591 0.0187283276051 -8.81798576677e-21)
(0.0927207093591 0.0273797740894 -1.20888250346e-20)
(0.182930413334 0.0176839084329 -1.65941253645e-20)
(0.202730490228 0.00158598100266 -6.1774889946e-21)
(0.0490402766628 0.000573412927167 -4.66844614887e-22)
(0.0480619487493 0.00154749920779 -2.43371108761e-22)
(0.0475707184614 0.002514983336 -1.73520089647e-22)
(0.0477092492546 0.00350711184037 -7.4037270902e-23)
(0.0483468780339 0.00450582617817 -3.75771555163e-23)
(0.0493311420181 0.00554612708033 -1.61194257901e-23)
(0.0505851629286 0.0066434967715 4.81270255964e-24)
(0.0520859913352 0.00780996961872 -9.39360176554e-24)
(0.0538408676696 0.00906464822822 3.47143557331e-23)
(0.0558642589586 0.0104298918794 2.71673706231e-23)
(0.0581850261568 0.0119241230193 -1.18465657353e-23)
(0.0608239951594 0.0135763017103 -1.06205695711e-22)
(0.0638842948608 0.0154155542389 -4.33193118107e-22)
(0.0675486234757 0.0175057861595 -1.36194742358e-21)
(0.0721430040876 0.0195980257622 -2.89355569908e-21)
(0.0779881737892 0.0232487249478 -9.5832506741e-23)
(0.0846977338666 0.0237686787234 -1.0834077626e-20)
(0.0922892130484 0.0312091462446 -1.28162408698e-20)
(0.185438325754 0.0208304215778 9.77353574881e-20)
(0.132796426507 0.0665504951217 4.40469183963e-20)
(0.0479060808547 0.000666812679837 -4.75548825985e-22)
(0.0469590808868 0.00184622825549 -2.73542234056e-22)
(0.0464881661204 0.00301344691514 -2.46344419316e-22)
(0.0466182597971 0.00420669391768 -1.07330891284e-22)
(0.0472225127503 0.00541230203417 -4.57011471167e-23)
(0.0481544028465 0.0066667251065 -8.90636645483e-25)
(0.0493381024258 0.00798698031815 1.02822520165e-23)
(0.050752842881 0.0093903966744 -2.00128860177e-23)
(0.0524020170099 0.0108971268704 5.46997775732e-24)
(0.0542939654526 0.0125303472383 -9.61064844972e-24)
(0.0564398083392 0.0143027649295 -3.28023393725e-23)
(0.0588955050561 0.0162650148498 -8.68158053913e-23)
(0.0617238173432 0.0184582327021 -4.34791958867e-22)
(0.0650904549025 0.0209085362214 -1.45222489114e-21)
(0.0695249988877 0.0234010846209 -3.90705785263e-21)
(0.0754283186762 0.0277987494202 2.13908053744e-21)
(0.0819779710816 0.029534538556 -1.56254527604e-20)
(0.0897154887407 0.0362515972816 -1.95043080922e-20)
(0.184167012286 0.035441293238 -1.60764660228e-20)
(0.0427996801192 0.0312752883552 -2.62538910652e-20)
(0.0465795016268 0.000757160792255 -4.36140982212e-22)
(0.0456652727503 0.00213072733817 -2.48001553463e-22)
(0.0452126179251 0.00348334206211 -1.85343318328e-22)
(0.0453291090975 0.0048644339109 -4.69577981405e-23)
(0.0458940533698 0.00626305676072 -2.49596944162e-23)
(0.0467663860908 0.00771816865298 -4.39768573754e-24)
(0.0478723300099 0.00924729177176 3.20977093012e-24)
(0.0491910113155 0.0108669720059 -5.78469208795e-24)
(0.0507195108921 0.0125963589182 -5.27093635985e-24)
(0.0524620390365 0.0144536046251 -1.10781967778e-23)
(0.0544372597234 0.0164903707393 -8.1241434605e-23)
(0.0566829145173 0.0187332743622 -7.28007563792e-23)
(0.0592313578578 0.0211552281788 -2.65927023578e-22)
(0.0623091265892 0.0239105488891 -8.25065381204e-22)
(0.0664792943289 0.0267565532782 -2.84326074051e-21)
(0.0720770403995 0.0314988224247 -2.63860348556e-22)
(0.0774474568297 0.0337250254895 -5.31569375384e-21)
(0.0851571221223 0.0388623017589 -1.19138929178e-20)
(0.187614203669 0.0441705133347 -1.76620176835e-20)
(0.113252837496 -0.0077332404228 -3.18560399214e-20)
(0.0450782710445 0.00083608786234 -2.31769649624e-22)
(0.0441964205283 0.00239321643627 -3.32819442373e-23)
(0.0437583751389 0.00392028464916 2.30154462593e-23)
(0.0438571214458 0.00547562812583 4.81889083491e-23)
(0.0443788670136 0.00705507351232 4.11802189814e-24)
(0.0451849139042 0.00869550934679 3.37832693692e-24)
(0.0462049564249 0.010414525073 -3.13484384948e-24)
(0.0474198518592 0.0122291857238 6.41134984846e-24)
(0.0488168404259 0.014157349515 1.15038515338e-23)
(0.0504175965457 0.0162336514912 2.32535005378e-23)
(0.052230811737 0.0184876237692 -4.9805353262e-23)
(0.054245939825 0.0209205578157 -6.91699336147e-23)
(0.0565464941547 0.023577365044 -2.17709792481e-22)
(0.0593607710745 0.0265555020657 -7.35752845287e-22)
(0.0631087049507 0.0295578219765 -2.23480631248e-21)
(0.0680750575015 0.0345082090367 -5.8281573104e-22)
(0.0721034773065 0.0367366002216 -1.36046428376e-21)
(0.080183948833 0.0399628919871 -9.22591393463e-21)
(0.198933299789 0.0461985626261 2.63257606288e-21)
(0.270591377134 -0.0656585230019 5.58333930677e-21)
(0.0434055130326 0.000906717407635 -1.01054957428e-22)
(0.0425636765532 0.00263404175372 1.41227193832e-22)
(0.0421371934496 0.00431991665292 1.20835368265e-22)
(0.0422167170929 0.00603715073963 7.29043972091e-23)
(0.0426907109022 0.00778130047024 -6.72614297648e-24)
(0.043424272939 0.00958932876017 -1.08656423373e-23)
(0.0443504639294 0.0114825492924 1.25000894158e-25)
(0.0454473448714 0.0134680938416 1.30542687913e-23)
(0.0467227243304 0.0155823073141 5.82099322471e-23)
(0.0481781370156 0.0178533623077 2.76183858577e-23)
(0.049812243046 0.0202836672438 -1.72922059326e-23)
(0.0516275074065 0.0229084128245 -6.4720854882e-23)
(0.0537232283503 0.0257374370661 -2.37604457821e-22)
(0.0562552042945 0.0288201374956 -9.41259695774e-22)
(0.0596027553179 0.0320467961006 -2.33556394763e-21)
(0.0637235569914 0.0371928039371 -7.97422633626e-21)
(0.0664950713003 0.0389494586276 -1.25079540545e-20)
(0.0747570874325 0.0405377893082 -1.09080442822e-20)
(0.196043349574 0.045239946839 5.96741713854e-22)
(0.25318705324 0.243587423559 -5.19291630412e-22)
(0.0415795059731 0.000979553354982 -3.92856860599e-23)
(0.0407748374246 0.00285769941085 1.72987784131e-22)
(0.0403614846191 0.00468346607206 9.16524522558e-23)
(0.0396173769817 0.00104106885686 -1.35661680604e-23)
(0.0375315252946 0.00109068567394 1.16710988421e-22)
(0.0353400635245 0.00114017376273 2.59775493901e-22)
)
;

boundaryField
{
    back
    {
        type            noSlip;
    }
    sides
    {
        type            noSlip;
    }
    bottom
    {
        type            noSlip;
    }
    front
    {
        type            noSlip;
    }
    atmosphere
    {
        type            pressureInletOutletVelocity;
        value           nonuniform List<vector> 8((0 -0.0110448205641 0) (0 -0.0196544666125 0) (0.202730490228 0.00158598100266 -6.1774889946e-21) (0.132796426507 0.0665504951217 4.40469183963e-20) (0.0427996801192 0.0312752883552 -2.62538910652e-20) (0 -0.0077332404228 0) (0 -0.0656585230019 0) (0.25318705324 0.243587423559 -5.19291630412e-22));
    }
    floatingObject
    {
        type            movingWallVelocity;
        value           nonuniform List<vector> 0();
    }
    procBoundary9to6
    {
        type            processor;
        value           nonuniform List<vector> 4((0.0852659739905 -0.000613462196602 -1.39450925355e-20) (0.0930813249294 0.0110744791583 -1.38796570556e-20) (0.156106828882 0.000408681200942 1.63631185531e-21) (0.13807163329 -0.0157973934266 -5.76353850762e-21));
    }
    procBoundary9to7
    {
        type            processor;
        value           nonuniform List<vector> 
16
(
(0.0514595113824 0.000143361108696 -3.80820079658e-22)
(0.0503615772429 0.000235491761213 -2.26546637852e-22)
(0.0497760036976 0.000341946803046 -1.29004026128e-22)
(0.0499032219875 0.000444430962576 6.83075124853e-23)
(0.0506025500421 0.000527489724324 3.36820417073e-23)
(0.051698004057 0.000612887567218 1.76093995263e-23)
(0.0530979694151 0.000705101599083 8.07216671371e-24)
(0.0547791617311 0.000803713729179 -1.11163464696e-23)
(0.0567477571682 0.000909275630429 2.89735233354e-23)
(0.0590257664817 0.00101888982675 1.77113346531e-23)
(0.0616461723037 0.00112756325216 1.54626006622e-23)
(0.0646565611783 0.00122872860622 1.00835589553e-22)
(0.0681363753985 0.00130298244301 2.15588611895e-22)
(0.0721987678317 0.00135541202732 3.84936665166e-22)
(0.0767630197451 0.00101298500256 -1.7711176726e-21)
(0.0811762199033 0.00200146289905 1.14530246563e-21)
)
;
    }
    procBoundary9to10
    {
        type            processor;
        value           nonuniform List<vector> 
15
(
(0.0404210927913 0.00654752175589 4.26708658227e-23)
(0.0408445223398 0.00843894682272 -1.92868771008e-23)
(0.0415045988167 0.0103951108215 -1.09016795137e-23)
(0.0423367214389 0.0124358273056 1.06917895308e-24)
(0.0433203112731 0.0145904927861 2.31432472064e-23)
(0.0444646301263 0.0168751157337 4.7140538687e-23)
(0.0457531082944 0.0193038760615 1.20420499882e-23)
(0.0471932965473 0.0218964161068 -1.1303242277e-23)
(0.0388448222745 0.00305509217712 1.72329895003e-22)
(0.0404210927913 0.00654752175589 4.26708658227e-23)
(0.0384487843626 0.00501230335659 6.94515427629e-24)
(0.0388448222745 0.00305509217712 1.72329895003e-22)
(0.0367966330604 0.00323323530664 1.60313261229e-22)
(0.0346411351624 0.00339189161425 3.90721379735e-22)
(0.033049277758 0.00117974050804 5.97976073051e-22)
)
;
    }
    procBoundary9to11
    {
        type            processor;
        value           nonuniform List<vector> 9((0.0488296079594 0.0246862738377 -6.20490348507e-23) (0.0506998532622 0.0276884353739 -2.59066100962e-22) (0.0529726727965 0.0309801157901 -1.06797617301e-21) (0.0559246621538 0.034484916153 -4.10172177259e-21) (0.0591624472579 0.0398497544127 -5.10388350186e-21) (0.0608885211618 0.0408541881933 -1.18099059764e-20) (0.068532277131 0.0412822487272 -1.47900082895e-20) (0.153405474274 0.0457879715529 -5.02596887137e-21) (-0.175574404659 0.323983793773 -2.47678413937e-20));
    }
}


// ************************************************************************* //
