/*--------------------------------*- C++ -*----------------------------------*\
| =========                 |                                                 |
| \\      /  F ield         | OpenFOAM: The Open Source CFD Toolbox           |
|  \\    /   O peration     | Version:  v2012                                 |
|   \\  /    A nd           | Website:  www.openfoam.com                      |
|    \\/     M anipulation  |                                                 |
\*---------------------------------------------------------------------------*/
FoamFile
{
    version     2.0;
    format      ascii;
    class       volScalarField;
    location    "5.4";
    object      k_0;
}
// * * * * * * * * * * * * * * * * * * * * * * * * * * * * * * * * * * * * * //

dimensions      [0 2 -2 0 0 0 0];


internalField   nonuniform List<scalar> 
166
(
0.00176740385873
0.00177387140926
0.00178215059448
0.0017944027055
0.00181614583786
0.00186236168089
0.00197581671365
0.00228032342546
0.00314153485588
0.00577379250834
0.0137142938048
0.0339949644971
0.0747699407137
0.00175997712386
0.00176557363935
0.00177104810602
0.00177731908048
0.00178527777786
0.0017969012755
0.00181727475384
0.00186023720962
0.00196558601476
0.00224956445239
0.00305723231985
0.005526035497
0.0129467133243
0.031997407754
0.0737913414965
0.00128289378794
0.00159644390628
0.00175577031491
0.00176353462128
0.00176903538323
0.00177439167746
0.00178049451525
0.00178817821495
0.00179924438645
0.00181842293327
0.00185868491574
0.00195804661312
0.0022297248002
0.00300834623817
0.00536388533191
0.0122174249404
0.0295612478995
0.0723778649689
0.00128502637974
0.00159936834647
0.0017034900233
0.00174316852379
0.00175901841434
0.00176672835697
0.00177215471756
0.00177742043732
0.00178339431792
0.0017908610662
0.00180148652209
0.00181970778309
0.00185795879853
0.00195344550674
0.00221990074004
0.00299400728153
0.00528103766528
0.0116055540608
0.0273460570242
0.070885922618
0.00128704326731
0.00160185131099
0.0017062184771
0.00174598945945
0.0017618536928
0.0017695318355
0.00177491363963
0.00178011888202
0.0017860003545
0.00179330096479
0.0018035853262
0.00182107967689
0.00185792736215
0.00195145697373
0.00221877076205
0.00300812233324
0.00527609761716
0.0112383327212
0.0260603671778
0.0701967251468
0.00128885859926
0.00160387135593
0.00170846584355
0.00174835188649
0.00176425877315
0.00177193780248
0.00177729890514
0.00178246894093
0.00178829211795
0.00179547233906
0.00180549681779
0.0018224577564
0.00185840922739
0.0019514776444
0.00222438924346
0.00303991879412
0.00529974391155
0.0109749022277
0.0260549427864
0.0716277533789
0.00129040007834
0.00160544768751
0.00171025263235
0.00175026604906
0.00176623556305
0.00177394134134
0.00177930308045
0.00178445866354
0.00179024970775
0.001797347423
0.00180717831414
0.00182374361214
0.00185917710669
0.00195267262395
0.00223241970694
0.00307228133322
0.00530863558858
0.0105891751319
0.0254803659579
0.0723463322279
0.00129160640025
0.0016065755635
0.00171158387177
0.00175173488079
0.00176778776465
0.0017755356803
0.00178091635486
0.00178607588427
0.00179185299095
0.00179889839058
0.00180858622634
0.00182486326806
0.00185997104286
0.00195408799102
0.00223976319385
0.00309802362871
0.00530718491822
0.0102323868371
0.0243496964784
0.0724437685552
0.00129244645278
0.00160727553808
0.00171246679976
0.00175275920252
0.00176890661912
0.00177670888231
0.00178212468126
0.0017873074798
0.00179309142089
0.001800110277
0.00180969514333
0.00182575099059
0.0018605719196
0.00195512063634
0.00224520791277
0.00311641060161
0.0053097474754
0.00995193176536
0.0228901862856
0.0708103159647
)
;

boundaryField
{
    back
    {
        type            kqRWallFunction;
        value           nonuniform List<scalar> 
166
(
0.00176740385873
0.00177387140926
0.00178215059448
0.0017944027055
0.00181614583786
0.00186236168089
0.00197581671365
0.00228032342546
0.00314153485588
0.00577379250834
0.0137142938048
0.0339949644971
0.0747699407137
0.00175997712386
0.00176557363935
0.00177104810602
0.00177731908048
0.00178527777786
0.0017969012755
0.00181727475384
0.00186023720962
0.00196558601476
0.00224956445239
0.00305723231985
0.005526035497
0.0129467133243
0.031997407754
0.0737913414965
0.00128289378794
0.00159644390628
0.00175577031491
0.00176353462128
0.00176903538323
0.00177439167746
0.00178049451525
0.00178817821495
0.00179924438645
0.00181842293327
0.00185868491574
0.00195804661312
0.0022297248002
0.00300834623817
0.00536388533191
0.0122174249404
0.0295612478995
0.0723778649689
0.00128502637974
0.00159936834647
0.0017034900233
0.00174316852379
0.00175901841434
0.00176672835697
0.00177215471756
0.00177742043732
0.00178339431792
0.0017908610662
0.00180148652209
0.00181970778309
0.00185795879853
0.00195344550674
0.00221990074004
0.00299400728153
0.00528103766528
0.0116055540608
0.0273460570242
0.070885922618
0.00128704326731
0.00160185131099
0.0017062184771
0.00174598945945
0.0017618536928
0.0017695318355
0.00177491363963
0.00178011888202
0.0017860003545
0.00179330096479
0.0018035853262
0.00182107967689
0.00185792736215
0.00195145697373
0.00221877076205
0.00300812233324
0.00527609761716
0.0112383327212
0.0260603671778
0.0701967251468
0.00128885859926
0.00160387135593
0.00170846584355
0.00174835188649
0.00176425877315
0.00177193780248
0.00177729890514
0.00178246894093
0.00178829211795
0.00179547233906
0.00180549681779
0.0018224577564
0.00185840922739
0.0019514776444
0.00222438924346
0.00303991879412
0.00529974391155
0.0109749022277
0.0260549427864
0.0716277533789
0.00129040007834
0.00160544768751
0.00171025263235
0.00175026604906
0.00176623556305
0.00177394134134
0.00177930308045
0.00178445866354
0.00179024970775
0.001797347423
0.00180717831414
0.00182374361214
0.00185917710669
0.00195267262395
0.00223241970694
0.00307228133322
0.00530863558858
0.0105891751319
0.0254803659579
0.0723463322279
0.00129160640025
0.0016065755635
0.00171158387177
0.00175173488079
0.00176778776465
0.0017755356803
0.00178091635486
0.00178607588427
0.00179185299095
0.00179889839058
0.00180858622634
0.00182486326806
0.00185997104286
0.00195408799102
0.00223976319385
0.00309802362871
0.00530718491822
0.0102323868371
0.0243496964784
0.0724437685552
0.00129244645278
0.00160727553808
0.00171246679976
0.00175275920252
0.00176890661912
0.00177670888231
0.00178212468126
0.0017873074798
0.00179309142089
0.001800110277
0.00180969514333
0.00182575099059
0.0018605719196
0.00195512063634
0.00224520791277
0.00311641060161
0.0053097474754
0.00995193176536
0.0228901862856
0.0708103159647
)
;
    }
    sides
    {
        type            kqRWallFunction;
        value           nonuniform List<scalar> 0();
    }
    bottom
    {
        type            kqRWallFunction;
        value           nonuniform List<scalar> 7(0.00128289378794 0.00128502637974 0.00128704326731 0.00128885859926 0.00129040007834 0.00129160640025 0.00129244645278);
    }
    front
    {
        type            kqRWallFunction;
        value           nonuniform List<scalar> 
166
(
0.00176740385873
0.00177387140926
0.00178215059448
0.0017944027055
0.00181614583786
0.00186236168089
0.00197581671365
0.00228032342546
0.00314153485588
0.00577379250834
0.0137142938048
0.0339949644971
0.0747699407137
0.00175997712386
0.00176557363935
0.00177104810602
0.00177731908048
0.00178527777786
0.0017969012755
0.00181727475384
0.00186023720962
0.00196558601476
0.00224956445239
0.00305723231985
0.005526035497
0.0129467133243
0.031997407754
0.0737913414965
0.00128289378794
0.00159644390628
0.00175577031491
0.00176353462128
0.00176903538323
0.00177439167746
0.00178049451525
0.00178817821495
0.00179924438645
0.00181842293327
0.00185868491574
0.00195804661312
0.0022297248002
0.00300834623817
0.00536388533191
0.0122174249404
0.0295612478995
0.0723778649689
0.00128502637974
0.00159936834647
0.0017034900233
0.00174316852379
0.00175901841434
0.00176672835697
0.00177215471756
0.00177742043732
0.00178339431792
0.0017908610662
0.00180148652209
0.00181970778309
0.00185795879853
0.00195344550674
0.00221990074004
0.00299400728153
0.00528103766528
0.0116055540608
0.0273460570242
0.070885922618
0.00128704326731
0.00160185131099
0.0017062184771
0.00174598945945
0.0017618536928
0.0017695318355
0.00177491363963
0.00178011888202
0.0017860003545
0.00179330096479
0.0018035853262
0.00182107967689
0.00185792736215
0.00195145697373
0.00221877076205
0.00300812233324
0.00527609761716
0.0112383327212
0.0260603671778
0.0701967251468
0.00128885859926
0.00160387135593
0.00170846584355
0.00174835188649
0.00176425877315
0.00177193780248
0.00177729890514
0.00178246894093
0.00178829211795
0.00179547233906
0.00180549681779
0.0018224577564
0.00185840922739
0.0019514776444
0.00222438924346
0.00303991879412
0.00529974391155
0.0109749022277
0.0260549427864
0.0716277533789
0.00129040007834
0.00160544768751
0.00171025263235
0.00175026604906
0.00176623556305
0.00177394134134
0.00177930308045
0.00178445866354
0.00179024970775
0.001797347423
0.00180717831414
0.00182374361214
0.00185917710669
0.00195267262395
0.00223241970694
0.00307228133322
0.00530863558858
0.0105891751319
0.0254803659579
0.0723463322279
0.00129160640025
0.0016065755635
0.00171158387177
0.00175173488079
0.00176778776465
0.0017755356803
0.00178091635486
0.00178607588427
0.00179185299095
0.00179889839058
0.00180858622634
0.00182486326806
0.00185997104286
0.00195408799102
0.00223976319385
0.00309802362871
0.00530718491822
0.0102323868371
0.0243496964784
0.0724437685552
0.00129244645278
0.00160727553808
0.00171246679976
0.00175275920252
0.00176890661912
0.00177670888231
0.00178212468126
0.0017873074798
0.00179309142089
0.001800110277
0.00180969514333
0.00182575099059
0.0018605719196
0.00195512063634
0.00224520791277
0.00311641060161
0.0053097474754
0.00995193176536
0.0228901862856
0.0708103159647
)
;
    }
    atmosphere
    {
        type            inletOutlet;
        inletValue      uniform 0.1;
        value           uniform 0.1;
    }
    floatingObject
    {
        type            kqRWallFunction;
        value           nonuniform List<scalar> 0();
    }
    procBoundary0to1
    {
        type            processor;
        value           nonuniform List<scalar> 10(0.00179172078256 0.00181494389285 0.00186474801995 0.00198757475405 0.00231744594339 0.00325254930505 0.00608608887323 0.014420020626 0.035062501815 0.0751538977114);
    }
    procBoundary0to2
    {
        type            processor;
        value           nonuniform List<scalar> 
14
(
0.00176347384347
0.00177015080527
0.00177878443611
0.00175608276851
0.00176178889204
0.00176178889204
0.00128056921722
0.00159309941723
0.00175214343726
0.00175214343726
0.00170029522501
0.00170029522501
0.00173990491372
0.00173990491372
)
;
    }
    procBoundary0to4
    {
        type            processor;
        value           nonuniform List<scalar> 8(0.00129287033656 0.00160754279998 0.00171290382255 0.00175333677233 0.00176958515089 0.00177745610624 0.0017829216158 0.00178814545599);
    }
    procBoundary0to5
    {
        type            processor;
        value           nonuniform List<scalar> 
12
(
0.00179395889213
0.00180097571253
0.0018104867056
0.00182633308132
0.00186079726293
0.00195531148288
0.00224812372293
0.00312925998848
0.00532180627822
0.00974371261397
0.0200346367684
0.0522109741021
)
;
    }
}


// ************************************************************************* //
