/*--------------------------------*- C++ -*----------------------------------*\
| =========                 |                                                 |
| \\      /  F ield         | OpenFOAM: The Open Source CFD Toolbox           |
|  \\    /   O peration     | Version:  v2012                                 |
|   \\  /    A nd           | Website:  www.openfoam.com                      |
|    \\/     M anipulation  |                                                 |
\*---------------------------------------------------------------------------*/
FoamFile
{
    version     2.0;
    format      ascii;
    class       volVectorField;
    location    "1.3";
    object      ddtCorrDdt0(U);
}
// * * * * * * * * * * * * * * * * * * * * * * * * * * * * * * * * * * * * * //

dimensions      [0 1 -2 0 0 0 0];


internalField   nonuniform List<vector> 
167
(
(0.270070126653 0.115229857247 8.30391395168e-23)
(0.282270959767 0.130779607149 2.12596846297e-22)
(0.29565371205 0.147976343149 -4.79669540398e-22)
(0.310766264167 0.167613024247 -4.6702823463e-21)
(0.328711618799 0.19290806751 -7.65185999884e-21)
(0.353872057043 0.224825574701 -3.38770249246e-20)
(0.424422036565 0.244759964883 -9.98605592227e-21)
(1.36579303207 0.283253183118 -9.96386189506e-20)
(0.440147547891 0.502488338779 -1.24783747032e-20)
(0.265409222569 0.14253391745 7.89369049349e-23)
(0.27684617722 0.160500211483 1.02624276926e-21)
(0.289733937466 0.18094981482 -5.28755877517e-21)
(0.304741598406 0.206265471653 -5.56027662134e-21)
(0.327321826695 0.232455631467 -5.91964812293e-20)
(0.386793699732 0.246004787967 -9.67584568203e-20)
(1.01679947064 0.592059921888 -3.40876411035e-19)
(1.042701039 2.88098535228 7.60356180472e-20)
(0.247818942625 0.152539522632 -6.41193091367e-23)
(0.257493808692 0.171028432973 6.1472885629e-23)
(0.268516790152 0.192120897477 -3.66187717327e-21)
(0.281449957732 0.21763715428 1.43794627815e-20)
(0.301352555381 0.239368358001 1.4227234944e-20)
(0.289048306994 0.246247196347 -8.59970620087e-20)
(-3.7597759348 0.0741649952868 -2.19660705983e-19)
(0.828655098939 0.679106851258 1.31182302069e-20)
(0.222204649046 0.143385320442 1.71374837107e-22)
(0.229724236116 0.160940295028 2.15569915049e-22)
(0.237766523172 0.179804705926 9.74389248319e-22)
(0.247042779683 0.201607918172 -1.19263234822e-21)
(0.257819486505 0.228032891669 -5.43929586886e-21)
(0.272264612833 0.243231592075 -2.45015430529e-20)
(0.250159157434 0.259646442454 -2.62471168606e-20)
(3.11342334142 0.0780557116971 1.04986369764e-19)
(-0.149121487717 -0.90079151285 8.9098640342e-20)
(0.20515549352 0.150002039162 8.27876931552e-23)
(0.21132115349 0.167827790554 1.18660209512e-22)
(0.217835607819 0.186853021329 -2.32795405768e-22)
(0.225403657094 0.209024971313 -1.66606016651e-21)
(0.233814546565 0.235010399284 -1.25313444457e-20)
(0.242839269655 0.242796667349 -5.63212056619e-20)
(0.221283128094 0.262612975536 -1.05082114135e-20)
(-1.42629553821 0.572082070708 9.05838325119e-20)
(0.0703247467183 0.360751313701 5.72790556416e-20)
(0.187868969491 0.155392392634 2.79397599725e-22)
(0.192800877219 0.173324540154 2.07478555312e-22)
(0.197920226515 0.192324341807 1.14980216455e-22)
(0.203912216408 0.214632877532 -4.1010098507e-21)
(0.210199249324 0.239928671114 -9.24545912835e-21)
(0.21574484414 0.241494477696 -4.63266054313e-20)
(0.202912730461 0.265984087853 -2.06061974682e-20)
(-0.107394874429 0.287645246387 -9.42725305524e-21)
(0.385926309765 0.113178150885 6.10171286017e-20)
(0.166665434188 0.142759830598 -8.92582621654e-23)
(0.170500135106 0.159671531696 2.94508186058e-23)
(0.174331507529 0.177572332882 -5.90458298192e-23)
(0.178209498207 0.196385043182 1.64084360439e-21)
(0.182784509955 0.218561895752 -3.31304830103e-21)
(0.187193446941 0.242726517418 -6.90443368226e-21)
(0.189983561808 0.238616962686 -7.37389104659e-20)
(0.183764377837 0.264864903778 -5.57258193221e-20)
(0.607425433351 0.170674518308 -1.19441615223e-19)
(0.264616448958 0.087360387021 1.34708066027e-19)
(0.147249841518 0.12998307588 -3.5847665636e-23)
(0.150205499432 0.14609061424 -4.07303955374e-23)
(0.153177694627 0.162970074034 -2.54854641825e-23)
(0.156048763871 0.180724441259 7.90764834189e-23)
(0.158855631529 0.19922735123 -8.19083161099e-23)
(0.162218091308 0.221072780442 -3.12919297626e-21)
(0.165099773453 0.243912861424 -1.50339650089e-20)
(0.16609262419 0.235230646188 -3.46823558627e-20)
(0.164843597524 0.261558372994 1.65370330025e-20)
(0.528770962473 0.229921013888 -8.5129254994e-19)
(0.211236111074 0.322182190286 1.13360187963e-19)
(0.131494144644 0.132557070997 -3.42696434089e-24)
(0.133776442974 0.148656893515 5.3472247847e-23)
(0.136000972012 0.165415902918 -1.47835382794e-22)
(0.138053718381 0.182944272898 -4.97389747131e-22)
(0.139955169042 0.201051860701 -1.86755634604e-21)
(0.142299851226 0.222424600001 -5.68947465464e-21)
(0.143994558424 0.243961883864 -2.62719838725e-20)
(0.143927818499 0.231642630525 -1.34657267883e-20)
(0.14585138426 0.257701532139 8.08690551128e-21)
(0.427386753283 0.283515880951 -3.78640415882e-19)
(0.232625617387 0.421632576529 9.82982341813e-20)
(0.117452466167 0.150565270783 -8.51014014566e-23)
(0.119043978971 0.167141703272 5.52523404243e-23)
(0.120413706063 0.184390521532 -9.63311520772e-23)
(0.12156702363 0.202059124056 -1.7018597365e-21)
(0.12307186584 0.222880596333 -3.91998429388e-21)
(0.123873558576 0.243205264119 -2.82958610396e-20)
(0.123106973111 0.22784709389 -3.99459150252e-20)
(0.126814917803 0.253877705457 -6.36022112454e-20)
(0.365538021073 0.308595232058 -1.03467845997e-19)
(0.235232322757 0.401683850176 6.97917892915e-20)
(0.101286947352 0.151922512788 -2.01805931392e-23)
(0.102355901378 0.168270830221 5.41805195673e-23)
(0.103166917937 0.185203460345 1.81901655668e-22)
(0.103702538313 0.202403286863 1.2637502117e-21)
(0.104488032516 0.222665763394 4.83300589964e-22)
(0.104556949599 0.24203622947 1.0364733526e-20)
(0.103127420553 0.224536974371 -1.58373430821e-20)
(0.107511766592 0.250642073376 1.47949861593e-21)
(0.301814668739 0.33018593116 1.91446148319e-20)
(0.219453804007 0.350296214673 7.89605865863e-20)
(0.0853053951492 0.152837735599 3.54349883014e-24)
(0.0859627356806 0.168926144005 1.69991638462e-22)
(0.0863369355108 0.185509652891 5.36603542743e-22)
(0.0863731551383 0.202201715128 2.3709553978e-21)
(0.0865117008033 0.221852866629 -8.52032250341e-22)
(0.0858408932621 0.240303482893 -9.3396319889e-21)
(0.0836241941044 0.221454427331 -5.12272328924e-20)
(0.0881976850809 0.247506454905 1.09469213608e-20)
(0.248947274299 0.345801705691 1.87710653462e-19)
(0.201428247795 0.306894332254 1.19343747035e-19)
(0.0695280665426 0.153419137539 1.02608910019e-22)
(0.069885128438 0.169234893548 1.5304470035e-22)
(0.0699491680486 0.185443077528 4.49945981174e-22)
(0.0696196974645 0.201590291168 1.55407617491e-21)
(0.0692125442489 0.220556329024 -1.27881459913e-21)
(0.0677441608806 0.237973900387 -1.08595073576e-20)
(0.064723425777 0.218269516985 -4.84343678261e-20)
(0.0701629404203 0.244236834438 2.00757458352e-20)
(0.197393838766 0.349629937512 1.8278562571e-19)
(0.185000965426 0.27667183159 1.35438519108e-19)
(0.0539666819509 0.153812714694 2.27536034091e-22)
(0.0541376300567 0.169371654011 1.37289193405e-22)
(0.054027452646 0.185223062542 -8.69460573531e-23)
(0.0534916053293 0.200838954263 -9.51686368699e-22)
(0.0526054340053 0.219021234457 -4.50467969571e-21)
(0.0497559717255 0.235464375517 -3.50261488706e-20)
(0.0447241297258 0.216023134402 -1.44647351096e-20)
(0.0518713460737 0.243071398302 1.17410642876e-20)
(0.124303137273 0.352138476952 2.17237169519e-19)
(0.163493582532 0.243725423585 1.0374066906e-19)
(0.0383027431246 0.138996192735 -6.03560893981e-22)
(0.0385376959189 0.154298701784 7.37693845467e-22)
(0.0386364458955 0.169675539495 4.88764651694e-22)
(0.0385333785512 0.185247711115 3.07630402918e-22)
(0.0380415314364 0.200227199435 5.43250827914e-22)
(0.0368846644932 0.216949634233 -3.90391612602e-21)
(0.0320067376063 0.231770995759 -2.86249384442e-20)
(0.0213010526804 0.213386152773 -4.3992208248e-20)
(0.0267085627555 0.245421184329 1.77277357944e-20)
(0.182671658724 0.391086912322 -2.4866804677e-19)
(0.275783866282 0.399334754406 1.98518597834e-20)
(0.0234993152713 0.14007454823 -2.13449907726e-21)
(0.0236304275742 0.155394903524 -2.67572732556e-22)
(0.0237296425821 0.170747996346 -1.08980351514e-21)
(0.0239496855652 0.186149872302 1.93711827191e-21)
(0.0242841286553 0.200383563032 -2.29583115144e-21)
(0.0240127122834 0.214114880937 -2.55547433116e-21)
(0.0203674330826 0.224079550428 -4.747298656e-21)
(0.00827410426611 0.206131261041 -2.58704171229e-20)
(-0.0189856747745 0.220673355845 -5.98027717469e-21)
(-0.0374759811093 0.297067563296 2.46374529708e-19)
(-0.18392442038 0.582040638874 1.26543901936e-19)
(0.00804900851802 0.141809905716 9.59696764983e-23)
(0.00807899675161 0.157334387507 1.2035368451e-21)
(0.00823547305528 0.172998922337 4.43818862538e-22)
(0.008968362226 0.189070638178 2.11510856481e-21)
(0.0106765231517 0.205491946648 2.02859882628e-21)
(0.0118572070323 0.22524848223 2.26267770019e-22)
(0.00659715669091 0.242361693326 -1.9565154767e-20)
(-0.0353428250101 0.209615303722 -7.75523459657e-20)
(-0.144994773672 0.185965824829 5.02813868288e-20)
(-0.220045427737 0.21156846219 3.12735584307e-19)
(0.245652581068 0.0481384098772 3.60209078646e-19)
)
;

boundaryField
{
    back
    {
        type            calculated;
        value           uniform (0 0 0);
    }
    sides
    {
        type            calculated;
        value           uniform (0 0 0);
    }
    bottom
    {
        type            calculated;
        value           nonuniform List<vector> 0();
    }
    front
    {
        type            calculated;
        value           uniform (0 0 0);
    }
    atmosphere
    {
        type            calculated;
        value           nonuniform List<vector> 
17
(
(0 0.502488338779 0)
(0 2.88098535228 0)
(0 0.679106851258 0)
(0 -0.90079151285 0)
(0 0.360751313701 0)
(0 0.113178150885 0)
(0 0.087360387021 0)
(0 0.322182190286 0)
(0 0.421632576529 0)
(0 0.401683850176 0)
(0 0.350296214673 0)
(0 0.306894332254 0)
(0 0.27667183159 0)
(0 0.243725423585 0)
(0 0.399334754406 0)
(0 0.582040638874 0)
(0 0.0481384098772 0)
)
;
    }
    floatingObject
    {
        type            calculated;
        value           nonuniform List<vector> 0();
    }
    procBoundary11to9
    {
        type            processor;
        value           nonuniform List<vector> 9((0.284185187554 0.102811294882 3.90945982107e-22) (0.298103179696 0.11713542373 1.78653527603e-22) (0.313553654792 0.133134851099 3.88229392693e-22) (0.331118834262 0.15129281134 -4.37028739522e-21) (0.352360608158 0.17503978847 -8.97399792444e-21) (0.381565497849 0.210538332651 -4.44440523479e-20) (0.44821171852 0.231219060268 -9.52460635813e-21) (1.31569878134 0.241087154474 -1.69705935898e-20) (0.553995529072 0.144414334932 1.42125074418e-21));
    }
    procBoundary11to10
    {
        type            processor;
        value           nonuniform List<vector> 
23
(
(0.258967983489 0.101209200916 -1.07374642428e-22)
(0.254869788665 0.126084323324 1.04674610363e-22)
(0.254869788665 0.126084323324 1.04674610363e-22)
(0.238841211922 0.135441157846 -8.02770203893e-24)
(0.238841211922 0.135441157846 -8.02770203893e-24)
(0.21510866471 0.127121938048 3.79374485186e-24)
(0.199248343361 0.133374375323 3.50003941661e-23)
(0.183054545568 0.138555617171 4.81689900374e-23)
(0.183054545568 0.138555617171 4.81689900374e-23)
(0.162936287406 0.126727990063 5.56073849305e-23)
(0.162936287406 0.126727990063 5.56073849305e-23)
(0.144375797378 0.114538011472 9.27969845496e-25)
(0.12922180545 0.117025196203 6.48521817369e-24)
(0.115748201597 0.134537875922 -2.41520566751e-23)
(0.115748201597 0.134537875922 -2.41520566751e-23)
(0.100061757165 0.136019943594 -1.27089527469e-23)
(0.0844645003409 0.137093107334 5.55011942634e-23)
(0.068977236561 0.137848769133 9.30074080214e-23)
(0.0536121427373 0.138403743187 3.34531532023e-22)
(0.0536121427373 0.138403743187 3.34531532023e-22)
(0.0379791923916 0.123761139404 9.93013030505e-22)
(0.0233071219867 0.124791258795 3.26211216812e-22)
(0.00802132815937 0.126332894616 3.65228618862e-22)
)
;
    }
}


// ************************************************************************* //
