/*--------------------------------*- C++ -*----------------------------------*\
| =========                 |                                                 |
| \\      /  F ield         | OpenFOAM: The Open Source CFD Toolbox           |
|  \\    /   O peration     | Version:  v2012                                 |
|   \\  /    A nd           | Website:  www.openfoam.com                      |
|    \\/     M anipulation  |                                                 |
\*---------------------------------------------------------------------------*/
FoamFile
{
    version     2.0;
    format      ascii;
    class       volScalarField;
    location    "1.3";
    object      k_0;
}
// * * * * * * * * * * * * * * * * * * * * * * * * * * * * * * * * * * * * * //

dimensions      [0 2 -2 0 0 0 0];


internalField   nonuniform List<scalar> 
167
(
0.0152400511672
0.0153657343694
0.0157183865443
0.0167012766842
0.0191117286152
0.0241146326074
0.0330734731553
0.0482346502581
0.0776308946256
0.0153501679095
0.0157289862329
0.0167777971308
0.0193226259234
0.0245428337157
0.0337748999729
0.0490313241949
0.077940762153
0.0153348333204
0.0157393327543
0.0168516827813
0.0195238173838
0.024945775888
0.0344156031888
0.04954804661
0.0780873455575
0.0151676388813
0.0153197426939
0.015749123807
0.0169220063388
0.0197134527253
0.025321435923
0.0350124506703
0.0503671773916
0.0783765197409
0.0151442490352
0.015304964798
0.015758181053
0.0169881694321
0.0198904541397
0.0256690920744
0.0355729360976
0.0512984490567
0.0788344019327
0.0151215075837
0.0152905603772
0.0157664272403
0.0170499066625
0.0200545360847
0.0259887558859
0.0360879843897
0.05207695643
0.0792366556542
0.0150249105231
0.0150995560157
0.0152766150791
0.0157737807455
0.0171068502983
0.0202050552552
0.0262789345306
0.0365424158566
0.0526615673184
0.079498894843
0.0149533004697
0.0150008209128
0.0150785903854
0.0152632279969
0.0157801829855
0.0171586430999
0.0203413530649
0.0265405109836
0.0369592713331
0.0532521299564
0.0797953537899
0.0149285546502
0.0149779567945
0.0150587247828
0.0152504809395
0.0157856923515
0.0172055021265
0.020464177572
0.0267738268803
0.0373217551493
0.0537254439711
0.0800249979839
0.0149562426482
0.0150398781066
0.0152382357996
0.0157900686747
0.0172470007014
0.0205728244139
0.0269779031662
0.0376306141215
0.0540874654843
0.0801877191969
0.0149348736701
0.0150212127925
0.0152256072197
0.0157924630797
0.0172826068944
0.0206675304098
0.0271541929017
0.0378905260054
0.0543798725174
0.0803140362122
0.0149104833326
0.0149992178015
0.0152089742682
0.0157892360672
0.0173089448417
0.0207454600635
0.0272993174295
0.0380980122269
0.0546175509326
0.0804221430559
0.0148709791057
0.0149615661624
0.0151757445117
0.0157675440478
0.0173130894598
0.0207939455677
0.0274005005198
0.0382360264486
0.0547640812334
0.0804885231338
0.0147773345563
0.0148687619551
0.0150857590062
0.0156863324582
0.017253319574
0.0207723233859
0.0274211583913
0.0382672125635
0.0547443635318
0.0804573657554
0.0144571692403
0.0145126809693
0.0146030812474
0.0148196153418
0.0154232265271
0.0170035065584
0.0205512836839
0.0272280573185
0.0380560076718
0.0544007142264
0.0802933790423
0.0136929547468
0.0137461645597
0.0138321609391
0.0140396148328
0.0146266027607
0.0161841537397
0.0197085865467
0.0263169547705
0.0368131745897
0.0524293966724
0.0791112133866
0.0112464633705
0.0113004674617
0.0113769575344
0.0115403223021
0.0119910544671
0.0132277091209
0.016216390114
0.0224362814701
0.0339078999567
0.0530914650776
0.0798253932274
)
;

boundaryField
{
    back
    {
        type            kqRWallFunction;
        value           nonuniform List<scalar> 
167
(
0.0152400511672
0.0153657343694
0.0157183865443
0.0167012766842
0.0191117286152
0.0241146326074
0.0330734731553
0.0482346502581
0.0776308946256
0.0153501679095
0.0157289862329
0.0167777971308
0.0193226259234
0.0245428337157
0.0337748999729
0.0490313241949
0.077940762153
0.0153348333204
0.0157393327543
0.0168516827813
0.0195238173838
0.024945775888
0.0344156031888
0.04954804661
0.0780873455575
0.0151676388813
0.0153197426939
0.015749123807
0.0169220063388
0.0197134527253
0.025321435923
0.0350124506703
0.0503671773916
0.0783765197409
0.0151442490352
0.015304964798
0.015758181053
0.0169881694321
0.0198904541397
0.0256690920744
0.0355729360976
0.0512984490567
0.0788344019327
0.0151215075837
0.0152905603772
0.0157664272403
0.0170499066625
0.0200545360847
0.0259887558859
0.0360879843897
0.05207695643
0.0792366556542
0.0150249105231
0.0150995560157
0.0152766150791
0.0157737807455
0.0171068502983
0.0202050552552
0.0262789345306
0.0365424158566
0.0526615673184
0.079498894843
0.0149533004697
0.0150008209128
0.0150785903854
0.0152632279969
0.0157801829855
0.0171586430999
0.0203413530649
0.0265405109836
0.0369592713331
0.0532521299564
0.0797953537899
0.0149285546502
0.0149779567945
0.0150587247828
0.0152504809395
0.0157856923515
0.0172055021265
0.020464177572
0.0267738268803
0.0373217551493
0.0537254439711
0.0800249979839
0.0149562426482
0.0150398781066
0.0152382357996
0.0157900686747
0.0172470007014
0.0205728244139
0.0269779031662
0.0376306141215
0.0540874654843
0.0801877191969
0.0149348736701
0.0150212127925
0.0152256072197
0.0157924630797
0.0172826068944
0.0206675304098
0.0271541929017
0.0378905260054
0.0543798725174
0.0803140362122
0.0149104833326
0.0149992178015
0.0152089742682
0.0157892360672
0.0173089448417
0.0207454600635
0.0272993174295
0.0380980122269
0.0546175509326
0.0804221430559
0.0148709791057
0.0149615661624
0.0151757445117
0.0157675440478
0.0173130894598
0.0207939455677
0.0274005005198
0.0382360264486
0.0547640812334
0.0804885231338
0.0147773345563
0.0148687619551
0.0150857590062
0.0156863324582
0.017253319574
0.0207723233859
0.0274211583913
0.0382672125635
0.0547443635318
0.0804573657554
0.0144571692403
0.0145126809693
0.0146030812474
0.0148196153418
0.0154232265271
0.0170035065584
0.0205512836839
0.0272280573185
0.0380560076718
0.0544007142264
0.0802933790423
0.0136929547468
0.0137461645597
0.0138321609391
0.0140396148328
0.0146266027607
0.0161841537397
0.0197085865467
0.0263169547705
0.0368131745897
0.0524293966724
0.0791112133866
0.0112464633705
0.0113004674617
0.0113769575344
0.0115403223021
0.0119910544671
0.0132277091209
0.016216390114
0.0224362814701
0.0339078999567
0.0530914650776
0.0798253932274
)
;
    }
    sides
    {
        type            kqRWallFunction;
        value           nonuniform List<scalar> 
11
(
0.0112464633705
0.0113004674617
0.0113769575344
0.0115403223021
0.0119910544671
0.0132277091209
0.016216390114
0.0224362814701
0.0339078999567
0.0530914650776
0.0798253932274
)
;
    }
    bottom
    {
        type            kqRWallFunction;
        value           nonuniform List<scalar> 0();
    }
    front
    {
        type            kqRWallFunction;
        value           nonuniform List<scalar> 
167
(
0.0152400511672
0.0153657343694
0.0157183865443
0.0167012766842
0.0191117286152
0.0241146326074
0.0330734731553
0.0482346502581
0.0776308946256
0.0153501679095
0.0157289862329
0.0167777971308
0.0193226259234
0.0245428337157
0.0337748999729
0.0490313241949
0.077940762153
0.0153348333204
0.0157393327543
0.0168516827813
0.0195238173838
0.024945775888
0.0344156031888
0.04954804661
0.0780873455575
0.0151676388813
0.0153197426939
0.015749123807
0.0169220063388
0.0197134527253
0.025321435923
0.0350124506703
0.0503671773916
0.0783765197409
0.0151442490352
0.015304964798
0.015758181053
0.0169881694321
0.0198904541397
0.0256690920744
0.0355729360976
0.0512984490567
0.0788344019327
0.0151215075837
0.0152905603772
0.0157664272403
0.0170499066625
0.0200545360847
0.0259887558859
0.0360879843897
0.05207695643
0.0792366556542
0.0150249105231
0.0150995560157
0.0152766150791
0.0157737807455
0.0171068502983
0.0202050552552
0.0262789345306
0.0365424158566
0.0526615673184
0.079498894843
0.0149533004697
0.0150008209128
0.0150785903854
0.0152632279969
0.0157801829855
0.0171586430999
0.0203413530649
0.0265405109836
0.0369592713331
0.0532521299564
0.0797953537899
0.0149285546502
0.0149779567945
0.0150587247828
0.0152504809395
0.0157856923515
0.0172055021265
0.020464177572
0.0267738268803
0.0373217551493
0.0537254439711
0.0800249979839
0.0149562426482
0.0150398781066
0.0152382357996
0.0157900686747
0.0172470007014
0.0205728244139
0.0269779031662
0.0376306141215
0.0540874654843
0.0801877191969
0.0149348736701
0.0150212127925
0.0152256072197
0.0157924630797
0.0172826068944
0.0206675304098
0.0271541929017
0.0378905260054
0.0543798725174
0.0803140362122
0.0149104833326
0.0149992178015
0.0152089742682
0.0157892360672
0.0173089448417
0.0207454600635
0.0272993174295
0.0380980122269
0.0546175509326
0.0804221430559
0.0148709791057
0.0149615661624
0.0151757445117
0.0157675440478
0.0173130894598
0.0207939455677
0.0274005005198
0.0382360264486
0.0547640812334
0.0804885231338
0.0147773345563
0.0148687619551
0.0150857590062
0.0156863324582
0.017253319574
0.0207723233859
0.0274211583913
0.0382672125635
0.0547443635318
0.0804573657554
0.0144571692403
0.0145126809693
0.0146030812474
0.0148196153418
0.0154232265271
0.0170035065584
0.0205512836839
0.0272280573185
0.0380560076718
0.0544007142264
0.0802933790423
0.0136929547468
0.0137461645597
0.0138321609391
0.0140396148328
0.0146266027607
0.0161841537397
0.0197085865467
0.0263169547705
0.0368131745897
0.0524293966724
0.0791112133866
0.0112464633705
0.0113004674617
0.0113769575344
0.0115403223021
0.0119910544671
0.0132277091209
0.016216390114
0.0224362814701
0.0339078999567
0.0530914650776
0.0798253932274
)
;
    }
    atmosphere
    {
        type            inletOutlet;
        inletValue      uniform 0.1;
        value           uniform 0.1;
    }
    floatingObject
    {
        type            kqRWallFunction;
        value           nonuniform List<scalar> 0();
    }
    procBoundary11to9
    {
        type            processor;
        value           nonuniform List<scalar> 9(0.0152644642982 0.0153814387969 0.0157077434893 0.0166230422671 0.0188931990954 0.0236642225108 0.0323192109053 0.0472213904183 0.0772166502276);
    }
    procBoundary11to10
    {
        type            processor;
        value           nonuniform List<scalar> 
23
(
0.0151836077027
0.0152156462853
0.0152156462853
0.0151914603004
0.0151914603004
0.0151022918222
0.0150758202866
0.0150499628807
0.0150499628807
0.0149791523818
0.0149791523818
0.0149144539542
0.0148880528512
0.0149049720785
0.0149049720785
0.0148817873802
0.0148557774882
0.014815049535
0.0147209575189
0.0147209575189
0.0144102470046
0.0136475120954
0.0111978938704
)
;
    }
}


// ************************************************************************* //
