/*--------------------------------*- C++ -*----------------------------------*\
| =========                 |                                                 |
| \\      /  F ield         | OpenFOAM: The Open Source CFD Toolbox           |
|  \\    /   O peration     | Version:  v2012                                 |
|   \\  /    A nd           | Website:  www.openfoam.com                      |
|    \\/     M anipulation  |                                                 |
\*---------------------------------------------------------------------------*/
FoamFile
{
    version     2.0;
    format      ascii;
    class       volVectorField;
    location    "4.8";
    object      ddt0(rho,U);
}
// * * * * * * * * * * * * * * * * * * * * * * * * * * * * * * * * * * * * * //

dimensions      [1 -2 -2 0 0 0 0];


internalField   nonuniform List<vector> 
166
(
(-150.520262111 2.26391313942 4.08137320282e-20)
(-151.134135569 6.68807863789 8.34718366162e-21)
(-152.048367604 11.2402070862 2.09883566371e-20)
(-153.687062285 15.9269992942 9.82690540885e-21)
(-155.908349228 20.783512281 -7.6565003169e-21)
(-158.679925997 25.8577724503 -1.79899779198e-20)
(-162.005777651 31.1918512752 2.45344468477e-21)
(-165.90546879 36.8174176547 -1.44366711546e-23)
(-170.403715371 42.7561563764 2.77237598153e-20)
(-175.532792402 49.0172700543 1.09752271007e-20)
(-181.345990604 55.6030808954 7.02754948184e-21)
(-187.884406498 62.3704302087 5.66234766467e-20)
(-195.300770664 69.174416198 -3.36297005726e-19)
(-203.723706252 75.8820213866 -5.66056568155e-20)
(-213.268493318 82.2670300195 1.27813142116e-19)
(-223.431610438 87.6466079915 -4.98531178593e-19)
(-235.179297255 89.9230969894 6.38383194418e-18)
(-139.348622234 52.473393921 7.94326756988e-18)
(-2.78279637868 1.26646995885 -5.44814547404e-19)
(0.872917774538 -0.880493048721 -7.57304761345e-20)
(-154.680448529 1.97246309706 6.32630482705e-20)
(-155.357102287 5.8357425903 8.8659767155e-22)
(-156.374336283 9.81620427307 -6.4600988498e-21)
(-158.165913141 13.9273856092 -1.12207199851e-20)
(-160.583778787 18.2069278882 1.96621552302e-20)
(-163.594180964 22.699073911 1.74009029355e-20)
(-167.196323369 27.4430091502 2.58696236356e-20)
(-171.394322783 32.4676725619 -1.04168942146e-20)
(-176.198467519 37.7865907342 5.13414464184e-20)
(-181.616348344 43.4001495387 -2.59621322105e-20)
(-187.661613977 49.3075118065 2.84383220158e-21)
(-194.372317904 55.3458706871 1.36044709325e-19)
(-201.689310088 61.3535634569 -7.55710169367e-20)
(-209.706409599 67.1748906765 -4.20209102245e-19)
(-218.393900859 72.5460994113 6.86707401769e-19)
(-227.676023021 76.3889258859 -3.95366719589e-18)
(-237.315127362 80.1993766858 2.98804073872e-18)
(-144.880435896 46.9856658863 2.49424891388e-17)
(-4.58604562983 1.55607670254 -6.15799694874e-19)
(1.28620812922 0.560405436756 -3.80170785666e-19)
(-158.245457607 1.65083809492 6.78198626239e-20)
(-158.983216741 4.90391176398 2.63803059252e-21)
(-160.103813313 8.2628387123 -2.16604537535e-20)
(-162.041594193 11.7511440635 -2.02784238349e-20)
(-164.652181117 15.4115853224 -8.09609646204e-21)
(-167.901075364 19.2816141605 1.85049088422e-20)
(-171.780610761 23.4094710866 -3.69257549999e-21)
(-176.277595791 27.8208333689 1.41563529731e-20)
(-181.366113912 32.527494005 -3.98053385193e-20)
(-187.061149366 37.5322648947 -2.9522369757e-20)
(-193.330579382 42.8063112067 -6.78630755816e-21)
(-200.173976976 48.2835632765 5.39052108201e-20)
(-207.420208346 53.7876726063 -5.33545655116e-20)
(-214.989615154 59.0952523878 -3.53396808583e-19)
(-222.698533307 63.9638882007 -5.58331144618e-19)
(-230.497838303 66.9581788524 -3.68050077652e-20)
(-238.59622574 71.4465657801 -4.91358869668e-18)
(-159.167943369 41.371424119 3.04559684468e-18)
(-11.0204125732 2.65731790801 2.65977686849e-18)
(-0.820452444519 1.47899510945 5.48703399937e-20)
(-161.164880428 1.30362146363 5.48202349332e-20)
(-161.960565918 3.89644717716 -1.37605972909e-20)
(-163.185073371 6.58655316852 -1.66342849814e-20)
(-165.274482979 9.40541109216 -1.80209726651e-20)
(-168.079754739 12.3963053623 -1.40284063222e-21)
(-171.563832579 15.6017112388 1.58567312037e-21)
(-175.738844949 19.0828017425 4.92791399797e-22)
(-180.530255886 22.88982506 5.98214475138e-21)
(-185.937872152 27.0027869932 4.82154193183e-20)
(-191.932045387 31.4209092069 7.15340737564e-20)
(-198.488666503 36.1615604309 -5.4254359354e-20)
(-205.466968628 41.2041103996 1.4636275117e-21)
(-212.760824028 46.464348795 -7.87693803278e-20)
(-220.127562479 51.7735190693 -9.637022284e-20)
(-227.070022235 57.0281158399 -3.9883159358e-19)
(-233.208731704 60.3901277045 -1.00019457227e-18)
(-239.96102704 65.8488183855 -1.55969672751e-17)
(-168.209856613 38.1299611067 4.29477048409e-18)
(-14.7355603456 2.26758375463 -5.87784160582e-18)
(-1.39827078584 -1.19132732922 -1.7959167501e-19)
(-163.381628422 0.930425283792 5.12740449855e-20)
(-164.252575557 2.81764467633 2.83559293365e-20)
(-165.571230258 4.77921030915 2.86952240092e-20)
(-167.820905492 6.87773188766 7.76430750503e-21)
(-170.845844855 9.16692544581 -7.12772582929e-22)
(-174.575531467 11.6509167124 8.71917813044e-21)
(-179.016612538 14.4563487067 1.32866413869e-20)
(-184.15791161 17.6313435542 -2.50544578821e-20)
(-189.932131201 21.137747484 6.73264430738e-20)
(-196.258288661 24.9950590228 6.18430547252e-20)
(-203.113091837 29.2680255875 -4.64379114031e-20)
(-210.481254021 33.9830253286 6.3554370122e-21)
(-218.035991408 39.068353008 -2.57373660657e-19)
(-225.595768552 44.7049136049 -8.23021144302e-19)
(-232.276139964 51.1034104194 -6.11368560385e-20)
(-238.508985758 56.3107300639 -4.63591545001e-18)
(-243.911664583 65.0016725404 -1.61652499523e-17)
(-172.829125369 38.2089606644 -3.83773802953e-18)
(-9.84096480614 2.12632719235 -7.22608334673e-18)
(-0.441354689799 -0.195418325858 -1.18485646504e-20)
(-164.852225156 0.512325379799 9.56721189417e-20)
(-165.784194745 1.65302364786 3.6857492485e-20)
(-167.230404754 2.85160489328 9.23113630726e-20)
(-169.631152442 4.14570885975 3.85740396014e-20)
(-172.867149983 5.67783149364 1.87392462537e-20)
(-176.877381559 7.45075850493 4.45936756338e-21)
(-181.628391107 9.50545567755 -4.15786222652e-22)
(-187.148077615 11.9718192352 5.50086680722e-21)
(-193.363871499 14.8963433355 1.85317719365e-20)
(-200.201389902 18.2282379168 3.85225575096e-20)
(-207.549574293 21.9139388887 -7.3481078195e-21)
(-215.333677733 26.2295962404 7.62001163689e-20)
(-223.25882915 31.2751855677 -2.53079777022e-19)
(-231.028725672 37.4931080615 4.87232463962e-19)
(-238.357969325 44.5891333552 9.1434317168e-19)
(-247.3102583 51.5863807301 -1.84915876468e-18)
(-254.532656142 64.061965959 3.28402999111e-18)
(-179.637920882 37.0709485497 1.4073589734e-18)
(-3.97275545795 2.43320030127 -5.84775580311e-19)
(-0.32323561432 0.129572391765 -4.83492321552e-20)
(-165.536868141 0.092145305231 6.18299433923e-20)
(-166.496923313 0.398736663144 2.00322891739e-20)
(-168.07743353 0.764365301068 2.62391458265e-20)
(-170.640262667 1.24775112043 9.79654835888e-21)
(-174.080228296 1.94703973777 -2.7129161001e-20)
(-178.381972142 2.90000342019 1.18477846719e-20)
(-183.50629864 4.18067610343 2.36340567823e-21)
(-189.431494536 5.87887461375 -9.28291309283e-21)
(-196.155034581 8.05709899995 1.3583921841e-20)
(-203.614463221 10.7711507903 2.94918188165e-20)
(-211.65714032 14.0863775149 -7.81581133178e-20)
(-220.014762537 18.1984993134 2.96378962589e-20)
(-228.608938128 23.2778541292 -7.61414258532e-20)
(-237.076977202 29.5662235821 2.1713241922e-19)
(-245.819014644 35.5022958763 2.32317617461e-18)
(-254.478971635 42.1699214119 -3.52598235908e-18)
(-260.063489721 59.5129406519 3.22544086839e-18)
(-188.460229075 34.6444834089 -3.16879752411e-19)
(1.11689640794 2.17338107624 1.95982347524e-20)
(-0.229590226435 0.246098228932 2.49985732805e-20)
(-165.340145655 -0.355843436624 4.72537164817e-20)
(-166.358371909 -0.925062970469 -6.30193140804e-21)
(-168.043821305 -1.46087425466 -1.65154049411e-20)
(-170.7759729 -1.85821322428 -1.62885129003e-20)
(-174.451783108 -2.04300976856 1.3617811962e-20)
(-179.04461617 -1.96748328403 2.12518010782e-20)
(-184.534829339 -1.55050223489 3.44825567206e-21)
(-190.920945424 -0.691982021974 -4.67453669714e-21)
(-198.187801759 0.692984807243 -1.68837735278e-20)
(-206.276112754 2.70056228526 1.08039416061e-23)
(-215.077252226 5.47308915675 1.10713317147e-20)
(-224.416088205 9.20519627431 1.82945169136e-20)
(-234.153247304 14.1002967485 -1.41571754578e-19)
(-244.028830797 20.2557581934 -2.9963606126e-19)
(-254.090322915 28.0019691246 -3.78278418486e-19)
(-261.988112817 38.2201647457 -1.62224776041e-18)
(-265.056728864 49.2334806866 -6.67756856224e-19)
(-200.463641367 24.7974018107 2.43578004796e-18)
(3.72466397026 3.84802979477 5.90723786083e-19)
(-0.235914352414 0.287496018237 4.74692494431e-21)
(-164.220844246 -0.835923974 3.32937747246e-20)
(-165.303731629 -2.33445100656 -6.05955255011e-20)
(-167.089679495 -3.81840919458 -2.6670130965e-20)
(-162.12711193 -1.3462236634 1.29429398295e-20)
(-159.005828832 -1.87591439093 5.4986544668e-20)
(-154.812672005 -2.43152738645 6.30402295544e-20)
)
;

boundaryField
{
    back
    {
        type            calculated;
        value           uniform (0 0 0);
    }
    sides
    {
        type            calculated;
        value           nonuniform List<vector> 0();
    }
    bottom
    {
        type            calculated;
        value           uniform (0 0 0);
    }
    front
    {
        type            calculated;
        value           uniform (0 0 0);
    }
    atmosphere
    {
        type            calculated;
        value           nonuniform List<vector> 8((-3.78158208457 -0.880493048722 4.20053734576e-19) (1.2870040261 0.5604054367 -3.80240707683e-19) (-0.821810947999 1.47899510945 5.59631557173e-20) (7.33296457178 -1.19132732917 -4.17904788293e-19) (-6.59061670854e-06 -0.195418324882 3.96035437934e-25) (1.21949742749e-05 0.129572391705 -8.18154252961e-25) (2.7864876551e-05 0.246098226924 2.96643477486e-24) (1.95845695885e-05 0.28749601262 1.91398810165e-25));
    }
    floatingObject
    {
        type            calculated;
        value           nonuniform List<vector> 0();
    }
    procBoundary9to6
    {
        type            processor;
        value           nonuniform List<vector> 4((-231.167348178 102.313312338 -3.901528683e-17) (-135.614666444 56.1670308895 1.43564855055e-18) (-2.29752582897 0.993144121518 -4.85951392601e-19) (-0.125183611816 -0.14535967579 -2.08237557117e-19));
    }
    procBoundary9to7
    {
        type            processor;
        value           nonuniform List<vector> 
16
(
(-145.815587087 2.53167609892 2.29047925033e-20)
(-146.365290692 7.46934623908 1.81420106791e-20)
(-147.173478715 12.542201399 3.18251347775e-20)
(-148.657847874 17.7557331043 3.588267999e-21)
(-150.676292783 23.1457635263 4.95072475297e-21)
(-153.198887074 28.7623422207 3.09976230858e-20)
(-156.235986311 34.6507092056 5.97904160988e-20)
(-159.815721127 40.8537314999 -9.92760185599e-22)
(-163.976686234 47.4029625217 2.69496990652e-20)
(-168.772150392 54.3246902698 1.11639590686e-20)
(-174.274396365 61.6376022967 -1.91771556665e-20)
(-180.571130695 69.2658965626 1.92261214748e-20)
(-187.93319961 77.133535478 -2.0435831971e-19)
(-196.539670167 85.1137918019 -1.70469662576e-19)
(-206.632508169 92.7934970504 3.54785236173e-20)
(-217.610496185 99.9359109146 -1.5335662822e-18)
)
;
    }
    procBoundary9to10
    {
        type            processor;
        value           nonuniform List<vector> 
15
(
(-169.988224366 -5.16300655342 -2.86395169024e-20)
(-173.896312817 -6.30226808917 -2.79194869933e-21)
(-178.79094965 -7.17509612093 3.11965135591e-21)
(-184.670047403 -7.69943710829 2.29087475492e-21)
(-191.53523248 -7.78412008232 -1.71914105791e-20)
(-199.386492353 -7.31338219258 -1.05553544129e-20)
(-208.198791058 -6.14041617942 -4.58592558988e-21)
(-217.890016698 -4.09288862742 -1.34681887324e-20)
(-163.267248908 -3.81545894891 -2.44331734058e-20)
(-169.988224366 -5.16300655342 -2.86395169024e-20)
(-165.157457148 -6.30508265735 5.23261535282e-20)
(-163.267248908 -3.81545894891 -2.44331734058e-20)
(-160.193452142 -5.37632700585 3.26803227231e-20)
(-156.056182913 -7.00310632688 -8.12020172034e-20)
(-149.52526684 -3.01637177397 -5.30228940167e-20)
)
;
    }
    procBoundary9to11
    {
        type            processor;
        value           nonuniform List<vector> 9((-228.374323044 -0.965430305802 -5.41659699897e-20) (-239.494795265 3.53238407266 -2.11807305659e-19) (-251.08461836 9.63969328046 -6.67281337963e-19) (-262.949400617 18.4046590369 -1.88165739589e-18) (-274.180496925 29.9774590102 2.4250115464e-18) (-280.423367785 43.5230278609 -3.2686095427e-19) (-217.81916411 21.3104951416 -1.94566939692e-18) (0.425648713511 6.73761236019 -5.03946713292e-19) (-0.286065864823 0.408071307045 6.01288203173e-21));
    }
}


// ************************************************************************* //
