/*--------------------------------*- C++ -*----------------------------------*\
| =========                 |                                                 |
| \\      /  F ield         | OpenFOAM: The Open Source CFD Toolbox           |
|  \\    /   O peration     | Version:  v2012                                 |
|   \\  /    A nd           | Website:  www.openfoam.com                      |
|    \\/     M anipulation  |                                                 |
\*---------------------------------------------------------------------------*/
FoamFile
{
    version     2.0;
    format      ascii;
    class       volScalarField;
    location    "4.8";
    object      rAU;
}
// * * * * * * * * * * * * * * * * * * * * * * * * * * * * * * * * * * * * * //

dimensions      [-1 3 1 0 0 0 0];


internalField   nonuniform List<scalar> 
166
(
2.2026883399e-05
2.18778623747e-05
2.18518467066e-05
2.18498442374e-05
2.18489819983e-05
2.18482728149e-05
2.18477944682e-05
2.18476520524e-05
2.18477091526e-05
2.18477519502e-05
2.18459927663e-05
2.18444822337e-05
2.1841694033e-05
2.18314474996e-05
2.17866021482e-05
2.17226078066e-05
2.14898107849e-05
3.74656779883e-05
0.0023189965313
0.0157989129079
2.20233184182e-05
2.1874731534e-05
2.18494803651e-05
2.18484831815e-05
2.18483742993e-05
2.18479250262e-05
2.1847554961e-05
2.18477392196e-05
2.18473051007e-05
2.18469899207e-05
2.18458108783e-05
2.18451587781e-05
2.18421223605e-05
2.18326835481e-05
2.17894364423e-05
2.16930741026e-05
2.14489106763e-05
3.59768812645e-05
0.00190377882597
0.0188979816127
2.20177346809e-05
2.1870018635e-05
2.18471901151e-05
2.18476488851e-05
2.18488200226e-05
2.1848498464e-05
2.18486370344e-05
2.18482182893e-05
2.18474557526e-05
2.18470430455e-05
2.18474558207e-05
2.18456064186e-05
2.18419207755e-05
2.18361689187e-05
2.18017075203e-05
2.17025120812e-05
2.15183422924e-05
3.46030555759e-05
0.00154204058666
0.0166582133365
2.20075302969e-05
2.18638745944e-05
2.18469786667e-05
2.18494854957e-05
2.18499494122e-05
2.18498852228e-05
2.18502365475e-05
2.18495586796e-05
2.18495549758e-05
2.18497693417e-05
2.18492625692e-05
2.18467656115e-05
2.18441601938e-05
2.18410230648e-05
2.18070384332e-05
2.17349774183e-05
2.15848338938e-05
3.33063191279e-05
0.00113883972686
0.0175162405864
2.198143544e-05
2.18625518106e-05
2.18512213272e-05
2.18524734915e-05
2.18526361825e-05
2.18525794436e-05
2.18518477942e-05
2.18518528652e-05
2.18517270954e-05
2.18513278834e-05
2.18494527217e-05
2.18478976146e-05
2.18451597497e-05
2.18421996011e-05
2.18027948727e-05
2.17384257726e-05
2.15985422473e-05
3.27125897642e-05
0.000867084853018
0.01422403272
2.19394950166e-05
2.18771456127e-05
2.18608356497e-05
2.18575238996e-05
2.18566111177e-05
2.18556472595e-05
2.18542223927e-05
2.18535484079e-05
2.18525033667e-05
2.18511289234e-05
2.18499643392e-05
2.18483462746e-05
2.18439707573e-05
2.18375862893e-05
2.17989411244e-05
2.17232204039e-05
2.15849626037e-05
3.22999553316e-05
0.000718762703832
0.0139936766379
2.1996970496e-05
2.18972709539e-05
2.18702693174e-05
2.18632703329e-05
2.18594849216e-05
2.18578043711e-05
2.1856776356e-05
2.18551737953e-05
2.18535344676e-05
2.18523067922e-05
2.18513580067e-05
2.18485695392e-05
2.18434463528e-05
2.18318150375e-05
2.17979553949e-05
2.1729954821e-05
2.16018236219e-05
3.14256210979e-05
0.000610798003974
0.0135104734326
2.20711596695e-05
2.19056500574e-05
2.18743435607e-05
2.18657482252e-05
2.18615780217e-05
2.18594201267e-05
2.18582534548e-05
2.18572854347e-05
2.18561250391e-05
2.1854750168e-05
2.18526163458e-05
2.18491577728e-05
2.18426686623e-05
2.18254918817e-05
2.17920062186e-05
2.17211550311e-05
2.16162421551e-05
3.05294724627e-05
0.000514459120974
0.0131396185235
2.20602224638e-05
2.19048838623e-05
2.18750240638e-05
2.20532242854e-05
2.20486325049e-05
2.20455267562e-05
)
;

boundaryField
{
    back
    {
        type            calculated;
        value           nonuniform List<scalar> 
166
(
2.2026883399e-05
2.18778623747e-05
2.18518467066e-05
2.18498442374e-05
2.18489819983e-05
2.18482728149e-05
2.18477944682e-05
2.18476520524e-05
2.18477091526e-05
2.18477519502e-05
2.18459927663e-05
2.18444822337e-05
2.1841694033e-05
2.18314474996e-05
2.17866021482e-05
2.17226078066e-05
2.14898107849e-05
3.74656779883e-05
0.0023189965313
0.0157989129079
2.20233184182e-05
2.1874731534e-05
2.18494803651e-05
2.18484831815e-05
2.18483742993e-05
2.18479250262e-05
2.1847554961e-05
2.18477392196e-05
2.18473051007e-05
2.18469899207e-05
2.18458108783e-05
2.18451587781e-05
2.18421223605e-05
2.18326835481e-05
2.17894364423e-05
2.16930741026e-05
2.14489106763e-05
3.59768812645e-05
0.00190377882597
0.0188979816127
2.20177346809e-05
2.1870018635e-05
2.18471901151e-05
2.18476488851e-05
2.18488200226e-05
2.1848498464e-05
2.18486370344e-05
2.18482182893e-05
2.18474557526e-05
2.18470430455e-05
2.18474558207e-05
2.18456064186e-05
2.18419207755e-05
2.18361689187e-05
2.18017075203e-05
2.17025120812e-05
2.15183422924e-05
3.46030555759e-05
0.00154204058666
0.0166582133365
2.20075302969e-05
2.18638745944e-05
2.18469786667e-05
2.18494854957e-05
2.18499494122e-05
2.18498852228e-05
2.18502365475e-05
2.18495586796e-05
2.18495549758e-05
2.18497693417e-05
2.18492625692e-05
2.18467656115e-05
2.18441601938e-05
2.18410230648e-05
2.18070384332e-05
2.17349774183e-05
2.15848338938e-05
3.33063191279e-05
0.00113883972686
0.0175162405864
2.198143544e-05
2.18625518106e-05
2.18512213272e-05
2.18524734915e-05
2.18526361825e-05
2.18525794436e-05
2.18518477942e-05
2.18518528652e-05
2.18517270954e-05
2.18513278834e-05
2.18494527217e-05
2.18478976146e-05
2.18451597497e-05
2.18421996011e-05
2.18027948727e-05
2.17384257726e-05
2.15985422473e-05
3.27125897642e-05
0.000867084853018
0.01422403272
2.19394950166e-05
2.18771456127e-05
2.18608356497e-05
2.18575238996e-05
2.18566111177e-05
2.18556472595e-05
2.18542223927e-05
2.18535484079e-05
2.18525033667e-05
2.18511289234e-05
2.18499643392e-05
2.18483462746e-05
2.18439707573e-05
2.18375862893e-05
2.17989411244e-05
2.17232204039e-05
2.15849626037e-05
3.22999553316e-05
0.000718762703832
0.0139936766379
2.1996970496e-05
2.18972709539e-05
2.18702693174e-05
2.18632703329e-05
2.18594849216e-05
2.18578043711e-05
2.1856776356e-05
2.18551737953e-05
2.18535344676e-05
2.18523067922e-05
2.18513580067e-05
2.18485695392e-05
2.18434463528e-05
2.18318150375e-05
2.17979553949e-05
2.1729954821e-05
2.16018236219e-05
3.14256210979e-05
0.000610798003974
0.0135104734326
2.20711596695e-05
2.19056500574e-05
2.18743435607e-05
2.18657482252e-05
2.18615780217e-05
2.18594201267e-05
2.18582534548e-05
2.18572854347e-05
2.18561250391e-05
2.1854750168e-05
2.18526163458e-05
2.18491577728e-05
2.18426686623e-05
2.18254918817e-05
2.17920062186e-05
2.17211550311e-05
2.16162421551e-05
3.05294724627e-05
0.000514459120974
0.0131396185235
2.20602224638e-05
2.19048838623e-05
2.18750240638e-05
2.20532242854e-05
2.20486325049e-05
2.20455267562e-05
)
;
    }
    sides
    {
        type            calculated;
        value           nonuniform List<scalar> 0();
    }
    bottom
    {
        type            calculated;
        value           nonuniform List<scalar> 
12
(
2.2026883399e-05
2.20233184182e-05
2.20177346809e-05
2.20075302969e-05
2.198143544e-05
2.19394950166e-05
2.1996970496e-05
2.20711596695e-05
2.20602224638e-05
2.20532242854e-05
2.20486325049e-05
2.20455267562e-05
)
;
    }
    front
    {
        type            calculated;
        value           nonuniform List<scalar> 
166
(
2.2026883399e-05
2.18778623747e-05
2.18518467066e-05
2.18498442374e-05
2.18489819983e-05
2.18482728149e-05
2.18477944682e-05
2.18476520524e-05
2.18477091526e-05
2.18477519502e-05
2.18459927663e-05
2.18444822337e-05
2.1841694033e-05
2.18314474996e-05
2.17866021482e-05
2.17226078066e-05
2.14898107849e-05
3.74656779883e-05
0.0023189965313
0.0157989129079
2.20233184182e-05
2.1874731534e-05
2.18494803651e-05
2.18484831815e-05
2.18483742993e-05
2.18479250262e-05
2.1847554961e-05
2.18477392196e-05
2.18473051007e-05
2.18469899207e-05
2.18458108783e-05
2.18451587781e-05
2.18421223605e-05
2.18326835481e-05
2.17894364423e-05
2.16930741026e-05
2.14489106763e-05
3.59768812645e-05
0.00190377882597
0.0188979816127
2.20177346809e-05
2.1870018635e-05
2.18471901151e-05
2.18476488851e-05
2.18488200226e-05
2.1848498464e-05
2.18486370344e-05
2.18482182893e-05
2.18474557526e-05
2.18470430455e-05
2.18474558207e-05
2.18456064186e-05
2.18419207755e-05
2.18361689187e-05
2.18017075203e-05
2.17025120812e-05
2.15183422924e-05
3.46030555759e-05
0.00154204058666
0.0166582133365
2.20075302969e-05
2.18638745944e-05
2.18469786667e-05
2.18494854957e-05
2.18499494122e-05
2.18498852228e-05
2.18502365475e-05
2.18495586796e-05
2.18495549758e-05
2.18497693417e-05
2.18492625692e-05
2.18467656115e-05
2.18441601938e-05
2.18410230648e-05
2.18070384332e-05
2.17349774183e-05
2.15848338938e-05
3.33063191279e-05
0.00113883972686
0.0175162405864
2.198143544e-05
2.18625518106e-05
2.18512213272e-05
2.18524734915e-05
2.18526361825e-05
2.18525794436e-05
2.18518477942e-05
2.18518528652e-05
2.18517270954e-05
2.18513278834e-05
2.18494527217e-05
2.18478976146e-05
2.18451597497e-05
2.18421996011e-05
2.18027948727e-05
2.17384257726e-05
2.15985422473e-05
3.27125897642e-05
0.000867084853018
0.01422403272
2.19394950166e-05
2.18771456127e-05
2.18608356497e-05
2.18575238996e-05
2.18566111177e-05
2.18556472595e-05
2.18542223927e-05
2.18535484079e-05
2.18525033667e-05
2.18511289234e-05
2.18499643392e-05
2.18483462746e-05
2.18439707573e-05
2.18375862893e-05
2.17989411244e-05
2.17232204039e-05
2.15849626037e-05
3.22999553316e-05
0.000718762703832
0.0139936766379
2.1996970496e-05
2.18972709539e-05
2.18702693174e-05
2.18632703329e-05
2.18594849216e-05
2.18578043711e-05
2.1856776356e-05
2.18551737953e-05
2.18535344676e-05
2.18523067922e-05
2.18513580067e-05
2.18485695392e-05
2.18434463528e-05
2.18318150375e-05
2.17979553949e-05
2.1729954821e-05
2.16018236219e-05
3.14256210979e-05
0.000610798003974
0.0135104734326
2.20711596695e-05
2.19056500574e-05
2.18743435607e-05
2.18657482252e-05
2.18615780217e-05
2.18594201267e-05
2.18582534548e-05
2.18572854347e-05
2.18561250391e-05
2.1854750168e-05
2.18526163458e-05
2.18491577728e-05
2.18426686623e-05
2.18254918817e-05
2.17920062186e-05
2.17211550311e-05
2.16162421551e-05
3.05294724627e-05
0.000514459120974
0.0131396185235
2.20602224638e-05
2.19048838623e-05
2.18750240638e-05
2.20532242854e-05
2.20486325049e-05
2.20455267562e-05
)
;
    }
    atmosphere
    {
        type            calculated;
        value           nonuniform List<scalar> 8(0.0157989129079 0.0188979816127 0.0166582133365 0.0175162405864 0.01422403272 0.0139936766379 0.0135104734326 0.0131396185235);
    }
    floatingObject
    {
        type            calculated;
        value           nonuniform List<scalar> 0();
    }
    procBoundary9to6
    {
        type            processor;
        value           nonuniform List<scalar> 4(2.14070929051e-05 3.90797239064e-05 0.00289211855802 0.0160875401194);
    }
    procBoundary9to7
    {
        type            processor;
        value           nonuniform List<scalar> 
16
(
2.20294069129e-05
2.18803592231e-05
2.1853973806e-05
2.18512276193e-05
2.18495797657e-05
2.18486343151e-05
2.18481060896e-05
2.18478106705e-05
2.18474976518e-05
2.18471513641e-05
2.18457002443e-05
2.18424970893e-05
2.18398599065e-05
2.18288132351e-05
2.17863689399e-05
2.16115564886e-05
)
;
    }
    procBoundary9to10
    {
        type            processor;
        value           nonuniform List<scalar> 
15
(
2.18668657847e-05
2.18630984709e-05
2.1860815158e-05
2.18592069549e-05
2.1858343438e-05
2.18581070562e-05
2.18567711507e-05
2.18542955377e-05
2.19021590573e-05
2.18668657847e-05
2.18739139989e-05
2.19021590573e-05
2.18994174027e-05
2.18971722759e-05
2.20433435528e-05
)
;
    }
    procBoundary9to11
    {
        type            processor;
        value           nonuniform List<scalar> 9(2.1850174053e-05 2.18428251354e-05 2.18261017402e-05 2.17982436776e-05 2.16912763081e-05 2.15407680501e-05 2.95935840058e-05 0.000436459984533 0.0127145820231);
    }
}


// ************************************************************************* //
