/*--------------------------------*- C++ -*----------------------------------*\
| =========                 |                                                 |
| \\      /  F ield         | OpenFOAM: The Open Source CFD Toolbox           |
|  \\    /   O peration     | Version:  v2012                                 |
|   \\  /    A nd           | Website:  www.openfoam.com                      |
|    \\/     M anipulation  |                                                 |
\*---------------------------------------------------------------------------*/
FoamFile
{
    version     2.0;
    format      ascii;
    class       surfaceVectorField;
    location    "4.8";
    object      Uf_0;
}
// * * * * * * * * * * * * * * * * * * * * * * * * * * * * * * * * * * * * * //

dimensions      [0 1 -1 0 0 0 0];


internalField   nonuniform List<vector> 
300
(
(-0.0081290139404 0.000388478891998 -3.06209353201e-22)
(-0.00793856318883 0.000186628682636 -3.92245756112e-22)
(-0.00902694119159 0.000751461295393 -1.72799889289e-22)
(-0.00871128337505 0.000535873026346 -2.31555661349e-22)
(-0.00987768234336 0.00110362254619 -4.43596285834e-23)
(-0.00972232609376 0.000869139550072 -1.06250022937e-22)
(-0.0104286308616 0.00146726263936 2.19029302421e-23)
(-0.0104115848874 0.00119930618349 1.42182410836e-23)
(-0.0107911702065 0.00187054912363 1.3846602459e-23)
(-0.0108410637075 0.00155209350142 1.26837837831e-23)
(-0.0110961303682 0.00232623850965 2.14983080267e-24)
(-0.0111822619361 0.00195189304879 4.93298581519e-25)
(-0.0114151931144 0.00285610437757 -2.03744414221e-24)
(-0.0115216485209 0.00241555618336 -2.32685080823e-24)
(-0.0117751359505 0.00348029641138 7.64788330968e-25)
(-0.0119050467683 0.00296195132855 -6.39298412003e-25)
(-0.0121823644125 0.00422397654306 1.30518419981e-24)
(-0.0123473977829 0.00361485253513 7.28543687097e-24)
(-0.0126327569525 0.005114811869 6.4211500694e-24)
(-0.0128510843853 0.00440045408659 1.35135607789e-23)
(-0.0131200815234 0.00618681815694 2.75330937018e-23)
(-0.0134115437276 0.00531348045968 -1.79341508186e-24)
(-0.013606809985 0.00744848841466 1.66672257783e-23)
(-0.0140104654442 0.00645660472985 -1.09117491133e-23)
(-0.0140507977497 0.00896924367633 -1.43453501278e-22)
(-0.01460809909 0.00788181393677 -9.79810179178e-23)
(-0.0145360717229 0.0107537581965 -8.23330932952e-22)
(-0.0151774741545 0.00953327925668 -4.62337750771e-22)
(-0.015382530547 0.0127330102958 -1.79989553491e-22)
(-0.0158596214397 0.0112757961269 -1.33550646948e-21)
(-0.016174078843 0.0148655385719 -2.06465998068e-21)
(-0.0170260714796 0.0137659282725 1.0020970414e-21)
(-0.0143379122062 0.0182943777085 -8.753581815e-21)
(-0.0182130716483 0.0150522627048 -5.8820655686e-21)
(-0.0198255840379 0.0236001028893 -1.24333871996e-20)
(-0.0152820284513 0.0143006863384 -1.14469284628e-20)
(0.03812527436 0.0215462029555 -1.18233622604e-20)
(-0.0276854435813 0.022381654283 -1.19250996944e-20)
(0.110811682189 0.0821391363696 -1.27732337292e-20)
(-0.00847752922529 0.000338787240609 -3.17592064261e-22)
(-0.0082774836743 0.000164896699144 -3.95421413437e-22)
(-0.00935802431374 0.0006473047262 -1.65005794997e-22)
(-0.00901997994831 0.000450498447694 -2.29356360067e-22)
(-0.0102097440191 0.00094713496775 -4.76721532696e-23)
(-0.0100224179897 0.000728577422032 -1.01466333971e-22)
(-0.010783401696 0.00125696212371 4.99909462459e-24)
(-0.0107217676165 0.00100026888658 -1.19093711984e-23)
(-0.0111909496369 0.00160242524219 -6.69520094475e-25)
(-0.0111869504737 0.0012900737035 -4.04178379119e-24)
(-0.0115604842441 0.00200023238628 -3.98338302938e-24)
(-0.0115804917433 0.00162411202607 -7.50782653759e-24)
(-0.0119627889742 0.00247014451474 -9.28705078021e-25)
(-0.011991868195 0.00201913428867 -8.58964024639e-25)
(-0.0124294332901 0.00303156178256 5.88135012799e-24)
(-0.0124665133018 0.00249085205926 1.17738543275e-24)
(-0.0129708079023 0.00371554075762 1.949381345e-23)
(-0.013031026121 0.00306545187083 1.16530911809e-23)
(-0.013587945592 0.0045504002065 5.2989956276e-24)
(-0.0136851010195 0.00377053939576 1.87703355795e-23)
(-0.0142606313357 0.00557584860178 -4.02382578969e-23)
(-0.0144356610956 0.00461358874725 -2.05241527328e-23)
(-0.0149771556243 0.0067892008338 -1.25559992809e-22)
(-0.0152221232068 0.00567470265937 -1.00176888878e-22)
(-0.0157054253807 0.00829854892293 -4.1686526741e-22)
(-0.0161156055057 0.00702164448389 -2.71723020492e-22)
(-0.0164479120308 0.0101037126327 -9.74513287299e-22)
(-0.0169808657748 0.00863871244529 -7.68154536015e-22)
(-0.0174535388219 0.0120888199232 -1.53419874588e-22)
(-0.0178432588694 0.0102774840337 -9.36049783721e-22)
(-0.0190008883311 0.0141601301064 -2.81530854651e-21)
(-0.0190964586587 0.0127349084531 -9.36823154366e-23)
(-0.0192004704423 0.0173545307097 -8.57541221642e-21)
(-0.0214071982614 0.0142370589156 -6.2518659538e-21)
(-0.0297326713086 0.0250536592573 -1.09386409577e-20)
(-0.0229812711457 0.0115730929986 -1.12220472672e-20)
(0.00701680456097 0.0588078508034 -1.28749711632e-20)
(-0.0614377559068 0.0245513158035 -3.98125263845e-21)
(-0.0306342950197 0.209149574613 -8.32030105915e-21)
(-0.00877104763921 0.000274047425235 -3.07185709243e-22)
(-0.00855159535979 0.000139850704731 -3.95120681098e-22)
(-0.00963245825887 0.000527463297464 -1.65816899041e-22)
(-0.00927349539982 0.000353657717069 -2.33211581338e-22)
(-0.0104836454286 0.000763257655982 -6.57035518993e-23)
(-0.0102583833397 0.000567698262524 -1.2274790086e-22)
(-0.0110788120097 0.00101119710249 -2.09502496141e-23)
(-0.0109699607936 0.000770350605661 -4.72152697498e-23)
(-0.0115275864678 0.00128528057887 -1.08800902343e-23)
(-0.0114613506995 0.000984971372112 -2.51446612144e-23)
(-0.011956038493 0.00160727916632 -4.38340753285e-24)
(-0.0119028186525 0.00123880961997 -1.21406589725e-23)
(-0.0124349113758 0.00199346875063 1.24712648613e-24)
(-0.0123783127718 0.00154829992577 -3.58062279403e-24)
(-0.0130047161133 0.00246017091472 6.94912648566e-24)
(-0.0129332928759 0.00191895565359 2.99443622065e-24)
(-0.0136789551991 0.00304611069174 1.09296133104e-23)
(-0.0136167626801 0.0023849338511 1.4441094019e-23)
(-0.0144587771627 0.00376981890268 -7.05281278088e-24)
(-0.0144082582972 0.00297715940811 1.30464722452e-23)
(-0.015333962928 0.00466368672872 -8.0462783714e-23)
(-0.0153286291622 0.00370819313204 -2.21362405699e-23)
(-0.0162991846532 0.00582030576323 -2.46339916561e-22)
(-0.0163775740125 0.00463374440842 -1.54141865414e-22)
(-0.0173148781848 0.00722340603575 -6.23012289097e-22)
(-0.0175174145953 0.00582016184443 -4.24466251893e-22)
(-0.0182858242063 0.00892517093965 -7.29691032437e-22)
(-0.018681378607 0.00732399020726 -1.0885315707e-21)
(-0.0193411949674 0.0107713010555 -8.7631222457e-22)
(-0.0196883526908 0.00875197476608 -1.10681729471e-21)
(-0.0211431609498 0.012525802124 -3.53023972272e-21)
(-0.0208503255918 0.0112263345125 -6.52891591158e-22)
(-0.0252942737941 0.0142125664577 -8.89850100458e-21)
(-0.023093779877 0.0124582930403 -4.53514105147e-21)
(-0.0649491127221 0.024478642685 -4.26465894798e-21)
(-0.0332472293559 0.00904430271606 -1.12871702704e-20)
(-0.114943132933 0.114594258597 5.73417465652e-22)
(-0.151553455419 0.0227783820806 -1.2762724266e-20)
(-0.207561625704 0.146692358559 1.53664769041e-21)
(-0.0090013684033 0.000209423590297 -3.21146553194e-22)
(-0.00876102633645 0.000108680283056 -4.10311774741e-22)
(-0.00984176440462 0.00039391174835 -1.90142583157e-22)
(-0.00945801644596 0.000245274531558 -2.71192365831e-22)
(-0.0106876152297 0.000559552091828 -1.04259618711e-22)
(-0.0104241188085 0.000388609848987 -1.75004290992e-22)
(-0.0112994567676 0.000726783074884 -5.14096813501e-23)
(-0.0111373626722 0.000511711548091 -8.58275942295e-23)
(-0.0117839658073 0.000911913487149 -2.64052299526e-23)
(-0.0116467120996 0.000639870275089 -4.24834564021e-23)
(-0.0122649618583 0.00114691976735 -1.13378742336e-23)
(-0.0121380783139 0.000800192349923 -1.04944156222e-23)
(-0.0128150026319 0.00143745748628 -1.83331305951e-24)
(-0.0126690627762 0.0010077104679 -7.42898342235e-24)
(-0.013474132909 0.0018130465959 1.0486403754e-23)
(-0.0133089789932 0.00126123015299 6.77176957294e-24)
(-0.0142633330822 0.00226136469066 1.65579529538e-23)
(-0.0140649872758 0.00159587669819 1.74534772811e-23)
(-0.015191959466 0.00283942538755 -2.03695554383e-24)
(-0.0149859878641 0.00204518416068 1.35123475028e-23)
(-0.0162784070737 0.00357102844711 -9.58153222701e-23)
(-0.0160596587223 0.00260439546985 3.62706572497e-24)
(-0.0175083879029 0.00454537395769 -3.32268200746e-22)
(-0.0173511575497 0.00333515671586 -1.69236614574e-22)
(-0.0187990335529 0.00580975116629 -8.89985533495e-22)
(-0.0187809372781 0.00430550530053 -5.57093247099e-22)
(-0.0199871086033 0.0073313498305 -1.46565783297e-21)
(-0.020202153718 0.00561128690989 -1.65815964388e-21)
(-0.0210898529063 0.00901109104666 -8.83396661301e-22)
(-0.0213674268822 0.00670330983908 -2.62439352662e-21)
(-0.0227501091099 0.0106548147924 -1.6577929199e-21)
(-0.0224936610528 0.00941703816739 4.25717670888e-22)
(-0.0305769926679 0.012239438889 -6.92381031726e-21)
(-0.0246782951972 0.0104915084992 -3.89367519623e-21)
(-0.103654140452 0.0179308949366 -1.97852355884e-20)
(-0.0389387464257 0.00849421888855 -1.30615666898e-20)
(-0.181965972532 0.0611459605928 -1.17994940413e-20)
(-0.194768968613 0.0163573960692 -3.41615732637e-20)
(-0.144857837349 0.0203884650241 -2.78909901116e-22)
(-0.00915948593073 0.000138318784196 -3.60357587379e-22)
(-0.00889929714199 7.51387290359e-05 -4.10858769734e-22)
(-0.00997570736785 0.000241200510762 -2.56054073666e-22)
(-0.00956086045131 0.00012693340689 -2.8416069373e-22)
(-0.0108122357897 0.000325185916635 -1.56572266511e-22)
(-0.0105081144154 0.000191462491398 -2.01216578495e-22)
(-0.0114373472293 0.000409869049013 -7.69013692815e-23)
(-0.0112221291064 0.000224012832213 -9.43747351482e-23)
(-0.0119491550382 0.000495650649503 -2.65726420718e-23)
(-0.0117326428807 0.000260236362611 -4.13861290604e-23)
(-0.0124714259561 0.000619686070004 -6.58552481093e-24)
(-0.0122623006692 0.000316948448053 -6.65448981243e-24)
(-0.0130814337819 0.000794246075941 1.1760992101e-24)
(-0.0128438016906 0.000404598089497 -4.59690663559e-24)
(-0.0138135244092 0.00101737842661 1.37388431001e-23)
(-0.0135322299565 0.000527629612723 2.65891076005e-24)
(-0.0146998753474 0.00132549123963 1.44078718301e-23)
(-0.0143731048183 0.000706708325982 4.30257431331e-24)
(-0.0157680949235 0.0017316691754 1.91763687716e-23)
(-0.0153920213075 0.000971457027713 8.68286541259e-26)
(-0.0170349896026 0.00228350401714 -6.97942265792e-23)
(-0.0166111927235 0.00131499549732 -1.40841624399e-23)
(-0.0184986304679 0.00300810235723 -3.94061660927e-22)
(-0.0180753305844 0.00179116862271 -1.47881737235e-22)
(-0.020080824637 0.00397047996312 -1.32526735749e-21)
(-0.0197428263788 0.00246172665618 -5.28779428662e-22)
(-0.0215653405152 0.00524669601142 -2.81689533753e-21)
(-0.0214779122878 0.00344376356001 -1.67741676986e-21)
(-0.0228352369527 0.00692927180143 -1.31527919443e-21)
(-0.0230496556317 0.00407272983839 -3.42445266744e-21)
(-0.0246397922999 0.00873648594833 -1.81016460544e-21)
(-0.0243007005818 0.00670201473287 5.14571305531e-22)
(-0.0331870837699 0.011205762695 -1.00314315688e-20)
(-0.0271475388548 0.0072527864581 -6.0538036415e-21)
(-0.118283020361 0.012731718268 -2.7437904365e-20)
(-0.0404646782069 0.00713798065326 -1.45081845552e-20)
(-0.158986043413 0.0172009298783 -2.26409891235e-20)
(-0.199238195411 0.00836836137883 -2.52100583177e-20)
(-0.113723455488 -0.00358672473421 -6.30397421961e-21)
(-0.00923820422868 5.73736175909e-05 -3.34661876085e-22)
(-0.0089565537412 3.94980802735e-05 -3.33727830383e-22)
(-0.0100260676213 7.73049435561e-05 -2.29323198558e-22)
(-0.00958065999831 -2.51710341344e-07 -1.94718212416e-22)
(-0.0108473464969 7.22341776156e-05 -1.39019047132e-22)
(-0.0105029493688 -2.03494827388e-05 -1.2826135229e-22)
(-0.0114746735841 5.20580108986e-05 -5.88594949271e-23)
(-0.0112019486497 -8.33503399111e-05 -4.15690701029e-23)
(-0.0120051263291 5.79077941525e-05 -2.14679768011e-23)
(-0.0117385724925 -0.000147027339229 -1.87355301286e-23)
(-0.0125570009308 5.96867148095e-05 -4.66587163709e-24)
(-0.0122642298749 -0.000201042428582 -5.66232653324e-24)
(-0.0132076961875 8.78718524357e-05 -3.11409508564e-24)
(-0.0128721604716 -0.000243372239952 -3.01119785027e-24)
(-0.0139973035469 0.000164000819 -6.77735802671e-24)
(-0.0136085334585 -0.000268715227824 1.49254808255e-24)
(-0.0149593221854 0.000288848384065 -1.00184688626e-23)
(-0.0144980699272 -0.000265934258888 -3.80961117966e-24)
(-0.0161329756972 0.000472580735526 -3.31737025573e-23)
(-0.0155757924381 -0.000216856052838 -3.37163914544e-24)
(-0.0175344180751 0.000765361292602 -9.21716730956e-23)
(-0.0169038739201 -0.00011792877172 -6.29728173133e-23)
(-0.0191801514041 0.00117189279519 -2.82599504969e-22)
(-0.0184817724181 5.17151547247e-05 -1.12506332927e-22)
(-0.0210189729083 0.00174049303796 -8.80928841037e-22)
(-0.0203113262475 0.000324366729472 -3.64631312296e-22)
(-0.02283913913 0.0025844453722 -2.28497409977e-21)
(-0.0223217920293 0.000814007593461 -1.10262633395e-21)
(-0.0243747642566 0.00376300078035 -1.59460216748e-21)
(-0.024228206953 0.000918382606678 -2.74177105203e-21)
(-0.0265630312597 0.00500308275577 -3.72906773053e-21)
(-0.0255408526357 0.00295087555299 3.72336743892e-22)
(-0.0339838085114 0.00688788046705 -1.0530556628e-20)
(-0.0290324126371 0.00221101748025 -5.97471781317e-21)
(-0.119340715227 0.00531674083234 -1.22803385079e-20)
(-0.0388934749069 0.00325204790796 -1.12197332061e-20)
(-0.153266630068 -0.00146785100767 -8.87304341383e-21)
(-0.192454387763 -0.0020700502053 -1.07575704037e-20)
(-0.101319775618 -0.0185669136149 -7.37336374739e-21)
(-0.00923258247172 -2.93082818484e-05 -1.93784166714e-22)
(-0.00892702397973 -4.68090805077e-07 -1.91246306783e-22)
(-0.00998828150003 -9.18712284017e-05 -9.36563661481e-23)
(-0.00951785356887 -0.000134713414116 -5.51729984012e-23)
(-0.0107855373655 -0.000190781968659 -3.08113752613e-23)
(-0.0104039194778 -0.000239570987232 1.7100397992e-24)
(-0.011402997318 -0.00030795211093 -1.44510530434e-24)
(-0.0110846774893 -0.000398628397476 2.66198559646e-23)
(-0.0119418907869 -0.000421987245906 -2.92987986073e-24)
(-0.0116245901618 -0.000571020166688 6.87090690514e-26)
(-0.0125124901507 -0.000537155560899 -4.00765274642e-24)
(-0.0121491896971 -0.000742172981931 -4.64585062875e-24)
(-0.0131847701882 -0.00064572507789 1.59544531791e-24)
(-0.0127638226921 -0.000916065410955 -5.02145042356e-24)
(-0.0140042746767 -0.000743375164387 4.46029492959e-24)
(-0.0135111200532 -0.00109729937106 1.64157831055e-24)
(-0.0150039912847 -0.00082674020107 2.83721853755e-24)
(-0.0144149609391 -0.00127782339165 1.83032807122e-23)
(-0.0162233418175 -0.000878033929587 -3.31707539014e-23)
(-0.015524610857 -0.00145262006878 1.53416483333e-23)
(-0.017700230273 -0.000908664764027 -8.33074771452e-23)
(-0.0168735915955 -0.00162455414843 -4.97470791238e-23)
(-0.0194590809419 -0.000893289418318 -1.94538140255e-22)
(-0.0184972996886 -0.00179808692702 -7.81615860189e-23)
(-0.0214419056177 -0.00078509896022 -5.86328805211e-22)
(-0.0204197337581 -0.00196737244109 -2.83619278764e-22)
(-0.0234678074653 -0.00058413979518 -1.55942328621e-21)
(-0.0225230033679 -0.00206839737792 -9.23450070517e-22)
(-0.0252935866982 -0.000293998481784 -7.74832140659e-22)
(-0.0245186806073 -0.00256142731725 -1.82662395297e-21)
(-0.0277234549425 0.000292812013949 -1.87331333875e-21)
(-0.0261279419807 -0.00131974986795 -2.14483376276e-21)
(-0.033137580438 0.000753294733792 -6.66389439129e-21)
(-0.0294930355252 -0.00344379251256 -4.58925492233e-21)
(-0.110403690336 -0.00327732872971 -9.69696510188e-21)
(-0.034862888277 -0.00155058545737 -8.81432692505e-21)
(-0.14149631323 -0.0213399402521 -9.25789073729e-21)
(-0.174392911612 -0.0113346350465 -9.18565652913e-21)
(-0.0947157188414 -0.0327618206002 -6.82694969478e-21)
(-0.00913991411837 -0.000118712950457 -5.26351384702e-23)
(-0.00880798371807 -3.83865161091e-05 -7.40207208287e-23)
(-0.00985978614206 -0.00026940332292 4.01934075461e-23)
(-0.00936684997349 -0.000269018424093 4.97121360138e-23)
(-0.0106278513355 -0.000463100153505 5.91412710252e-23)
(-0.0102098702231 -0.000459609780303 7.84745615584e-23)
(-0.0112306269767 -0.00067759232719 2.8133670338e-23)
(-0.0117623180425 -0.000907858031594 -1.64726169897e-24)
(-0.0123333052463 -0.00114204838319 -5.65964830589e-24)
(-0.0130096440513 -0.00139155069421 -4.97531743092e-24)
(-0.0138285345337 -0.00166839887541 1.54845640932e-23)
(-0.0148217552454 -0.0019433126785 3.0807710508e-23)
(-0.016033545725 -0.00225074820077 -1.23467688909e-24)
(-0.0175114963659 -0.00258942351895 -4.46011879975e-23)
(-0.0192727244797 -0.00296026077741 -1.67242724529e-22)
(-0.0212695174937 -0.003385402841 -6.2074054407e-22)
(-0.0233495049741 -0.00386879282238 -1.19065073728e-21)
(-0.0254075076664 -0.00428607043113 -3.19662557507e-21)
(-0.0280311372012 -0.00418337289222 -4.86077534633e-21)
(-0.0309116982372 -0.00436645875065 -6.73968745609e-21)
(-0.0984405886798 -0.00983721122578 -8.3030183523e-21)
(-0.128274482277 -0.0293464264019 -6.75471548662e-21)
(-0.00896196680961 -0.000203044676167 2.83265536553e-23)
(-0.00860441151911 -7.16710322887e-05 4.77009037079e-24)
(-0.00964202796708 -0.000444569659875 8.79932900261e-23)
(-0.00832092656349 -0.000103568188416 4.03151717645e-23)
(-0.00796300855983 -0.000132669974562 1.57957801678e-22)
)
;

boundaryField
{
    back
    {
        type            calculated;
        value           uniform (0 0 0);
    }
    sides
    {
        type            calculated;
        value           nonuniform List<vector> 0();
    }
    bottom
    {
        type            calculated;
        value           uniform (0 0 0);
    }
    front
    {
        type            calculated;
        value           uniform (0 0 0);
    }
    atmosphere
    {
        type            calculated;
        value           nonuniform List<vector> 8((0 -0.0217335209933 0) (0.0550262743739 0.200249138603 -1.43974669358e-20) (-0.128224205224 0.291523101618 -2.24313518246e-21) (0 -0.00155700346543 0) (0 -0.0139337973615 0) (0 -0.0138717473966 0) (0 -0.0279446058651 0) (0 -0.0365710103578 0));
    }
    floatingObject
    {
        type            calculated;
        value           nonuniform List<vector> 0();
    }
    procBoundary9to6
    {
        type            processor;
        value           nonuniform List<vector> 4((-0.0147852110416 0.0146359695082 -5.03105690241e-21) (-0.00997591682806 0.0148403736739 -1.17421083523e-20) (-0.0297376296293 0.0215446948378 -1.24982089462e-20) (0.0675322819643 0.00100551503397 -1.64247642649e-20));
    }
    procBoundary9to7
    {
        type            processor;
        value           nonuniform List<vector> 
16
(
(-0.0075496803638 0.000205755455926 -3.50867636606e-22)
(-0.00834780878465 0.000608637126852 -2.20935304616e-22)
(-0.00936952665444 0.000988184638944 -1.08469139461e-22)
(-0.010047142189 0.00136673463878 2.15092453991e-23)
(-0.0104368653953 0.00176820200089 1.69038830307e-23)
(-0.0107256926115 0.00221692689872 2.55569251628e-24)
(-0.0109911755887 0.00273002085101 -7.54780896262e-24)
(-0.0112808281825 0.00332490780101 -2.4246475039e-24)
(-0.0116045902168 0.00402403741969 2.46380163976e-25)
(-0.0119622397156 0.00485043855779 -2.70880436355e-24)
(-0.0123426582029 0.00580444527245 2.92843168517e-23)
(-0.0127527731491 0.00696977436722 7.00219312955e-23)
(-0.0130916872031 0.00838615757322 6.12615716129e-23)
(-0.013397175974 0.0100117517067 -1.76846205997e-22)
(-0.0138839600966 0.0117716103233 -1.52743179798e-21)
(-0.0148961193042 0.0141592411285 7.48665415074e-22)
)
;
    }
    procBoundary9to10
    {
        type            processor;
        value           nonuniform List<vector> 
15
(
(-0.0108701238686 -0.000715800928915 5.31257485147e-23)
(-0.0113943648955 -0.000994986238845 -1.13682819611e-24)
(-0.0119151959818 -0.00128600736429 -7.30268506472e-24)
(-0.0125145705271 -0.00159327995731 -1.68151805072e-24)
(-0.0132346144083 -0.00192524811021 1.33112309191e-23)
(-0.0141403262433 -0.00228249902582 4.86567648175e-23)
(-0.0152177273927 -0.00267951589464 2.47396418538e-23)
(-0.0165350452482 -0.00313075012183 -1.5674227205e-23)
(-0.0091249215813 -0.000399251291232 6.57781089242e-23)
(-0.0103751251641 -0.000725006797142 7.24590390479e-23)
(-0.00992931148321 -0.00067270533392 7.14163461056e-23)
(-0.0087009363747 -0.000283284904495 4.22216456397e-23)
(-0.00835997805042 -0.000358978583126 9.58081866891e-23)
(-0.00794435304274 -0.000427339090116 2.58358507922e-22)
(-0.00753652454549 -0.000153775200938 3.6029584628e-22)
)
;
    }
    procBoundary9to11
    {
        type            processor;
        value           nonuniform List<vector> 9((-0.0181270587624 -0.00364805849602 -6.53151617206e-23) (-0.0199949848968 -0.00425989866164 -2.91544494001e-22) (-0.02204010095 -0.00494369348085 -1.08816617182e-21) (-0.0241018589884 -0.00603510184923 -2.64942756622e-21) (-0.0262310167612 -0.00573714686586 -5.01449863866e-21) (-0.0293101132564 -0.0091106296667 -5.09604421453e-21) (-0.0293922195473 -0.00633853053243 -8.67330478484e-21) (-0.15488468653 -0.0190690358675 -8.78028127012e-21) (-0.0874920178906 -0.0409686622472 -6.90908033808e-21));
    }
}


// ************************************************************************* //
