/*--------------------------------*- C++ -*----------------------------------*\
| =========                 |                                                 |
| \\      /  F ield         | OpenFOAM: The Open Source CFD Toolbox           |
|  \\    /   O peration     | Version:  v2012                                 |
|   \\  /    A nd           | Website:  www.openfoam.com                      |
|    \\/     M anipulation  |                                                 |
\*---------------------------------------------------------------------------*/
FoamFile
{
    version     2.0;
    format      ascii;
    class       volScalarField;
    location    "4.9";
    object      ddt0(epsilon);
}
// * * * * * * * * * * * * * * * * * * * * * * * * * * * * * * * * * * * * * //

dimensions      [0 2 -4 0 0 0 0];


internalField   nonuniform List<scalar> 
167
(
-0.000390981060948
-0.000395555073864
-0.000397588831816
-0.000398921006148
-0.000400165386164
-0.000401532021324
-0.000403180244719
-0.000405415268234
-0.000343368627818
-0.000376814908795
-0.000389236233809
-0.000393904713707
-0.000395975080962
-0.000397311025087
-0.000398538651157
-0.000399859477689
-0.000401403508462
-0.000403443827935
-0.000406584208554
-0.00034126119627
-0.000374870534643
-0.000387440662511
-0.000392205850502
-0.00039432052781
-0.000395668905884
-0.000396891442807
-0.000398185539281
-0.000399651737193
-0.00040149631866
-0.000404068736921
-0.000339109801163
-0.000372879293749
-0.000385598492494
-0.000390463051895
-0.000392629684731
-0.00039400057415
-0.000395224885409
-0.000396499012389
-0.000397909234194
-0.000399579289138
-0.000326449401866
-0.000336950678944
-0.000370838704826
-0.000383709686797
-0.000388682207524
-0.000390909386179
-0.000392312168081
-0.000393545473688
-0.000394812177229
-0.00039615190098
-0.000397688979826
-0.000324239894474
-0.000334753736744
-0.00036876730553
-0.000381784332182
-0.000386867074311
-0.00038916104562
-0.000390604733722
-0.000391861869604
-0.000393092260735
-0.00039444140134
-0.000395812990844
-0.000321981938606
-0.000332522742999
-0.000366666568654
-0.000379831605661
-0.000385024682217
-0.00038739265116
-0.000388883312687
-0.00039014219733
-0.000391431701964
-0.000392707676726
-0.000319689574296
-0.000330308882523
-0.000364548988572
-0.000377855912862
-0.000383161636228
-0.000385608668392
-0.00038714756911
-0.000388458636607
-0.000389748196281
-0.000317379733932
-0.00032810108634
-0.000362421801674
-0.000375863176144
-0.000381286507285
-0.000383818239668
-0.000385417838464
-0.000386784461919
-0.000388085896291
-0.000315067508011
-0.000325881136201
-0.000360292882034
-0.000373867505922
-0.000379409809801
-0.000382036434591
-0.000383713399342
-0.000385129543848
-0.000386486144958
-0.000387767081405
-0.000312740828041
-0.000323681675377
-0.000358157580684
-0.000371856669745
-0.00037752385873
-0.000380254818667
-0.000382019101644
-0.000383505205843
-0.000384904516457
-0.000386250812313
-0.000310361463567
-0.000321447645416
-0.000355929419546
-0.000369737437511
-0.000375533634368
-0.000378379729444
-0.000380247293678
-0.000381814035512
-0.000383265835044
-0.000384646728212
-0.000307739096425
-0.00031890102169
-0.000353248530771
-0.000367121119802
-0.000373042481203
-0.000376018101937
-0.000378005905945
-0.000379668016133
-0.000381109876357
-0.00038268789767
-0.00030416727292
-0.000314996976164
-0.000348883414131
-0.000362681935785
-0.00036868747693
-0.000371804863509
-0.000373928377352
-0.000375636521769
-0.000377340410389
-0.000378897792742
-0.000297245029113
-0.000306367324727
-0.000338889536042
-0.000352227191087
-0.000358184238229
-0.000361392096784
-0.00036364171588
-0.000365564011721
-0.000367374833681
-0.000279114010865
-0.000283294110426
-0.000312134999114
-0.000324023262698
-0.00032947504322
-0.000332584460631
-0.000334932572595
-0.000336983027318
-0.000339052700466
-0.000248442965849
-0.000276720185383
-0.00029894655522
-0.000308396675458
-0.000313150023648
-0.000316250008232
-0.000318728705849
-0.000321101026506
-0.00032338767687
)
;

boundaryField
{
    back
    {
        type            calculated;
        value           nonuniform List<scalar> 
167
(
-0.000390981060948
-0.000395555073864
-0.000397588831816
-0.000398921006148
-0.000400165386164
-0.000401532021324
-0.000403180244719
-0.000405415268234
-0.000343368627818
-0.000376814908795
-0.000389236233809
-0.000393904713707
-0.000395975080962
-0.000397311025087
-0.000398538651157
-0.000399859477689
-0.000401403508462
-0.000403443827935
-0.000406584208554
-0.00034126119627
-0.000374870534643
-0.000387440662511
-0.000392205850502
-0.00039432052781
-0.000395668905884
-0.000396891442807
-0.000398185539281
-0.000399651737193
-0.00040149631866
-0.000404068736921
-0.000339109801163
-0.000372879293749
-0.000385598492494
-0.000390463051895
-0.000392629684731
-0.00039400057415
-0.000395224885409
-0.000396499012389
-0.000397909234194
-0.000399579289138
-0.000326449401866
-0.000336950678944
-0.000370838704826
-0.000383709686797
-0.000388682207524
-0.000390909386179
-0.000392312168081
-0.000393545473688
-0.000394812177229
-0.00039615190098
-0.000397688979826
-0.000324239894474
-0.000334753736744
-0.00036876730553
-0.000381784332182
-0.000386867074311
-0.00038916104562
-0.000390604733722
-0.000391861869604
-0.000393092260735
-0.00039444140134
-0.000395812990844
-0.000321981938606
-0.000332522742999
-0.000366666568654
-0.000379831605661
-0.000385024682217
-0.00038739265116
-0.000388883312687
-0.00039014219733
-0.000391431701964
-0.000392707676726
-0.000319689574296
-0.000330308882523
-0.000364548988572
-0.000377855912862
-0.000383161636228
-0.000385608668392
-0.00038714756911
-0.000388458636607
-0.000389748196281
-0.000317379733932
-0.00032810108634
-0.000362421801674
-0.000375863176144
-0.000381286507285
-0.000383818239668
-0.000385417838464
-0.000386784461919
-0.000388085896291
-0.000315067508011
-0.000325881136201
-0.000360292882034
-0.000373867505922
-0.000379409809801
-0.000382036434591
-0.000383713399342
-0.000385129543848
-0.000386486144958
-0.000387767081405
-0.000312740828041
-0.000323681675377
-0.000358157580684
-0.000371856669745
-0.00037752385873
-0.000380254818667
-0.000382019101644
-0.000383505205843
-0.000384904516457
-0.000386250812313
-0.000310361463567
-0.000321447645416
-0.000355929419546
-0.000369737437511
-0.000375533634368
-0.000378379729444
-0.000380247293678
-0.000381814035512
-0.000383265835044
-0.000384646728212
-0.000307739096425
-0.00031890102169
-0.000353248530771
-0.000367121119802
-0.000373042481203
-0.000376018101937
-0.000378005905945
-0.000379668016133
-0.000381109876357
-0.00038268789767
-0.00030416727292
-0.000314996976164
-0.000348883414131
-0.000362681935785
-0.00036868747693
-0.000371804863509
-0.000373928377352
-0.000375636521769
-0.000377340410389
-0.000378897792742
-0.000297245029113
-0.000306367324727
-0.000338889536042
-0.000352227191087
-0.000358184238229
-0.000361392096784
-0.00036364171588
-0.000365564011721
-0.000367374833681
-0.000279114010865
-0.000283294110426
-0.000312134999114
-0.000324023262698
-0.00032947504322
-0.000332584460631
-0.000334932572595
-0.000336983027318
-0.000339052700466
-0.000248442965849
-0.000276720185383
-0.00029894655522
-0.000308396675458
-0.000313150023648
-0.000316250008232
-0.000318728705849
-0.000321101026506
-0.00032338767687
)
;
    }
    sides
    {
        type            calculated;
        value           nonuniform List<scalar> 9(-0.000248442965849 -0.000276720185383 -0.00029894655522 -0.000308396675458 -0.000313150023648 -0.000316250008232 -0.000318728705849 -0.000321101026506 -0.00032338767687);
    }
    bottom
    {
        type            calculated;
        value           nonuniform List<scalar> 
13
(
-0.000326449401866
-0.000324239894474
-0.000321981938606
-0.000319689574296
-0.000317379733932
-0.000315067508011
-0.000312740828041
-0.000310361463567
-0.000307739096425
-0.00030416727292
-0.000297245029113
-0.000279114010865
-0.000248442965849
)
;
    }
    front
    {
        type            calculated;
        value           nonuniform List<scalar> 
167
(
-0.000390981060948
-0.000395555073864
-0.000397588831816
-0.000398921006148
-0.000400165386164
-0.000401532021324
-0.000403180244719
-0.000405415268234
-0.000343368627818
-0.000376814908795
-0.000389236233809
-0.000393904713707
-0.000395975080962
-0.000397311025087
-0.000398538651157
-0.000399859477689
-0.000401403508462
-0.000403443827935
-0.000406584208554
-0.00034126119627
-0.000374870534643
-0.000387440662511
-0.000392205850502
-0.00039432052781
-0.000395668905884
-0.000396891442807
-0.000398185539281
-0.000399651737193
-0.00040149631866
-0.000404068736921
-0.000339109801163
-0.000372879293749
-0.000385598492494
-0.000390463051895
-0.000392629684731
-0.00039400057415
-0.000395224885409
-0.000396499012389
-0.000397909234194
-0.000399579289138
-0.000326449401866
-0.000336950678944
-0.000370838704826
-0.000383709686797
-0.000388682207524
-0.000390909386179
-0.000392312168081
-0.000393545473688
-0.000394812177229
-0.00039615190098
-0.000397688979826
-0.000324239894474
-0.000334753736744
-0.00036876730553
-0.000381784332182
-0.000386867074311
-0.00038916104562
-0.000390604733722
-0.000391861869604
-0.000393092260735
-0.00039444140134
-0.000395812990844
-0.000321981938606
-0.000332522742999
-0.000366666568654
-0.000379831605661
-0.000385024682217
-0.00038739265116
-0.000388883312687
-0.00039014219733
-0.000391431701964
-0.000392707676726
-0.000319689574296
-0.000330308882523
-0.000364548988572
-0.000377855912862
-0.000383161636228
-0.000385608668392
-0.00038714756911
-0.000388458636607
-0.000389748196281
-0.000317379733932
-0.00032810108634
-0.000362421801674
-0.000375863176144
-0.000381286507285
-0.000383818239668
-0.000385417838464
-0.000386784461919
-0.000388085896291
-0.000315067508011
-0.000325881136201
-0.000360292882034
-0.000373867505922
-0.000379409809801
-0.000382036434591
-0.000383713399342
-0.000385129543848
-0.000386486144958
-0.000387767081405
-0.000312740828041
-0.000323681675377
-0.000358157580684
-0.000371856669745
-0.00037752385873
-0.000380254818667
-0.000382019101644
-0.000383505205843
-0.000384904516457
-0.000386250812313
-0.000310361463567
-0.000321447645416
-0.000355929419546
-0.000369737437511
-0.000375533634368
-0.000378379729444
-0.000380247293678
-0.000381814035512
-0.000383265835044
-0.000384646728212
-0.000307739096425
-0.00031890102169
-0.000353248530771
-0.000367121119802
-0.000373042481203
-0.000376018101937
-0.000378005905945
-0.000379668016133
-0.000381109876357
-0.00038268789767
-0.00030416727292
-0.000314996976164
-0.000348883414131
-0.000362681935785
-0.00036868747693
-0.000371804863509
-0.000373928377352
-0.000375636521769
-0.000377340410389
-0.000378897792742
-0.000297245029113
-0.000306367324727
-0.000338889536042
-0.000352227191087
-0.000358184238229
-0.000361392096784
-0.00036364171588
-0.000365564011721
-0.000367374833681
-0.000279114010865
-0.000283294110426
-0.000312134999114
-0.000324023262698
-0.00032947504322
-0.000332584460631
-0.000334932572595
-0.000336983027318
-0.000339052700466
-0.000248442965849
-0.000276720185383
-0.00029894655522
-0.000308396675458
-0.000313150023648
-0.000316250008232
-0.000318728705849
-0.000321101026506
-0.00032338767687
)
;
    }
    atmosphere
    {
        type            calculated;
        value           nonuniform List<scalar> 0();
    }
    floatingObject
    {
        type            calculated;
        value           nonuniform List<scalar> 0();
    }
    procBoundary10to9
    {
        type            processor;
        value           nonuniform List<scalar> 
15
(
-0.000392664793961
-0.000397160098768
-0.000399165738788
-0.000400505960374
-0.000401779860108
-0.000403201005017
-0.000404931866995
-0.000407382669031
-0.000345416789024
-0.000378711569539
-0.000378711569539
-0.000333066742812
-0.000330873833516
-0.00032870210447
-0.00032870210447
)
;
    }
    procBoundary10to11
    {
        type            processor;
        value           nonuniform List<scalar> 
23
(
-0.000409145021618
-0.000409145021618
-0.000411456777503
-0.000406936430188
-0.000401603841114
-0.000401603841114
-0.00039925575821
-0.000397036315821
-0.000394013769379
-0.000394013769379
-0.000391019574518
-0.000391019574518
-0.000389383389249
-0.000389383389249
-0.000388950400198
-0.000387432836144
-0.000385884021691
-0.000383884000066
-0.000380301360446
-0.000369006442419
-0.000369006442419
-0.000340951431996
-0.000325510031923
)
;
    }
}


// ************************************************************************* //
