/*--------------------------------*- C++ -*----------------------------------*\
| =========                 |                                                 |
| \\      /  F ield         | OpenFOAM: The Open Source CFD Toolbox           |
|  \\    /   O peration     | Version:  v2012                                 |
|   \\  /    A nd           | Website:  www.openfoam.com                      |
|    \\/     M anipulation  |                                                 |
\*---------------------------------------------------------------------------*/
FoamFile
{
    version     2.0;
    format      ascii;
    class       volScalarField;
    location    "4.9";
    object      nut;
}
// * * * * * * * * * * * * * * * * * * * * * * * * * * * * * * * * * * * * * //

dimensions      [0 2 -1 0 0 0 0];


internalField   nonuniform List<scalar> 
167
(
0.000495245274342
0.000497469722883
0.000498535496074
0.000499274395681
0.000499985685413
0.000500794970472
0.000501820922277
0.000503319106071
0.000473783077633
0.000488966783034
0.000494627465571
0.000496869902005
0.000497951567222
0.000498704921834
0.000499431113528
0.000500258238333
0.000501311931228
0.000502859591346
0.000505567644734
0.000473096695801
0.000488285182567
0.00049396432833
0.000496227206742
0.000497327687995
0.000498098472258
0.000498842400548
0.000499690436246
0.000500774861679
0.000502375482648
0.000505181553025
0.000472363431386
0.000487557982995
0.000493258047422
0.000495544217531
0.000496666591946
0.000497458049039
0.000498222994199
0.000499095467148
0.000500213764043
0.000501873179848
0.00031690587659
0.000471581891627
0.000486786584057
0.000492511222812
0.000494824156407
0.0004959718646
0.000496787452054
0.000497576675899
0.000498476516288
0.00049963282786
0.000501356145069
0.000316336302287
0.000470759150802
0.000485975918099
0.000491727786869
0.000494070856923
0.000495247678519
0.000496091128782
0.00049690791642
0.000497838409436
0.000499036219951
0.000500825021325
0.000315729529388
0.000469897154165
0.00048512979983
0.000490912138586
0.000493288922238
0.00049449887645
0.000495374055007
0.000496222228623
0.000497187264933
0.000498428384027
0.000315089733715
0.000469002457974
0.000484252217493
0.000490068078486
0.000492482828937
0.000493730442028
0.000494641816273
0.000495525527557
0.000496528104825
0.000314418154212
0.000468070622508
0.000483343652858
0.000489197538726
0.000491655272824
0.000492945759779
0.00049389835867
0.00049482233124
0.000495865299238
0.000313712060124
0.000467103577284
0.00048240118307
0.000488296614466
0.000490802377287
0.000492141284571
0.000493140346223
0.00049410815481
0.000495194441354
0.000496575028621
0.000312962666398
0.000466081721948
0.000481400708253
0.000487339235896
0.000489897656039
0.000491290293885
0.000492340468999
0.000493355717405
0.000494488315751
0.000495919502709
0.000312137165401
0.000464933025277
0.000480257048189
0.000486234991697
0.000488848615883
0.000490299207893
0.000491404036981
0.000492468756691
0.000493647476886
0.00049512791759
0.000311122081279
0.000463432889045
0.000478714646968
0.00048471478243
0.000487380326156
0.000488890037634
0.000490050489652
0.000491163668819
0.000492386682848
0.000493909774959
0.000309578034086
0.000460929866507
0.00047605035132
0.000482023618704
0.000484724484815
0.000486288043799
0.000487501298119
0.000488660277089
0.000489919843861
0.000491474110788
0.00030651314027
0.000455587274624
0.000470254687972
0.000476084362771
0.00047877746428
0.000480379736362
0.00048163931603
0.000482837195814
0.000484123851725
0.000298994694067
0.000442127383724
0.000455626205395
0.000461042610104
0.000463632245437
0.000465241888466
0.000466535864314
0.000467771735223
0.000469083707222
0.000245477885535
0.000298653745351
0.000306277632206
0.000309486052128
0.00031118375919
0.000312375985979
0.000313418276464
0.000314447172549
0.000315533143325
)
;

boundaryField
{
    back
    {
        type            nutkWallFunction;
        blending        stepwise;
        Cmu             0.09;
        kappa           0.41;
        E               9.8;
        value           nonuniform List<scalar> 
167
(
5.26272943936e-05
5.28409484416e-05
5.29427836866e-05
5.30130874527e-05
5.30806171401e-05
5.31573433261e-05
5.32544838405e-05
5.33961330728e-05
5.05484184982e-05
5.20205211378e-05
5.25670319683e-05
5.27825663539e-05
5.28859324108e-05
5.29575473323e-05
5.30263816888e-05
5.31046194444e-05
5.32040603363e-05
5.33497876267e-05
5.36042090233e-05
5.04803837811e-05
5.19538130943e-05
5.25025073181e-05
5.27201662665e-05
5.28253465562e-05
5.28985586849e-05
5.29689681469e-05
5.30490144602e-05
5.31510355418e-05
5.33011158184e-05
5.35631329204e-05
5.04079485883e-05
5.1882811239e-05
5.24339316252e-05
5.26539854574e-05
5.27612747652e-05
5.28363954867e-05
5.29086858503e-05
5.29908638386e-05
5.30957783055e-05
5.32507153334e-05
4.55417165268e-05
5.03309616718e-05
5.18076400596e-05
5.23615431625e-05
5.25843304688e-05
5.26940592058e-05
5.27714185826e-05
5.2845895434e-05
5.29304822398e-05
5.30386283647e-05
5.31989279728e-05
4.54661621283e-05
5.02501075863e-05
5.17287932979e-05
5.22857226924e-05
5.25115611168e-05
5.26240868504e-05
5.27040404633e-05
5.27810222364e-05
5.28682778622e-05
5.29800579268e-05
5.31457948676e-05
4.5385908604e-05
5.01655496038e-05
5.16466289182e-05
5.22068952891e-05
5.24361150456e-05
5.25518186957e-05
5.26347278097e-05
5.27145384835e-05
5.28049271692e-05
5.29204150276e-05
4.53014942379e-05
5.00780228431e-05
5.15615478286e-05
5.21254219795e-05
5.23584189791e-05
5.24777239265e-05
5.25640041194e-05
5.26470838331e-05
5.27408283327e-05
4.52131206826e-05
4.99870758156e-05
5.14736099381e-05
5.20414979494e-05
5.22787422213e-05
5.24021382128e-05
5.24922702685e-05
5.25790682843e-05
5.26764314615e-05
4.51204862879e-05
4.98928850203e-05
5.1382576878e-05
5.19548028187e-05
5.21967619797e-05
5.23247780703e-05
5.24192715665e-05
5.25101160089e-05
5.26114270108e-05
5.27391001696e-05
4.50224963585e-05
4.97937328224e-05
5.12862498275e-05
5.18629430951e-05
5.21100559414e-05
5.22432029962e-05
5.23425137069e-05
5.24377772856e-05
5.2543315212e-05
5.26755308941e-05
4.49150396354e-05
4.96828958639e-05
5.11766549089e-05
5.17574630481e-05
5.2009984173e-05
5.21486872418e-05
5.22531936332e-05
5.23531135786e-05
5.24629107988e-05
5.25995712451e-05
4.47836508179e-05
4.95390641091e-05
5.10295581637e-05
5.16128703034e-05
5.18705308596e-05
5.20149670659e-05
5.21248417789e-05
5.22294092093e-05
5.23433389019e-05
5.24840841898e-05
4.45845847759e-05
4.92996324354e-05
5.07756645138e-05
5.13568841751e-05
5.16181936434e-05
5.1768000216e-05
5.18831171731e-05
5.19921973034e-05
5.21099849239e-05
5.22538059463e-05
4.41886360106e-05
4.87862686358e-05
5.02203771735e-05
5.0788554088e-05
5.10495934621e-05
5.12035118305e-05
5.13235058215e-05
5.14369005231e-05
5.15578694201e-05
4.32095147619e-05
4.74826382303e-05
4.88073879194e-05
4.933716288e-05
4.9589009259e-05
4.97443509489e-05
4.98685403887e-05
4.99865647292e-05
5.01112448069e-05
4.01910761982e-05
4.31607905252e-05
4.41649454434e-05
4.45855131392e-05
4.48063060757e-05
4.49599989328e-05
4.50933735713e-05
4.52244367614e-05
4.53619494684e-05
)
;
    }
    sides
    {
        type            nutkWallFunction;
        blending        stepwise;
        Cmu             0.09;
        kappa           0.41;
        E               9.8;
        value           nonuniform List<scalar> 9(2.12935373758e-05 2.28840440196e-05 2.34216657545e-05 2.3646810695e-05 2.37650030426e-05 2.38472737165e-05 2.39186665816e-05 2.39888207276e-05 2.40624255621e-05);
    }
    bottom
    {
        type            nutkWallFunction;
        blending        stepwise;
        Cmu             0.09;
        kappa           0.41;
        E               9.8;
        value           nonuniform List<scalar> 
13
(
2.41586450484e-05
2.41182052393e-05
2.40752497477e-05
2.40300665993e-05
2.39827636429e-05
2.39331793242e-05
2.38807275726e-05
2.38232075364e-05
2.37528756768e-05
2.36463137208e-05
2.34343485564e-05
2.29101328626e-05
2.12935373758e-05
)
;
    }
    front
    {
        type            nutkWallFunction;
        blending        stepwise;
        Cmu             0.09;
        kappa           0.41;
        E               9.8;
        value           nonuniform List<scalar> 
167
(
5.26272943936e-05
5.28409484416e-05
5.29427836866e-05
5.30130874527e-05
5.30806171401e-05
5.31573433261e-05
5.32544838405e-05
5.33961330728e-05
5.05484184982e-05
5.20205211378e-05
5.25670319683e-05
5.27825663539e-05
5.28859324108e-05
5.29575473323e-05
5.30263816888e-05
5.31046194444e-05
5.32040603363e-05
5.33497876267e-05
5.36042090233e-05
5.04803837811e-05
5.19538130943e-05
5.25025073181e-05
5.27201662665e-05
5.28253465562e-05
5.28985586849e-05
5.29689681469e-05
5.30490144602e-05
5.31510355418e-05
5.33011158184e-05
5.35631329204e-05
5.04079485883e-05
5.1882811239e-05
5.24339316252e-05
5.26539854574e-05
5.27612747652e-05
5.28363954867e-05
5.29086858503e-05
5.29908638386e-05
5.30957783055e-05
5.32507153334e-05
4.55417165268e-05
5.03309616718e-05
5.18076400596e-05
5.23615431625e-05
5.25843304688e-05
5.26940592058e-05
5.27714185826e-05
5.2845895434e-05
5.29304822398e-05
5.30386283647e-05
5.31989279728e-05
4.54661621283e-05
5.02501075863e-05
5.17287932979e-05
5.22857226924e-05
5.25115611168e-05
5.26240868504e-05
5.27040404633e-05
5.27810222364e-05
5.28682778622e-05
5.29800579268e-05
5.31457948676e-05
4.5385908604e-05
5.01655496038e-05
5.16466289182e-05
5.22068952891e-05
5.24361150456e-05
5.25518186957e-05
5.26347278097e-05
5.27145384835e-05
5.28049271692e-05
5.29204150276e-05
4.53014942379e-05
5.00780228431e-05
5.15615478286e-05
5.21254219795e-05
5.23584189791e-05
5.24777239265e-05
5.25640041194e-05
5.26470838331e-05
5.27408283327e-05
4.52131206826e-05
4.99870758156e-05
5.14736099381e-05
5.20414979494e-05
5.22787422213e-05
5.24021382128e-05
5.24922702685e-05
5.25790682843e-05
5.26764314615e-05
4.51204862879e-05
4.98928850203e-05
5.1382576878e-05
5.19548028187e-05
5.21967619797e-05
5.23247780703e-05
5.24192715665e-05
5.25101160089e-05
5.26114270108e-05
5.27391001696e-05
4.50224963585e-05
4.97937328224e-05
5.12862498275e-05
5.18629430951e-05
5.21100559414e-05
5.22432029962e-05
5.23425137069e-05
5.24377772856e-05
5.2543315212e-05
5.26755308941e-05
4.49150396354e-05
4.96828958639e-05
5.11766549089e-05
5.17574630481e-05
5.2009984173e-05
5.21486872418e-05
5.22531936332e-05
5.23531135786e-05
5.24629107988e-05
5.25995712451e-05
4.47836508179e-05
4.95390641091e-05
5.10295581637e-05
5.16128703034e-05
5.18705308596e-05
5.20149670659e-05
5.21248417789e-05
5.22294092093e-05
5.23433389019e-05
5.24840841898e-05
4.45845847759e-05
4.92996324354e-05
5.07756645138e-05
5.13568841751e-05
5.16181936434e-05
5.1768000216e-05
5.18831171731e-05
5.19921973034e-05
5.21099849239e-05
5.22538059463e-05
4.41886360106e-05
4.87862686358e-05
5.02203771735e-05
5.0788554088e-05
5.10495934621e-05
5.12035118305e-05
5.13235058215e-05
5.14369005231e-05
5.15578694201e-05
4.32095147619e-05
4.74826382303e-05
4.88073879194e-05
4.933716288e-05
4.9589009259e-05
4.97443509489e-05
4.98685403887e-05
4.99865647292e-05
5.01112448069e-05
4.01910761982e-05
4.31607905252e-05
4.41649454434e-05
4.45855131392e-05
4.48063060757e-05
4.49599989328e-05
4.50933735713e-05
4.52244367614e-05
4.53619494684e-05
)
;
    }
    atmosphere
    {
        type            calculated;
        value           nonuniform List<scalar> 0();
    }
    floatingObject
    {
        type            nutkWallFunction;
        blending        stepwise;
        Cmu             0.09;
        kappa           0.41;
        E               9.8;
        value           nonuniform List<scalar> 0();
    }
    procBoundary10to9
    {
        type            processor;
        value           nonuniform List<scalar> 
15
(
0.000495815291125
0.000498023557279
0.000499075907189
0.000499803092527
0.000500502535395
0.000501296664596
0.000502298349856
0.000503749153033
0.000474422144929
0.000489602026791
0.000489602026791
0.000318378708199
0.00031792647556
0.000317435670803
0.000317435670803
)
;
    }
    procBoundary10to11
    {
        type            processor;
        value           nonuniform List<scalar> 
23
(
0.000505932993607
0.000505932993607
0.000511152830446
0.000510954809698
0.00050479066018
0.00050479066018
0.000504393627361
0.000503979169401
0.000500281710291
0.000500281710291
0.000497814155225
0.000497814155225
0.000497198008293
0.000497198008293
0.000498618112225
0.000498025125811
0.000497295277397
0.000496132566982
0.000493729997191
0.000485689984394
0.000485689984394
0.000470645397832
0.000316772581435
)
;
    }
}


// ************************************************************************* //
