/*--------------------------------*- C++ -*----------------------------------*\
| =========                 |                                                 |
| \\      /  F ield         | OpenFOAM: The Open Source CFD Toolbox           |
|  \\    /   O peration     | Version:  v2012                                 |
|   \\  /    A nd           | Website:  www.openfoam.com                      |
|    \\/     M anipulation  |                                                 |
\*---------------------------------------------------------------------------*/
FoamFile
{
    version     2.0;
    format      ascii;
    class       volScalarField;
    location    "4.9";
    object      p_rgh;
}
// * * * * * * * * * * * * * * * * * * * * * * * * * * * * * * * * * * * * * //

dimensions      [1 -1 -2 0 0 0 0];


internalField   nonuniform List<scalar> 
167
(
8689.92979416
8690.14515349
8690.3903954
8690.64881643
8690.89958591
8691.11586684
8691.26905783
8691.31188609
8696.30352274
8696.48525536
8696.75287075
8697.09424635
8697.49477264
8697.93523707
8698.39197961
8698.83435875
8699.22526771
8699.51352852
8699.6278749
8702.87581614
8703.12651655
8703.4992607
8703.98050437
8704.55459177
8705.2010602
8705.89393877
8706.59981434
8707.27694385
8707.86588385
8708.2945599
8709.31693036
8709.64475671
8710.13290111
8710.76841133
8711.5355141
8712.41358579
8713.37601782
8714.38840276
8715.40379041
8716.3618748
8715.38662814
8715.58810088
8715.99929553
8716.61334601
8717.41769248
8718.39764216
8719.53379628
8720.80090162
8722.16412945
8723.57217511
8724.9771698
8721.40095148
8721.64608356
8722.14664752
8722.89602248
8723.8829066
8725.09471874
8726.51477297
8728.120252
8729.87181707
8731.74095337
8733.66353392
8727.15440622
8727.44524169
8728.03985949
8728.93233437
8730.11346807
8731.57377873
8733.30066278
8735.27028369
8737.46069005
8739.83689344
8732.59896466
8732.93712861
8733.62896227
8734.6700653
8736.05416059
8737.7759083
8739.82626377
8742.18876916
8744.8470754
8737.6853068
8738.07151645
8738.86174839
8740.05429956
8741.64609398
8743.6364648
8746.02168511
8748.79863968
8751.95004884
8742.3637231
8742.79736529
8743.68535228
8745.02854614
8746.82768046
8749.08758429
8751.81337171
8755.00762968
8758.66817514
8762.79333262
8746.58536115
8747.06467166
8748.04716586
8749.53613581
8751.53652735
8754.0593562
8757.11854733
8760.72497713
8764.89532068
8769.6438332
8750.30342714
8750.82538896
8751.89621134
8753.52172687
8755.71132749
8758.48194852
8761.85610718
8765.85556807
8770.50727959
8775.8526977
8753.47465247
8754.03504868
8755.18529293
8756.93385347
8759.29401873
8762.28859083
8765.9480498
8770.30236493
8775.39495073
8781.28623868
8756.06025026
8756.65374861
8757.87201915
8759.72543729
8762.23106135
8765.41774936
8769.32188697
8773.97669447
8779.45027323
8785.79646475
8758.02668653
8758.64743169
8759.91972602
8761.85571101
8764.47628782
8767.81401714
8771.90928138
8776.81002535
8782.56209446
8759.3480395
8759.98848646
8761.29793056
8763.29052726
8765.98979235
8769.43156222
8773.65774625
8778.71854789
8784.69156418
8760.00754816
8760.65765517
8761.98490374
8764.0056099
8766.74417642
8770.23737813
8774.5280017
8779.67962138
8785.75701483
)
;

boundaryField
{
    back
    {
        type            fixedFluxPressure;
        gradient        uniform 0;
        value           nonuniform List<scalar> 
167
(
8689.92979416
8690.14515349
8690.3903954
8690.64881643
8690.89958591
8691.11586684
8691.26905783
8691.31188609
8696.30352274
8696.48525536
8696.75287075
8697.09424635
8697.49477264
8697.93523707
8698.39197961
8698.83435875
8699.22526771
8699.51352852
8699.6278749
8702.87581614
8703.12651655
8703.4992607
8703.98050437
8704.55459177
8705.2010602
8705.89393877
8706.59981434
8707.27694385
8707.86588385
8708.2945599
8709.31693036
8709.64475671
8710.13290111
8710.76841133
8711.5355141
8712.41358579
8713.37601782
8714.38840276
8715.40379041
8716.3618748
8715.38662814
8715.58810088
8715.99929553
8716.61334601
8717.41769248
8718.39764216
8719.53379628
8720.80090162
8722.16412945
8723.57217511
8724.9771698
8721.40095148
8721.64608356
8722.14664752
8722.89602248
8723.8829066
8725.09471874
8726.51477297
8728.120252
8729.87181707
8731.74095337
8733.66353392
8727.15440622
8727.44524169
8728.03985949
8728.93233437
8730.11346807
8731.57377873
8733.30066278
8735.27028369
8737.46069005
8739.83689344
8732.59896466
8732.93712861
8733.62896227
8734.6700653
8736.05416059
8737.7759083
8739.82626377
8742.18876916
8744.8470754
8737.6853068
8738.07151645
8738.86174839
8740.05429956
8741.64609398
8743.6364648
8746.02168511
8748.79863968
8751.95004884
8742.3637231
8742.79736529
8743.68535228
8745.02854614
8746.82768046
8749.08758429
8751.81337171
8755.00762968
8758.66817514
8762.79333262
8746.58536115
8747.06467166
8748.04716586
8749.53613581
8751.53652735
8754.0593562
8757.11854733
8760.72497713
8764.89532068
8769.6438332
8750.30342714
8750.82538896
8751.89621134
8753.52172687
8755.71132749
8758.48194852
8761.85610718
8765.85556807
8770.50727959
8775.8526977
8753.47465247
8754.03504868
8755.18529293
8756.93385347
8759.29401873
8762.28859083
8765.9480498
8770.30236493
8775.39495073
8781.28623868
8756.06025026
8756.65374861
8757.87201915
8759.72543729
8762.23106135
8765.41774936
8769.32188697
8773.97669447
8779.45027323
8785.79646475
8758.02668653
8758.64743169
8759.91972602
8761.85571101
8764.47628782
8767.81401714
8771.90928138
8776.81002535
8782.56209446
8759.3480395
8759.98848646
8761.29793056
8763.29052726
8765.98979235
8769.43156222
8773.65774625
8778.71854789
8784.69156418
8760.00754816
8760.65765517
8761.98490374
8764.0056099
8766.74417642
8770.23737813
8774.5280017
8779.67962138
8785.75701483
)
;
    }
    sides
    {
        type            fixedFluxPressure;
        gradient        uniform 0;
        value           nonuniform List<scalar> 9(8760.00754816 8760.65765517 8761.98490374 8764.0056099 8766.74417642 8770.23737813 8774.5280017 8779.67962138 8785.75701483);
    }
    bottom
    {
        type            fixedFluxPressure;
        gradient        uniform 0;
        value           nonuniform List<scalar> 
13
(
8715.38662814
8721.40095148
8727.15440622
8732.59896466
8737.6853068
8742.3637231
8746.58536115
8750.30342714
8753.47465247
8756.06025026
8758.02668653
8759.3480395
8760.00754816
)
;
    }
    front
    {
        type            fixedFluxPressure;
        gradient        uniform 0;
        value           nonuniform List<scalar> 
167
(
8689.92979416
8690.14515349
8690.3903954
8690.64881643
8690.89958591
8691.11586684
8691.26905783
8691.31188609
8696.30352274
8696.48525536
8696.75287075
8697.09424635
8697.49477264
8697.93523707
8698.39197961
8698.83435875
8699.22526771
8699.51352852
8699.6278749
8702.87581614
8703.12651655
8703.4992607
8703.98050437
8704.55459177
8705.2010602
8705.89393877
8706.59981434
8707.27694385
8707.86588385
8708.2945599
8709.31693036
8709.64475671
8710.13290111
8710.76841133
8711.5355141
8712.41358579
8713.37601782
8714.38840276
8715.40379041
8716.3618748
8715.38662814
8715.58810088
8715.99929553
8716.61334601
8717.41769248
8718.39764216
8719.53379628
8720.80090162
8722.16412945
8723.57217511
8724.9771698
8721.40095148
8721.64608356
8722.14664752
8722.89602248
8723.8829066
8725.09471874
8726.51477297
8728.120252
8729.87181707
8731.74095337
8733.66353392
8727.15440622
8727.44524169
8728.03985949
8728.93233437
8730.11346807
8731.57377873
8733.30066278
8735.27028369
8737.46069005
8739.83689344
8732.59896466
8732.93712861
8733.62896227
8734.6700653
8736.05416059
8737.7759083
8739.82626377
8742.18876916
8744.8470754
8737.6853068
8738.07151645
8738.86174839
8740.05429956
8741.64609398
8743.6364648
8746.02168511
8748.79863968
8751.95004884
8742.3637231
8742.79736529
8743.68535228
8745.02854614
8746.82768046
8749.08758429
8751.81337171
8755.00762968
8758.66817514
8762.79333262
8746.58536115
8747.06467166
8748.04716586
8749.53613581
8751.53652735
8754.0593562
8757.11854733
8760.72497713
8764.89532068
8769.6438332
8750.30342714
8750.82538896
8751.89621134
8753.52172687
8755.71132749
8758.48194852
8761.85610718
8765.85556807
8770.50727959
8775.8526977
8753.47465247
8754.03504868
8755.18529293
8756.93385347
8759.29401873
8762.28859083
8765.9480498
8770.30236493
8775.39495073
8781.28623868
8756.06025026
8756.65374861
8757.87201915
8759.72543729
8762.23106135
8765.41774936
8769.32188697
8773.97669447
8779.45027323
8785.79646475
8758.02668653
8758.64743169
8759.91972602
8761.85571101
8764.47628782
8767.81401714
8771.90928138
8776.81002535
8782.56209446
8759.3480395
8759.98848646
8761.29793056
8763.29052726
8765.98979235
8769.43156222
8773.65774625
8778.71854789
8784.69156418
8760.00754816
8760.65765517
8761.98490374
8764.0056099
8766.74417642
8770.23737813
8774.5280017
8779.67962138
8785.75701483
)
;
    }
    atmosphere
    {
        type            totalPressure;
        rho             rho;
        psi             none;
        gamma           1;
        p0              nonuniform List<scalar> 0();
        value           nonuniform List<scalar> 0();
    }
    floatingObject
    {
        type            fixedFluxPressure;
        gradient        nonuniform List<scalar> 0();
        value           nonuniform List<scalar> 0();
    }
    procBoundary10to9
    {
        type            processor;
        value           nonuniform List<scalar> 
15
(
8683.06182499
8683.16115442
8683.26536331
8683.3607769
8683.43071365
8683.45573024
8683.4114093
8683.26676637
8689.6408037
8689.75849366
8689.75849366
8696.21388333
8702.75109564
8709.15549294
8709.15549294
)
;
    }
    procBoundary10to11
    {
        type            processor;
        value           nonuniform List<scalar> 
23
(
8691.19465078
8691.19465078
8699.49191872
8708.47010494
8717.191708
8717.191708
8726.29400992
8735.56569176
8742.34483092
8742.34483092
8747.77085246
8747.77085246
8755.45672288
8755.45672288
8767.41438499
8774.98535989
8781.9124913
8788.01847021
8793.11042966
8789.27226487
8789.27226487
8791.63145208
8792.84064045
)
;
    }
}


// ************************************************************************* //
