/*--------------------------------*- C++ -*----------------------------------*\
| =========                 |                                                 |
| \\      /  F ield         | OpenFOAM: The Open Source CFD Toolbox           |
|  \\    /   O peration     | Version:  v2012                                 |
|   \\  /    A nd           | Website:  www.openfoam.com                      |
|    \\/     M anipulation  |                                                 |
\*---------------------------------------------------------------------------*/
FoamFile
{
    version     2.0;
    format      ascii;
    class       volVectorField;
    location    "5.5";
    object      U;
}
// * * * * * * * * * * * * * * * * * * * * * * * * * * * * * * * * * * * * * //

dimensions      [0 1 -1 0 0 0 0];


internalField   nonuniform List<vector> 
167
(
(0.000310979626969 -0.000315689686613 6.31700286468e-22)
(0.000521681644006 -0.00109884362913 7.02413521664e-22)
(0.000608934095072 -0.00204545796393 3.07836255956e-22)
(0.000608133358588 -0.0030443222415 -2.66956843335e-22)
(0.000572982960868 -0.00400449957122 -6.77329692351e-22)
(0.00053010948578 -0.00489992762188 -6.91648936911e-22)
(0.000481834627215 -0.00571934492801 -4.3244344394e-22)
(0.000430181057207 -0.00645194159442 7.74382540487e-23)
(0.00112592635557 -0.00054370632468 9.23289983229e-22)
(0.00139195798738 -0.00141447009511 9.58144571985e-22)
(0.00150586011468 -0.00238361369996 4.83866652574e-22)
(0.00150834659416 -0.00341080112858 -1.57619078602e-22)
(0.00144520830952 -0.00441798271842 -6.19938729666e-22)
(0.0013527098425 -0.00539099118511 -6.69840169128e-22)
(0.0012364714924 -0.00630417433454 -4.44811355858e-22)
(0.00109293642386 -0.00713534231745 -9.9219025769e-23)
(0.00213116861467 -0.000647733137663 1.26239634431e-21)
(0.00238543948536 -0.00160802671354 1.22720650831e-21)
(0.00250744281401 -0.0026433232246 7.69782043251e-22)
(0.00251509690123 -0.00371847229816 9.70147665076e-23)
(0.00243279703772 -0.00477798187753 -3.38165915373e-22)
(0.00229740092591 -0.00581576986351 -4.59095986402e-22)
(0.00212398159451 -0.00680715065471 -3.07497395228e-22)
(0.00190519674326 -0.00772907962954 -1.20600594782e-22)
(0.00325277211376 -0.000677751987164 1.32534115458e-21)
(0.00349157759524 -0.00171020596522 1.32144870205e-21)
(0.00361588898493 -0.00281667350005 9.19064474254e-22)
(0.00362789416166 -0.00395491483051 3.32328018831e-22)
(0.0035366881816 -0.00507957098336 -6.12690229163e-23)
(0.00337188799335 -0.00618563143182 -1.91376366995e-22)
(0.00314996748604 -0.00725591293189 -1.48027152953e-22)
(0.00286319913442 -0.00827180089411 -3.16139284298e-23)
(0.0024918993402 -0.00921356961081 -9.54209574028e-24)
(0.00441815356679 -0.000678358534365 1.11771346126e-21)
(0.0046534787452 -0.00176270554868 1.20270922429e-21)
(0.00478166020836 -0.0029263776136 9.41823254685e-22)
(0.00479669582916 -0.00412629513148 4.61460855231e-22)
(0.00469856712777 -0.00531544163333 1.15004259063e-22)
(0.00451440825038 -0.00649266062979 -2.34640094432e-23)
(0.00425404762688 -0.00764421993064 -4.02122204044e-23)
(0.00391231671055 -0.00875717564122 -5.88425192547e-24)
(0.00347117971246 -0.00981560175796 2.07350473318e-24)
(0.00290348690348 -0.0108048442637 -2.54176335288e-23)
(0.0056012086808 -0.000676986815149 9.16924293719e-22)
(0.00585930778341 -0.00180256205363 1.05635403695e-21)
(0.00600003105009 -0.003011052243 8.5884932981e-22)
(0.00602171872534 -0.00426780188605 4.65935227613e-22)
(0.00592071339132 -0.00551928512807 1.7382800526e-22)
(0.00572450644258 -0.00676675217207 3.81038730792e-23)
(0.00544183878461 -0.00800164409989 6.02113171916e-25)
(0.00506472076066 -0.00921740937177 -1.0153922743e-24)
(0.00457636348773 -0.0104026977289 -4.1940468463e-24)
(0.00394966000976 -0.0115435352151 -1.76658647154e-23)
(0.0068031457643 -0.000678210314347 8.24166132219e-22)
(0.00710130605829 -0.00184482366577 9.97273707155e-22)
(0.00726555930896 -0.00309147028477 7.95527918935e-22)
(0.00730154403562 -0.00439965031822 4.30180454674e-22)
(0.00720612802243 -0.00571068067844 1.65627864349e-22)
(0.00700897940718 -0.00702840614785 5.58368251227e-23)
(0.00672088232076 -0.00834944833138 3.9124896963e-24)
(0.00633171112064 -0.00967199602753 -7.15718557019e-24)
(0.00582272755592 -0.0109923228673 -1.42345924539e-23)
(0.00516190346959 -0.0123014304955 -2.43553293677e-23)
(0.00802973679529 -0.000683443253868 8.81126712937e-22)
(0.00837567751166 -0.00188965188698 9.52235266226e-22)
(0.00857383063292 -0.00316945108571 7.715382013e-22)
(0.00863332885833 -0.00452492607041 4.37756866917e-22)
(0.00855385902896 -0.00589255579194 1.82827557164e-22)
(0.00836999316505 -0.00727877811378 6.12373754629e-23)
(0.00809503332584 -0.00868602005933 1.57680073586e-23)
(0.00772155837933 -0.0101189712192 -2.43976015201e-24)
(0.00722676125138 -0.0115816698404 -1.02410168529e-23)
(0.00657574785519 -0.0130807228574 -3.43290792586e-23)
(0.00928278758828 -0.000690884926137 8.54673719078e-22)
(0.00968063759712 -0.00193191071473 9.26994143465e-22)
(0.00992085655435 -0.00324007556689 7.54463262818e-22)
(0.0100127417161 -0.00463819475242 4.31828977704e-22)
(0.00996025675251 -0.00605658986643 1.89221568718e-22)
(0.0098040555187 -0.00750699955028 7.75877629436e-23)
(0.00956248371786 -0.00899552829782 2.21518785666e-23)
(0.00923192276074 -0.0105325802157 5.27731472109e-24)
(0.00879211966806 -0.0121340393908 -4.83383085195e-24)
(0.00821253512578 -0.0138250920726 -3.56058182157e-23)
(0.0105594461721 -0.000699544454067 6.36930194663e-22)
(0.0110155976208 -0.00196599584346 7.23288432994e-22)
(0.0112993871041 -0.00329663772698 6.23957338638e-22)
(0.0114323499615 -0.00473136327986 3.80823337708e-22)
(0.0114183250774 -0.00619255489737 1.64266593706e-22)
(0.011303374736 -0.00769739098278 5.59677396576e-23)
(0.0111144870338 -0.00925643439962 1.70864531381e-23)
(0.0108528277085 -0.0108854234092 3.16563423436e-24)
(0.0105063134711 -0.0126092286412 -3.97355239964e-24)
(0.0100602914561 -0.0144672294022 -2.37105425633e-23)
(0.0118539910233 -0.000702370627099 2.96271079583e-22)
(0.0123723549288 -0.00198801606965 5.14992461004e-22)
(0.0127015482789 -0.00333750212376 4.85722820595e-22)
(0.0128833707935 -0.00479424383632 2.91184063907e-22)
(0.0129175804567 -0.00628671043695 1.297128749e-22)
(0.0128575087143 -0.00783317475821 4.03224704738e-23)
(0.0127371692178 -0.00944627488823 8.53542584367e-24)
(0.0125703944197 -0.0111500632909 -7.01218588087e-25)
(0.0123524430055 -0.012976343447 -3.34734890736e-24)
(0.0120810295789 -0.0149669902857 -2.4513812662e-23)
(0.0131570187856 -0.000698658662481 1.65550608322e-22)
(0.0137361982083 -0.00199439337896 4.19941673834e-22)
(0.0141185674308 -0.0033538737075 4.25977229966e-22)
(0.0143551895577 -0.00481963920978 2.68763534902e-22)
(0.0144450343094 -0.00632949310596 1.13046973913e-22)
(0.0144521507011 -0.00790058289966 3.27502962207e-23)
(0.0144152029148 -0.00954786618895 9.5062476967e-24)
(0.0143603126695 -0.0113053517208 -1.61572323804e-23)
(0.014292940826 -0.0132002807563 -1.63956543526e-23)
(0.0142103730022 -0.0152603250004 -2.34547336552e-23)
(0.0144586423876 -0.00068735342522 1.42322631517e-22)
(0.0150959056586 -0.00198185829435 3.15668390373e-22)
(0.0155386796419 -0.00334002306127 3.76438584024e-22)
(0.0158348971733 -0.00480174287843 2.57885450995e-22)
(0.0159861128723 -0.00631271262699 1.08370120181e-22)
(0.0160662503206 -0.00789280970667 2.75814442753e-23)
(0.0161251042496 -0.00955682977081 8.52998931703e-24)
(0.0161859617108 -0.0113275954052 -5.29910548638e-24)
(0.0162699863236 -0.0132335760816 -3.61750730419e-24)
(0.0163760282754 -0.0153028500421 -2.49369439011e-23)
(0.0157483187187 -0.000670913094007 -2.48271861925e-23)
(0.0164417159866 -0.00194947969432 1.73968301219e-22)
(0.0169485233232 -0.00329053104776 2.46349516483e-22)
(0.0173070770093 -0.00473482193284 1.80300954823e-22)
(0.0175248288128 -0.0062353220054 7.66344373457e-23)
(0.0176794113624 -0.00780509873847 2.15393135454e-23)
(0.0178341128745 -0.00945695028933 6.36221002289e-24)
(0.0180115184068 -0.0112089003121 -1.4210201199e-23)
(0.0182388907353 -0.0130932930261 -1.12792207255e-23)
(0.018525793852 -0.0151360934966 -1.5455203333e-23)
(0.0170109223483 -0.000649903585018 -2.87514431243e-22)
(0.0177634938282 -0.00189516282936 -1.13256980281e-22)
(0.0183338830125 -0.0032069096821 2.62267297524e-23)
(0.0187568832746 -0.00462229094089 3.85439954038e-23)
(0.0190417005165 -0.0060919852705 1.53179250951e-23)
(0.0192705523332 -0.00762601764947 8.57060962921e-25)
(0.0195143411701 -0.00923956662823 -2.80023215453e-24)
(0.0198065820433 -0.010952576271 -1.63782003613e-23)
(0.0201680673746 -0.0127889038405 -6.64818227063e-24)
(0.0206269209706 -0.0147745826156 8.15576898764e-24)
(0.0182321544102 -0.00062212289587 -5.98691520599e-22)
(0.0190459901771 -0.00182652005938 -3.65357861872e-22)
(0.0196780399123 -0.00309123905172 -1.89565556321e-22)
(0.0201658907816 -0.00445340338588 -8.67113568618e-23)
(0.0205160500891 -0.00586903367611 -3.14298737444e-23)
(0.0208174413393 -0.00734804197382 -6.55410467766e-24)
(0.0211451440723 -0.00890352609142 4.19516848834e-24)
(0.0215489784055 -0.010553919972 5.20780350497e-24)
(0.0220444538864 -0.0123146605398 3.08689511416e-23)
(0.0226463661924 -0.0142097948963 3.45139758834e-23)
(0.0193993646638 -0.000587381668864 -6.72590215944e-22)
(0.020269442178 -0.00173624717268 -4.06344134491e-22)
(0.020959313719 -0.00293328737147 -2.32136970133e-22)
(0.021507794579 -0.00421606600426 -1.06222843459e-22)
(0.0219204863456 -0.00555184991797 -4.09657758706e-23)
(0.0222948906387 -0.00695312168747 -2.39529850595e-24)
(0.02271047279 -0.00843524475076 2.64056447494e-23)
(0.0205007086186 -0.00054668534068 -3.91705507337e-22)
(0.0214202146073 -0.00162305679477 -2.0378327156e-22)
(0.0221645388753 -0.00274552737896 -9.89544006366e-23)
(0.0227678474574 -0.00394566735758 -4.06172469148e-23)
(0.0232409460414 -0.00519309003436 -1.32489363262e-23)
(0.0232874808963 -0.00253605930405 7.01651964866e-23)
(0.0239401057221 -0.00365023831561 6.21597441046e-23)
)
;

boundaryField
{
    back
    {
        type            noSlip;
    }
    sides
    {
        type            noSlip;
    }
    bottom
    {
        type            noSlip;
    }
    front
    {
        type            noSlip;
    }
    atmosphere
    {
        type            pressureInletOutletVelocity;
        value           nonuniform List<vector> 0();
    }
    floatingObject
    {
        type            movingWallVelocity;
        value           nonuniform List<vector> 0();
    }
    procBoundary2to0
    {
        type            processor;
        value           nonuniform List<vector> 
14
(
(0.0232167377182 -0.0100078668386 2.39927278704e-23)
(0.023831344344 -0.0116838238532 2.13927873658e-23)
(0.0245526489659 -0.0134712096344 1.23065687014e-23)
(0.0236891945982 -0.00650136710347 4.64542514065e-24)
(0.0232167377182 -0.0100078668386 2.39927278704e-23)
(0.0241931742053 -0.00788812808988 8.07883217247e-24)
(0.0215289008198 -0.000492595075266 -5.89587472433e-23)
(0.0224919578927 -0.00149425875304 4.92849975393e-23)
(0.0236891945982 -0.00650136710347 4.64542514065e-24)
(0.0244712308208 -0.00480987520079 2.39185147953e-23)
(0.0224919578927 -0.00149425875304 4.92849975393e-23)
(0.024324303067 -0.00232581093226 1.04047942912e-22)
(0.0244712308208 -0.00480987520079 2.39185147953e-23)
(0.0250302392135 -0.0033554376418 8.15872023767e-23)
)
;
    }
    procBoundary2to1
    {
        type            processor;
        value           nonuniform List<vector> 
18
(
(0.000374571126094 -0.00707384875957 4.23974123242e-22)
(0.000906391234657 -0.00786557151935 1.28770268132e-22)
(0.00161837256147 -0.00856741000542 5.03711681172e-25)
(0.00161837256147 -0.00856741000542 5.03711681172e-25)
(0.00200128597762 -0.0100669000165 -5.94708056143e-23)
(0.00200128597762 -0.0100669000165 -5.94708056143e-23)
(0.00216307390052 -0.0117122651529 -9.19228960846e-23)
(0.00313514155927 -0.0126235241587 -8.86426929491e-23)
(0.00429575964965 -0.0135931646537 -1.18222406522e-22)
(0.0057096117811 -0.014625192537 -1.36444118884e-22)
(0.00743472189973 -0.0156402578471 -1.15989015369e-22)
(0.00946539470671 -0.0165163040347 -1.06824948801e-22)
(0.0117256128521 -0.0171781587962 -1.07760087078e-22)
(0.0141045047789 -0.0175394543727 -1.03052501442e-22)
(0.0165125862452 -0.0175834484003 -8.1815001728e-23)
(0.0188857708315 -0.0173638394757 -1.03347246781e-22)
(0.021190116856 -0.0169169491183 -8.00429270597e-23)
(0.0233771261859 -0.0162510444045 -6.45067635818e-23)
)
;
    }
}


// ************************************************************************* //
