/*--------------------------------*- C++ -*----------------------------------*\
| =========                 |                                                 |
| \\      /  F ield         | OpenFOAM: The Open Source CFD Toolbox           |
|  \\    /   O peration     | Version:  v2012                                 |
|   \\  /    A nd           | Website:  www.openfoam.com                      |
|    \\/     M anipulation  |                                                 |
\*---------------------------------------------------------------------------*/
FoamFile
{
    version     2.0;
    format      ascii;
    class       volScalarField;
    location    "4.7";
    object      epsilon_0;
}
// * * * * * * * * * * * * * * * * * * * * * * * * * * * * * * * * * * * * * //

dimensions      [0 2 -3 0 0 0 0];


internalField   nonuniform List<scalar> 
164
(
0.00132818474756
0.00151778376
0.00225859489863
0.00393086887619
0.0080866910156
0.0178148325116
0.0394556482968
0.078571466603
0.00146679276262
0.00173469058818
0.0025324940035
0.00416703686382
0.00818851778819
0.0181050271926
0.0411733939083
0.0860335548392
0.00146603555973
0.00173119005211
0.0025179288028
0.00413032605393
0.00820404630938
0.0186000905613
0.0432494416452
0.0939159801764
0.00132608109962
0.00151049092044
0.00223215575488
0.00387370052151
0.00812797964424
0.0186862654813
0.0436330083814
0.0954471259273
0.00193609759024
0.00358088647657
0.00797273418067
0.0185573541643
0.0436091162475
0.0969491057156
0.00175215499243
0.0033708249224
0.00783125501091
0.0185835236444
0.0449227754913
0.10847621347
0.0016490705738
0.00323173095932
0.00773163222923
0.0187745732108
0.0477390816792
0.155965847506
0.00158577032399
0.00313316228649
0.00761785463569
0.0188027606992
0.0484863895958
0.158514688772
0.001544313173
0.00305143751552
0.00747514226862
0.0186393499134
0.0485987439295
0.158629509731
0.00151362919457
0.00296898122443
0.00733134523378
0.018527465572
0.0488072955672
0.158734611391
0.0015051769772
0.00291036193338
0.0072135298673
0.0184806571719
0.0491615941638
0.158920487532
0.00152074652206
0.00289019791671
0.00714566021171
0.0186708632124
0.0502115615595
0.159503808417
0.00152932191809
0.00285459399721
0.00708642760009
0.0190762157683
0.0519144218513
0.160536688897
0.00152057608212
0.0027921361636
0.00697773396911
0.0193083183171
0.053184734881
0.161450590047
0.00150927167572
0.00274422940842
0.00692221445223
0.0196504983791
0.0545232831395
0.162350516358
0.00150569422893
0.00271638843606
0.00681878296506
0.019541985698
0.0547899603701
0.162536698468
0.0014956393815
0.00267593681215
0.00665588199301
0.0191231626063
0.0542714439819
0.162277462924
0.00146330403071
0.00259822124943
0.00649459739654
0.0190513509623
0.0548467746748
0.162650992342
0.00140842892056
0.00248132434238
0.00631105786904
0.0190537961016
0.0554702924748
0.163111081624
0.00134746679722
0.00235536069531
0.006115850221
0.0189614871353
0.0556670705136
0.163264994955
0.00129742042953
0.00225623196992
0.00595136785657
0.0187294629192
0.0552956277525
0.163072514479
0.00126802937971
0.00220434830233
0.00583159713272
0.0183328739338
0.054412832953
0.162504710451
0.00125190434488
0.00216928673246
0.00570215704853
0.0178881709338
0.0534584551393
0.161904821741
0.00124101386221
0.00213668395394
0.00559043348486
0.0176568536112
0.053039358411
0.161684885983
0.00550775607307
0.0174374457011
0.0526240251696
0.161556879544
0.00547148382956
0.0170353835462
0.051066327315
0.160324543754
0.00543320140104
0.0165656955053
0.0486474511226
0.146628542897
)
;

boundaryField
{
    back
    {
        lowReCorrection 0;
        blending        stepwise;
        n               2;
        type            epsilonWallFunction;
        value           nonuniform List<scalar> 
164
(
0.00132818474756
0.00151778376
0.00225859489863
0.00393086887619
0.0080866910156
0.0178148325116
0.0394556482968
0.078571466603
0.00146679276262
0.00173469058818
0.0025324940035
0.00416703686382
0.00818851778819
0.0181050271926
0.0411733939083
0.0860335548392
0.00146603555973
0.00173119005211
0.0025179288028
0.00413032605393
0.00820404630938
0.0186000905613
0.0432494416452
0.0939159801764
0.00132608109962
0.00151049092044
0.00223215575488
0.00387370052151
0.00812797964424
0.0186862654813
0.0436330083814
0.0954471259273
0.00193609759024
0.00358088647657
0.00797273418067
0.0185573541643
0.0436091162475
0.0969491057156
0.00175215499243
0.0033708249224
0.00783125501091
0.0185835236444
0.0449227754913
0.10847621347
0.0016490705738
0.00323173095932
0.00773163222923
0.0187745732108
0.0477390816792
0.155965847506
0.00158577032399
0.00313316228649
0.00761785463569
0.0188027606992
0.0484863895958
0.158514688772
0.001544313173
0.00305143751552
0.00747514226862
0.0186393499134
0.0485987439295
0.158629509731
0.00151362919457
0.00296898122443
0.00733134523378
0.018527465572
0.0488072955672
0.158734611391
0.0015051769772
0.00291036193338
0.0072135298673
0.0184806571719
0.0491615941638
0.158920487532
0.00152074652206
0.00289019791671
0.00714566021171
0.0186708632124
0.0502115615595
0.159503808417
0.00152932191809
0.00285459399721
0.00708642760009
0.0190762157683
0.0519144218513
0.160536688897
0.00152057608212
0.0027921361636
0.00697773396911
0.0193083183171
0.053184734881
0.161450590047
0.00150927167572
0.00274422940842
0.00692221445223
0.0196504983791
0.0545232831395
0.162350516358
0.00150569422893
0.00271638843606
0.00681878296506
0.019541985698
0.0547899603701
0.162536698468
0.0014956393815
0.00267593681215
0.00665588199301
0.0191231626063
0.0542714439819
0.162277462924
0.00146330403071
0.00259822124943
0.00649459739654
0.0190513509623
0.0548467746748
0.162650992342
0.00140842892056
0.00248132434238
0.00631105786904
0.0190537961016
0.0554702924748
0.163111081624
0.00134746679722
0.00235536069531
0.006115850221
0.0189614871353
0.0556670705136
0.163264994955
0.00129742042953
0.00225623196992
0.00595136785657
0.0187294629192
0.0552956277525
0.163072514479
0.00126802937971
0.00220434830233
0.00583159713272
0.0183328739338
0.054412832953
0.162504710451
0.00125190434488
0.00216928673246
0.00570215704853
0.0178881709338
0.0534584551393
0.161904821741
0.00124101386221
0.00213668395394
0.00559043348486
0.0176568536112
0.053039358411
0.161684885983
0.00550775607307
0.0174374457011
0.0526240251696
0.161556879544
0.00547148382956
0.0170353835462
0.051066327315
0.160324543754
0.00543320140104
0.0165656955053
0.0486474511226
0.146628542897
)
;
    }
    sides
    {
        lowReCorrection 0;
        blending        stepwise;
        n               2;
        type            epsilonWallFunction;
        value           nonuniform List<scalar> 0();
    }
    bottom
    {
        lowReCorrection 0;
        blending        stepwise;
        n               2;
        type            epsilonWallFunction;
        value           nonuniform List<scalar> 0();
    }
    front
    {
        lowReCorrection 0;
        blending        stepwise;
        n               2;
        type            epsilonWallFunction;
        value           nonuniform List<scalar> 
164
(
0.00132818474756
0.00151778376
0.00225859489863
0.00393086887619
0.0080866910156
0.0178148325116
0.0394556482968
0.078571466603
0.00146679276262
0.00173469058818
0.0025324940035
0.00416703686382
0.00818851778819
0.0181050271926
0.0411733939083
0.0860335548392
0.00146603555973
0.00173119005211
0.0025179288028
0.00413032605393
0.00820404630938
0.0186000905613
0.0432494416452
0.0939159801764
0.00132608109962
0.00151049092044
0.00223215575488
0.00387370052151
0.00812797964424
0.0186862654813
0.0436330083814
0.0954471259273
0.00193609759024
0.00358088647657
0.00797273418067
0.0185573541643
0.0436091162475
0.0969491057156
0.00175215499243
0.0033708249224
0.00783125501091
0.0185835236444
0.0449227754913
0.10847621347
0.0016490705738
0.00323173095932
0.00773163222923
0.0187745732108
0.0477390816792
0.155965847506
0.00158577032399
0.00313316228649
0.00761785463569
0.0188027606992
0.0484863895958
0.158514688772
0.001544313173
0.00305143751552
0.00747514226862
0.0186393499134
0.0485987439295
0.158629509731
0.00151362919457
0.00296898122443
0.00733134523378
0.018527465572
0.0488072955672
0.158734611391
0.0015051769772
0.00291036193338
0.0072135298673
0.0184806571719
0.0491615941638
0.158920487532
0.00152074652206
0.00289019791671
0.00714566021171
0.0186708632124
0.0502115615595
0.159503808417
0.00152932191809
0.00285459399721
0.00708642760009
0.0190762157683
0.0519144218513
0.160536688897
0.00152057608212
0.0027921361636
0.00697773396911
0.0193083183171
0.053184734881
0.161450590047
0.00150927167572
0.00274422940842
0.00692221445223
0.0196504983791
0.0545232831395
0.162350516358
0.00150569422893
0.00271638843606
0.00681878296506
0.019541985698
0.0547899603701
0.162536698468
0.0014956393815
0.00267593681215
0.00665588199301
0.0191231626063
0.0542714439819
0.162277462924
0.00146330403071
0.00259822124943
0.00649459739654
0.0190513509623
0.0548467746748
0.162650992342
0.00140842892056
0.00248132434238
0.00631105786904
0.0190537961016
0.0554702924748
0.163111081624
0.00134746679722
0.00235536069531
0.006115850221
0.0189614871353
0.0556670705136
0.163264994955
0.00129742042953
0.00225623196992
0.00595136785657
0.0187294629192
0.0552956277525
0.163072514479
0.00126802937971
0.00220434830233
0.00583159713272
0.0183328739338
0.054412832953
0.162504710451
0.00125190434488
0.00216928673246
0.00570215704853
0.0178881709338
0.0534584551393
0.161904821741
0.00124101386221
0.00213668395394
0.00559043348486
0.0176568536112
0.053039358411
0.161684885983
0.00550775607307
0.0174374457011
0.0526240251696
0.161556879544
0.00547148382956
0.0170353835462
0.051066327315
0.160324543754
0.00543320140104
0.0165656955053
0.0486474511226
0.146628542897
)
;
    }
    atmosphere
    {
        type            inletOutlet;
        inletValue      uniform 0.1;
        value           nonuniform List<scalar> 
27
(
0.078571466603
0.0860335548392
0.0939159801764
0.0954471259273
0.0969491057156
0.10847621347
0.155965847506
0.1
0.1
0.1
0.1
0.1
0.1
0.1
0.1
0.1
0.1
0.1
0.1
0.1
0.1
0.1
0.1
0.1
0.1
0.160324543754
0.146628542897
)
;
    }
    floatingObject
    {
        lowReCorrection 0;
        blending        stepwise;
        n               2;
        type            epsilonWallFunction;
        value           nonuniform List<scalar> 4(0.00132818474756 0.00146679276262 0.00146603555973 0.00132608109962);
    }
    procBoundary6to3
    {
        type            processor;
        value           nonuniform List<scalar> 8(0.000985794248009 0.00131575872563 0.00194809881114 0.00360464583595 0.00795484237028 0.0181528969592 0.0416252620478 0.089156138849);
    }
    procBoundary6to7
    {
        type            processor;
        value           nonuniform List<scalar> 
11
(
0.00107382324467
0.00104805607714
0.00102626740844
0.00101217081715
0.00100428778947
0.000999916486062
0.00123527020531
0.00211557746733
0.00211557746733
0.00211563596159
0.0021159851719
)
;
    }
    procBoundary6to8
    {
        type            processor;
        value           nonuniform List<scalar> 
16
(
0.000985080090506
0.00131224994612
0.00131224994612
0.001195665616
0.00113982921096
0.00110898591045
0.00109050897824
0.00108145122341
0.00108462320754
0.00109867135297
0.0011114347281
0.00111525172635
0.00111429484416
0.00111412036336
0.00111044484244
0.00109691753642
)
;
    }
    procBoundary6to9
    {
        type            processor;
        value           nonuniform List<scalar> 4(0.00531824590243 0.0160317067406 0.0440198839191 0.106481753016);
    }
}


// ************************************************************************* //
