/*--------------------------------*- C++ -*----------------------------------*\
| =========                 |                                                 |
| \\      /  F ield         | OpenFOAM: The Open Source CFD Toolbox           |
|  \\    /   O peration     | Version:  v2012                                 |
|   \\  /    A nd           | Website:  www.openfoam.com                      |
|    \\/     M anipulation  |                                                 |
\*---------------------------------------------------------------------------*/
FoamFile
{
    version     2.0;
    format      ascii;
    class       volScalarField;
    location    "4.3";
    object      k;
}
// * * * * * * * * * * * * * * * * * * * * * * * * * * * * * * * * * * * * * //

dimensions      [0 2 -2 0 0 0 0];


internalField   nonuniform List<scalar> 
164
(
0.00186585046076
0.00232133895443
0.00247059440515
0.00252859756718
0.00255366327153
0.00256771512677
0.00257888861105
0.00259013972872
0.00187107543406
0.00232796641774
0.00247743431482
0.00253501345754
0.00255943876425
0.00257281970673
0.00258332561512
0.00259390196238
0.00260568401093
0.00261967830795
0.00263875792688
0.00187543659758
0.00233358829997
0.00248326069487
0.00254045659569
0.00256431245219
0.00257710691468
0.00258703202323
0.00259700848
0.0026081545732
0.00262139438287
0.00263929431206
0.00267086342039
0.0027437010087
0.00187898621763
0.00233823909197
0.00248809335797
0.00254495049013
0.00256830079616
0.00258057533206
0.00258999596637
0.00259944621756
0.00261001398281
0.00262251915339
0.002639119408
0.00266737025204
0.00273089652154
0.00289058877102
0.00188177864289
0.00234195236418
0.00249196179591
0.0025485224472
0.00257143218815
0.00258325129633
0.00259221799702
0.00260120751333
0.0026112586538
0.00262309035698
0.00263845865707
0.00266343511084
0.0027174395278
0.00285369491295
0.00188385425143
0.00234474932579
0.00249489301972
0.00255120322653
0.00257373536041
0.00258516238562
0.00259373568811
0.00260231355672
0.00261190383826
0.00262315845509
0.0026375202931
0.00265990544075
0.00270631840534
0.00282354002374
0.00188525271732
0.00234665490085
0.00249691539181
0.00255302108632
0.00257523743212
0.00258633298778
0.00259456987419
0.00260278686278
0.00261197601326
0.00262274590709
0.00263636853875
0.00265706479277
0.00269868806756
0.00280404791185
0.00188610280791
0.00234773252628
0.00249806006563
0.00255399817329
0.00257596083742
0.0025867832999
0.00259473479536
0.00260264138964
0.00261148681504
0.00262186261673
0.00263498262031
0.00265475782527
0.00269397178338
0.00279326314395
0.00188647520357
0.00234804113115
0.00249836994819
0.0025541761296
0.00257594317949
0.00258654347042
0.00259425318417
0.00260189368125
0.00261044380921
0.00262050193165
0.00263329351365
0.00265266388827
0.00269096661196
0.00278751563606
0.00188633275023
0.00234760984676
0.00249790413883
0.00255361091155
0.00257522871511
0.00258564939693
0.00259315448109
0.00260056450196
0.00260886090408
0.00261866198876
0.00263124232075
0.00265051138274
0.00268872033962
0.00278444344963
0.00306334613814
0.00393321080662
0.0018856789409
0.00234650390002
0.0024967317681
0.00255235623452
0.00257385707313
0.00258413090439
0.00259146212338
0.00259867278943
0.00260675250861
0.00261634695845
0.00262879883097
0.00264813659382
0.00268668647943
0.00278284695003
0.00306268604397
0.00393788660244
0.00188451573307
0.00234479376
0.00249491567919
0.00255046116432
0.00257186722525
0.00258202021983
0.00258920391522
0.00259624311183
0.00260413816321
0.00261356680453
0.00262595001655
0.00264545892677
0.00268457533872
0.00278184773377
0.00306429440773
0.00394371805294
)
;

boundaryField
{
    back
    {
        type            kqRWallFunction;
        value           nonuniform List<scalar> 
164
(
0.00186585046076
0.00232133895443
0.00247059440515
0.00252859756718
0.00255366327153
0.00256771512677
0.00257888861105
0.00259013972872
0.00187107543406
0.00232796641774
0.00247743431482
0.00253501345754
0.00255943876425
0.00257281970673
0.00258332561512
0.00259390196238
0.00260568401093
0.00261967830795
0.00263875792688
0.00187543659758
0.00233358829997
0.00248326069487
0.00254045659569
0.00256431245219
0.00257710691468
0.00258703202323
0.00259700848
0.0026081545732
0.00262139438287
0.00263929431206
0.00267086342039
0.0027437010087
0.00187898621763
0.00233823909197
0.00248809335797
0.00254495049013
0.00256830079616
0.00258057533206
0.00258999596637
0.00259944621756
0.00261001398281
0.00262251915339
0.002639119408
0.00266737025204
0.00273089652154
0.00289058877102
0.00188177864289
0.00234195236418
0.00249196179591
0.0025485224472
0.00257143218815
0.00258325129633
0.00259221799702
0.00260120751333
0.0026112586538
0.00262309035698
0.00263845865707
0.00266343511084
0.0027174395278
0.00285369491295
0.00188385425143
0.00234474932579
0.00249489301972
0.00255120322653
0.00257373536041
0.00258516238562
0.00259373568811
0.00260231355672
0.00261190383826
0.00262315845509
0.0026375202931
0.00265990544075
0.00270631840534
0.00282354002374
0.00188525271732
0.00234665490085
0.00249691539181
0.00255302108632
0.00257523743212
0.00258633298778
0.00259456987419
0.00260278686278
0.00261197601326
0.00262274590709
0.00263636853875
0.00265706479277
0.00269868806756
0.00280404791185
0.00188610280791
0.00234773252628
0.00249806006563
0.00255399817329
0.00257596083742
0.0025867832999
0.00259473479536
0.00260264138964
0.00261148681504
0.00262186261673
0.00263498262031
0.00265475782527
0.00269397178338
0.00279326314395
0.00188647520357
0.00234804113115
0.00249836994819
0.0025541761296
0.00257594317949
0.00258654347042
0.00259425318417
0.00260189368125
0.00261044380921
0.00262050193165
0.00263329351365
0.00265266388827
0.00269096661196
0.00278751563606
0.00188633275023
0.00234760984676
0.00249790413883
0.00255361091155
0.00257522871511
0.00258564939693
0.00259315448109
0.00260056450196
0.00260886090408
0.00261866198876
0.00263124232075
0.00265051138274
0.00268872033962
0.00278444344963
0.00306334613814
0.00393321080662
0.0018856789409
0.00234650390002
0.0024967317681
0.00255235623452
0.00257385707313
0.00258413090439
0.00259146212338
0.00259867278943
0.00260675250861
0.00261634695845
0.00262879883097
0.00264813659382
0.00268668647943
0.00278284695003
0.00306268604397
0.00393788660244
0.00188451573307
0.00234479376
0.00249491567919
0.00255046116432
0.00257186722525
0.00258202021983
0.00258920391522
0.00259624311183
0.00260413816321
0.00261356680453
0.00262595001655
0.00264545892677
0.00268457533872
0.00278184773377
0.00306429440773
0.00394371805294
)
;
    }
    sides
    {
        type            kqRWallFunction;
        value           nonuniform List<scalar> 0();
    }
    bottom
    {
        type            kqRWallFunction;
        value           nonuniform List<scalar> 
12
(
0.00186585046076
0.00187107543406
0.00187543659758
0.00187898621763
0.00188177864289
0.00188385425143
0.00188525271732
0.00188610280791
0.00188647520357
0.00188633275023
0.0018856789409
0.00188451573307
)
;
    }
    front
    {
        type            kqRWallFunction;
        value           nonuniform List<scalar> 
164
(
0.00186585046076
0.00232133895443
0.00247059440515
0.00252859756718
0.00255366327153
0.00256771512677
0.00257888861105
0.00259013972872
0.00187107543406
0.00232796641774
0.00247743431482
0.00253501345754
0.00255943876425
0.00257281970673
0.00258332561512
0.00259390196238
0.00260568401093
0.00261967830795
0.00263875792688
0.00187543659758
0.00233358829997
0.00248326069487
0.00254045659569
0.00256431245219
0.00257710691468
0.00258703202323
0.00259700848
0.0026081545732
0.00262139438287
0.00263929431206
0.00267086342039
0.0027437010087
0.00187898621763
0.00233823909197
0.00248809335797
0.00254495049013
0.00256830079616
0.00258057533206
0.00258999596637
0.00259944621756
0.00261001398281
0.00262251915339
0.002639119408
0.00266737025204
0.00273089652154
0.00289058877102
0.00188177864289
0.00234195236418
0.00249196179591
0.0025485224472
0.00257143218815
0.00258325129633
0.00259221799702
0.00260120751333
0.0026112586538
0.00262309035698
0.00263845865707
0.00266343511084
0.0027174395278
0.00285369491295
0.00188385425143
0.00234474932579
0.00249489301972
0.00255120322653
0.00257373536041
0.00258516238562
0.00259373568811
0.00260231355672
0.00261190383826
0.00262315845509
0.0026375202931
0.00265990544075
0.00270631840534
0.00282354002374
0.00188525271732
0.00234665490085
0.00249691539181
0.00255302108632
0.00257523743212
0.00258633298778
0.00259456987419
0.00260278686278
0.00261197601326
0.00262274590709
0.00263636853875
0.00265706479277
0.00269868806756
0.00280404791185
0.00188610280791
0.00234773252628
0.00249806006563
0.00255399817329
0.00257596083742
0.0025867832999
0.00259473479536
0.00260264138964
0.00261148681504
0.00262186261673
0.00263498262031
0.00265475782527
0.00269397178338
0.00279326314395
0.00188647520357
0.00234804113115
0.00249836994819
0.0025541761296
0.00257594317949
0.00258654347042
0.00259425318417
0.00260189368125
0.00261044380921
0.00262050193165
0.00263329351365
0.00265266388827
0.00269096661196
0.00278751563606
0.00188633275023
0.00234760984676
0.00249790413883
0.00255361091155
0.00257522871511
0.00258564939693
0.00259315448109
0.00260056450196
0.00260886090408
0.00261866198876
0.00263124232075
0.00265051138274
0.00268872033962
0.00278444344963
0.00306334613814
0.00393321080662
0.0018856789409
0.00234650390002
0.0024967317681
0.00255235623452
0.00257385707313
0.00258413090439
0.00259146212338
0.00259867278943
0.00260675250861
0.00261634695845
0.00262879883097
0.00264813659382
0.00268668647943
0.00278284695003
0.00306268604397
0.00393788660244
0.00188451573307
0.00234479376
0.00249491567919
0.00255046116432
0.00257186722525
0.00258202021983
0.00258920391522
0.00259624311183
0.00260413816321
0.00261356680453
0.00262595001655
0.00264545892677
0.00268457533872
0.00278184773377
0.00306429440773
0.00394371805294
)
;
    }
    atmosphere
    {
        type            inletOutlet;
        inletValue      nonuniform List<scalar> 0();
        value           nonuniform List<scalar> 0();
    }
    floatingObject
    {
        type            kqRWallFunction;
        value           nonuniform List<scalar> 0();
    }
    procBoundary7to6
    {
        type            processor;
        value           nonuniform List<scalar> 
11
(
0.00328361040073
0.00320335929656
0.00313946162795
0.00310139975374
0.00308113373396
0.00306913691798
0.00306913691798
0.00394490157638
0.00658398222439
0.00659284883858
0.00657183801776
)
;
    }
    procBoundary7to8
    {
        type            processor;
        value           nonuniform List<scalar> 
17
(
0.00185969077938
0.00231367783305
0.00246271993434
0.00252119069647
0.00254696461993
0.0025617701093
0.00257370099204
0.0025857264988
0.00260263695184
0.00260263695184
0.00261742210057
0.0026375184863
0.00267297602
0.00267297602
0.0027525655981
0.0029257811741
0.0029257811741
)
;
    }
    procBoundary7to9
    {
        type            processor;
        value           nonuniform List<scalar> 
16
(
0.00188284126968
0.00234251382146
0.00249249676331
0.00254796456346
0.00256929339286
0.00257934695337
0.00258640555848
0.0025932976291
0.00260103532018
0.00261033162256
0.00262269104223
0.00264244399276
0.00268224808982
0.00278079453962
0.00306507258581
0.00393949034677
)
;
    }
}


// ************************************************************************* //
