/*--------------------------------*- C++ -*----------------------------------*\
| =========                 |                                                 |
| \\      /  F ield         | OpenFOAM: The Open Source CFD Toolbox           |
|  \\    /   O peration     | Version:  v2012                                 |
|   \\  /    A nd           | Website:  www.openfoam.com                      |
|    \\/     M anipulation  |                                                 |
\*---------------------------------------------------------------------------*/
FoamFile
{
    version     2.0;
    format      ascii;
    class       volScalarField;
    location    "4.3";
    object      k_0;
}
// * * * * * * * * * * * * * * * * * * * * * * * * * * * * * * * * * * * * * //

dimensions      [0 2 -2 0 0 0 0];


internalField   nonuniform List<scalar> 
164
(
0.00188979621343
0.00235138758986
0.00250275427065
0.00256158763158
0.00258698836026
0.00260119654056
0.00261247168458
0.00262381441719
0.00189500413966
0.00235803770841
0.00250961452407
0.00256801240598
0.00259276060016
0.0026062874217
0.00261688567855
0.00262754435988
0.00263940593125
0.00265344574421
0.00267240845304
0.00189933409151
0.00236366267707
0.00251544003281
0.00257344308949
0.00259761038911
0.00261054112801
0.00262055037333
0.00263060078944
0.0026418178338
0.00265509779864
0.00267288756958
0.00270384276977
0.00277482372882
0.00190283996943
0.0023682986778
0.00252025203944
0.00257790472374
0.00260155579793
0.00261395793833
0.0026234551234
0.00263297212876
0.00264360445735
0.00265614889208
0.00267266022149
0.0027003759605
0.00276219665181
0.00291761589213
0.00190557853814
0.00237198173006
0.00252408190751
0.00258142625677
0.00260462677028
0.00261656581789
0.00262560236777
0.00263465250076
0.00264476312461
0.00265663592035
0.00267194472594
0.00269649294011
0.00274902165713
0.00288125367619
0.00190759407095
0.00237473404397
0.00252695822641
0.00258404036186
0.00260685383123
0.00261839376952
0.00262703125678
0.00263566420137
0.00264530935515
0.00265660652711
0.0026709358293
0.00269299630796
0.00273817601696
0.00285165952943
0.00190893059699
0.00237658209987
0.00252891102138
0.00258577695683
0.00260826579503
0.00261946777653
0.0026277634866
0.00263603026886
0.00264526937388
0.00265608057515
0.002669687589
0.00269013465565
0.00273071124242
0.0028325024266
0.00190972176018
0.00237759275551
0.00252997329798
0.00258665955914
0.00260888661554
0.00261980959907
0.00262781455393
0.00263576533827
0.00264465469832
0.00265506727649
0.00266817730664
0.00268774556782
0.00272603053888
0.00282183793612
0.00191003712002
0.00237782748168
0.00253019062189
0.00258673255888
0.00260875635012
0.00261945143965
0.00262720909585
0.00263488759543
0.00264347434492
0.00265356161976
0.00266633978534
0.002685520735
0.00272296312905
0.00281609415473
0.00190984068319
0.00237731704074
0.00252962546563
0.00258605515885
0.0026079218257
0.00261843138921
0.00262597856111
0.00263341972146
0.00264174443158
0.00265156495421
0.0026641234902
0.0026832072995
0.00272059744584
0.00281295676584
0.00307839962015
0.00389868991692
0.00190913828345
0.00237613094814
0.00252835055534
0.00258468375664
0.00260642496631
0.00261678138304
0.00262414846022
0.00263138292996
0.00263948201711
0.00264908537544
0.00266150571419
0.00268065907679
0.0027184258603
0.0028113005028
0.00307760595343
0.00390244885741
0.00190793034078
0.002374343149
0.00252643150878
0.00258266988912
0.00260430716904
0.00261453620063
0.00262174940927
0.00262880500944
0.00263671047659
0.00264613787594
0.00265848130002
0.00267781133745
0.00271619789683
0.00281036232076
0.00307981129979
0.00391087802109
)
;

boundaryField
{
    back
    {
        type            kqRWallFunction;
        value           nonuniform List<scalar> 
164
(
0.00188979621343
0.00235138758986
0.00250275427065
0.00256158763158
0.00258698836026
0.00260119654056
0.00261247168458
0.00262381441719
0.00189500413966
0.00235803770841
0.00250961452407
0.00256801240598
0.00259276060016
0.0026062874217
0.00261688567855
0.00262754435988
0.00263940593125
0.00265344574421
0.00267240845304
0.00189933409151
0.00236366267707
0.00251544003281
0.00257344308949
0.00259761038911
0.00261054112801
0.00262055037333
0.00263060078944
0.0026418178338
0.00265509779864
0.00267288756958
0.00270384276977
0.00277482372882
0.00190283996943
0.0023682986778
0.00252025203944
0.00257790472374
0.00260155579793
0.00261395793833
0.0026234551234
0.00263297212876
0.00264360445735
0.00265614889208
0.00267266022149
0.0027003759605
0.00276219665181
0.00291761589213
0.00190557853814
0.00237198173006
0.00252408190751
0.00258142625677
0.00260462677028
0.00261656581789
0.00262560236777
0.00263465250076
0.00264476312461
0.00265663592035
0.00267194472594
0.00269649294011
0.00274902165713
0.00288125367619
0.00190759407095
0.00237473404397
0.00252695822641
0.00258404036186
0.00260685383123
0.00261839376952
0.00262703125678
0.00263566420137
0.00264530935515
0.00265660652711
0.0026709358293
0.00269299630796
0.00273817601696
0.00285165952943
0.00190893059699
0.00237658209987
0.00252891102138
0.00258577695683
0.00260826579503
0.00261946777653
0.0026277634866
0.00263603026886
0.00264526937388
0.00265608057515
0.002669687589
0.00269013465565
0.00273071124242
0.0028325024266
0.00190972176018
0.00237759275551
0.00252997329798
0.00258665955914
0.00260888661554
0.00261980959907
0.00262781455393
0.00263576533827
0.00264465469832
0.00265506727649
0.00266817730664
0.00268774556782
0.00272603053888
0.00282183793612
0.00191003712002
0.00237782748168
0.00253019062189
0.00258673255888
0.00260875635012
0.00261945143965
0.00262720909585
0.00263488759543
0.00264347434492
0.00265356161976
0.00266633978534
0.002685520735
0.00272296312905
0.00281609415473
0.00190984068319
0.00237731704074
0.00252962546563
0.00258605515885
0.0026079218257
0.00261843138921
0.00262597856111
0.00263341972146
0.00264174443158
0.00265156495421
0.0026641234902
0.0026832072995
0.00272059744584
0.00281295676584
0.00307839962015
0.00389868991692
0.00190913828345
0.00237613094814
0.00252835055534
0.00258468375664
0.00260642496631
0.00261678138304
0.00262414846022
0.00263138292996
0.00263948201711
0.00264908537544
0.00266150571419
0.00268065907679
0.0027184258603
0.0028113005028
0.00307760595343
0.00390244885741
0.00190793034078
0.002374343149
0.00252643150878
0.00258266988912
0.00260430716904
0.00261453620063
0.00262174940927
0.00262880500944
0.00263671047659
0.00264613787594
0.00265848130002
0.00267781133745
0.00271619789683
0.00281036232076
0.00307981129979
0.00391087802109
)
;
    }
    sides
    {
        type            kqRWallFunction;
        value           nonuniform List<scalar> 0();
    }
    bottom
    {
        type            kqRWallFunction;
        value           nonuniform List<scalar> 
12
(
0.00188979621343
0.00189500413966
0.00189933409151
0.00190283996943
0.00190557853814
0.00190759407095
0.00190893059699
0.00190972176018
0.00191003712002
0.00190984068319
0.00190913828345
0.00190793034078
)
;
    }
    front
    {
        type            kqRWallFunction;
        value           nonuniform List<scalar> 
164
(
0.00188979621343
0.00235138758986
0.00250275427065
0.00256158763158
0.00258698836026
0.00260119654056
0.00261247168458
0.00262381441719
0.00189500413966
0.00235803770841
0.00250961452407
0.00256801240598
0.00259276060016
0.0026062874217
0.00261688567855
0.00262754435988
0.00263940593125
0.00265344574421
0.00267240845304
0.00189933409151
0.00236366267707
0.00251544003281
0.00257344308949
0.00259761038911
0.00261054112801
0.00262055037333
0.00263060078944
0.0026418178338
0.00265509779864
0.00267288756958
0.00270384276977
0.00277482372882
0.00190283996943
0.0023682986778
0.00252025203944
0.00257790472374
0.00260155579793
0.00261395793833
0.0026234551234
0.00263297212876
0.00264360445735
0.00265614889208
0.00267266022149
0.0027003759605
0.00276219665181
0.00291761589213
0.00190557853814
0.00237198173006
0.00252408190751
0.00258142625677
0.00260462677028
0.00261656581789
0.00262560236777
0.00263465250076
0.00264476312461
0.00265663592035
0.00267194472594
0.00269649294011
0.00274902165713
0.00288125367619
0.00190759407095
0.00237473404397
0.00252695822641
0.00258404036186
0.00260685383123
0.00261839376952
0.00262703125678
0.00263566420137
0.00264530935515
0.00265660652711
0.0026709358293
0.00269299630796
0.00273817601696
0.00285165952943
0.00190893059699
0.00237658209987
0.00252891102138
0.00258577695683
0.00260826579503
0.00261946777653
0.0026277634866
0.00263603026886
0.00264526937388
0.00265608057515
0.002669687589
0.00269013465565
0.00273071124242
0.0028325024266
0.00190972176018
0.00237759275551
0.00252997329798
0.00258665955914
0.00260888661554
0.00261980959907
0.00262781455393
0.00263576533827
0.00264465469832
0.00265506727649
0.00266817730664
0.00268774556782
0.00272603053888
0.00282183793612
0.00191003712002
0.00237782748168
0.00253019062189
0.00258673255888
0.00260875635012
0.00261945143965
0.00262720909585
0.00263488759543
0.00264347434492
0.00265356161976
0.00266633978534
0.002685520735
0.00272296312905
0.00281609415473
0.00190984068319
0.00237731704074
0.00252962546563
0.00258605515885
0.0026079218257
0.00261843138921
0.00262597856111
0.00263341972146
0.00264174443158
0.00265156495421
0.0026641234902
0.0026832072995
0.00272059744584
0.00281295676584
0.00307839962015
0.00389868991692
0.00190913828345
0.00237613094814
0.00252835055534
0.00258468375664
0.00260642496631
0.00261678138304
0.00262414846022
0.00263138292996
0.00263948201711
0.00264908537544
0.00266150571419
0.00268065907679
0.0027184258603
0.0028113005028
0.00307760595343
0.00390244885741
0.00190793034078
0.002374343149
0.00252643150878
0.00258266988912
0.00260430716904
0.00261453620063
0.00262174940927
0.00262880500944
0.00263671047659
0.00264613787594
0.00265848130002
0.00267781133745
0.00271619789683
0.00281036232076
0.00307981129979
0.00391087802109
)
;
    }
    atmosphere
    {
        type            inletOutlet;
        inletValue      nonuniform List<scalar> 0();
        value           nonuniform List<scalar> 0();
    }
    floatingObject
    {
        type            kqRWallFunction;
        value           nonuniform List<scalar> 0();
    }
    procBoundary7to6
    {
        type            processor;
        value           nonuniform List<scalar> 
11
(
0.003298756242
0.0032193463352
0.00315605204596
0.00311774328331
0.00309691227258
0.00308450680051
0.00308450680051
0.00391124044689
0.00637498252939
0.0063778345564
0.00636098076214
)
;
    }
    procBoundary7to8
    {
        type            processor;
        value           nonuniform List<scalar> 
17
(
0.00188363803405
0.00234368374069
0.00249483725605
0.00255414934479
0.0025802710578
0.00259524423847
0.00260728703092
0.00261941449432
0.00263640091797
0.00263640091797
0.0026512412125
0.00267122400339
0.00270597859519
0.00270597859519
0.00278367378485
0.00295251628641
0.00295251628641
)
;
    }
    procBoundary7to9
    {
        type            processor;
        value           nonuniform List<scalar> 
16
(
0.00190621607269
0.00237198905694
0.00252391112505
0.0025800547696
0.00260160519454
0.00261172808704
0.00261880986699
0.00262571108676
0.00263345060997
0.00264273664775
0.00265505142281
0.00267464032907
0.00271380034551
0.00280956321915
0.00308220056318
0.00391478424892
)
;
    }
}


// ************************************************************************* //
