/*--------------------------------*- C++ -*----------------------------------*\
| =========                 |                                                 |
| \\      /  F ield         | OpenFOAM: The Open Source CFD Toolbox           |
|  \\    /   O peration     | Version:  v2012                                 |
|   \\  /    A nd           | Website:  www.openfoam.com                      |
|    \\/     M anipulation  |                                                 |
\*---------------------------------------------------------------------------*/
FoamFile
{
    version     2.0;
    format      ascii;
    class       surfaceVectorField;
    location    "4.3";
    object      Uf_0;
}
// * * * * * * * * * * * * * * * * * * * * * * * * * * * * * * * * * * * * * //

dimensions      [0 1 -1 0 0 0 0];


internalField   nonuniform List<vector> 
300
(
(0.0331343415031 -0.00236696333294 -3.53291467164e-22)
(0.0349215485223 -0.00121743601749 -2.13973728394e-22)
(0.0320216226343 -0.00472026175195 -2.96555532404e-22)
(0.0337034320912 -0.00350298056614 -3.33398060108e-22)
(0.0312715928232 -0.00706397361752 -5.53797504413e-23)
(0.0326719562648 -0.00579660660691 -9.74789135831e-23)
(0.0310092259156 -0.00941310168257 1.07890186748e-22)
(0.0321970038632 -0.00812140894637 6.58424594623e-23)
(0.0310711068147 -0.0117821382625 1.61453620992e-22)
(0.0321599228173 -0.0104573392733 1.41964819283e-22)
(0.0312966822089 -0.0141751781907 1.49120298712e-22)
(0.0323478929762 -0.0128180209792 1.38716570671e-22)
(0.0315974964489 -0.0165982454472 1.31685936791e-22)
(0.032642034767 -0.0152083151618 1.16034591667e-22)
(0.0329866169615 -0.0176373232654 9.30370133577e-23)
(0.0354589467063 -0.00228520273411 -1.94080321337e-22)
(0.0372069277883 -0.00116408685252 -2.34319338736e-23)
(0.0343420747127 -0.00457107966734 -1.34321441287e-22)
(0.0359894829051 -0.00338265475097 -1.2981641803e-22)
(0.0335968286302 -0.00685749904992 2.37432963205e-23)
(0.0349585202256 -0.00561304591179 6.23861306971e-24)
(0.0333522444606 -0.00916490786805 9.99170919975e-23)
(0.0345045170161 -0.0078824178964 7.61549675296e-23)
(0.0334410703976 -0.0114944192592 1.19227768962e-22)
(0.0344894964241 -0.0101732421152 1.04011424241e-22)
(0.0336978832347 -0.0138559116257 1.05630863626e-22)
(0.0347094027155 -0.0124980683647 9.300751893e-23)
(0.0340376640001 -0.0162584313714 7.73856682334e-23)
(0.0350445268324 -0.0148581776478 7.9582323676e-23)
(0.03441948052 -0.0187144924241 5.7970502997e-23)
(0.0354425899448 -0.0172677258685 4.60680426651e-23)
(0.0348205238712 -0.0212333951474 4.66849103537e-23)
(0.0358678718662 -0.0197426586197 4.42250580331e-23)
(0.0352281523274 -0.0238521975904 2.54593603737e-24)
(0.0363180896188 -0.0222974104892 1.62554061909e-23)
(0.0367768735784 -0.0249525930153 -7.83560338175e-23)
(0.0377064929691 -0.00219994178262 4.08319694338e-23)
(0.0394070764869 -0.0011066105179 8.12306294457e-23)
(0.0365961836846 -0.00441142414649 1.0743636327e-23)
(0.0382011753708 -0.00325431695861 -5.43299608817e-23)
(0.0358624132161 -0.00663747384814 5.86502842788e-23)
(0.0371847618307 -0.00541630107315 2.10478333463e-23)
(0.0356433877644 -0.00888580167684 8.02492997728e-23)
(0.0367530101707 -0.00761953079378 6.06841670772e-23)
(0.0357714430306 -0.0111696463303 7.77911742083e-23)
(0.036773476931 -0.00985245205818 7.18006529974e-23)
(0.0360780243315 -0.0135031557792 6.69589789799e-23)
(0.0370430153715 -0.0121297110485 5.72434850681e-23)
(0.0364699915682 -0.0158639668532 4.82646981077e-23)
(0.0374054015506 -0.0144545725819 4.98550537427e-23)
(0.0369128225612 -0.0183062529301 3.23225977011e-23)
(0.0378848861634 -0.0168358674097 4.61190509209e-23)
(0.0373965918346 -0.0208223743693 1.37955538702e-23)
(0.0383839787151 -0.0192865313697 3.26898112881e-23)
(0.0379199811086 -0.0234313581553 -6.46465636639e-23)
(0.0389270325779 -0.0218164060108 1.47221408867e-23)
(0.0384696247763 -0.026164324411 -2.91715972257e-22)
(0.0395098114445 -0.0244376592582 -1.20403399392e-22)
(0.0389536368804 -0.029076002355 -1.08431922345e-21)
(0.0401311580206 -0.027176098595 -4.81286010857e-22)
(0.0406569105989 -0.0300880837997 -1.55340832105e-21)
(0.0398710089235 -0.00211054275287 -1.39313008698e-23)
(0.0415178450869 -0.00104951158413 -6.12594247852e-24)
(0.0387751739703 -0.00424324296233 -4.40257638625e-23)
(0.0403341097222 -0.0031173010781 -1.13918548446e-22)
(0.0380624772461 -0.00639436519192 2.30817161447e-23)
(0.0393361112194 -0.0052004639616 -2.61058249883e-23)
(0.0378756881391 -0.00857716095791 5.22355203018e-23)
(0.0389360210783 -0.00732758423446 3.7658273295e-23)
(0.0380454631625 -0.0108006695855 5.12529638572e-23)
(0.0389971858995 -0.00949275880963 5.69930745784e-23)
(0.038407509414 -0.0130703503411 4.01395598309e-23)
(0.0393128761398 -0.0117076428168 4.5563760925e-23)
(0.0388657484581 -0.0154202331008 4.77094065559e-23)
(0.0397554359605 -0.0139837893976 3.91257507127e-23)
(0.0393824568546 -0.0178160985455 4.64862645079e-23)
(0.0402808564674 -0.0163245644673 5.10418589759e-23)
(0.0399506663137 -0.020290400282 3.36163983045e-23)
(0.0408583395696 -0.018733873524 2.80932314732e-23)
(0.0405730635504 -0.0228496898471 -4.10346948415e-23)
(0.0414863383747 -0.0212163398309 3.4354255667e-23)
(0.0412563610532 -0.0255067058028 -3.09973437992e-22)
(0.0421668353216 -0.0237704983295 -1.10439868717e-22)
(0.0419299059597 -0.0282743431484 -9.50375108465e-22)
(0.0428988436632 -0.0263973686155 -4.59762579816e-22)
(0.0422256342644 -0.0311765231925 -2.24670416064e-21)
(0.0435590919284 -0.0290991492618 -1.37428542937e-21)
(0.0435598969195 -0.0318217610434 -3.24868747506e-21)
(0.0419450860312 -0.00201675584127 -1.06113190054e-22)
(0.043534835467 -0.000992614546674 -1.17960274963e-22)
(0.0408715523141 -0.00405670067479 -9.59986095715e-23)
(0.0423743019009 -0.00296684577122 -1.65759835601e-22)
(0.0401897641932 -0.00612323063141 -1.15292678381e-23)
(0.0414028932149 -0.00495767285624 -7.72257082065e-23)
(0.0400434743593 -0.00822925641038 4.24158275715e-23)
(0.0410423026222 -0.00699893796381 1.21486595617e-23)
(0.0402603829635 -0.0103846858882 5.13038716462e-23)
(0.0411528722081 -0.00908852730937 4.024203014e-23)
(0.0406749549676 -0.0125975377928 4.45499518068e-23)
(0.041525977981 -0.0112333495274 4.3060597551e-23)
(0.0412000642145 -0.0148792689065 4.24582031327e-23)
(0.0420373973924 -0.0134436976322 4.56607044647e-23)
(0.0417968379779 -0.0172306439475 3.26488259413e-23)
(0.0426324220106 -0.0157277083935 4.31156319113e-23)
(0.0424455258482 -0.0196601107507 2.88310888356e-23)
(0.0432879424575 -0.0180912185502 3.37162647732e-23)
(0.0431442763509 -0.0221540738062 -3.50509182086e-23)
(0.0439803724825 -0.0205263253996 5.77216546217e-23)
(0.0438954437229 -0.0247147068115 -2.60229010541e-22)
(0.0447274923273 -0.0230210390157 -4.60320247739e-23)
(0.0446422171482 -0.0273075448866 -8.83672900726e-22)
(0.0454917053825 -0.0255598674869 -2.80028464839e-22)
(0.0450463293857 -0.0299085136986 -2.3762687438e-21)
(0.0461600368445 -0.0280998659995 -1.01796129269e-21)
(0.0462225649494 -0.0305353854112 -2.86410425672e-21)
(0.0439207599877 -0.00191093824273 -1.77606920509e-22)
(0.0454460063236 -0.000926862094215 -1.57477239492e-22)
(0.0428763895445 -0.00384691870785 -1.46986934236e-22)
(0.0443105306563 -0.00279755053133 -1.76616217741e-22)
(0.0422329627362 -0.00581936498546 -5.35477808067e-23)
(0.0433756038491 -0.00468366370214 -8.5546454952e-23)
(0.0421347532352 -0.00784000627358 9.97486213018e-24)
(0.0430632277817 -0.00662828916619 5.79947784052e-25)
(0.0424077524605 -0.00991609178425 3.19987560448e-23)
(0.0432292584606 -0.00863140431362 1.96051848788e-23)
(0.042885689116 -0.0120566689942 4.41713502089e-23)
(0.0436668616715 -0.0106960942391 3.51361625691e-23)
(0.0434809477089 -0.0142696852938 4.63181332433e-23)
(0.0442507078288 -0.0128321040542 4.96662261111e-23)
(0.0441516795207 -0.0165659871858 4.41830707433e-23)
(0.0449289816336 -0.0150539565766 3.62984513774e-23)
(0.0448771964807 -0.0189347767403 6.26068305593e-23)
(0.0456569301919 -0.0173684430978 4.53162229048e-23)
(0.0456414030133 -0.021396177007 4.67405480565e-23)
(0.0464418972715 -0.0197679655183 6.89180332471e-23)
(0.0464200310675 -0.0239003613741 -6.58314790716e-23)
(0.0472317338366 -0.0222431503458 2.40301506526e-23)
(0.0471472883865 -0.0264049546767 -4.14316856802e-22)
(0.0479963131573 -0.0247721908421 -8.08459708616e-23)
(0.0475286710415 -0.028863005592 -1.50579680562e-21)
(0.0486180477366 -0.027305753374 -4.8954839417e-22)
(0.0486433154311 -0.0297492777063 -1.75472471978e-21)
(0.0457872975834 -0.00178406115596 -1.56486536724e-22)
(0.0472302836107 -0.00085293527156 -1.56986457412e-22)
(0.0447794485883 -0.00360920639428 -1.15175738457e-22)
(0.0461359084749 -0.00260824013012 -1.26551088377e-22)
(0.0441812790805 -0.00547882260028 -3.14187263612e-23)
(0.0452454792394 -0.00437769574718 -6.06319670625e-23)
(0.0441372402272 -0.00740220750648 1.02102705327e-23)
(0.0449869062933 -0.00621296152129 1.20284963609e-23)
(0.0444745410103 -0.0093868504249 2.27425914031e-23)
(0.0452142268142 -0.0081147408823 1.52162948339e-23)
(0.0450272076282 -0.0114432645623 4.06310384712e-23)
(0.04572361884 -0.0100861419989 2.11818159469e-23)
(0.0457031578281 -0.0135833913935 3.96465442451e-23)
(0.0463911724878 -0.0121406904369 3.22935657396e-23)
(0.046458194947 -0.0158150393388 3.74316035389e-23)
(0.0471609348825 -0.014296551396 1.79883344947e-23)
(0.0472684711949 -0.0181600894002 5.16274255926e-23)
(0.0480022277134 -0.0165614916364 3.25834801934e-23)
(0.0481035429069 -0.0205934652989 4.62076358433e-23)
(0.0488754489732 -0.0189404032055 4.21766365549e-23)
(0.0489192273801 -0.0231078280931 9.01565886263e-24)
(0.0497462043303 -0.021436264176 2.81011040378e-23)
(0.0496316071893 -0.0256747116831 -1.5607750823e-22)
(0.0505632490648 -0.0240393308141 -2.51051325994e-24)
(0.0499806233423 -0.0282552416693 -7.3847630833e-22)
(0.0511985932153 -0.0267299721687 -2.24913656326e-22)
(0.0513010475953 -0.0294740532237 -1.07744073809e-21)
(0.0475280378221 -0.00164709806734 -1.27051009065e-22)
(0.0488775621135 -0.000777065080925 -1.65832858672e-22)
(0.0465659530049 -0.00334647772299 -7.20073169824e-23)
(0.0478354846972 -0.00239949082996 -9.89290455204e-23)
(0.0460189414689 -0.00509697240425 -1.71847443404e-23)
(0.0469962071409 -0.00403900132296 -3.73075549341e-23)
(0.0460351164208 -0.00690420716197 1.70345206621e-23)
(0.0467944222411 -0.00574858660617 1.67142366079e-23)
(0.0464444266037 -0.00878238699024 1.36555193777e-23)
(0.0470927333554 -0.00753212358118 1.30377077012e-23)
(0.0470821723097 -0.0107452447473 1.28443432153e-23)
(0.0476868327644 -0.00939514541886 8.82157311518e-24)
(0.0478549738008 -0.0128083928298 1.06353559892e-23)
(0.0484546810815 -0.0113556779938 6.22997846689e-24)
(0.0487191569682 -0.0149853874623 1.31402111492e-23)
(0.0493382666672 -0.013433359873 -2.05736019145e-24)
(0.0496434593593 -0.0172874333309 2.31326911557e-23)
(0.050304564793 -0.0156439081126 8.93189257195e-24)
(0.0505883803454 -0.0197299347704 2.40701047494e-23)
(0.051318186184 -0.0180071424936 1.7247340108e-23)
(0.0515005979425 -0.0223114111271 1.65749319152e-23)
(0.0523278670455 -0.0205421857875 2.25936167099e-23)
(0.0522895580178 -0.0250438181349 -7.13466613563e-23)
(0.0532958099342 -0.02326454901 6.59798593816e-24)
(0.0527444886828 -0.0279293819164 -5.6387808609e-22)
(0.0540843311602 -0.0261928642909 -1.51226015848e-22)
(0.0544453212449 -0.0293610810159 -9.73571346353e-22)
(0.0491312934875 -0.00150660253635 -1.37710895127e-22)
(0.050384290068 -0.000694293629826 -1.99269981774e-22)
(0.0482180971657 -0.00305908031456 -6.42292834721e-23)
(0.0493881044912 -0.00216766507067 -1.16219481453e-22)
(0.0477285965076 -0.00466911269945 -3.40857398582e-24)
(0.0486064273568 -0.00366230668084 -3.1789635641e-23)
(0.0478133784283 -0.00634699976041 1.27174236469e-23)
(0.0484725572146 -0.005228535028 5.39872016397e-24)
(0.0483035944448 -0.00810353508728 8.20376143864e-24)
(0.0488495747016 -0.00687646082036 2.40141780517e-24)
(0.0490378779641 -0.00995532286499 2.20720836681e-24)
(0.0495389687602 -0.00861293839211 3.60200142832e-24)
(0.0499267672426 -0.0119214765783 -6.46273771376e-24)
(0.0504212013962 -0.0104591930592 -4.99651932045e-24)
(0.0509261301378 -0.0140235638397 -6.26567876867e-24)
(0.0514407153283 -0.0124392458156 -1.33027300078e-23)
(0.0520026477083 -0.0162851081342 3.04654152427e-24)
(0.0525664504229 -0.0145781976368 -5.26659439684e-24)
(0.0531176664662 -0.0187316917079 1.57708520685e-23)
(0.0537650900253 -0.0169083642068 2.85786295661e-24)
(0.0542174083507 -0.0214005638842 1.26166707328e-23)
(0.0549970499828 -0.0194674368457 1.71231328625e-23)
(0.0552196629829 -0.0243145423221 -7.32813685539e-23)
(0.0562101275636 -0.0222975460867 2.08598654588e-23)
(0.0559658805554 -0.0275417081815 -5.60919276112e-22)
(0.0573119106193 -0.0254542559284 -7.19151541389e-23)
(0.0581163456234 -0.0290294002412 -8.27597394614e-22)
(0.0505792527337 -0.00134514356259 -1.777785681e-22)
(0.0517294559693 -0.000599486285058 -2.54445608409e-22)
(0.0497194217184 -0.00273711729865 -8.37798336222e-23)
(0.0507801310998 -0.00190913491705 -1.46664422697e-22)
(0.04929574687 -0.00419319958713 -2.29823414912e-23)
(0.0500626246052 -0.00324213749694 -6.4654586214e-23)
(0.0494573438385 -0.00572267404344 -4.91728567779e-24)
(0.0500022284116 -0.00464685489046 3.42916694976e-24)
(0.0500384776837 -0.00733779512253 -2.20034220515e-24)
(0.0504649776818 -0.00613912377972 -9.93073219609e-25)
(0.0508827964026 -0.00905722213969 -3.60172625895e-24)
(0.0512587515028 -0.00772680253532 -3.08298086044e-24)
(0.0519051591513 -0.0109046562793 -1.18365116145e-23)
(0.0522690474376 -0.00943363281395 -1.08385115017e-23)
(0.0530642234176 -0.0129081199041 -1.2303645636e-23)
(0.0534446347709 -0.0112885972652 -1.05633530448e-23)
(0.0543311035832 -0.0151012484142 -5.4552729645e-24)
(0.0547600791835 -0.0133245808709 -3.89302688928e-24)
(0.0556738331906 -0.0175259487833 4.21014375061e-24)
(0.0561903521896 -0.0155835901707 -1.69999382397e-24)
(0.0570509139126 -0.020233750465 2.53663275884e-23)
(0.0577054979343 -0.0181181296302 2.25628334537e-23)
(0.0584013948443 -0.0232899327007 2.22260798737e-23)
(0.0592670638578 -0.0209937562669 6.18340809056e-23)
(0.0596122938907 -0.0267930080845 -3.38593272641e-22)
(0.0608158608922 -0.0243008367438 8.88203576532e-23)
(0.0603559291508 -0.0309100814419 -1.47960145295e-21)
(0.0622344537053 -0.0281796387842 -4.50355208222e-22)
(0.0598497080204 -0.0359200090233 -5.03537337643e-21)
(0.0630477168773 -0.0328504795658 -2.56046911241e-21)
(0.062247885887 -0.038812692834 -6.66658741805e-21)
(0.0518556312608 -0.00116303741813 -2.23331463006e-22)
(0.0528924024095 -0.000497726171076 -3.16583014883e-22)
(0.0510553146623 -0.00237922615022 -1.27539175289e-22)
(0.0519962782575 -0.00162462999288 -1.96868315038e-22)
(0.050703043185 -0.00366297801569 -3.8243077773e-23)
(0.0513464281121 -0.0027760307737 -1.04770468703e-22)
(0.0509463232697 -0.00502415450724 7.35337940795e-24)
(0.0513635761375 -0.00399895790877 2.90711326388e-23)
(0.0516250939166 -0.00647506923194 -1.8757118749e-24)
(0.0519161921594 -0.00531268033287 1.30285610525e-23)
(0.0525895756108 -0.00803626177603 -1.03197661032e-23)
(0.052820366929 -0.00672556684225 -7.00377068517e-25)
(0.0537602192985 -0.00973492757979 -9.56535293194e-24)
(0.0539682551368 -0.0082629251856 -1.04464694569e-23)
(0.055101526404 -0.0116056783635 -2.15273429808e-24)
(0.0553160533669 -0.00995734751772 -5.26455894739e-24)
(0.0565928765385 -0.0136878500868 -1.37747748754e-25)
(0.0568430726828 -0.0118466049488 4.53916085411e-24)
(0.0582137433245 -0.016033919969 1.66526958792e-23)
(0.0585374372191 -0.0139792491961 -5.47903300088e-24)
(0.0599395047329 -0.0187105308429 5.90305867709e-23)
(0.0603833530489 -0.0164173153361 3.74533269375e-23)
(0.0617383123946 -0.0218068958113 1.28428358685e-22)
(0.0623649026582 -0.0192420153376 8.67020141469e-23)
(0.0635529568306 -0.0254559826975 -2.29415779283e-23)
(0.0644666106628 -0.0225638920219 2.00762679602e-22)
(0.0651456475171 -0.0298632258051 -1.53122286769e-21)
(0.0666434923917 -0.0265491533068 -1.52619032169e-22)
(0.0658528107076 -0.0353828861075 -4.19168315403e-21)
(0.0685692250984 -0.0314922815058 -2.39159501885e-21)
(0.0693726218662 -0.0377457845268 -2.8816061077e-21)
(0.0529455967409 -0.000966439176252 -2.90119866915e-22)
(0.0522073067072 -0.00198589086652 -1.74099608452e-22)
(0.0519289527476 -0.00307665921787 -3.74562582915e-23)
(0.0522564795054 -0.00424629268386 3.47463142833e-23)
(0.0530361890947 -0.00550744250635 1.42038958589e-23)
(0.0541261882586 -0.00688116412037 -8.27080422254e-25)
(0.055454304176 -0.0083966745281 -6.14567547235e-24)
(0.0569924755075 -0.0100896277927 1.42733620481e-24)
(0.0587294337119 -0.0120068404127 -8.02124398008e-25)
(0.0606589627481 -0.0142030659554 1.53215980575e-23)
(0.0627774962888 -0.0167545477254 6.51247543135e-23)
(0.0650829839112 -0.0197628966663 1.59036335064e-22)
(0.0675844407335 -0.0233636321989 7.10852253618e-23)
(0.0701696805012 -0.0277846276813 -1.01299118334e-21)
(0.0723249325872 -0.0334761700081 -1.08151797253e-21)
)
;

boundaryField
{
    back
    {
        type            calculated;
        value           uniform (0 0 0);
    }
    sides
    {
        type            calculated;
        value           nonuniform List<vector> 0();
    }
    bottom
    {
        type            calculated;
        value           uniform (0 0 0);
    }
    front
    {
        type            calculated;
        value           uniform (0 0 0);
    }
    atmosphere
    {
        type            calculated;
        value           nonuniform List<vector> 0();
    }
    floatingObject
    {
        type            calculated;
        value           nonuniform List<vector> 0();
    }
    procBoundary7to6
    {
        type            processor;
        value           nonuniform List<vector> 
11
(
(0.0411501224936 -0.0341835913429 -4.73717914805e-21)
(0.0439974558008 -0.0325711871774 -5.45727281668e-21)
(0.0465491276249 -0.0312838016188 -3.65072599772e-21)
(0.0491579682207 -0.0309129588488 -2.34189394763e-21)
(0.0522799565832 -0.0310733851268 -1.63806826391e-21)
(0.0560366934764 -0.031212226251 -1.81014905055e-21)
(0.0580364003965 -0.0332092372424 -2.46215310889e-21)
(0.0559595236747 -0.0386245179384 -6.46453532459e-21)
(0.0577819852474 -0.0422071514316 -5.18008976159e-21)
(0.0652849196729 -0.0425061723686 -3.3945996931e-21)
(0.0738117897953 -0.0410189365022 9.74901594349e-22)
)
;
    }
    procBoundary7to8
    {
        type            processor;
        value           nonuniform List<vector> 
17
(
(0.0325544444584 -0.00126764174267 -2.33787179362e-22)
(0.0313500071134 -0.00360868213672 -4.45183253228e-22)
(0.0303281821081 -0.00595580569221 -2.01319786584e-22)
(0.0298478990266 -0.00832716494513 4.38823301867e-23)
(0.02979099569 -0.0107002019529 1.77284922112e-22)
(0.029955054352 -0.013093443894 1.81021741973e-22)
(0.0302192285275 -0.0155091378547 1.52577644157e-22)
(0.0305254676091 -0.0179532515865 1.36603147405e-22)
(0.0319306784935 -0.019059704692 1.16773486785e-22)
(0.0333491948706 -0.02011813124 8.17069764246e-23)
(0.0336996318252 -0.0226682881349 7.4886907448e-23)
(0.0340332568646 -0.0252994157051 5.75273801e-24)
(0.0356010567683 -0.0265959110237 -1.99303727896e-22)
(0.0372195845508 -0.0277488262498 -4.12663666335e-22)
(0.0375081170513 -0.0307662317299 -1.66347406818e-21)
(0.0390659694861 -0.0322243299077 -2.62673770279e-21)
(0.0405524546762 -0.0331679723705 -3.32003354238e-21)
)
;
    }
    procBoundary7to9
    {
        type            processor;
        value           nonuniform List<vector> 
16
(
(0.0538586885031 -0.000391964402739 -3.83488029246e-22)
(0.0530156413832 -0.00131539628006 -2.33949868953e-22)
(0.05243721442 -0.00226343959712 -1.20348919608e-22)
(0.0525333648962 -0.00328233748478 4.40320180998e-23)
(0.053177647053 -0.0043925260356 2.24563560243e-23)
(0.0541945497963 -0.00560177654866 5.97385210593e-24)
(0.0554843924954 -0.00693546268708 -4.33221974683e-24)
(0.0570098282863 -0.00842804312506 -2.64105623313e-24)
(0.0587613476679 -0.0101194217363 4.15482154087e-24)
(0.0607350208183 -0.0120596452128 -2.91363391631e-24)
(0.0629365185336 -0.0143129310364 1.78061412308e-23)
(0.0653752410231 -0.0169712435116 5.46633676683e-23)
(0.0680695472757 -0.020144317732 1.21636728622e-22)
(0.0710667953303 -0.0239733262534 -5.16259407684e-23)
(0.0742629527197 -0.0288812744573 -1.93072712088e-21)
(0.0769170695298 -0.0347957829387 4.46399522352e-22)
)
;
    }
}


// ************************************************************************* //
