/*--------------------------------*- C++ -*----------------------------------*\
| =========                 |                                                 |
| \\      /  F ield         | OpenFOAM: The Open Source CFD Toolbox           |
|  \\    /   O peration     | Version:  v2012                                 |
|   \\  /    A nd           | Website:  www.openfoam.com                      |
|    \\/     M anipulation  |                                                 |
\*---------------------------------------------------------------------------*/
FoamFile
{
    version     2.0;
    format      ascii;
    class       volVectorField;
    location    "2.3";
    object      ddt0(rho,U);
}
// * * * * * * * * * * * * * * * * * * * * * * * * * * * * * * * * * * * * * //

dimensions      [1 -2 -2 0 0 0 0];


internalField   nonuniform List<vector> 
166
(
(99.6032858302 8.58718343038 1.29664270596e-20)
(102.773104883 11.5005236512 8.45454177155e-21)
(105.895889629 15.3072135162 4.65378787535e-20)
(108.672006491 20.2460078608 7.65359410013e-22)
(110.72592219 26.5393362146 5.86225631592e-19)
(111.603623017 34.5583931892 -9.7044724542e-20)
(110.68393755 44.8972132479 4.19124318141e-19)
(107.102566611 57.9214153004 -3.46113619583e-18)
(99.0478997957 74.5925514976 2.95792338406e-18)
(81.6972424989 112.248003347 -5.56405014111e-19)
(-31.6764461119 158.216171083 -7.03852826384e-18)
(-10.6962858105 25.527217861 4.22154980994e-18)
(-5.14500326614 3.15135459206 3.64971809303e-19)
(92.1751452119 7.09131643596 3.49941929231e-20)
(94.5730954208 9.04954898006 4.16122559779e-20)
(97.1365982913 11.3910924081 1.73708804647e-19)
(99.6971230839 14.2432167359 6.12290524139e-20)
(102.01679603 17.7163243939 8.26513756975e-20)
(103.765907272 21.9349504448 3.03872512128e-20)
(104.474083445 27.0184915604 4.48325997432e-19)
(103.603944103 33.1435178771 -1.08861525254e-19)
(100.373515794 40.6389419115 4.04350700604e-19)
(93.8591795353 49.5907683485 2.77144126623e-18)
(83.5386004822 60.4012792168 4.48127592149e-18)
(64.8989863827 94.9186026078 -2.06638757392e-17)
(-61.0682875984 147.355479253 -2.52994757269e-17)
(-15.4097710326 25.6285623808 -3.19204715451e-18)
(-5.59260926651 -10.2495438441 -6.1471908046e-20)
(86.0529144365 1.24537763623 4.10717007979e-19)
(84.3972868482 1.97926203197 -5.59547635565e-19)
(88.3800986821 7.2645383548 7.73346965689e-20)
(90.3058743351 9.19297876226 1.12993224279e-20)
(92.4189557203 11.3304690409 1.91894592802e-20)
(94.6360626289 13.7091613116 -1.45686054084e-20)
(96.7827464267 16.3823207656 1.80451239729e-19)
(98.6075154761 19.3788650822 3.17498980276e-20)
(99.7703005718 22.6965178785 3.65537517662e-20)
(99.7894138975 26.3338231564 2.68884058735e-20)
(98.0738617313 30.2500429593 -3.08574156147e-19)
(93.821764756 34.4470227629 3.31010068913e-19)
(85.9964011768 38.7171596056 -3.87557893156e-18)
(75.0655728139 42.4048124749 1.48077476632e-17)
(57.5042514227 69.8071214372 -2.48772453077e-17)
(-80.5344055587 122.530986129 -3.78188497532e-17)
(-25.8118391779 24.5726819884 1.59448432712e-17)
(5.56383191425 -9.50530271718 -1.98949757975e-18)
(84.4328455885 1.43199490127 -1.41584521229e-19)
(82.6643632841 2.59593572323 -1.84516846509e-18)
(83.4267267668 4.84148601877 -4.98973544142e-20)
(84.8170274183 6.77427478179 1.47605009979e-19)
(86.4114919026 8.93452930397 3.51674238789e-20)
(88.2044244583 11.0934011061 2.22981416956e-20)
(90.1674320206 13.3710383798 8.50799640002e-20)
(92.2136392417 15.7503324947 -7.29261619627e-20)
(94.1809980472 18.2111334694 1.24227443111e-19)
(95.8528256985 20.7018327832 2.48644707798e-19)
(96.8973954191 23.1123896072 -2.27179166441e-19)
(96.8941330802 25.2985400939 4.12391017989e-19)
(95.2533522725 27.0135998853 -7.46885535819e-19)
(91.2833689596 27.9932120285 5.74815356202e-19)
(83.8577361963 27.7802984377 -3.26968293188e-19)
(74.0162126618 24.6144463757 2.10447758269e-17)
(58.7996497141 44.2011319533 -8.36915249967e-18)
(-82.4460325229 101.021549606 -1.01506591694e-17)
(-18.4274456061 18.5404397334 -8.87455924393e-18)
(5.23635220869 1.56872089184 -3.94336525891e-19)
(82.4284771392 1.60183125344 -1.8088770572e-20)
(80.5414520908 3.18842099225 -3.16958701159e-19)
(81.2908762276 5.78454186034 1.2186451301e-19)
(82.6465192877 8.05979432269 1.54466481031e-19)
(84.1689567146 10.5102289449 2.88831847386e-20)
(85.9024926934 12.9075441996 -2.19215447097e-20)
(87.8280219755 15.3316942101 6.75770843026e-20)
(89.8755955891 17.724835844 1.47989005916e-20)
(91.9129413011 20.0213074584 9.85625482862e-20)
(93.7318914333 22.0927119434 4.44405534249e-20)
(95.0930002859 23.734213121 4.13319575635e-21)
(95.657193152 24.6767777176 1.21225770743e-19)
(94.9443181902 24.4984489659 -5.21364382127e-19)
(92.4048342679 22.660135788 2.04194074919e-19)
(87.0179213259 18.4754277146 6.386215187e-19)
(79.8574970205 8.90643732651 4.42785132431e-18)
(68.9052946387 17.7232600261 2.48790153026e-17)
(-71.2400783286 69.6451772827 4.53885219195e-18)
(-15.6920042432 13.349203638 -1.94956027631e-18)
(1.43393289343 0.287511140225 -4.98837657295e-19)
(80.0330058976 1.75413170738 4.26573691507e-19)
(78.0381868463 3.77032714846 1.08307711142e-19)
(78.7746798904 6.71642197663 2.91051858146e-19)
(80.1201959497 9.31240532375 3.43777985661e-19)
(81.6432331741 12.0539382132 9.20080857775e-20)
(83.3989973155 14.7180667409 3.48926385205e-20)
(85.3942224038 17.3369451235 2.01633559403e-20)
(87.5573900336 19.8301339256 -1.75815333724e-20)
(89.8313453856 22.0642190425 3.15328830828e-20)
(92.0568362717 23.8825180193 3.89032705522e-20)
(94.0991872624 25.0420043156 5.72912525872e-21)
(95.71168446 25.1493804386 1.46341843752e-19)
(96.6617192241 23.6569722809 -1.90598815346e-19)
(96.4931825158 19.7895837709 -3.18626179589e-19)
(94.6874633302 12.7209690743 -1.05857620709e-18)
(92.1369416252 -1.58516442613 -1.18942654199e-19)
(88.9759962945 -4.10336415459 1.34592783935e-17)
(-39.505898242 38.330075968 4.18770545802e-18)
(-10.3614720411 7.39295975839 -5.26071791197e-19)
(0.252937920227 0.0504005048973 5.09222624551e-20)
(77.2506599348 1.89504136603 6.48911420543e-19)
(75.1669125476 4.33576851848 -1.17197769404e-19)
(75.888635866 7.63185322666 -1.77784162439e-19)
(77.2449751213 10.5820886165 1.50661516622e-19)
(78.8112357884 13.6481258075 8.03304025081e-20)
(80.6363796252 16.6178982194 1.13130659717e-20)
(82.7523812187 19.4784563833 1.94873654644e-20)
(85.1231394427 22.1575358326 -2.24352416318e-20)
(87.7572905288 24.5228528193 3.63322949473e-20)
(90.587337813 26.3641342476 5.01428438864e-20)
(93.5318318278 27.3956678145 2.1026463258e-20)
(96.5193139615 27.2403660539 -3.91871648465e-20)
(99.5119839108 25.2178285923 1.17072790999e-19)
(102.350505777 20.4288375679 6.89395585776e-19)
(105.128319689 12.2563504143 2.34760138253e-18)
(108.406193021 -3.79810203175 2.75836184784e-18)
(115.238542833 -14.2545443679 -4.00712025834e-18)
(7.14383255284 13.9002379456 -4.10663137064e-18)
(-2.86541264088 3.27701358191 -6.4404856072e-19)
(0.330068066762 -0.225220773819 -2.12948393485e-22)
(74.1140823492 2.03495235223 5.26653998712e-19)
(71.9703963974 4.91312150868 1.06698841562e-19)
(72.6655015434 8.56755157872 -8.02543940055e-20)
(74.0430581198 11.8849859589 7.78281151749e-20)
(75.6474883004 15.2980036738 2.87500549312e-20)
(77.5543438743 18.6187941113 8.0177514858e-21)
(79.8137567293 21.8207900851 -2.19996786224e-21)
(82.4724408959 24.8389234717 -1.65487565195e-20)
(85.512309119 27.5263815208 -3.14163584086e-20)
(88.9868218758 29.6572892063 -9.96891387331e-22)
(92.9111608398 30.9805039615 -7.50106964957e-20)
(97.4060123993 31.1392049524 -1.95629109383e-19)
(102.523977254 29.4580832009 1.45612738078e-19)
(108.58745793 25.1065769504 -2.61130253737e-19)
(116.026501701 17.4486783609 2.41987084819e-20)
(125.427815833 2.60346937936 2.00403849291e-18)
(141.715721104 -12.3664992621 -1.29800254454e-18)
(55.7840621461 0.80854799506 -1.81278938336e-18)
(3.2669015628 0.962283118906 -2.18633352165e-19)
(0.139491192654 -0.152954217503 1.37528347871e-19)
(70.5824272562 2.19562178763 4.96403029134e-19)
(68.3834854759 5.49242395469 -3.63117313706e-19)
(69.0709510618 9.49555535635 -1.41400083274e-20)
(70.4577146308 13.2223437632 -1.01540579254e-19)
(72.1069447789 17.0217985238 -4.69714753436e-21)
(74.095728592 20.7538098669 7.22151590825e-21)
(76.5051418377 24.3937297439 -2.0422756757e-21)
(79.3981191605 27.8557524225 3.9988726711e-20)
(82.8358826596 31.0408371484 7.85695511304e-21)
(86.8947077774 33.7706467932 -3.88722217251e-20)
(91.7688423478 35.8277480716 1.11236318345e-19)
(97.6230316608 36.880352542 -1.54409339266e-19)
(104.761142477 36.3968601736 -2.29026758465e-21)
(113.809035245 33.5864004255 -1.28569837642e-18)
(125.52958715 27.9618895296 6.43766902131e-19)
(140.76203468 16.485414653 4.52089289333e-19)
(165.097250358 -1.8702877277 6.08087575447e-18)
(98.9468841155 -3.75964825142 -1.39488528997e-17)
(5.22411899137 0.0629668442385 -3.99380342107e-19)
(0.156485611748 -0.0478762243694 2.48653840494e-20)
)
;

boundaryField
{
    back
    {
        type            calculated;
        value           uniform (0 0 0);
    }
    sides
    {
        type            calculated;
        value           nonuniform List<vector> 0();
    }
    bottom
    {
        type            calculated;
        value           uniform (0 0 0);
    }
    front
    {
        type            calculated;
        value           uniform (0 0 0);
    }
    atmosphere
    {
        type            calculated;
        value           nonuniform List<vector> 9((2.49179340044 3.15135459206 -1.1014529898e-19) (-5.59261044095 -10.2495438441 -6.14719262798e-20) (5.56392480488 -9.50530271718 -1.98948861556e-18) (-22.7653032681 1.56872089184 4.11567210143e-18) (-23.9891605622 0.287511140225 -3.4801819287e-18) (1.69161340391 0.0504005048973 5.69765872039e-20) (1.47760506844 -0.225220774095 3.76762003593e-20) (-0.00202770621297 -0.152954217235 -5.49635511248e-23) (-0.00120494590299 -0.0478762243483 4.02908646016e-23));
    }
    floatingObject
    {
        type            calculated;
        value           nonuniform List<vector> 0();
    }
    procBoundary0to1
    {
        type            processor;
        value           nonuniform List<vector> 10((114.218217137 17.118137204 -2.28067645345e-19) (118.140890962 24.1482000996 -9.79891976138e-20) (121.508744987 33.4151376908 -7.02529542136e-19) (123.897218556 45.7691936209 -1.86463210945e-20) (124.594960379 62.1279202118 -1.07239585886e-18) (121.342810233 83.7828686295 4.93252425679e-18) (113.761449705 129.563502304 8.3419484675e-18) (3.47349956154 161.356820138 1.8149604603e-18) (-7.95549900373 24.7551930969 1.73269337979e-18) (-0.716955363547 1.45621212685 2.17399501766e-19));
    }
    procBoundary0to2
    {
        type            processor;
        value           nonuniform List<vector> 
14
(
(101.909961222 5.17710062641 7.8120127157e-21)
(105.880650002 7.94986270009 1.3885555098e-19)
(110.038497221 11.8175045765 2.59556210595e-19)
(93.7838588275 4.69150964425 6.80087614705e-20)
(96.5588430769 6.37812570025 1.45130775294e-19)
(96.5588430769 6.37812570025 1.45130775294e-19)
(87.2166437247 1.05519817283 1.02343583045e-18)
(85.6995825953 1.30690022902 3.31523262317e-19)
(90.036858 5.44284859781 7.45857471025e-20)
(90.036858 5.44284859781 7.45857471025e-20)
(85.2325900175 3.85193720011 1.27152492116e-19)
(85.2325900175 3.85193720011 1.27152492116e-19)
(86.6847209561 5.40922779565 2.12441077712e-19)
(86.6847209561 5.40922779565 2.12441077712e-19)
)
;
    }
    procBoundary0to4
    {
        type            processor;
        value           nonuniform List<vector> 8((66.6363405887 2.34378416787 1.61582722866e-19) (64.4132633093 6.08450380659 2.38719851466e-20) (65.1107893744 10.4457521262 -6.90357032155e-20) (66.4833140286 14.5775496529 -3.12561766132e-20) (68.1515924082 18.7969231444 -9.34017747099e-22) (70.1896972767 22.9852860476 2.09843475543e-20) (72.6965999849 27.1204800805 6.02173851642e-21) (75.777466568 31.1744266129 1.85953864605e-20));
    }
    procBoundary0to5
    {
        type            processor;
        value           nonuniform List<vector> 
12
(
(79.5181539218 35.0311228158 3.40594530037e-22)
(84.0467474717 38.5954441815 2.73057626278e-20)
(89.6225744124 41.7246049341 6.95078063842e-20)
(96.5129971203 44.1736746924 -2.87060578164e-20)
(105.246289872 45.6744023022 7.97479545466e-19)
(116.676183354 45.5684542279 3.01844431794e-19)
(132.189338805 43.1305999987 8.04702893954e-19)
(153.222822254 36.941073223 1.62869070588e-18)
(188.646651539 14.6870370686 -2.67616460885e-18)
(130.051651244 -3.51335194874 -4.38433606894e-19)
(3.27791110617 -0.0596540689918 2.77717622752e-19)
(0.204168824762 0.313674311477 6.17147921089e-20)
)
;
    }
}


// ************************************************************************* //
