/*--------------------------------*- C++ -*----------------------------------*\
| =========                 |                                                 |
| \\      /  F ield         | OpenFOAM: The Open Source CFD Toolbox           |
|  \\    /   O peration     | Version:  v2012                                 |
|   \\  /    A nd           | Website:  www.openfoam.com                      |
|    \\/     M anipulation  |                                                 |
\*---------------------------------------------------------------------------*/
FoamFile
{
    version     2.0;
    format      ascii;
    class       volScalarField;
    location    "5.4";
    object      alpha.water;
}
// * * * * * * * * * * * * * * * * * * * * * * * * * * * * * * * * * * * * * //

dimensions      [0 0 0 0 0 0 0];


internalField   nonuniform List<scalar> 
167
(
1.00000002411
0.999999965327
1
0.999999859798
0.999999900008
0.99999943713
0.645353368948
0.0134473099781
-9.62303499966e-22
1.00000134404
1.0000015289
0.999999936813
0.999999982739
0.99999929471
0.630895173473
0.00943146864139
-6.28377121048e-22
1.00000297419
1.00000256697
0.999999993357
0.999999995448
0.99999907754
0.614864590894
0.00478401919449
-6.73161305789e-30
1.00000197268
1.00000315878
1.00000265701
1.00000000001
0.999999996287
0.999998806911
0.596430691399
-4.51750905202e-22
-8.82325986723e-25
1.00000049283
1.00000244241
1.00000206652
1
1.00000000108
0.999882856253
0.569984218876
-1.35635796576e-12
1.5666146489e-26
0.99999973325
1.00000118481
1.00000091996
1
1.00000000005
0.999220829982
0.540125463913
-6.2057840205e-18
2.69264423708e-26
0.999995876132
0.999999356724
0.999999888617
0.999999889759
1
0.999999907516
0.997683089879
0.507231322922
-3.50708140418e-16
-3.57328227252e-09
0.999989333033
0.999996385522
0.999998508932
0.999999178901
0.999999311853
0.99999968684
0.999999548102
0.994946660684
0.472437724745
-5.16225191991e-18
-1.93084185901e-09
0.999983184759
0.999994626823
0.999994946804
0.999995099255
0.999996240066
0.999998627254
0.999998310942
0.990932220102
0.437484923791
-1.49065495155e-15
-1.36845012375e-08
0.999982053441
0.999990139352
0.999991572159
0.999991845653
0.999995895999
0.999995430122
0.985687061827
0.40392347891
-6.33974292652e-17
-6.65803561512e-13
0.999967994491
0.999985614535
0.999987450728
0.999988781222
0.999991874526
0.999991603319
0.979615157093
0.373648666506
-8.47827939536e-17
-1.5086509482e-11
0.999967986786
0.99997594284
0.999983956671
0.999988525652
0.999988795863
0.999988768805
0.972343693004
0.347792123323
-1.97655047748e-13
-1.95326455748e-11
0.999967982933
0.999967986786
0.999984679233
0.999987698153
0.999987898228
0.999987533004
0.964870558914
0.326249013301
-1.72472309446e-11
-5.01318730377e-14
0.999967983486
0.999974746399
0.999983451047
0.999987760314
0.99998913678
0.99998868401
0.957910419448
0.309888766612
-1.66047032154e-13
-1.87137853967e-12
0.99996798399
0.999972222842
0.999984140073
0.999984555459
0.999990561671
0.999989871803
0.999990197552
0.95230539509
0.298667502808
-2.49724110149e-11
-1.44538698642e-11
0.999967985172
0.999982953092
0.999987849927
0.99998753378
0.999990736721
0.999992429481
0.999991730265
0.950111017008
0.290408824833
-2.59911145342e-13
-3.8858737733e-09
0.999981851554
0.999992884783
0.999992884783
0.999992884783
0.999992884769
0.999992880989
0.999992705739
0.953449366853
0.283303645379
-1.35649598921e-12
-1.17079261325e-07
)
;

boundaryField
{
    back
    {
        type            zeroGradient;
    }
    sides
    {
        type            zeroGradient;
    }
    bottom
    {
        type            zeroGradient;
    }
    front
    {
        type            zeroGradient;
    }
    atmosphere
    {
        type            inletOutlet;
        inletValue      uniform 0;
        value           nonuniform List<scalar> 
17
(
0
0
0
0
1.5666146489e-26
0
0
0
0
0
0
0
0
0
0
0
0
)
;
    }
    floatingObject
    {
        type            zeroGradient;
    }
    procBoundary11to9
    {
        type            processor;
        value           nonuniform List<scalar> 9(0.999997290584 0.999996236292 0.999997792102 0.999999841544 0.999999490598 0.999998983146 0.658093310768 0.0173881054011 -1.25386064088e-38);
    }
    procBoundary11to10
    {
        type            processor;
        value           nonuniform List<scalar> 
23
(
0.999999491616
1.00000087532
1.00000087532
1.00000217812
1.00000217812
1.00000087232
1
0.999998356142
0.999998356142
0.999995787492
0.999995787492
0.999992861838
0.999990406212
0.999980712647
0.999980712647
0.999980767241
0.999975495208
0.999971650392
0.999967983797
0.999967983797
0.999968469174
0.999975050475
0.999985970075
)
;
    }
}


// ************************************************************************* //
