/*--------------------------------*- C++ -*----------------------------------*\
| =========                 |                                                 |
| \\      /  F ield         | OpenFOAM: The Open Source CFD Toolbox           |
|  \\    /   O peration     | Version:  v2012                                 |
|   \\  /    A nd           | Website:  www.openfoam.com                      |
|    \\/     M anipulation  |                                                 |
\*---------------------------------------------------------------------------*/
FoamFile
{
    version     2.0;
    format      ascii;
    class       volScalarField;
    location    "0.4";
    object      ddt0(epsilon);
}
// * * * * * * * * * * * * * * * * * * * * * * * * * * * * * * * * * * * * * //

dimensions      [0 2 -4 0 0 0 0];


internalField   nonuniform List<scalar> 
164
(
-0.203065154706
-0.203128547503
-0.203237233272
-0.203406040419
-0.203658246826
-0.204015401118
-0.204500615093
-0.205127571443
-0.206250217156
-0.211404008688
-0.238657670994
-0.307722045223
-0.217175137606
-0.239763992233
-0.205105550301
-0.204553688211
-0.203528193693
-0.203182823163
-0.203198512993
-0.203255955941
-0.203366979901
-0.203540636721
-0.203801497009
-0.204181283915
-0.204710425442
-0.205424099966
-0.20640122183
-0.208284374836
-0.215502424338
-0.247112187399
-0.313421117668
-0.472281210318
-0.239844738095
-0.205232543164
-0.204725166817
-0.203678814885
-0.203372634924
-0.203324699429
-0.203357061492
-0.20344821611
-0.203616482129
-0.203862993496
-0.204227537692
-0.204756002213
-0.20548125095
-0.206439365355
-0.207774383209
-0.210363218309
-0.219008229673
-0.249597441925
-0.307682837045
-0.399887439413
-0.239899222349
-0.205332460111
-0.204872721903
-0.203816486835
-0.20350268306
-0.203459745449
-0.203511129418
-0.203651964018
-0.203895979398
-0.204225034012
-0.204705207654
-0.205405864691
-0.20634447709
-0.20752959257
-0.209147737902
-0.212115629632
-0.221028593607
-0.246705564008
-0.28327459605
-0.327369296499
-0.239926396143
-0.205401190657
-0.204988347957
-0.203935165833
-0.203621192648
-0.203588802981
-0.203681982147
-0.203948589514
-0.204241018206
-0.20467023378
-0.205308467413
-0.206261287267
-0.207469870029
-0.208792573139
-0.210469524341
-0.213411881798
-0.221471732001
-0.240857164822
-0.261791035812
-0.232329870022
-0.239926097528
-0.205435816582
-0.20506587968
-0.204030144724
-0.20372928099
-0.20374335102
-0.204025306862
-0.204652686241
-0.203660573801
-0.203864738162
-0.204807121578
-0.206427898017
-0.208830055583
-0.210603998269
-0.212121170238
-0.214591994784
-0.2208373892
-0.233297487291
-0.2347326484
-0.022285308746
-0.239899737396
-0.205438297918
-0.205104548135
-0.204099112126
-0.203839643715
-0.204019245026
-0.204711136232
-0.20253805323
-0.244142548669
-0.240149594623
-0.24264816584
-0.24921474816
-0.203386338039
-0.211395552264
-0.214155695272
-0.2162049366
-0.220071704637
-0.227675444146
-0.224227706649
-0.0613301700132
-0.239848116346
-0.205416496932
-0.205108164282
-0.204129160718
-0.203894098545
-0.204120940659
-0.20344266809
-0.239210032986
-0.239778306574
-0.205398004428
-0.205112122279
-0.204161392251
-0.203974119938
-0.204322293072
-0.203797648411
-0.237769814805
-0.239778149219
-0.205397888136
-0.205112033068
-0.204161351984
-0.203974151771
-0.204322420604
-0.203797902265
-0.237769943962
-0.239847794486
-0.20541623951
-0.205107960674
-0.204129060723
-0.20389416556
-0.204121226125
-0.203443119159
-0.239210418152
)
;

boundaryField
{
    back
    {
        type            calculated;
        value           nonuniform List<scalar> 
164
(
-0.203065154706
-0.203128547503
-0.203237233272
-0.203406040419
-0.203658246826
-0.204015401118
-0.204500615093
-0.205127571443
-0.206250217156
-0.211404008688
-0.238657670994
-0.307722045223
-0.217175137606
-0.239763992233
-0.205105550301
-0.204553688211
-0.203528193693
-0.203182823163
-0.203198512993
-0.203255955941
-0.203366979901
-0.203540636721
-0.203801497009
-0.204181283915
-0.204710425442
-0.205424099966
-0.20640122183
-0.208284374836
-0.215502424338
-0.247112187399
-0.313421117668
-0.472281210318
-0.239844738095
-0.205232543164
-0.204725166817
-0.203678814885
-0.203372634924
-0.203324699429
-0.203357061492
-0.20344821611
-0.203616482129
-0.203862993496
-0.204227537692
-0.204756002213
-0.20548125095
-0.206439365355
-0.207774383209
-0.210363218309
-0.219008229673
-0.249597441925
-0.307682837045
-0.399887439413
-0.239899222349
-0.205332460111
-0.204872721903
-0.203816486835
-0.20350268306
-0.203459745449
-0.203511129418
-0.203651964018
-0.203895979398
-0.204225034012
-0.204705207654
-0.205405864691
-0.20634447709
-0.20752959257
-0.209147737902
-0.212115629632
-0.221028593607
-0.246705564008
-0.28327459605
-0.327369296499
-0.239926396143
-0.205401190657
-0.204988347957
-0.203935165833
-0.203621192648
-0.203588802981
-0.203681982147
-0.203948589514
-0.204241018206
-0.20467023378
-0.205308467413
-0.206261287267
-0.207469870029
-0.208792573139
-0.210469524341
-0.213411881798
-0.221471732001
-0.240857164822
-0.261791035812
-0.232329870022
-0.239926097528
-0.205435816582
-0.20506587968
-0.204030144724
-0.20372928099
-0.20374335102
-0.204025306862
-0.204652686241
-0.203660573801
-0.203864738162
-0.204807121578
-0.206427898017
-0.208830055583
-0.210603998269
-0.212121170238
-0.214591994784
-0.2208373892
-0.233297487291
-0.2347326484
-0.022285308746
-0.239899737396
-0.205438297918
-0.205104548135
-0.204099112126
-0.203839643715
-0.204019245026
-0.204711136232
-0.20253805323
-0.244142548669
-0.240149594623
-0.24264816584
-0.24921474816
-0.203386338039
-0.211395552264
-0.214155695272
-0.2162049366
-0.220071704637
-0.227675444146
-0.224227706649
-0.0613301700132
-0.239848116346
-0.205416496932
-0.205108164282
-0.204129160718
-0.203894098545
-0.204120940659
-0.20344266809
-0.239210032986
-0.239778306574
-0.205398004428
-0.205112122279
-0.204161392251
-0.203974119938
-0.204322293072
-0.203797648411
-0.237769814805
-0.239778149219
-0.205397888136
-0.205112033068
-0.204161351984
-0.203974151771
-0.204322420604
-0.203797902265
-0.237769943962
-0.239847794486
-0.20541623951
-0.205107960674
-0.204129060723
-0.20389416556
-0.204121226125
-0.203443119159
-0.239210418152
)
;
    }
    sides
    {
        type            calculated;
        value           nonuniform List<scalar> 0();
    }
    bottom
    {
        type            calculated;
        value           nonuniform List<scalar> 10(-0.239763992233 -0.239844738095 -0.239899222349 -0.239926396143 -0.239926097528 -0.239899737396 -0.239848116346 -0.239778306574 -0.239778149219 -0.239847794486);
    }
    front
    {
        type            calculated;
        value           nonuniform List<scalar> 
164
(
-0.203065154706
-0.203128547503
-0.203237233272
-0.203406040419
-0.203658246826
-0.204015401118
-0.204500615093
-0.205127571443
-0.206250217156
-0.211404008688
-0.238657670994
-0.307722045223
-0.217175137606
-0.239763992233
-0.205105550301
-0.204553688211
-0.203528193693
-0.203182823163
-0.203198512993
-0.203255955941
-0.203366979901
-0.203540636721
-0.203801497009
-0.204181283915
-0.204710425442
-0.205424099966
-0.20640122183
-0.208284374836
-0.215502424338
-0.247112187399
-0.313421117668
-0.472281210318
-0.239844738095
-0.205232543164
-0.204725166817
-0.203678814885
-0.203372634924
-0.203324699429
-0.203357061492
-0.20344821611
-0.203616482129
-0.203862993496
-0.204227537692
-0.204756002213
-0.20548125095
-0.206439365355
-0.207774383209
-0.210363218309
-0.219008229673
-0.249597441925
-0.307682837045
-0.399887439413
-0.239899222349
-0.205332460111
-0.204872721903
-0.203816486835
-0.20350268306
-0.203459745449
-0.203511129418
-0.203651964018
-0.203895979398
-0.204225034012
-0.204705207654
-0.205405864691
-0.20634447709
-0.20752959257
-0.209147737902
-0.212115629632
-0.221028593607
-0.246705564008
-0.28327459605
-0.327369296499
-0.239926396143
-0.205401190657
-0.204988347957
-0.203935165833
-0.203621192648
-0.203588802981
-0.203681982147
-0.203948589514
-0.204241018206
-0.20467023378
-0.205308467413
-0.206261287267
-0.207469870029
-0.208792573139
-0.210469524341
-0.213411881798
-0.221471732001
-0.240857164822
-0.261791035812
-0.232329870022
-0.239926097528
-0.205435816582
-0.20506587968
-0.204030144724
-0.20372928099
-0.20374335102
-0.204025306862
-0.204652686241
-0.203660573801
-0.203864738162
-0.204807121578
-0.206427898017
-0.208830055583
-0.210603998269
-0.212121170238
-0.214591994784
-0.2208373892
-0.233297487291
-0.2347326484
-0.022285308746
-0.239899737396
-0.205438297918
-0.205104548135
-0.204099112126
-0.203839643715
-0.204019245026
-0.204711136232
-0.20253805323
-0.244142548669
-0.240149594623
-0.24264816584
-0.24921474816
-0.203386338039
-0.211395552264
-0.214155695272
-0.2162049366
-0.220071704637
-0.227675444146
-0.224227706649
-0.0613301700132
-0.239848116346
-0.205416496932
-0.205108164282
-0.204129160718
-0.203894098545
-0.204120940659
-0.20344266809
-0.239210032986
-0.239778306574
-0.205398004428
-0.205112122279
-0.204161392251
-0.203974119938
-0.204322293072
-0.203797648411
-0.237769814805
-0.239778149219
-0.205397888136
-0.205112033068
-0.204161351984
-0.203974151771
-0.204322420604
-0.203797902265
-0.237769943962
-0.239847794486
-0.20541623951
-0.205107960674
-0.204129060723
-0.20389416556
-0.204121226125
-0.203443119159
-0.239210418152
)
;
    }
    atmosphere
    {
        type            calculated;
        value           nonuniform List<scalar> 7(0 -7.8409117668 -0.346028523026 -3.83857806388e-09 -2.45204635053e-08 1.98793488484e-07 -0.0613301703705);
    }
    floatingObject
    {
        type            calculated;
        value           nonuniform List<scalar> 8(-0.244142548669 -0.240149594623 -0.24264816584 -0.24921474816 -0.239210032986 -0.237769814805 -0.237769943962 -0.239210418152);
    }
    procBoundary3to4
    {
        type            processor;
        value           nonuniform List<scalar> 
13
(
-0.202877330849
-0.202901330726
-0.20295454111
-0.239660025804
-0.204956587353
-0.204366745544
-0.203370453276
-0.203036340829
-0.203036047277
-0.203036047277
-0.203234301002
-0.203234301002
-0.203234301002
)
;
    }
    procBoundary3to5
    {
        type            processor;
        value           nonuniform List<scalar> 10(-0.203045953974 -0.2031914048 -0.203402743398 -0.203678934832 -0.203962937561 -0.204350593797 -0.208278105622 -0.220563576693 -0.223614142425 -0.126847766853);
    }
    procBoundary3to6
    {
        type            processor;
        value           nonuniform List<scalar> 8(-0.25655842632 -0.208977977848 -0.213777918928 -0.216616387476 -0.219616893734 -0.225372334552 -0.223107939774 -0.103504479274);
    }
    procBoundary3to8
    {
        type            processor;
        value           nonuniform List<scalar> 8(-0.239899183782 -0.205437841247 -0.205104179418 -0.20409892333 -0.203839731482 -0.204019682443 -0.204711856594 -0.202538791853);
    }
}


// ************************************************************************* //
