/*--------------------------------*- C++ -*----------------------------------*\
| =========                 |                                                 |
| \\      /  F ield         | OpenFOAM: The Open Source CFD Toolbox           |
|  \\    /   O peration     | Version:  v2012                                 |
|   \\  /    A nd           | Website:  www.openfoam.com                      |
|    \\/     M anipulation  |                                                 |
\*---------------------------------------------------------------------------*/
FoamFile
{
    version     2.0;
    format      ascii;
    class       volScalarField;
    location    "1.9";
    object      k_0;
}
// * * * * * * * * * * * * * * * * * * * * * * * * * * * * * * * * * * * * * //

dimensions      [0 2 -2 0 0 0 0];


internalField   nonuniform List<scalar> 
166
(
0.00689688421777
0.00853051466816
0.00898990071013
0.00912743628098
0.00916884835946
0.00918646623182
0.00920024314181
0.00921487950079
0.0092313949252
0.00925039968493
0.00927396429296
0.00931037170775
0.00938814744834
0.00959124441208
0.0101366803279
0.0115674385874
0.0153034205365
0.0244438185945
0.0426228157577
0.0764352737879
0.00689207373925
0.00852293381489
0.00898043155931
0.00911690528004
0.00915782712216
0.00917519120053
0.00918877185326
0.00920323145067
0.0092195769593
0.00923848992619
0.00926234874378
0.00930043902339
0.009383951663
0.00960203587563
0.0101761860149
0.0116378171623
0.0153835964504
0.0246251755276
0.0432430976347
0.0768095768288
0.00688585412162
0.00851396005848
0.00896980549909
0.00910537322143
0.00914591539581
0.00916312616524
0.00917661980497
0.00919098581894
0.00920727967258
0.00922625860245
0.00925059084132
0.0092905431336
0.00937986227379
0.00961254806538
0.010212855808
0.0116917914603
0.0153841208022
0.0245227505276
0.0432734282807
0.0769082976887
0.00687827000435
0.00850378981696
0.00895813879359
0.00909292440522
0.00913316067439
0.00915028861617
0.00916378966705
0.00917819963394
0.00919456054496
0.00921370426826
0.00923864513584
0.00928059169963
0.00937583893272
0.00962283855939
0.0102477891216
0.0117379601454
0.0153327656504
0.0242115954958
0.0428940108955
0.0768688077904
0.00686930288374
0.00849241005358
0.00894543029542
0.00907956364168
0.00911959298612
0.00913671959611
0.00915029694221
0.00916483561906
0.00918138254297
0.00920083781579
0.00922650586973
0.00927059038032
0.00937184663715
0.00963333903121
0.0102834319819
0.0117826072477
0.0152503763983
0.0237271549961
0.0421133316966
0.0766857222675
0.00685907145156
0.00847994272611
0.00893173558508
0.00906531371912
0.00910523281285
0.00912244766668
0.00913618981708
0.00915093774501
0.00916774494254
0.00918761807401
0.00921414062635
0.00926048052127
0.00936788776771
0.00964441708191
0.0103216672064
0.011834434186
0.0151534707207
0.0230453676025
0.040750985175
0.0761608534142
0.00684776430251
0.00846633414436
0.00891711430095
0.00905025554048
0.00909011566184
0.00910748148156
0.00912146814652
0.00913651397751
0.00915368133256
0.0091740527224
0.00920152102951
0.00925019372412
0.00936386124549
0.00965599530592
0.0103645703225
0.01190151963
0.015046013968
0.0220022064487
0.0379712853682
0.073361281209
0.00683568613334
0.00845153339941
0.00890145756447
0.00903432133986
0.0090742305919
0.00909182687895
0.0091061380996
0.00912155865306
0.009139162056
0.00916010565142
0.0091885828026
0.00923958670058
0.00935936496823
0.00966671597959
0.0104064189486
0.0119647284434
0.0148567421936
0.0201059574189
0.0297794280837
0.0433960110869
0.0068226935329
0.00843552268928
0.00888475530821
0.00680897841427
0.0067944846085
0.00677915179059
)
;

boundaryField
{
    back
    {
        type            kqRWallFunction;
        value           nonuniform List<scalar> 
166
(
0.00689688421777
0.00853051466816
0.00898990071013
0.00912743628098
0.00916884835946
0.00918646623182
0.00920024314181
0.00921487950079
0.0092313949252
0.00925039968493
0.00927396429296
0.00931037170775
0.00938814744834
0.00959124441208
0.0101366803279
0.0115674385874
0.0153034205365
0.0244438185945
0.0426228157577
0.0764352737879
0.00689207373925
0.00852293381489
0.00898043155931
0.00911690528004
0.00915782712216
0.00917519120053
0.00918877185326
0.00920323145067
0.0092195769593
0.00923848992619
0.00926234874378
0.00930043902339
0.009383951663
0.00960203587563
0.0101761860149
0.0116378171623
0.0153835964504
0.0246251755276
0.0432430976347
0.0768095768288
0.00688585412162
0.00851396005848
0.00896980549909
0.00910537322143
0.00914591539581
0.00916312616524
0.00917661980497
0.00919098581894
0.00920727967258
0.00922625860245
0.00925059084132
0.0092905431336
0.00937986227379
0.00961254806538
0.010212855808
0.0116917914603
0.0153841208022
0.0245227505276
0.0432734282807
0.0769082976887
0.00687827000435
0.00850378981696
0.00895813879359
0.00909292440522
0.00913316067439
0.00915028861617
0.00916378966705
0.00917819963394
0.00919456054496
0.00921370426826
0.00923864513584
0.00928059169963
0.00937583893272
0.00962283855939
0.0102477891216
0.0117379601454
0.0153327656504
0.0242115954958
0.0428940108955
0.0768688077904
0.00686930288374
0.00849241005358
0.00894543029542
0.00907956364168
0.00911959298612
0.00913671959611
0.00915029694221
0.00916483561906
0.00918138254297
0.00920083781579
0.00922650586973
0.00927059038032
0.00937184663715
0.00963333903121
0.0102834319819
0.0117826072477
0.0152503763983
0.0237271549961
0.0421133316966
0.0766857222675
0.00685907145156
0.00847994272611
0.00893173558508
0.00906531371912
0.00910523281285
0.00912244766668
0.00913618981708
0.00915093774501
0.00916774494254
0.00918761807401
0.00921414062635
0.00926048052127
0.00936788776771
0.00964441708191
0.0103216672064
0.011834434186
0.0151534707207
0.0230453676025
0.040750985175
0.0761608534142
0.00684776430251
0.00846633414436
0.00891711430095
0.00905025554048
0.00909011566184
0.00910748148156
0.00912146814652
0.00913651397751
0.00915368133256
0.0091740527224
0.00920152102951
0.00925019372412
0.00936386124549
0.00965599530592
0.0103645703225
0.01190151963
0.015046013968
0.0220022064487
0.0379712853682
0.073361281209
0.00683568613334
0.00845153339941
0.00890145756447
0.00903432133986
0.0090742305919
0.00909182687895
0.0091061380996
0.00912155865306
0.009139162056
0.00916010565142
0.0091885828026
0.00923958670058
0.00935936496823
0.00966671597959
0.0104064189486
0.0119647284434
0.0148567421936
0.0201059574189
0.0297794280837
0.0433960110869
0.0068226935329
0.00843552268928
0.00888475530821
0.00680897841427
0.0067944846085
0.00677915179059
)
;
    }
    sides
    {
        type            kqRWallFunction;
        value           nonuniform List<scalar> 0();
    }
    bottom
    {
        type            kqRWallFunction;
        value           nonuniform List<scalar> 
12
(
0.00689688421777
0.00689207373925
0.00688585412162
0.00687827000435
0.00686930288374
0.00685907145156
0.00684776430251
0.00683568613334
0.0068226935329
0.00680897841427
0.0067944846085
0.00677915179059
)
;
    }
    front
    {
        type            kqRWallFunction;
        value           nonuniform List<scalar> 
166
(
0.00689688421777
0.00853051466816
0.00898990071013
0.00912743628098
0.00916884835946
0.00918646623182
0.00920024314181
0.00921487950079
0.0092313949252
0.00925039968493
0.00927396429296
0.00931037170775
0.00938814744834
0.00959124441208
0.0101366803279
0.0115674385874
0.0153034205365
0.0244438185945
0.0426228157577
0.0764352737879
0.00689207373925
0.00852293381489
0.00898043155931
0.00911690528004
0.00915782712216
0.00917519120053
0.00918877185326
0.00920323145067
0.0092195769593
0.00923848992619
0.00926234874378
0.00930043902339
0.009383951663
0.00960203587563
0.0101761860149
0.0116378171623
0.0153835964504
0.0246251755276
0.0432430976347
0.0768095768288
0.00688585412162
0.00851396005848
0.00896980549909
0.00910537322143
0.00914591539581
0.00916312616524
0.00917661980497
0.00919098581894
0.00920727967258
0.00922625860245
0.00925059084132
0.0092905431336
0.00937986227379
0.00961254806538
0.010212855808
0.0116917914603
0.0153841208022
0.0245227505276
0.0432734282807
0.0769082976887
0.00687827000435
0.00850378981696
0.00895813879359
0.00909292440522
0.00913316067439
0.00915028861617
0.00916378966705
0.00917819963394
0.00919456054496
0.00921370426826
0.00923864513584
0.00928059169963
0.00937583893272
0.00962283855939
0.0102477891216
0.0117379601454
0.0153327656504
0.0242115954958
0.0428940108955
0.0768688077904
0.00686930288374
0.00849241005358
0.00894543029542
0.00907956364168
0.00911959298612
0.00913671959611
0.00915029694221
0.00916483561906
0.00918138254297
0.00920083781579
0.00922650586973
0.00927059038032
0.00937184663715
0.00963333903121
0.0102834319819
0.0117826072477
0.0152503763983
0.0237271549961
0.0421133316966
0.0766857222675
0.00685907145156
0.00847994272611
0.00893173558508
0.00906531371912
0.00910523281285
0.00912244766668
0.00913618981708
0.00915093774501
0.00916774494254
0.00918761807401
0.00921414062635
0.00926048052127
0.00936788776771
0.00964441708191
0.0103216672064
0.011834434186
0.0151534707207
0.0230453676025
0.040750985175
0.0761608534142
0.00684776430251
0.00846633414436
0.00891711430095
0.00905025554048
0.00909011566184
0.00910748148156
0.00912146814652
0.00913651397751
0.00915368133256
0.0091740527224
0.00920152102951
0.00925019372412
0.00936386124549
0.00965599530592
0.0103645703225
0.01190151963
0.015046013968
0.0220022064487
0.0379712853682
0.073361281209
0.00683568613334
0.00845153339941
0.00890145756447
0.00903432133986
0.0090742305919
0.00909182687895
0.0091061380996
0.00912155865306
0.009139162056
0.00916010565142
0.0091885828026
0.00923958670058
0.00935936496823
0.00966671597959
0.0104064189486
0.0119647284434
0.0148567421936
0.0201059574189
0.0297794280837
0.0433960110869
0.0068226935329
0.00843552268928
0.00888475530821
0.00680897841427
0.0067944846085
0.00677915179059
)
;
    }
    atmosphere
    {
        type            inletOutlet;
        inletValue      uniform 0.1;
        value           uniform 0.1;
    }
    floatingObject
    {
        type            kqRWallFunction;
        value           nonuniform List<scalar> 0();
    }
    procBoundary9to6
    {
        type            processor;
        value           nonuniform List<scalar> 4(0.0151291373909 0.0239325765647 0.0410201402813 0.0748213411316);
    }
    procBoundary9to7
    {
        type            processor;
        value           nonuniform List<scalar> 
16
(
0.00690003656648
0.00853661576646
0.00899808923575
0.00913685616006
0.00917887656594
0.00919684513982
0.00921091468224
0.00922585533141
0.00924269946415
0.00926196226266
0.00928541937656
0.00932035409053
0.00939257220745
0.00958032056557
0.0100938163721
0.0114753573755
)
;
    }
    procBoundary9to10
    {
        type            processor;
        value           nonuniform List<scalar> 
15
(
0.00901749574396
0.0090575861718
0.00907551143328
0.00909021898098
0.00910608218506
0.00912418588155
0.00914576488218
0.00917524963385
0.00841839934298
0.00901749574396
0.0088671010968
0.00841839934298
0.00840026596818
0.00838116454956
0.00676295787659
)
;
    }
    procBoundary9to11
    {
        type            processor;
        value           nonuniform List<scalar> 9(0.00922846154796 0.00935359108072 0.0096727979342 0.0104315656057 0.0119866576368 0.0146831794075 0.0189189899464 0.0254351629541 0.0336704150401);
    }
}


// ************************************************************************* //
