/*--------------------------------*- C++ -*----------------------------------*\
| =========                 |                                                 |
| \\      /  F ield         | OpenFOAM: The Open Source CFD Toolbox           |
|  \\    /   O peration     | Version:  v2012                                 |
|   \\  /    A nd           | Website:  www.openfoam.com                      |
|    \\/     M anipulation  |                                                 |
\*---------------------------------------------------------------------------*/
FoamFile
{
    version     2.0;
    format      ascii;
    class       volScalarField;
    location    "1.7";
    object      p;
}
// * * * * * * * * * * * * * * * * * * * * * * * * * * * * * * * * * * * * * //

dimensions      [1 -1 -2 0 0 0 0];


internalField   nonuniform List<scalar> 
164
(
5170.71096998
4687.19349156
4204.52749758
3722.70051453
3241.66998073
2761.33727261
2281.4941316
1801.45730874
1325.71059205
843.712052176
365.742968247
56.1524112944
-13.3962112373
8582.8033089
8094.05169213
7605.73378562
7118.2654402
6145.65062271
5660.57361305
5176.37064571
4693.05282868
4210.60590016
3728.9941142
3248.14987668
2767.95534459
2288.25077567
1808.85951159
1330.56474075
850.039098074
374.72867578
62.1793751517
-11.8478026287
8587.23140303
8098.48323377
7610.17372832
7122.71988326
6636.04250943
6150.18055659
5665.1884093
5181.1292019
4698.0140815
4215.80915732
3734.4652377
3253.90511103
2773.98765857
2294.4900054
1815.27050076
1336.3835376
856.684501429
378.50081597
62.9894552731
-12.2003924833
8590.94407416
8102.18972868
7613.86487005
7126.391744
6639.69480039
6153.82520072
5668.86031506
5184.92393703
4702.03892654
4220.1087002
3739.10010784
3258.94066811
2779.46040375
2300.22023989
1821.11853838
1342.16722844
862.627599201
381.778549972
62.5080335672
-15.4619924713
8593.94859453
8105.17673829
7616.81122884
7129.27868988
6642.50028925
6156.53246734
5671.4542937
5187.50920888
4704.88246749
4223.33669825
3742.76864793
3263.18035198
2784.4576627
2305.49185928
1826.48686765
1347.87700896
869.304038998
393.735098118
49.6472931377
-27.4915037295
8596.26692135
8107.46420278
7619.03323593
7131.40331325
6644.49281653
6158.37666545
5673.00400797
5189.08051528
4707.01152929
4225.70923946
3745.42151171
3266.38491108
2789.1091185
2310.18454518
1831.05662715
1352.69329543
873.602573367
409.991335006
-97.448302558
-94.2687430266
8597.91660638
8109.07298925
7620.54376208
7132.7534656
6645.61875395
6159.28380377
5673.80169864
5189.42413907
4707.4839321
4226.98703121
3747.40457347
3269.44255819
2794.91803488
2314.5008279
1835.22391311
1358.58624744
884.383237534
419.500576908
71.3816418286
-37.4515018906
8598.95202178
8110.08447022
7621.4378208
7133.43090577
6645.7822177
6158.76723677
5670.39667616
5183.26515691
8599.41336761
8110.55695361
7621.83806256
7133.74717927
6645.97292844
6158.98859002
5670.3807482
5182.57973114
8599.40777093
8110.55141353
7621.83266887
7133.74212368
6645.96842575
6158.9850715
5670.37866792
5182.5787029
8598.93562419
8110.06827457
7621.42214922
7133.41628233
6645.76889098
6158.75715933
5670.38958438
5183.26133083
)
;

boundaryField
{
    back
    {
        type            calculated;
        value           nonuniform List<scalar> 
164
(
5170.71096998
4687.19349156
4204.52749758
3722.70051453
3241.66998073
2761.33727261
2281.4941316
1801.45730874
1325.71059205
843.712052176
365.742968247
56.1524112944
-13.3962112373
8582.8033089
8094.05169213
7605.73378562
7118.2654402
6145.65062271
5660.57361305
5176.37064571
4693.05282868
4210.60590016
3728.9941142
3248.14987668
2767.95534459
2288.25077567
1808.85951159
1330.56474075
850.039098074
374.72867578
62.1793751517
-11.8478026287
8587.23140303
8098.48323377
7610.17372832
7122.71988326
6636.04250943
6150.18055659
5665.1884093
5181.1292019
4698.0140815
4215.80915732
3734.4652377
3253.90511103
2773.98765857
2294.4900054
1815.27050076
1336.3835376
856.684501429
378.50081597
62.9894552731
-12.2003924833
8590.94407416
8102.18972868
7613.86487005
7126.391744
6639.69480039
6153.82520072
5668.86031506
5184.92393703
4702.03892654
4220.1087002
3739.10010784
3258.94066811
2779.46040375
2300.22023989
1821.11853838
1342.16722844
862.627599201
381.778549972
62.5080335672
-15.4619924713
8593.94859453
8105.17673829
7616.81122884
7129.27868988
6642.50028925
6156.53246734
5671.4542937
5187.50920888
4704.88246749
4223.33669825
3742.76864793
3263.18035198
2784.4576627
2305.49185928
1826.48686765
1347.87700896
869.304038998
393.735098118
49.6472931377
-27.4915037295
8596.26692135
8107.46420278
7619.03323593
7131.40331325
6644.49281653
6158.37666545
5673.00400797
5189.08051528
4707.01152929
4225.70923946
3745.42151171
3266.38491108
2789.1091185
2310.18454518
1831.05662715
1352.69329543
873.602573367
409.991335006
-97.448302558
-94.2687430266
8597.91660638
8109.07298925
7620.54376208
7132.7534656
6645.61875395
6159.28380377
5673.80169864
5189.42413907
4707.4839321
4226.98703121
3747.40457347
3269.44255819
2794.91803488
2314.5008279
1835.22391311
1358.58624744
884.383237534
419.500576908
71.3816418286
-37.4515018906
8598.95202178
8110.08447022
7621.4378208
7133.43090577
6645.7822177
6158.76723677
5670.39667616
5183.26515691
8599.41336761
8110.55695361
7621.83806256
7133.74717927
6645.97292844
6158.98859002
5670.3807482
5182.57973114
8599.40777093
8110.55141353
7621.83266887
7133.74212368
6645.96842575
6158.9850715
5670.37866792
5182.5787029
8598.93562419
8110.06827457
7621.42214922
7133.41628233
6645.76889098
6158.75715933
5670.38958438
5183.26133083
)
;
    }
    sides
    {
        type            calculated;
        value           nonuniform List<scalar> 0();
    }
    bottom
    {
        type            calculated;
        value           nonuniform List<scalar> 10(8827.61176345 8832.03987098 8835.75258741 8838.75710748 8841.07541014 8842.72512508 8843.76056547 8844.22193441 8844.21635616 8843.74420583);
    }
    front
    {
        type            calculated;
        value           nonuniform List<scalar> 
164
(
5170.71096998
4687.19349156
4204.52749758
3722.70051453
3241.66998073
2761.33727261
2281.4941316
1801.45730874
1325.71059205
843.712052176
365.742968247
56.1524112944
-13.3962112373
8582.8033089
8094.05169213
7605.73378562
7118.2654402
6145.65062271
5660.57361305
5176.37064571
4693.05282868
4210.60590016
3728.9941142
3248.14987668
2767.95534459
2288.25077567
1808.85951159
1330.56474075
850.039098074
374.72867578
62.1793751517
-11.8478026287
8587.23140303
8098.48323377
7610.17372832
7122.71988326
6636.04250943
6150.18055659
5665.1884093
5181.1292019
4698.0140815
4215.80915732
3734.4652377
3253.90511103
2773.98765857
2294.4900054
1815.27050076
1336.3835376
856.684501429
378.50081597
62.9894552731
-12.2003924833
8590.94407416
8102.18972868
7613.86487005
7126.391744
6639.69480039
6153.82520072
5668.86031506
5184.92393703
4702.03892654
4220.1087002
3739.10010784
3258.94066811
2779.46040375
2300.22023989
1821.11853838
1342.16722844
862.627599201
381.778549972
62.5080335672
-15.4619924713
8593.94859453
8105.17673829
7616.81122884
7129.27868988
6642.50028925
6156.53246734
5671.4542937
5187.50920888
4704.88246749
4223.33669825
3742.76864793
3263.18035198
2784.4576627
2305.49185928
1826.48686765
1347.87700896
869.304038998
393.735098118
49.6472931377
-27.4915037295
8596.26692135
8107.46420278
7619.03323593
7131.40331325
6644.49281653
6158.37666545
5673.00400797
5189.08051528
4707.01152929
4225.70923946
3745.42151171
3266.38491108
2789.1091185
2310.18454518
1831.05662715
1352.69329543
873.602573367
409.991335006
-97.448302558
-94.2687430266
8597.91660638
8109.07298925
7620.54376208
7132.7534656
6645.61875395
6159.28380377
5673.80169864
5189.42413907
4707.4839321
4226.98703121
3747.40457347
3269.44255819
2794.91803488
2314.5008279
1835.22391311
1358.58624744
884.383237534
419.500576908
71.3816418286
-37.4515018906
8598.95202178
8110.08447022
7621.4378208
7133.43090577
6645.7822177
6158.76723677
5670.39667616
5183.26515691
8599.41336761
8110.55695361
7621.83806256
7133.74717927
6645.97292844
6158.98859002
5670.3807482
5182.57973114
8599.40777093
8110.55141353
7621.83266887
7133.74212368
6645.96842575
6158.9850715
5670.37866792
5182.5787029
8598.93562419
8110.06827457
7621.42214922
7133.41628233
6645.76889098
6158.75715933
5670.38958438
5183.26133083
)
;
    }
    atmosphere
    {
        type            calculated;
        value           nonuniform List<scalar> 7(-9.92885968076 -9.87014374634 -9.87053168616 -9.94599106117 -10.0624552661 -1414.09888715 -10.4282120819);
    }
    floatingObject
    {
        type            calculated;
        value           nonuniform List<scalar> 8(4707.4839321 4226.98703121 3747.40457347 3269.44255819 4938.45660644 4937.77117879 4937.77016594 4938.45279243);
    }
    procBoundary3to4
    {
        type            processor;
        value           nonuniform List<scalar> 
13
(
5164.18716522
4680.4565544
4197.57352582
8577.66280774
8088.9023014
7600.55336335
7113.0424431
6140.27627981
5655.07752342
5655.07752342
6631.56061005
6631.56061005
6631.56061005
)
;
    }
    procBoundary3to5
    {
        type            processor;
        value           nonuniform List<scalar> 10(3715.55646694 3234.41814415 2754.14717284 2274.61432475 1792.08952513 1322.56474686 840.709074827 369.683650672 51.4346355767 -18.4828613254);
    }
    procBoundary3to6
    {
        type            processor;
        value           nonuniform List<scalar> 8(2803.19846303 2318.85601884 1837.48079488 1357.44012937 873.413979272 385.082468539 21.8171580146 -44.759510803);
    }
    procBoundary3to8
    {
        type            processor;
        value           nonuniform List<scalar> 8(8597.89023347 8109.04698487 7620.51882261 7132.73074284 6645.6000122 6159.26908485 5673.79282476 5189.42183643);
    }
}


// ************************************************************************* //
