/*--------------------------------*- C++ -*----------------------------------*\
| =========                 |                                                 |
| \\      /  F ield         | OpenFOAM: The Open Source CFD Toolbox           |
|  \\    /   O peration     | Version:  v2012                                 |
|   \\  /    A nd           | Website:  www.openfoam.com                      |
|    \\/     M anipulation  |                                                 |
\*---------------------------------------------------------------------------*/
FoamFile
{
    version     2.0;
    format      ascii;
    class       volScalarField;
    location    "3";
    object      alpha.water;
}
// * * * * * * * * * * * * * * * * * * * * * * * * * * * * * * * * * * * * * //

dimensions      [0 0 0 0 0 0 0];


internalField   nonuniform List<scalar> 
164
(
1.00001175255
1.00000766989
1.00000323994
1
0.969085843572
0.395047890222
-7.43896371224e-07
2.71104555847e-06
1.00000856463
1.00000314813
0.999998863684
1
0.965946955641
0.40234445948
0.000204069297731
2.57044946546e-05
1.00000924015
1.0000026527
0.999998570518
0.999999999983
0.965946455523
0.402353219826
0.000203951887991
2.58054965514e-05
1.00000899187
1.00000401468
1.00000207862
1
0.969082934357
0.395054261793
-7.40691751479e-07
2.70003271928e-06
1.00000219942
1.00000000055
0.975163347208
0.384950033247
-3.6483948749e-10
-9.43244385702e-07
0.999997611376
1
0.97926313829
0.363814733706
0.000220802976066
-2.97298202159e-08
0.999995398728
1
0.97905519973
0.32662684203
0.000571283824891
0.000139149526027
0.999995468012
0.999999841263
0.97547930962
0.290839612234
0.00026068510263
8.4129786485e-05
0.999998085479
0.999999523795
0.972373490996
0.270158160546
8.4127117272e-05
1.61616143335e-05
0.999993434606
0.999999364461
0.973892210819
0.270116007818
1.61625320785e-05
3.94689211048e-07
0.999992219864
0.999999363253
0.9765893968
0.291384094377
3.87542179441e-07
-1.00447516785e-10
0.999990623218
0.99999935757
0.980077042848
0.324896949268
2.58573572154e-07
-7.73117241814e-11
0.99999227015
0.999999347414
0.982878167555
0.364103388985
1.55316207297e-07
1.87103659112e-23
0.999992606732
0.999999342321
0.985094735566
0.404689144378
7.22615292513e-07
1.59829847221e-07
0.999992385948
0.999999342287
0.98827798238
0.443144091513
0.000435318642304
4.1069337191e-07
0.999992709197
0.999999329907
0.995093398626
0.476512917958
0.00423973021574
7.52918175337e-23
0.999994985322
0.999999284382
0.999054745187
0.510627565575
0.00746158315
-1.07705808926e-25
0.999995378756
0.999999183489
0.999493014212
0.548189331205
0.00894275219991
9.53914377876e-26
0.999993208335
0.999996854151
0.999910718358
0.587535915421
0.0127284870319
1.14998401107e-29
0.999993957854
0.999996065172
0.99999508016
0.629249284839
0.019714687006
4.48774204223e-30
0.999995265261
0.99999661113
0.99999553833
0.668853936127
0.0298783904589
-6.60228353989e-20
0.99999527485
0.999998253341
0.999996597654
0.70193070476
0.0416384912507
-1.61847996831e-21
0.999996398501
0.999999439961
0.999998312952
0.727101132597
0.0539194091797
0
0.999998558753
0.99999999663
0.999999612725
0.741737370615
0.063006516953
4.70573859586e-24
1.0000000001
0.749937569056
0.0693123565446
6.0233454027e-22
0.999999989166
0.754893205888
0.0725820167658
-1.39235294037e-19
0.999999981259
0.761233080849
0.0731145845948
0
)
;

boundaryField
{
    back
    {
        type            zeroGradient;
    }
    sides
    {
        type            zeroGradient;
    }
    bottom
    {
        type            zeroGradient;
    }
    front
    {
        type            zeroGradient;
    }
    atmosphere
    {
        type            inletOutlet;
        inletValue      uniform 0;
        value           nonuniform List<scalar> 
27
(
0
2.57044946546e-05
2.58054965514e-05
0
0
-2.97298202159e-08
0.000139149526027
8.4129786485e-05
1.61616143335e-05
3.94689211048e-07
0
0
0
1.59829847221e-07
4.1069337191e-07
7.52918175337e-23
0
9.53914377876e-26
0
0
0
0
0
4.70573859586e-24
6.0233454027e-22
-1.39235294037e-19
0
)
;
    }
    floatingObject
    {
        type            zeroGradient;
    }
    procBoundary6to3
    {
        type            processor;
        value           nonuniform List<scalar> 8(1.00000556003 1.00000360015 1.00000202274 1 0.975173369451 0.384921884191 -3.65095899237e-10 -9.43974973614e-07);
    }
    procBoundary6to7
    {
        type            processor;
        value           nonuniform List<scalar> 
11
(
0.999991949427
0.999992683135
0.999996060801
0.999996600565
0.999997045957
0.999999415106
1.00000035562
1.00000000102
1.00000000102
1
1.00000000021
)
;
    }
    procBoundary6to8
    {
        type            processor;
        value           nonuniform List<scalar> 
16
(
1.00000960671
1.000006647
1.000006647
0.99999942572
0.999997116851
0.999992363243
0.999985109792
0.99998188422
0.9999818866
0.999981972679
0.999988096116
0.999990124788
0.999993646097
0.999996109736
0.999994075754
0.999991949427
)
;
    }
    procBoundary6to9
    {
        type            processor;
        value           nonuniform List<scalar> 4(0.999999985849 0.770704805091 0.0740016438794 -6.89128436609e-21);
    }
}


// ************************************************************************* //
