/*--------------------------------*- C++ -*----------------------------------*\
| =========                 |                                                 |
| \\      /  F ield         | OpenFOAM: The Open Source CFD Toolbox           |
|  \\    /   O peration     | Version:  v2012                                 |
|   \\  /    A nd           | Website:  www.openfoam.com                      |
|    \\/     M anipulation  |                                                 |
\*---------------------------------------------------------------------------*/
FoamFile
{
    version     2.0;
    format      ascii;
    class       surfaceScalarField;
    location    "3";
    object      alphaPhi0.water;
}
// * * * * * * * * * * * * * * * * * * * * * * * * * * * * * * * * * * * * * //

dimensions      [0 3 -1 0 0 0 0];
oriented        oriented;


internalField   nonuniform List<scalar> 
293
(
0.000132345776275
2.74766871181e-05
0.000256550242107
8.6128701205e-05
0.000358332235518
0.000135307521472
0.000459030789656
0.000193489196086
0.000420002951016
0.000166544536829
-6.28020155158e-07
5.05690108647e-05
1.26805165687e-07
3.46796771006e-07
6.2599421555e-07
2.74955993373e-05
8.95869403034e-09
0.000113616786221
3.31486873007e-08
0.000248876672093
6.59779782509e-08
0.00044219801262
1.1862599062e-07
0.000443596726535
1.39330770432e-07
-1.13303048284e-06
2.82996827286e-08
-3.6781094471e-08
-1.71597293062e-09
-3.82836887607e-10
2.74788811045e-05
-2.74374539282e-05
0.000113582286982
-8.6043153696e-05
0.000248839231131
-0.000135171967883
0.000442196993609
-0.000193288089844
0.000443616948594
-0.000166292638184
-1.14557044101e-06
-5.04802770608e-05
-4.05966243441e-08
-3.49285701214e-07
-6.21399773283e-07
0.000132311875075
0.000256494129781
0.000358281895296
-0.000236938131495
0.000459049079531
-0.000294062629183
0.000420068354076
-0.000282768827457
-6.26457097095e-07
-0.000107550101576
1.24890029484e-07
-4.48300863876e-07
-1.60172340527e-07
0.000454852694145
-0.000257803283514
0.000496754670323
-0.000335954070267
0.000421994574958
-0.000358327392121
-2.67616770255e-07
-0.000137567445765
-3.91954739564e-07
-2.6116894301e-07
-1.88856879068e-07
0.000493485122559
-0.000284444474832
0.000529881950707
-0.000372339343187
0.000431308151315
-0.000408731486662
3.81330679717e-06
-0.000159793727005
-1.24102780929e-07
-3.55043860668e-07
-2.28711063727e-07
0.000500772268152
-0.000321080418565
0.000538113079691
-0.000409680184168
0.000432143630291
-0.000458865820386
7.30754471995e-06
-0.000189897181402
2.75789727814e-06
-1.20443900728e-06
-3.80302759741e-07
0.000474919789097
-0.000358817005474
0.000510166223831
-0.000444933254081
0.00039826938038
-0.000501309510533
2.18973255142e-06
-0.000208167678936
1.26151443201e-06
-2.18298137103e-06
-3.28741223083e-07
0.00042896120094
-0.000394160232279
0.000455971984371
-0.00047194013894
0.000337593935236
-0.000526874116141
1.39653532134e-06
-0.000227745053922
5.21392043536e-07
-2.23877309488e-06
-7.13723062282e-08
0.000368987776476
-0.000421122558263
0.000375564197121
-0.000478512473691
0.000258659694192
-0.00052273288613
1.12378409702e-06
-0.000232701618678
7.28394977851e-08
-1.45289796064e-06
-5.6616931949e-09
0.000300455543145
-0.000436507872454
0.000295919753863
-0.000473971713211
0.000194382143742
-0.000504718659077
6.12571882716e-07
-0.000236820784467
5.41300103269e-09
-8.51989017449e-07
-2.30320225401e-10
0.000233132136181
-0.000441737189611
0.000226555924164
-0.000467388343107
0.000147794208232
-0.000486222288615
3.53551877706e-07
-0.000236638768586
5.90204393905e-10
-5.03962791053e-07
1.21042230554e-10
0.000174989359572
-0.000445404007817
0.000177645781071
-0.000470038631763
0.000120909343838
-0.000475062836904
1.67373383014e-07
-0.000232330883344
3.27446157122e-09
-3.4305784476e-07
4.57116829868e-11
0.000127703876111
-0.000446143341535
0.000134739839341
-0.00047707204933
9.37667028144e-05
-0.000467039364708
8.9451004444e-08
-0.000231636597387
2.78992565735e-09
-2.68252229533e-07
1.85160950083e-10
8.46869840826e-05
-0.000441157413208
8.31766092907e-05
-0.000475562268172
5.77146082863e-05
-0.000462948464143
7.22303667913e-07
-0.000244879651083
1.29432097635e-08
-2.6613014945e-06
3.62829532204e-09
3.52389949567e-05
-0.000427261954222
2.05638719894e-05
-0.00046088732933
1.48515575778e-05
-0.000464926164432
8.38870148041e-07
-0.000268672582375
-8.39577499147e-08
-7.12543474497e-06
-6.50035121483e-10
-6.91748581667e-06
-0.000408511047504
-2.24999234779e-05
-0.000445307940598
-5.61045557321e-06
-0.000481360652088
-2.31550039742e-07
-0.000292981553192
-5.85093079993e-08
-7.6969557397e-06
-2.68021260187e-08
-3.57594283685e-05
-0.000385406081081
-5.20434156087e-05
-0.000429023050069
-4.25712885618e-05
-0.000489460199863
-9.06512288658e-06
-0.000314538659479
2.66919243389e-08
-1.12939931492e-05
-5.76902286929e-11
-4.99971340691e-05
-0.000361101545343
-7.23363305314e-05
-0.000406686109572
-8.00425923978e-05
-0.000481095319033
-2.18197294299e-05
-0.000329857558736
-1.07222572209e-07
-1.80737552998e-05
-2.40075358022e-11
-4.85692185069e-05
-0.000341809918881
-7.29373205311e-05
-0.000382302691386
-0.000100848422592
-0.000453187234437
-3.73192099915e-05
-0.000328202091405
-1.50136468108e-08
-2.59674096147e-05
2.15000471394e-09
-4.22229756384e-05
-0.000329100011583
-6.51479302209e-05
-0.000359345501089
-0.000105286360944
-0.000413024838381
-4.87081378444e-05
-0.00030948529431
-4.69363187798e-08
-3.25407250531e-05
2.04632024142e-08
-4.01549863836e-05
-0.000320503779944
-5.98000118592e-05
-0.000339685065924
-9.70842258382e-05
-0.000375699295695
-4.99662363629e-05
-0.00028447183979
-6.66723549558e-07
-3.6175599404e-05
-6.36752378669e-09
-4.19424489041e-05
-0.000314807681635
-5.44172858874e-05
-0.00032720687584
-7.83699404841e-05
-0.000351718309273
-4.19489145142e-05
-0.000270518629338
5.69229197355e-08
-3.90833353371e-05
-2.29210730109e-08
-4.73718414581e-05
-5.40327213691e-05
-6.50868120696e-05
-0.000340650710529
-2.88853476559e-05
-0.000270406447609
8.07904945445e-08
-4.48558298971e-05
-2.28952642447e-08
-6.30352195369e-05
-0.000335708902788
-2.24025463551e-05
-0.000279257869547
1.08124429447e-07
-5.08150856518e-05
1.31422939526e-08
-6.95472095327e-05
-0.000334195591688
-2.5680557875e-05
-0.000288217744235
-3.16299559924e-07
-5.31223315117e-05
-1.21685553534e-08
-8.58697780286e-05
-3.88927381837e-05
-4.13268092934e-07
)
;

boundaryField
{
    back
    {
        type            calculated;
        value           uniform 0;
    }
    sides
    {
        type            calculated;
        value           nonuniform List<scalar> 0();
    }
    bottom
    {
        type            calculated;
        value           nonuniform List<scalar> 0();
    }
    front
    {
        type            calculated;
        value           uniform 0;
    }
    atmosphere
    {
        type            calculated;
        value           nonuniform List<scalar> 
27
(
-2.88450729475e-07
8.56788533591e-07
8.53622616338e-07
-2.85628503476e-07
-4.15588391229e-07
-2.68023373382e-08
5.54154174716e-07
2.8542987614e-07
-2.41736885962e-09
4.55415892244e-10
-1.49096435367e-11
2.39669708903e-10
3.34613629827e-09
-4.58083426077e-11
2.56882046255e-09
-7.9679461342e-08
-3.23568570524e-08
-8.58956177023e-11
-1.07180898767e-07
-1.94012187783e-08
-5.67682705768e-08
-6.17508429567e-07
-3.10579594222e-08
-1.89332215662e-07
-2.07515160925e-07
-2.43868871695e-08
-6.63749688555e-07
)
;
    }
    floatingObject
    {
        type            calculated;
        value           uniform 0;
    }
    procBoundary6to3
    {
        type            processor;
        value           nonuniform List<scalar> 8(-0.000159782629167 -0.000210294208907 -0.000237057183609 -0.00029419763181 -0.000282934417737 -0.000107642557554 -4.52030741644e-07 -1.60656108417e-07);
    }
    procBoundary6to7
    {
        type            processor;
        value           nonuniform List<scalar> 
11
(
2.56937111034e-05
2.92781710699e-05
2.95120076078e-05
3.15578720153e-05
3.62441352078e-05
4.30348179326e-05
-0.000310473273043
-0.000320552917854
5.81096215063e-05
6.8024986042e-05
7.77717822893e-05
)
;
    }
    procBoundary6to8
    {
        type            processor;
        value           nonuniform List<scalar> 
16
(
-0.000159715397319
-0.000210196540143
-0.000433949253081
-0.000466810514508
-0.000464105939792
-0.000437158753495
-0.000393600180493
-0.000342014052691
-0.000285068972727
-0.000227897685375
-0.000171319631241
-0.000126962673119
-8.96708794757e-05
-4.91320072347e-05
-1.18338145431e-05
1.2654990545e-05
)
;
    }
    procBoundary6to9
    {
        type            processor;
        value           nonuniform List<scalar> 4(-0.000326106471352 -0.000281332387466 -5.07623175795e-05 2.89002897027e-08);
    }
}


// ************************************************************************* //
