/*--------------------------------*- C++ -*----------------------------------*\
| =========                 |                                                 |
| \\      /  F ield         | OpenFOAM: The Open Source CFD Toolbox           |
|  \\    /   O peration     | Version:  v2012                                 |
|   \\  /    A nd           | Website:  www.openfoam.com                      |
|    \\/     M anipulation  |                                                 |
\*---------------------------------------------------------------------------*/
FoamFile
{
    version     2.0;
    format      ascii;
    class       volScalarField;
    location    "3";
    object      k_0;
}
// * * * * * * * * * * * * * * * * * * * * * * * * * * * * * * * * * * * * * //

dimensions      [0 2 -2 0 0 0 0];


internalField   nonuniform List<scalar> 
164
(
0.00433584432267
0.00567968535528
0.00774869559208
0.0113336309582
0.0162780114074
0.0220076950284
0.0310204360349
0.0735440350249
0.00466947413848
0.00672271625989
0.00940036977958
0.0129244280305
0.0170877899563
0.0218196120096
0.0297600533361
0.0578071220249
0.00466989127278
0.00672366929171
0.00940191436924
0.0129262194229
0.0170894176254
0.0218215264588
0.0297657563127
0.0578339450738
0.00433630913335
0.0056808741579
0.00775063893836
0.011335893568
0.0162804982607
0.0220123328832
0.0310329348566
0.0735681176415
0.00697081690849
0.0103423525333
0.0155317718746
0.0220063985781
0.0313682625395
0.0719244275557
0.00662485377356
0.00964139663288
0.0147994258486
0.0220753973573
0.0319978380326
0.0600653575867
0.00624796974476
0.00894205565708
0.0141312269886
0.022358430541
0.0336289802002
0.0491796913693
0.00597052390633
0.0083998969784
0.0135989850658
0.0226563772635
0.0362346638353
0.0551800331759
0.00577728196774
0.00798593001101
0.0131080662224
0.0225867585909
0.0380908099698
0.0624276136647
0.00567177598074
0.00770568706409
0.0125832256501
0.0218035708798
0.0383192970028
0.0677710949282
0.00569118590479
0.00761927117781
0.0120436390134
0.0204174358252
0.0372156579976
0.0716013949282
0.00583056295585
0.00771752747668
0.0116217856289
0.0189869478349
0.0354314409352
0.0739429640165
0.00604268580337
0.00789401593034
0.011369730664
0.0180248501344
0.0335677212131
0.0730551930545
0.00604381306845
0.0078756394109
0.011085716467
0.0167230820774
0.0286711860814
0.0540434440752
0.0059100276435
0.00768412723761
0.0107762804913
0.0156915962545
0.0249481706416
0.0362804005386
0.00584017806776
0.00755336401851
0.0105742323218
0.0156241497733
0.0272045361148
0.0431085008513
0.00584735859858
0.00748284270316
0.0103468383585
0.0155621979155
0.0308112628903
0.071669469892
0.00578055960047
0.00728377857969
0.00989425996354
0.0147616628759
0.0289229239391
0.0698298840803
0.00562387998695
0.00694318642183
0.00929993865404
0.0138364854782
0.0281794235001
0.0716967435799
0.00543810830201
0.00656169907606
0.00881847216492
0.0132978561868
0.0268744097812
0.0686080400301
0.00528931223889
0.00624084892461
0.00844417039911
0.0130166994197
0.0243630046625
0.0610218540095
0.00520231923904
0.0060362003834
0.00813188381963
0.0128740478633
0.0258141197945
0.0649852021779
0.0051605106089
0.00592061324345
0.00785941487477
0.0123325615841
0.024439180361
0.0654521788355
0.00514017450541
0.00584177571066
0.00756400756795
0.0114221537555
0.0220289395316
0.0514274661288
0.00729080339671
0.0105178310586
0.0200286378808
0.0466698111556
0.00718103852889
0.0103862018733
0.0193303197427
0.0434306005576
0.0072294323441
0.0109641106837
0.0220786426082
0.0624595176531
)
;

boundaryField
{
    back
    {
        type            kqRWallFunction;
        value           nonuniform List<scalar> 
164
(
0.00433584432267
0.00567968535528
0.00774869559208
0.0113336309582
0.0162780114074
0.0220076950284
0.0310204360349
0.0735440350249
0.00466947413848
0.00672271625989
0.00940036977958
0.0129244280305
0.0170877899563
0.0218196120096
0.0297600533361
0.0578071220249
0.00466989127278
0.00672366929171
0.00940191436924
0.0129262194229
0.0170894176254
0.0218215264588
0.0297657563127
0.0578339450738
0.00433630913335
0.0056808741579
0.00775063893836
0.011335893568
0.0162804982607
0.0220123328832
0.0310329348566
0.0735681176415
0.00697081690849
0.0103423525333
0.0155317718746
0.0220063985781
0.0313682625395
0.0719244275557
0.00662485377356
0.00964139663288
0.0147994258486
0.0220753973573
0.0319978380326
0.0600653575867
0.00624796974476
0.00894205565708
0.0141312269886
0.022358430541
0.0336289802002
0.0491796913693
0.00597052390633
0.0083998969784
0.0135989850658
0.0226563772635
0.0362346638353
0.0551800331759
0.00577728196774
0.00798593001101
0.0131080662224
0.0225867585909
0.0380908099698
0.0624276136647
0.00567177598074
0.00770568706409
0.0125832256501
0.0218035708798
0.0383192970028
0.0677710949282
0.00569118590479
0.00761927117781
0.0120436390134
0.0204174358252
0.0372156579976
0.0716013949282
0.00583056295585
0.00771752747668
0.0116217856289
0.0189869478349
0.0354314409352
0.0739429640165
0.00604268580337
0.00789401593034
0.011369730664
0.0180248501344
0.0335677212131
0.0730551930545
0.00604381306845
0.0078756394109
0.011085716467
0.0167230820774
0.0286711860814
0.0540434440752
0.0059100276435
0.00768412723761
0.0107762804913
0.0156915962545
0.0249481706416
0.0362804005386
0.00584017806776
0.00755336401851
0.0105742323218
0.0156241497733
0.0272045361148
0.0431085008513
0.00584735859858
0.00748284270316
0.0103468383585
0.0155621979155
0.0308112628903
0.071669469892
0.00578055960047
0.00728377857969
0.00989425996354
0.0147616628759
0.0289229239391
0.0698298840803
0.00562387998695
0.00694318642183
0.00929993865404
0.0138364854782
0.0281794235001
0.0716967435799
0.00543810830201
0.00656169907606
0.00881847216492
0.0132978561868
0.0268744097812
0.0686080400301
0.00528931223889
0.00624084892461
0.00844417039911
0.0130166994197
0.0243630046625
0.0610218540095
0.00520231923904
0.0060362003834
0.00813188381963
0.0128740478633
0.0258141197945
0.0649852021779
0.0051605106089
0.00592061324345
0.00785941487477
0.0123325615841
0.024439180361
0.0654521788355
0.00514017450541
0.00584177571066
0.00756400756795
0.0114221537555
0.0220289395316
0.0514274661288
0.00729080339671
0.0105178310586
0.0200286378808
0.0466698111556
0.00718103852889
0.0103862018733
0.0193303197427
0.0434306005576
0.0072294323441
0.0109641106837
0.0220786426082
0.0624595176531
)
;
    }
    sides
    {
        type            kqRWallFunction;
        value           nonuniform List<scalar> 0();
    }
    bottom
    {
        type            kqRWallFunction;
        value           nonuniform List<scalar> 0();
    }
    front
    {
        type            kqRWallFunction;
        value           nonuniform List<scalar> 
164
(
0.00433584432267
0.00567968535528
0.00774869559208
0.0113336309582
0.0162780114074
0.0220076950284
0.0310204360349
0.0735440350249
0.00466947413848
0.00672271625989
0.00940036977958
0.0129244280305
0.0170877899563
0.0218196120096
0.0297600533361
0.0578071220249
0.00466989127278
0.00672366929171
0.00940191436924
0.0129262194229
0.0170894176254
0.0218215264588
0.0297657563127
0.0578339450738
0.00433630913335
0.0056808741579
0.00775063893836
0.011335893568
0.0162804982607
0.0220123328832
0.0310329348566
0.0735681176415
0.00697081690849
0.0103423525333
0.0155317718746
0.0220063985781
0.0313682625395
0.0719244275557
0.00662485377356
0.00964139663288
0.0147994258486
0.0220753973573
0.0319978380326
0.0600653575867
0.00624796974476
0.00894205565708
0.0141312269886
0.022358430541
0.0336289802002
0.0491796913693
0.00597052390633
0.0083998969784
0.0135989850658
0.0226563772635
0.0362346638353
0.0551800331759
0.00577728196774
0.00798593001101
0.0131080662224
0.0225867585909
0.0380908099698
0.0624276136647
0.00567177598074
0.00770568706409
0.0125832256501
0.0218035708798
0.0383192970028
0.0677710949282
0.00569118590479
0.00761927117781
0.0120436390134
0.0204174358252
0.0372156579976
0.0716013949282
0.00583056295585
0.00771752747668
0.0116217856289
0.0189869478349
0.0354314409352
0.0739429640165
0.00604268580337
0.00789401593034
0.011369730664
0.0180248501344
0.0335677212131
0.0730551930545
0.00604381306845
0.0078756394109
0.011085716467
0.0167230820774
0.0286711860814
0.0540434440752
0.0059100276435
0.00768412723761
0.0107762804913
0.0156915962545
0.0249481706416
0.0362804005386
0.00584017806776
0.00755336401851
0.0105742323218
0.0156241497733
0.0272045361148
0.0431085008513
0.00584735859858
0.00748284270316
0.0103468383585
0.0155621979155
0.0308112628903
0.071669469892
0.00578055960047
0.00728377857969
0.00989425996354
0.0147616628759
0.0289229239391
0.0698298840803
0.00562387998695
0.00694318642183
0.00929993865404
0.0138364854782
0.0281794235001
0.0716967435799
0.00543810830201
0.00656169907606
0.00881847216492
0.0132978561868
0.0268744097812
0.0686080400301
0.00528931223889
0.00624084892461
0.00844417039911
0.0130166994197
0.0243630046625
0.0610218540095
0.00520231923904
0.0060362003834
0.00813188381963
0.0128740478633
0.0258141197945
0.0649852021779
0.0051605106089
0.00592061324345
0.00785941487477
0.0123325615841
0.024439180361
0.0654521788355
0.00514017450541
0.00584177571066
0.00756400756795
0.0114221537555
0.0220289395316
0.0514274661288
0.00729080339671
0.0105178310586
0.0200286378808
0.0466698111556
0.00718103852889
0.0103862018733
0.0193303197427
0.0434306005576
0.0072294323441
0.0109641106837
0.0220786426082
0.0624595176531
)
;
    }
    atmosphere
    {
        type            inletOutlet;
        inletValue      uniform 0.1;
        value           nonuniform List<scalar> 
27
(
0.1
0.0578071220249
0.0578339450738
0.1
0.1
0.0600653575867
0.0491796913693
0.0551800331759
0.0624276136647
0.0677710949282
0.0716013949282
0.1
0.1
0.0540434440752
0.0362804005386
0.0431085008513
0.1
0.0698298840803
0.1
0.1
0.1
0.1
0.1
0.0514274661288
0.0466698111556
0.0434306005576
0.1
)
;
    }
    floatingObject
    {
        type            kqRWallFunction;
        value           nonuniform List<scalar> 4(0.00433584432267 0.00466947413848 0.00466989127278 0.00433630913335);
    }
    procBoundary6to3
    {
        type            processor;
        value           nonuniform List<scalar> 8(0.00449213153808 0.00529124541081 0.00696918518949 0.0103404451763 0.0155293542459 0.0220017684921 0.0313608923719 0.0719181048624);
    }
    procBoundary6to7
    {
        type            processor;
        value           nonuniform List<scalar> 
11
(
0.00504479359876
0.00498225807893
0.00493426244483
0.00490579622149
0.00489108096526
0.00488321018145
0.0051279041793
0.00577943034257
0.00577943034257
0.00574487348999
0.00574137552347
)
;
    }
    procBoundary6to8
    {
        type            processor;
        value           nonuniform List<scalar> 
16
(
0.00449260338611
0.00529226433443
0.00529226433443
0.00527466693022
0.00519101790364
0.00511506790933
0.00506241858894
0.00503611814506
0.00504954217949
0.00510770314005
0.00520067662327
0.00519468934398
0.00513643562744
0.00511266903443
0.00512170161978
0.00510076705091
)
;
    }
    procBoundary6to9
    {
        type            processor;
        value           nonuniform List<scalar> 4(0.00727163002636 0.011298069277 0.0236931666865 0.0660714674857);
    }
}


// ************************************************************************* //
