/*--------------------------------*- C++ -*----------------------------------*\
| =========                 |                                                 |
| \\      /  F ield         | OpenFOAM: The Open Source CFD Toolbox           |
|  \\    /   O peration     | Version:  v2012                                 |
|   \\  /    A nd           | Website:  www.openfoam.com                      |
|    \\/     M anipulation  |                                                 |
\*---------------------------------------------------------------------------*/
FoamFile
{
    version     2.0;
    format      ascii;
    class       volScalarField;
    location    "3";
    object      p;
}
// * * * * * * * * * * * * * * * * * * * * * * * * * * * * * * * * * * * * * //

dimensions      [1 -1 -2 0 0 0 0];


internalField   nonuniform List<scalar> 
164
(
2379.6028046
1891.61866474
1401.96586867
911.346812926
427.215461351
88.7741891388
-8.82124419451
-9.63563777457
2382.88884991
1892.29097224
1403.24189266
913.279712225
429.878202516
89.9659428056
-9.32606683026
-9.44221933974
2382.88300916
1892.284691
1403.23904443
913.280610435
429.881050812
89.9680255936
-9.32605720293
-9.44249966936
2379.57235414
1891.59660045
1401.95605704
911.349017721
427.222132974
88.7768904535
-8.82070828069
-9.63552583083
1401.37968279
908.784806586
422.481127543
86.1749070863
-8.83771758526
-9.69500891783
1399.15473307
904.18298721
414.278406335
80.715847302
-9.14588813167
-9.82468576647
1396.51598581
897.864989858
401.958960132
71.5941314495
-9.45566510412
-10.4334279425
1394.2396183
891.497512485
389.067664363
62.8637561939
-9.40187078829
-10.2241777488
1393.80179873
887.901191271
380.761916235
57.8863635615
-9.18606540783
-9.83888984176
1396.3410708
889.182624855
380.475947563
57.8191668706
-9.06921893135
-9.64255742762
1402.20810975
895.735189935
388.785713192
62.8202071242
-9.04419108941
-9.57313647505
1411.05836214
906.553857981
402.897706488
70.8260659317
-9.0563164217
-9.5505760508
1422.30880736
920.264778185
420.021754576
80.2966795871
-9.06381686855
-9.54473188367
1435.25028268
935.656205807
438.335622183
90.2986711974
-9.04389290241
-9.54658762591
1449.2734461
951.923992809
456.680863619
100.122841943
-8.88790550143
-9.56052350651
1463.90619982
968.705867901
474.608752158
110.068409168
-8.11222704777
-9.56731232614
1478.8735635
985.648666834
492.732568238
120.002994978
-7.30189255931
-9.55951268437
1493.98259818
1002.52987953
510.855266992
129.9679374
-6.80876845308
-9.5615178858
1509.13527725
1019.53751442
529.730077264
141.312123929
-5.88617114508
-9.55986789524
1524.16927609
1036.68326475
549.433221839
154.498658477
-4.2459600003
-9.55586871603
1538.69052559
1053.3710671
568.966722751
168.385054568
-1.84906463949
-9.56431906108
1552.20708422
1068.81151855
587.047174553
181.497845022
0.987026576611
-9.5677024667
1564.30838025
1082.37120481
602.427660749
192.995181804
3.98647407077
-9.56324485457
1574.67764855
1093.47642345
614.171091846
201.090968756
6.26051318238
-9.55755400345
622.634272715
206.475314824
7.85145306961
-9.55770625325
628.750760993
209.724034434
8.590234066
-9.5647377965
633.390269106
211.809560433
8.76186224541
-9.5847421181
)
;

boundaryField
{
    back
    {
        type            calculated;
        value           nonuniform List<scalar> 
164
(
2379.6028046
1891.61866474
1401.96586867
911.346812926
427.215461351
88.7741891388
-8.82124419451
-9.63563777457
2382.88884991
1892.29097224
1403.24189266
913.279712225
429.878202516
89.9659428056
-9.32606683026
-9.44221933974
2382.88300916
1892.284691
1403.23904443
913.280610435
429.881050812
89.9680255936
-9.32605720293
-9.44249966936
2379.57235414
1891.59660045
1401.95605704
911.349017721
427.222132974
88.7768904535
-8.82070828069
-9.63552583083
1401.37968279
908.784806586
422.481127543
86.1749070863
-8.83771758526
-9.69500891783
1399.15473307
904.18298721
414.278406335
80.715847302
-9.14588813167
-9.82468576647
1396.51598581
897.864989858
401.958960132
71.5941314495
-9.45566510412
-10.4334279425
1394.2396183
891.497512485
389.067664363
62.8637561939
-9.40187078829
-10.2241777488
1393.80179873
887.901191271
380.761916235
57.8863635615
-9.18606540783
-9.83888984176
1396.3410708
889.182624855
380.475947563
57.8191668706
-9.06921893135
-9.64255742762
1402.20810975
895.735189935
388.785713192
62.8202071242
-9.04419108941
-9.57313647505
1411.05836214
906.553857981
402.897706488
70.8260659317
-9.0563164217
-9.5505760508
1422.30880736
920.264778185
420.021754576
80.2966795871
-9.06381686855
-9.54473188367
1435.25028268
935.656205807
438.335622183
90.2986711974
-9.04389290241
-9.54658762591
1449.2734461
951.923992809
456.680863619
100.122841943
-8.88790550143
-9.56052350651
1463.90619982
968.705867901
474.608752158
110.068409168
-8.11222704777
-9.56731232614
1478.8735635
985.648666834
492.732568238
120.002994978
-7.30189255931
-9.55951268437
1493.98259818
1002.52987953
510.855266992
129.9679374
-6.80876845308
-9.5615178858
1509.13527725
1019.53751442
529.730077264
141.312123929
-5.88617114508
-9.55986789524
1524.16927609
1036.68326475
549.433221839
154.498658477
-4.2459600003
-9.55586871603
1538.69052559
1053.3710671
568.966722751
168.385054568
-1.84906463949
-9.56431906108
1552.20708422
1068.81151855
587.047174553
181.497845022
0.987026576611
-9.5677024667
1564.30838025
1082.37120481
602.427660749
192.995181804
3.98647407077
-9.56324485457
1574.67764855
1093.47642345
614.171091846
201.090968756
6.26051318238
-9.55755400345
622.634272715
206.475314824
7.85145306961
-9.55770625325
628.750760993
209.724034434
8.590234066
-9.5647377965
633.390269106
211.809560433
8.76186224541
-9.5847421181
)
;
    }
    sides
    {
        type            calculated;
        value           nonuniform List<scalar> 0();
    }
    bottom
    {
        type            calculated;
        value           nonuniform List<scalar> 0();
    }
    front
    {
        type            calculated;
        value           nonuniform List<scalar> 
164
(
2379.6028046
1891.61866474
1401.96586867
911.346812926
427.215461351
88.7741891388
-8.82124419451
-9.63563777457
2382.88884991
1892.29097224
1403.24189266
913.279712225
429.878202516
89.9659428056
-9.32606683026
-9.44221933974
2382.88300916
1892.284691
1403.23904443
913.280610435
429.881050812
89.9680255936
-9.32605720293
-9.44249966936
2379.57235414
1891.59660045
1401.95605704
911.349017721
427.222132974
88.7768904535
-8.82070828069
-9.63552583083
1401.37968279
908.784806586
422.481127543
86.1749070863
-8.83771758526
-9.69500891783
1399.15473307
904.18298721
414.278406335
80.715847302
-9.14588813167
-9.82468576647
1396.51598581
897.864989858
401.958960132
71.5941314495
-9.45566510412
-10.4334279425
1394.2396183
891.497512485
389.067664363
62.8637561939
-9.40187078829
-10.2241777488
1393.80179873
887.901191271
380.761916235
57.8863635615
-9.18606540783
-9.83888984176
1396.3410708
889.182624855
380.475947563
57.8191668706
-9.06921893135
-9.64255742762
1402.20810975
895.735189935
388.785713192
62.8202071242
-9.04419108941
-9.57313647505
1411.05836214
906.553857981
402.897706488
70.8260659317
-9.0563164217
-9.5505760508
1422.30880736
920.264778185
420.021754576
80.2966795871
-9.06381686855
-9.54473188367
1435.25028268
935.656205807
438.335622183
90.2986711974
-9.04389290241
-9.54658762591
1449.2734461
951.923992809
456.680863619
100.122841943
-8.88790550143
-9.56052350651
1463.90619982
968.705867901
474.608752158
110.068409168
-8.11222704777
-9.56731232614
1478.8735635
985.648666834
492.732568238
120.002994978
-7.30189255931
-9.55951268437
1493.98259818
1002.52987953
510.855266992
129.9679374
-6.80876845308
-9.5615178858
1509.13527725
1019.53751442
529.730077264
141.312123929
-5.88617114508
-9.55986789524
1524.16927609
1036.68326475
549.433221839
154.498658477
-4.2459600003
-9.55586871603
1538.69052559
1053.3710671
568.966722751
168.385054568
-1.84906463949
-9.56431906108
1552.20708422
1068.81151855
587.047174553
181.497845022
0.987026576611
-9.5677024667
1564.30838025
1082.37120481
602.427660749
192.995181804
3.98647407077
-9.56324485457
1574.67764855
1093.47642345
614.171091846
201.090968756
6.26051318238
-9.55755400345
622.634272715
206.475314824
7.8514530696
-9.55770625325
628.750760993
209.724034434
8.590234066
-9.5647377965
633.390269106
211.809560433
8.76186224541
-9.5847421181
)
;
    }
    atmosphere
    {
        type            calculated;
        value           nonuniform List<scalar> 
27
(
-9.81116358197
-10.0614550415
-10.0624430958
-9.81116289481
-9.81142768583
-9.80970916708
-11.1712346911
-10.6330023284
-9.96810150939
-9.81386105984
-9.81000893226
-9.81001654671
-9.81007338006
-9.81156354059
-9.81401762105
-9.81
-9.81047398687
-9.81
-9.81000584834
-9.81136950995
-9.81289777798
-9.81324912903
-9.81092749607
-9.81
-9.81
-9.81
-9.81090628661
)
;
    }
    floatingObject
    {
        type            calculated;
        value           nonuniform List<scalar> 4(2624.41422884 2627.6994945 2627.69381897 2624.38310322);
    }
    procBoundary6to3
    {
        type            processor;
        value           nonuniform List<scalar> 8(2391.78988652 1895.66031791 1401.41917518 908.795726731 422.474071445 86.1668883728 -8.83848819406 -9.69512381818);
    }
    procBoundary6to7
    {
        type            processor;
        value           nonuniform List<scalar> 
11
(
1998.80153072
2012.10444699
2024.94046127
2036.98141192
2047.93016231
2057.59434521
1583.28451497
1102.19326583
1102.19326583
1108.88368103
1114.27016399
)
;
    }
    procBoundary6to8
    {
        type            processor;
        value           nonuniform List<scalar> 
16
(
2391.72287284
1895.60377867
1895.60377867
1895.34945783
1895.23608104
1895.3194602
1896.5634632
1899.76393995
1905.26079086
1912.950383
1922.5408723
1933.62747106
1945.78149407
1958.61585365
1971.86444153
1985.32043192
)
;
    }
    procBoundary6to9
    {
        type            processor;
        value           nonuniform List<scalar> 4(637.533370707 214.182762939 8.98277049792 -9.5774547062);
    }
}


// ************************************************************************* //
