/*--------------------------------*- C++ -*----------------------------------*\
| =========                 |                                                 |
| \\      /  F ield         | OpenFOAM: The Open Source CFD Toolbox           |
|  \\    /   O peration     | Version:  v2012                                 |
|   \\  /    A nd           | Website:  www.openfoam.com                      |
|    \\/     M anipulation  |                                                 |
\*---------------------------------------------------------------------------*/
FoamFile
{
    version     2.0;
    format      ascii;
    class       volScalarField;
    location    "3";
    object      p_rgh;
}
// * * * * * * * * * * * * * * * * * * * * * * * * * * * * * * * * * * * * * //

dimensions      [1 -1 -2 0 0 0 0];


internalField   nonuniform List<scalar> 
164
(
8499.88841064
8501.50016061
8501.43679743
8500.41186293
8256.40216363
3478.85548831
0.246274404692
-0.0450299068939
8503.15496478
8502.14261
8502.68178352
8502.34476223
8233.7322307
3542.50379896
1.59477402236
0.367699325724
8503.15325421
8502.13305735
8502.67685606
8502.34566031
8233.73104275
3542.58086781
1.5937212275
0.368382349033
8499.84108116
8501.45396022
8501.41874928
8500.41406772
8256.38535618
3478.91272846
0.246839316604
-0.0450230032649
8500.84323181
8497.84986076
8300.71686321
3389.8214234
0.236529113363
-0.139255553261
8498.58574215
8493.24803721
8325.6018704
3203.45021254
1.92637313395
-0.260219328567
8495.93130204
8486.93003986
8311.60423756
2876.01072389
4.78804202161
0.45852588136
8493.65542592
8480.56135902
8269.85340276
2560.95184305
2.03127754323
0.142999521412
8493.23617031
8476.96263094
8236.48186932
2378.94710784
0.649437592693
-0.119990870103
8495.74245682
8478.24285654
8248.45286399
2378.51909579
0.151283269363
-0.0740428942776
8501.60088041
8484.79541246
8278.53050886
2565.56890622
0.0335657185747
-0.008387433119
8510.43980886
8495.61403742
8320.78985964
2860.43526848
0.0202733697302
0.014173211801
8521.70193467
8509.32488063
8360.5206337
3205.50185189
0.0118385632852
0.0200181163309
8534.64579715
8524.71626964
8396.72351049
3562.90636301
0.0368959292707
0.0196868261665
8548.66739469
8540.98405638
8440.75942833
3901.8939408
4.12547415596
0.00814367401994
8563.302441
8557.76583762
8513.69173958
4197.46716896
39.3266722211
-0.00256232613541
8578.28594772
8574.70829141
8563.78595523
4499.41343276
69.2910451811
0.00523731562692
8593.39777276
8591.58873918
8585.44574312
4830.89640265
83.1870341434
0.00323211420359
8608.53505848
8608.57871429
8607.69167183
5179.03615597
118.366148178
0.00488210475906
8623.57437316
8625.718483
8628.07566584
5549.27726528
183.223379768
0.00888128396852
8638.10489523
8642.41042452
8647.61286445
5902.16820887
277.590022825
0.000430938917162
8651.62152187
8657.86332632
8665.70186562
6198.40872848
386.841409187
-0.00295246669779
8663.73078721
8671.43200889
8681.09619528
6425.35776656
500.968943864
0.00150514543352
8674.11537674
8682.5414479
8692.85011631
6558.73558694
585.470786361
0.00719599655273
8701.31642351
6634.3112987
644.12227302
0.00704374675014
8707.43282355
6679.97885972
674.447693079
1.22034991637e-05
8712.07226785
6736.33191169
679.43844345
-0.0199921181049
)
;

boundaryField
{
    back
    {
        type            fixedFluxPressure;
        gradient        uniform 0;
        value           nonuniform List<scalar> 
164
(
8499.88841064
8501.50016061
8501.43679743
8500.41186293
8256.40216363
3478.85548831
0.246274404692
-0.0450299068939
8503.15496478
8502.14261
8502.68178352
8502.34476223
8233.7322307
3542.50379896
1.59477402236
0.367699325724
8503.15325421
8502.13305735
8502.67685606
8502.34566031
8233.73104275
3542.58086781
1.5937212275
0.368382349033
8499.84108116
8501.45396022
8501.41874928
8500.41406772
8256.38535618
3478.91272846
0.246839316604
-0.0450230032649
8500.84323181
8497.84986076
8300.71686321
3389.8214234
0.236529113363
-0.139255553261
8498.58574215
8493.24803721
8325.6018704
3203.45021254
1.92637313395
-0.260219328567
8495.93130204
8486.93003986
8311.60423756
2876.01072389
4.78804202161
0.45852588136
8493.65542592
8480.56135902
8269.85340276
2560.95184305
2.03127754323
0.142999521412
8493.23617031
8476.96263094
8236.48186932
2378.94710784
0.649437592693
-0.119990870103
8495.74245682
8478.24285654
8248.45286399
2378.51909579
0.151283269363
-0.0740428942776
8501.60088041
8484.79541246
8278.53050886
2565.56890622
0.0335657185747
-0.008387433119
8510.43980886
8495.61403742
8320.78985964
2860.43526848
0.0202733697302
0.014173211801
8521.70193467
8509.32488063
8360.5206337
3205.50185189
0.0118385632852
0.0200181163309
8534.64579715
8524.71626964
8396.72351049
3562.90636301
0.0368959292707
0.0196868261665
8548.66739469
8540.98405638
8440.75942833
3901.8939408
4.12547415596
0.00814367401994
8563.302441
8557.76583762
8513.69173958
4197.46716896
39.3266722211
-0.00256232613541
8578.28594772
8574.70829141
8563.78595523
4499.41343276
69.2910451811
0.00523731562692
8593.39777276
8591.58873918
8585.44574312
4830.89640265
83.1870341434
0.00323211420359
8608.53505848
8608.57871429
8607.69167183
5179.03615597
118.366148178
0.00488210475906
8623.57437316
8625.718483
8628.07566584
5549.27726528
183.223379768
0.00888128396852
8638.10489523
8642.41042452
8647.61286445
5902.16820887
277.590022825
0.000430938917162
8651.62152187
8657.86332632
8665.70186562
6198.40872848
386.841409187
-0.00295246669779
8663.73078721
8671.43200889
8681.09619528
6425.35776656
500.968943864
0.00150514543352
8674.11537674
8682.5414479
8692.85011631
6558.73558694
585.470786361
0.00719599655273
8701.31642351
6634.3112987
644.12227302
0.00704374675014
8707.43282355
6679.97885972
674.447693079
1.22034991637e-05
8712.07226785
6736.33191169
679.43844345
-0.0199921181049
)
;
    }
    sides
    {
        type            fixedFluxPressure;
        gradient        nonuniform List<scalar> 0();
        value           nonuniform List<scalar> 0();
    }
    bottom
    {
        type            fixedFluxPressure;
        gradient        nonuniform List<scalar> 0();
        value           nonuniform List<scalar> 0();
    }
    front
    {
        type            fixedFluxPressure;
        gradient        uniform 0;
        value           nonuniform List<scalar> 
164
(
8499.88841064
8501.50016061
8501.43679743
8500.41186293
8256.40216363
3478.85548831
0.246274404692
-0.0450299068939
8503.15496478
8502.14261
8502.68178352
8502.34476223
8233.7322307
3542.50379896
1.59477402236
0.367699325724
8503.15325421
8502.13305735
8502.67685606
8502.34566031
8233.73104275
3542.58086781
1.5937212275
0.368382349033
8499.84108116
8501.45396022
8501.41874928
8500.41406772
8256.38535618
3478.91272846
0.246839316604
-0.0450230032649
8500.84323181
8497.84986076
8300.71686321
3389.8214234
0.236529113363
-0.139255553261
8498.58574215
8493.24803721
8325.6018704
3203.45021254
1.92637313395
-0.260219328567
8495.93130204
8486.93003986
8311.60423756
2876.01072389
4.78804202161
0.45852588136
8493.65542592
8480.56135902
8269.85340276
2560.95184305
2.03127754323
0.142999521412
8493.23617031
8476.96263094
8236.48186932
2378.94710784
0.649437592693
-0.119990870103
8495.74245682
8478.24285654
8248.45286399
2378.51909579
0.151283269363
-0.0740428942776
8501.60088041
8484.79541246
8278.53050886
2565.56890622
0.0335657185747
-0.008387433119
8510.43980886
8495.61403742
8320.78985964
2860.43526848
0.0202733697302
0.014173211801
8521.70193467
8509.32488063
8360.5206337
3205.50185189
0.0118385632852
0.0200181163309
8534.64579715
8524.71626964
8396.72351049
3562.90636301
0.0368959292707
0.0196868261665
8548.66739469
8540.98405638
8440.75942833
3901.8939408
4.12547415596
0.00814367401994
8563.302441
8557.76583762
8513.69173958
4197.46716896
39.3266722211
-0.00256232613541
8578.28594772
8574.70829141
8563.78595523
4499.41343276
69.2910451811
0.00523731562692
8593.39777276
8591.58873918
8585.44574312
4830.89640265
83.1870341434
0.00323211420359
8608.53505848
8608.57871429
8607.69167183
5179.03615597
118.366148178
0.00488210475906
8623.57437316
8625.718483
8628.07566584
5549.27726528
183.223379768
0.00888128396852
8638.10489523
8642.41042452
8647.61286445
5902.16820887
277.590022825
0.000430938917162
8651.62152187
8657.86332632
8665.70186562
6198.40872848
386.841409187
-0.00295246669779
8663.73078721
8671.43200889
8681.09619528
6425.35776656
500.968943864
0.00150514543352
8674.11537674
8682.5414479
8692.85011631
6558.73558694
585.470786361
0.00719599655273
8701.31642351
6634.3112987
644.12227302
0.00704374675014
8707.43282355
6679.97885972
674.447693079
1.22034991637e-05
8712.07226785
6736.33191169
679.43844345
-0.0199921181049
)
;
    }
    atmosphere
    {
        type            totalPressure;
        rho             rho;
        psi             none;
        gamma           1;
        p0              uniform 0;
        value           nonuniform List<scalar> 
27
(
-0.00116358197231
0
0
-0.00116289480951
-0.00142768583401
0
0
0
0
0
-8.93225551463e-06
-1.6546705641e-05
-7.33800564455e-05
0
0
0
-0.000473986867238
0
-5.84833788564e-06
-0.00136950995454
-0.00289777797596
-0.00324912902508
-0.000927496069307
0
0
0
-0.000906286607166
)
;
    }
    floatingObject
    {
        type            fixedFluxPressure;
        gradient        uniform 0;
        value           nonuniform List<scalar> 4(8499.88841064 8503.15496478 8503.15325421 8499.84108116);
    }
    procBoundary6to3
    {
        type            processor;
        value           nonuniform List<scalar> 8(8512.03763097 8505.51494043 8500.88147114 8497.86077673 8300.79069252 3389.57245677 0.235758502243 -0.139377421936);
    }
    procBoundary6to7
    {
        type            processor;
        value           nonuniform List<scalar> 
11
(
8608.5792211
8621.8869822
8634.74529991
8646.78981474
8657.74150615
8667.42133303
8682.73498711
8691.25832355
8691.25832355
8697.94873103
8703.33521559
)
;
    }
    procBoundary6to8
    {
        type            processor;
        value           nonuniform List<scalar> 
16
(
8511.99535904
8505.47852018
8505.47852018
8505.17651573
8505.04789301
8505.09988309
8506.29599004
8509.47516766
8514.9720343
8522.66219483
8532.29311846
8543.39311297
8555.57038792
8568.42101542
8581.65617249
8595.0981223
)
;
    }
    procBoundary6to9
    {
        type            processor;
        value           nonuniform List<scalar> 4(8716.2154065 6819.780379 687.686211103 -0.0127047061961);
    }
}


// ************************************************************************* //
