/*--------------------------------*- C++ -*----------------------------------*\
| =========                 |                                                 |
| \\      /  F ield         | OpenFOAM: The Open Source CFD Toolbox           |
|  \\    /   O peration     | Version:  v2012                                 |
|   \\  /    A nd           | Website:  www.openfoam.com                      |
|    \\/     M anipulation  |                                                 |
\*---------------------------------------------------------------------------*/
FoamFile
{
    version     2.0;
    format      ascii;
    class       volScalarField;
    location    "2";
    object      ddt0(k);
}
// * * * * * * * * * * * * * * * * * * * * * * * * * * * * * * * * * * * * * //

dimensions      [0 2 -3 0 0 0 0];


internalField   nonuniform List<scalar> 
167
(
-0.00436128102204
-0.00436278620881
-0.00437061216129
-0.00441146798548
-0.00457356156504
-0.00508707016057
-0.00640855352048
-0.00926908966432
-0.0145444259008
-0.0233181910475
-0.0306174776132
0.100842304897
-0.0053743892983
-0.00537895107349
-0.00539513908647
-0.00546357016659
-0.0057095572446
-0.00643553909153
-0.00816074627911
-0.0114574794535
-0.0166301907978
-0.0237261428053
-0.0127767991078
0.167732033706
-0.00570732786535
-0.00571515472281
-0.00573593678824
-0.00581185446685
-0.00607053047554
-0.00681433962102
-0.00855702613642
-0.0118848063935
-0.0171250325547
-0.0241599008243
-0.0137699769002
0.0491813609333
-0.00584352563667
-0.00586686133204
-0.00594448824329
-0.00620041922686
-0.00692783697237
-0.00863141562822
-0.0119168332356
-0.0171750399155
-0.0243310549902
-0.0172984516868
0.0374094618453
-0.00591387356552
-0.00599001023197
-0.00623699922095
-0.00693746401028
-0.00858463312919
-0.0117871228814
-0.0169659059204
-0.0240445485215
-0.0185422540648
0.0736314056057
-0.00592949744124
-0.00600218151109
-0.00623670265778
-0.00690377889775
-0.00848317324293
-0.0115785803649
-0.0166304154872
-0.0236546667076
-0.0287598143248
-0.180024850613
-0.00593450139667
-0.00600271541992
-0.00622278966442
-0.0068520546864
-0.00835386581284
-0.0113229616984
-0.0162080181604
-0.0230178536061
-0.0294653923602
-0.1932097057
-0.00593672832569
-0.0059999769923
-0.00620437339472
-0.00679273205879
-0.00820981820857
-0.0110361158709
-0.0157164958406
-0.0222689858983
-0.0305036193944
-0.17053748393
-0.00593903178001
-0.00599714782348
-0.00618521374823
-0.00673054462475
-0.00805663981103
-0.0107249841561
-0.0151755078861
-0.0215280585741
-0.0326419148958
-0.138004444237
-0.00594246231054
-0.00599548746832
-0.00616702583832
-0.0066681297746
-0.00789880667001
-0.0103975397048
-0.0145980390177
-0.0207199498504
-0.0308306225117
0.040128063489
-0.00594738440398
-0.0059955412749
-0.00615088059761
-0.00660769598558
-0.00774124445362
-0.0100633507786
-0.0139929822921
-0.0197344782435
-0.0246879596535
0.312508778123
-0.0059539528239
-0.00599756829648
-0.00613734330667
-0.00655075353057
-0.0075878080997
-0.00973193736703
-0.0133848831404
-0.0185100518108
-0.0148088970373
0.146701018576
-0.00596214056688
-0.00600165911305
-0.00612676096856
-0.0064984686481
-0.00744065350405
-0.00941181252593
-0.0127979210893
-0.017273984827
-0.00987248748123
0.106052416989
-0.00597182001306
-0.00600765232281
-0.0061189996425
-0.00645080295099
-0.00730194717934
-0.00910784825304
-0.0122068394653
-0.0156892481424
-0.0053195459131
0.0794425701821
-0.00598280894501
-0.00601538383783
-0.00611377806064
-0.0064069192719
-0.0071679475846
-0.00880348018733
-0.0115544302786
-0.0142307319378
-0.0176066325458
-0.0143204030456
-0.00599501265618
-0.00602496630384
-0.00611247692905
-0.00637259706095
-0.00705486796517
-0.00851115692356
-0.0108830702002
-0.0135218488109
-0.0187093337136
-0.150666148539
)
;

boundaryField
{
    back
    {
        type            calculated;
        value           nonuniform List<scalar> 
167
(
-0.00436128102204
-0.00436278620881
-0.00437061216129
-0.00441146798548
-0.00457356156504
-0.00508707016057
-0.00640855352048
-0.00926908966432
-0.0145444259008
-0.0233181910475
-0.0306174776132
0.100842304897
-0.0053743892983
-0.00537895107349
-0.00539513908647
-0.00546357016659
-0.0057095572446
-0.00643553909153
-0.00816074627911
-0.0114574794535
-0.0166301907978
-0.0237261428053
-0.0127767991078
0.167732033706
-0.00570732786535
-0.00571515472281
-0.00573593678824
-0.00581185446685
-0.00607053047554
-0.00681433962102
-0.00855702613642
-0.0118848063935
-0.0171250325547
-0.0241599008243
-0.0137699769002
0.0491813609333
-0.00584352563667
-0.00586686133204
-0.00594448824329
-0.00620041922686
-0.00692783697237
-0.00863141562822
-0.0119168332356
-0.0171750399155
-0.0243310549902
-0.0172984516868
0.0374094618453
-0.00591387356552
-0.00599001023197
-0.00623699922095
-0.00693746401028
-0.00858463312919
-0.0117871228814
-0.0169659059204
-0.0240445485215
-0.0185422540648
0.0736314056057
-0.00592949744124
-0.00600218151109
-0.00623670265778
-0.00690377889775
-0.00848317324293
-0.0115785803649
-0.0166304154872
-0.0236546667076
-0.0287598143248
-0.180024850613
-0.00593450139667
-0.00600271541992
-0.00622278966442
-0.0068520546864
-0.00835386581284
-0.0113229616984
-0.0162080181604
-0.0230178536061
-0.0294653923602
-0.1932097057
-0.00593672832569
-0.0059999769923
-0.00620437339472
-0.00679273205879
-0.00820981820857
-0.0110361158709
-0.0157164958406
-0.0222689858983
-0.0305036193944
-0.17053748393
-0.00593903178001
-0.00599714782348
-0.00618521374823
-0.00673054462475
-0.00805663981103
-0.0107249841561
-0.0151755078861
-0.0215280585741
-0.0326419148958
-0.138004444237
-0.00594246231054
-0.00599548746832
-0.00616702583832
-0.0066681297746
-0.00789880667001
-0.0103975397048
-0.0145980390177
-0.0207199498504
-0.0308306225117
0.040128063489
-0.00594738440398
-0.0059955412749
-0.00615088059761
-0.00660769598558
-0.00774124445362
-0.0100633507786
-0.0139929822921
-0.0197344782435
-0.0246879596535
0.312508778123
-0.0059539528239
-0.00599756829648
-0.00613734330667
-0.00655075353057
-0.0075878080997
-0.00973193736703
-0.0133848831404
-0.0185100518108
-0.0148088970373
0.146701018576
-0.00596214056688
-0.00600165911305
-0.00612676096856
-0.0064984686481
-0.00744065350405
-0.00941181252593
-0.0127979210893
-0.017273984827
-0.00987248748123
0.106052416989
-0.00597182001306
-0.00600765232281
-0.0061189996425
-0.00645080295099
-0.00730194717934
-0.00910784825304
-0.0122068394653
-0.0156892481424
-0.0053195459131
0.0794425701821
-0.00598280894501
-0.00601538383783
-0.00611377806064
-0.0064069192719
-0.0071679475846
-0.00880348018733
-0.0115544302786
-0.0142307319378
-0.0176066325458
-0.0143204030456
-0.00599501265618
-0.00602496630384
-0.00611247692905
-0.00637259706095
-0.00705486796517
-0.00851115692356
-0.0108830702002
-0.0135218488109
-0.0187093337136
-0.150666148539
)
;
    }
    sides
    {
        type            calculated;
        value           nonuniform List<scalar> 
12
(
-0.00436128102204
-0.00436278620881
-0.00437061216129
-0.00441146798548
-0.00457356156504
-0.00508707016057
-0.00640855352048
-0.00926908966432
-0.0145444259008
-0.0233181910475
-0.0306174776132
0.100842304897
)
;
    }
    bottom
    {
        type            calculated;
        value           nonuniform List<scalar> 0();
    }
    front
    {
        type            calculated;
        value           nonuniform List<scalar> 
167
(
-0.00436128102204
-0.00436278620881
-0.00437061216129
-0.00441146798548
-0.00457356156504
-0.00508707016057
-0.00640855352048
-0.00926908966432
-0.0145444259008
-0.0233181910475
-0.0306174776132
0.100842304897
-0.0053743892983
-0.00537895107349
-0.00539513908647
-0.00546357016659
-0.0057095572446
-0.00643553909153
-0.00816074627911
-0.0114574794535
-0.0166301907978
-0.0237261428053
-0.0127767991078
0.167732033706
-0.00570732786535
-0.00571515472281
-0.00573593678824
-0.00581185446685
-0.00607053047554
-0.00681433962102
-0.00855702613642
-0.0118848063935
-0.0171250325547
-0.0241599008243
-0.0137699769002
0.0491813609333
-0.00584352563667
-0.00586686133204
-0.00594448824329
-0.00620041922686
-0.00692783697237
-0.00863141562822
-0.0119168332356
-0.0171750399155
-0.0243310549902
-0.0172984516868
0.0374094618453
-0.00591387356552
-0.00599001023197
-0.00623699922095
-0.00693746401028
-0.00858463312919
-0.0117871228814
-0.0169659059204
-0.0240445485215
-0.0185422540648
0.0736314056057
-0.00592949744124
-0.00600218151109
-0.00623670265778
-0.00690377889775
-0.00848317324293
-0.0115785803649
-0.0166304154872
-0.0236546667076
-0.0287598143248
-0.180024850613
-0.00593450139667
-0.00600271541992
-0.00622278966442
-0.0068520546864
-0.00835386581284
-0.0113229616984
-0.0162080181604
-0.0230178536061
-0.0294653923602
-0.1932097057
-0.00593672832569
-0.0059999769923
-0.00620437339472
-0.00679273205879
-0.00820981820857
-0.0110361158709
-0.0157164958406
-0.0222689858983
-0.0305036193944
-0.17053748393
-0.00593903178001
-0.00599714782348
-0.00618521374823
-0.00673054462475
-0.00805663981103
-0.0107249841561
-0.0151755078861
-0.0215280585741
-0.0326419148958
-0.138004444237
-0.00594246231054
-0.00599548746832
-0.00616702583832
-0.0066681297746
-0.00789880667001
-0.0103975397048
-0.0145980390177
-0.0207199498504
-0.0308306225117
0.040128063489
-0.00594738440398
-0.0059955412749
-0.00615088059761
-0.00660769598558
-0.00774124445362
-0.0100633507786
-0.0139929822921
-0.0197344782435
-0.0246879596535
0.312508778123
-0.0059539528239
-0.00599756829648
-0.00613734330667
-0.00655075353057
-0.0075878080997
-0.00973193736703
-0.0133848831404
-0.0185100518108
-0.0148088970373
0.146701018576
-0.00596214056688
-0.00600165911305
-0.00612676096856
-0.0064984686481
-0.00744065350405
-0.00941181252593
-0.0127979210893
-0.017273984827
-0.00987248748123
0.106052416989
-0.00597182001306
-0.00600765232281
-0.0061189996425
-0.00645080295099
-0.00730194717934
-0.00910784825304
-0.0122068394653
-0.0156892481424
-0.0053195459131
0.0794425701821
-0.00598280894501
-0.00601538383783
-0.00611377806064
-0.0064069192719
-0.0071679475846
-0.00880348018733
-0.0115544302786
-0.0142307319378
-0.0176066325458
-0.0143204030456
-0.00599501265618
-0.00602496630384
-0.00611247692905
-0.00637259706095
-0.00705486796517
-0.00851115692356
-0.0108830702002
-0.0135218488109
-0.0187093337136
-0.150666148539
)
;
    }
    atmosphere
    {
        type            calculated;
        value           nonuniform List<scalar> 
16
(
0.100841618826
-0.792978763988
-0.203666191466
0.100435307696
-0.0495532241653
-1.16812618109
3.65197157809
-2.065713506
-0.0156757699293
5.71284278088
-2.84995896695
0.3285306778
0.0819844793708
0.02187433589
0
-0.361742632429
)
;
    }
    floatingObject
    {
        type            calculated;
        value           nonuniform List<scalar> 0();
    }
    procBoundary1to0
    {
        type            processor;
        value           nonuniform List<scalar> 10(-0.00600824011204 -0.00603689843702 -0.00611879545139 -0.00636474127471 -0.00701971947275 -0.00842097106846 -0.0103032102556 -0.0117906339161 -0.00951648350079 -0.00635694396618);
    }
    procBoundary1to2
    {
        type            processor;
        value           nonuniform List<scalar> 
18
(
-0.00435975523545
-0.00537103120379
-0.00570129561252
-0.00583323821015
-0.00583323821015
-0.00588987253331
-0.00588987253331
-0.00590604505063
-0.00591216242803
-0.00591575965189
-0.00591950249073
-0.0059242851544
-0.00593044088366
-0.00593804609357
-0.00594704063367
-0.00595731710048
-0.00596872906666
-0.00598108198022
)
;
    }
}


// ************************************************************************* //
