/*--------------------------------*- C++ -*----------------------------------*\
| =========                 |                                                 |
| \\      /  F ield         | OpenFOAM: The Open Source CFD Toolbox           |
|  \\    /   O peration     | Version:  v2012                                 |
|   \\  /    A nd           | Website:  www.openfoam.com                      |
|    \\/     M anipulation  |                                                 |
\*---------------------------------------------------------------------------*/
FoamFile
{
    version     2.0;
    format      ascii;
    class       volVectorField;
    location    "2";
    object      ddtCorrDdt0(U);
}
// * * * * * * * * * * * * * * * * * * * * * * * * * * * * * * * * * * * * * //

dimensions      [0 1 -2 0 0 0 0];


internalField   nonuniform List<vector> 
167
(
(-0.000706246337185 -0.00107565309807 -9.7068756547e-22)
(-0.000550850312037 -0.00252894477804 -1.37058745095e-21)
(-0.000353881044187 -0.004409710711 7.42231468786e-22)
(-3.12055705443e-05 -0.006790399633 -7.83726340379e-22)
(0.000674462246637 -0.00993251234719 2.6613901835e-23)
(0.00177146937569 -0.0147526060925 -8.74017969737e-22)
(0.00262953721129 -0.0167385277511 2.1854962253e-22)
(0.000822107203647 -0.0354216460484 -6.78733222544e-22)
(-0.00120032516784 0.0376600997439 1.28123203393e-21)
(0.0411772787825 -0.00256524409931 8.58901505755e-21)
(2.60657562875 1.2007939714 2.84943119571e-19)
(11.6630275439 -14.2837179181 1.99823652625e-19)
(0.00212469020553 0.00195860423065 -1.16520095025e-21)
(0.00278453663998 0.000934220466416 2.88964704531e-21)
(0.00353180651363 -0.00048915407952 4.89902047015e-22)
(0.00439031887946 -0.00232804624521 1.26261254527e-21)
(0.00542531114218 -0.00467604670144 1.58622118427e-21)
(0.00674709305154 -0.00835099725919 -5.2459869694e-22)
(0.00745072505166 -0.00906004068539 -5.79109110492e-21)
(0.00748477512837 -0.0262671239199 1.3587325561e-21)
(0.0205444828704 0.0382619676162 -9.56793927779e-21)
(0.100471912533 -0.000492295564734 3.36830100934e-21)
(1.99800235326 0.147298397074 -4.03093433509e-19)
(13.6316210469 5.21226750961 4.47011405687e-19)
(0.00242014746193 0.00298717103149 2.62505009725e-23)
(0.00348673090513 0.00210391499684 7.87690401932e-22)
(0.00467307523924 0.000828605145301 -2.58883842014e-22)
(0.00597823784933 -0.000840072437275 -1.87119816064e-22)
(0.00739079906445 -0.00298376427965 8.48083470323e-23)
(0.00917849205493 -0.00634114676584 -4.96591432446e-21)
(0.0102819002613 -0.00642046329586 4.94926213627e-21)
(0.011868445822 -0.0195473027562 3.32898436669e-20)
(0.0106735733891 0.0478103670102 -3.43698470345e-20)
(0.0822590908125 0.00981787632657 -2.16258989683e-20)
(0.566835855817 -0.380755122157 -4.10114433127e-19)
(8.99435014238 3.91529381806 -1.13537854469e-19)
(0.00460961511301 0.00342480942095 -2.84678105329e-22)
(0.00620208338058 0.00228808480714 1.71955770071e-22)
(0.00792625389915 0.000762606825201 -9.23367699802e-23)
(0.00969788516919 -0.00121827997787 1.58051233674e-22)
(0.0118686015635 -0.00417287389831 -1.48251990913e-21)
(0.0129829689636 -0.00401584930995 -5.12968513254e-21)
(0.0141136175551 -0.0163228091268 9.5328974815e-21)
(0.0118366572346 0.0456284842144 6.74150193063e-22)
(0.0879502222864 0.00239465507262 2.24276504479e-21)
(-0.53808268396 -0.287089908601 2.53813248673e-21)
(6.77428694274 1.433341027 4.38617907986e-19)
(0.0076498480246 0.0041503937641 4.58217845979e-23)
(0.00979493295388 0.0027137712092 -2.57822495372e-23)
(0.0119072323291 0.000752751144078 -4.75189659411e-24)
(0.0143420392369 -0.00210882903819 -2.13995010176e-21)
(0.0152318975793 -0.00221656737088 -8.90258908715e-22)
(0.0158554194667 -0.0144293731566 -5.24872130984e-21)
(0.0125334165281 0.0415520290871 -2.18632218253e-20)
(0.0997636125808 0.000708137182548 -1.80359488834e-20)
(-0.651304165659 -0.0266665550122 -5.30998987956e-19)
(5.76340587647 -0.491667553368 -9.01069723375e-21)
(0.00908465468099 0.00645452017954 3.43361676314e-23)
(0.0117103955059 0.00505606061961 -2.33283552559e-23)
(0.0142474861644 0.00301558337268 -1.08353755908e-22)
(0.0169634717074 4.06834265489e-05 -2.1735145106e-21)
(0.0179423077193 -0.00050795209738 -4.33271759426e-22)
(0.0182579435717 -0.0125434997305 -1.05855607915e-20)
(0.0151415754198 0.0387027193236 -3.09398408736e-20)
(0.110091494173 -0.000614172285466 -2.29051432551e-20)
(0.0771290350106 -0.405519467536 -2.50654446392e-19)
(5.84257133934 -1.71782513264 1.1786030408e-21)
(0.0104510316824 0.00930156005512 3.9615238909e-23)
(0.0136857505014 0.00791047205988 -7.32898016523e-23)
(0.0168152132937 0.00567273008334 -6.35686055275e-22)
(0.0199510811541 0.00240916923101 -2.44821932381e-21)
(0.0212775402718 0.00111439404072 6.74643918929e-21)
(0.0209294046922 -0.0111503014409 -2.43865975876e-21)
(0.0157698839494 0.0351665818839 -3.23144328748e-20)
(0.0943595958078 -0.00158435781835 6.26531129987e-21)
(0.151155399496 -0.101835444457 9.07797739443e-19)
(0.814958511981 11.0677424758 2.14244764434e-19)
(0.0117299730048 0.0128100832714 1.03561855293e-22)
(0.0157466712008 0.0114464228124 -1.07310588371e-22)
(0.0197167308982 0.00898116748583 -2.00620624719e-22)
(0.0236408942987 0.00521870178916 -3.19649928053e-21)
(0.0258184193667 0.00250460721806 5.08911112966e-21)
(0.0258533437616 -0.011571407145 2.8544253595e-20)
(0.0178144352202 0.0241152771981 2.09653706983e-21)
(0.0765941450936 -0.0124045509234 1.53341268292e-20)
(-0.199447944001 -0.173844639752 8.07475450053e-20)
(-6.2642902342 1.96804327964 -1.01356644021e-20)
(0.012828529222 0.0171400564994 3.54085427861e-23)
(0.0178300620953 0.0159173855673 4.77051520698e-23)
(0.0229749207515 0.0133349420008 -5.47736598441e-22)
(0.0282141018849 0.00905268244326 -2.41526587486e-22)
(0.0321471454184 0.00472216714501 6.1984082374e-21)
(0.0347426712266 -0.0112607661327 -2.55735597011e-21)
(0.0266153149669 0.012018092056 7.44019509274e-21)
(0.0830440262441 -0.0198008251422 5.80468666136e-21)
(0.0543837693056 -0.161084531743 -1.40992586132e-21)
(-4.81868001949 -5.69623019751 -1.67233151448e-20)
(0.013557445019 0.0224504085948 1.35904030715e-23)
(0.0197310096501 0.021608183371 -1.02422877782e-22)
(0.0263960744386 0.0192105856053 -3.39578577292e-22)
(0.0335266055228 0.0147104234475 -1.04006128919e-21)
(0.0402239321614 0.00925877311482 -4.8390116879e-22)
(0.0465705465934 -0.00792470207069 6.23287019812e-21)
(0.0424694442243 0.0044086927027 8.59146026737e-21)
(0.10369658914 -0.0235662379263 -1.25367085104e-21)
(0.487913556131 0.0951496264922 -2.19296821972e-19)
(-0.126483474034 -1.73075789082 -4.75878168279e-21)
(0.0136419210054 0.028875288834 2.06480740675e-23)
(0.0210957810016 0.0287671114035 -4.47139869461e-24)
(0.0295453348294 0.0270469005257 -2.39968999114e-22)
(0.039034750901 0.0229437295557 6.02948422767e-22)
(0.0492661924659 0.0173855596575 -1.50506797737e-21)
(0.0603556319913 0.000211795305574 -1.12492447005e-20)
(0.0629395369131 0.0030162261298 1.47905595609e-21)
(0.131773173132 -0.0223537423446 7.84679853318e-21)
(0.63549380965 0.127819215269 -2.27371017336e-20)
(0.944845833263 -0.323979395678 6.63730802867e-20)
(0.0127409851302 0.0364190813611 1.1009766025e-22)
(0.0214757429505 0.0375205846807 -4.28171428562e-22)
(0.031750655492 0.0371349522535 -1.59095785355e-22)
(0.0437794172223 0.0342624931163 -2.22279857536e-21)
(0.0580010694427 0.0299109029041 -4.49609972958e-22)
(0.0741878413823 0.0147487660367 -7.15550850208e-21)
(0.0850756098318 0.0103572970082 -2.03089535868e-21)
(0.163250543185 -0.0135503345967 -6.27772172223e-21)
(0.642734508084 0.0302576436736 -4.25113999751e-21)
(0.363440300024 0.287283663278 2.70742097757e-22)
(0.0104679647875 0.0450203761018 7.28936006644e-24)
(0.0202996607569 0.0477872329791 -2.1157138559e-22)
(0.032215080099 0.0493782536412 -4.35538021277e-22)
(0.046683661899 0.0488782729884 -1.76508677001e-21)
(0.0647841394317 0.0470933257154 -6.01959036493e-22)
(0.0858838081728 0.0360797016332 1.19241117322e-20)
(0.104690789498 0.0269745096256 2.27934478171e-20)
(0.189262456658 0.00412132064715 -2.45134521363e-21)
(0.558719247352 0.0164170716312 4.25034791255e-20)
(0.200662145217 0.188510087193 5.50205928377e-21)
(0.00642592671187 0.0544072949806 1.28859857019e-22)
(0.0169834372763 0.0592800923376 -7.11419664728e-23)
(0.0300911679583 0.0635591214676 4.59147504987e-22)
(0.0464722595206 0.0665163010558 -1.13471005661e-21)
(0.0676039142289 0.0686960174428 3.22552855687e-21)
(0.0930587010377 0.0646034637644 -3.67835018511e-22)
(0.117545485314 0.0534747773346 1.04016130029e-21)
(0.205628503428 0.0321667761709 1.56413370824e-20)
(0.466234406613 0.0650161361199 -1.31810162141e-20)
(0.111528937345 0.218307382176 -4.36741571272e-20)
(0.00034401564586 0.06415645991 8.80903019037e-23)
(0.0111145048423 0.0714640453558 -1.48081449222e-22)
(0.0246453546943 0.0788889393443 -2.72228199375e-23)
(0.0418390872657 0.0861077438742 -7.95149039588e-22)
(0.0644563401723 0.0936028871894 5.63081475583e-23)
(0.093167567732 0.0994042369597 -1.30625278669e-21)
(0.118860693977 0.0909874646669 5.76786344078e-21)
(0.191960052271 0.0765362222448 -1.45671316485e-20)
(0.292064364216 0.22395112869 -1.16266103713e-20)
(0.0245386293917 0.555451877673 4.16549671388e-20)
(-0.00790517883584 0.0737830629574 1.48305092909e-22)
(0.00245619202129 0.083600522595 -3.7118486487e-23)
(0.0155384932336 0.094302170337 2.43080563644e-22)
(0.0322189883083 0.106044496732 -1.06955013495e-22)
(0.0538821220068 0.11993084638 -6.22558846683e-23)
(0.0805132883992 0.139828438098 1.92475280553e-21)
(0.105969546122 0.134908288811 3.75886670251e-21)
(0.155462090325 0.1277825778 -4.52001504488e-21)
(0.115622642314 0.171261201061 -6.46976946201e-21)
(-0.113630980702 0.300621231935 1.25199906594e-21)
)
;

boundaryField
{
    back
    {
        type            calculated;
        value           uniform (0 0 0);
    }
    sides
    {
        type            calculated;
        value           uniform (0 0 0);
    }
    bottom
    {
        type            calculated;
        value           nonuniform List<vector> 0();
    }
    front
    {
        type            calculated;
        value           uniform (0 0 0);
    }
    atmosphere
    {
        type            calculated;
        value           nonuniform List<vector> 
16
(
(11.663027907 -14.2837179181 1.99823615079e-19)
(-17.0741429343 5.21226750961 -2.67712169639e-19)
(-4.01561687361 3.91529381806 -8.21672264681e-21)
(1.75728586313 1.433341027 4.3488830319e-21)
(-0.740842841454 -0.491667553368 -2.77297424045e-21)
(-2.52030971443 -1.71782513264 -2.55011126145e-19)
(18.9436130817 11.0677424758 3.55850480574e-18)
(-14.2454264891 1.96804327964 -2.03598586968e-19)
(-4.23305524875 -5.69623019751 -3.08287472995e-20)
(27.5941053781 -1.73075789082 7.0744679758e-19)
(-9.45691249462 -0.323979395678 -2.67807833986e-19)
(0.707044532299 0.287283663278 -8.76448864398e-20)
(0.103868703643 0.188510087193 6.07016695608e-21)
(0.0134897339617 0.218307382176 2.10377964842e-21)
(0 0.555451877673 0)
(-0.178275658692 0.300621231935 -1.47342788062e-20)
)
;
    }
    floatingObject
    {
        type            calculated;
        value           nonuniform List<vector> 0();
    }
    procBoundary1to0
    {
        type            processor;
        value           nonuniform List<vector> 10((-0.0183310630082 0.0827214556944 -5.00666355698e-23) (-0.00899826254872 0.094948963209 -2.66159361515e-22) (0.00285404508603 0.108740012923 -7.37747694158e-23) (0.0179581788946 0.124424293808 -3.05478327375e-22) (0.0373758719761 0.141569590528 -2.25393294582e-21) (0.0625075957371 0.169860503797 -3.33525900393e-21) (0.0905324172036 0.176037838546 4.533277108e-21) (0.137176183525 0.194857504841 -4.25043911485e-21) (0.0812214942101 0.204577714736 -1.48434525114e-21) (-0.0551451918318 0.14271781647 2.13183048397e-20));
    }
    procBoundary1to2
    {
        type            processor;
        value           nonuniform List<vector> 
18
(
(-0.000841377197221 -1.27014898226e-05 -2.26577090257e-21)
(0.00154153123293 0.00261865049351 3.84292291743e-22)
(0.00147214707403 0.00351916187247 -3.95031788996e-22)
(0.00315150015993 0.00416595774877 1.89059113975e-22)
(0.00315150015993 0.00416595774877 1.89059113975e-22)
(0.00562352129677 0.00514930483375 -9.72522301085e-23)
(0.00562352129677 0.00514930483375 -9.72522301085e-23)
(0.00655576740945 0.00734705475537 7.11941064913e-23)
(0.0073256211251 0.0100687010615 1.40962651702e-22)
(0.00790316300225 0.0133946849524 2.41448403517e-23)
(0.00818536421493 0.0174217940528 4.10588338951e-23)
(0.00799390544379 0.022240560942 1.70399289043e-23)
(0.00712741214537 0.0278877874423 -2.70356571195e-23)
(0.00533352011623 0.0343551620802 -4.72459176748e-23)
(0.00231364837582 0.0415273799356 -6.57450574783e-23)
(-0.00214947940145 0.049214450409 -6.07691131381e-23)
(-0.00825253432214 0.05706357001 -2.03859120544e-24)
(-0.0160928025288 0.0647141381396 -1.3618624336e-22)
)
;
    }
}


// ************************************************************************* //
