/*--------------------------------*- C++ -*----------------------------------*\
| =========                 |                                                 |
| \\      /  F ield         | OpenFOAM: The Open Source CFD Toolbox           |
|  \\    /   O peration     | Version:  v2012                                 |
|   \\  /    A nd           | Website:  www.openfoam.com                      |
|    \\/     M anipulation  |                                                 |
\*---------------------------------------------------------------------------*/
FoamFile
{
    version     2.0;
    format      ascii;
    class       volScalarField;
    location    "2";
    object      nut;
}
// * * * * * * * * * * * * * * * * * * * * * * * * * * * * * * * * * * * * * //

dimensions      [0 2 -1 0 0 0 0];


internalField   nonuniform List<scalar> 
167
(
0.000648355680074
0.000650188452212
0.000652413394885
0.000655865789381
0.000662888385929
0.000678662572997
0.000711158416449
0.000769595795423
0.000859447322865
0.000988648356231
0.00118237681552
0.00179631031531
0.000960631736915
0.000962825802114
0.000965727588087
0.000970835812057
0.000982054226767
0.00100733833691
0.00105776051648
0.00114231371196
0.00126039650786
0.00141966409
0.0017121706521
0.0029087525262
0.000988463988756
0.000990594333895
0.000993480083777
0.000998676281194
0.00101015091845
0.00103585288115
0.00108673098383
0.00117177650965
0.00129011898693
0.00144955152722
0.00175274222464
0.00287232414308
0.00100051088706
0.00100336053074
0.00100850559788
0.00101984670112
0.00104520773871
0.00109551887984
0.00118023722528
0.00129941326581
0.00146106996128
0.00176167231844
0.00265947707626
0.00100706949077
0.00101210717237
0.00102320678022
0.00104808043658
0.00109768188869
0.00118184034168
0.0013015165271
0.00146548277595
0.00177309329206
0.00289279040773
0.00100869023451
0.0010135892714
0.00102440072618
0.0010487347322
0.00109759691268
0.00118113141096
0.0013011329955
0.00146684775138
0.00175153765511
0.0023811051004
0.00100965306712
0.00101439411849
0.00102488890994
0.0010486443312
0.00109672102361
0.00117957907347
0.00129983397857
0.00146785451503
0.00175545988511
0.00231246474817
0.00101043737397
0.00101500814126
0.00102516259602
0.00104829948224
0.00109554157342
0.00117765926544
0.00129813512018
0.00146873901424
0.00176078129975
0.00231327748158
0.00101118988656
0.00101558251174
0.00102537723355
0.00104785483127
0.00109419508986
0.00117548312343
0.00129615451302
0.00146923349356
0.00176231172688
0.00239356080528
0.00101194698729
0.00101615632064
0.0010255750754
0.00104735398663
0.00109272162205
0.00117308869722
0.0012939087966
0.00146901262006
0.00176501413051
0.0027513103204
0.00101271198382
0.00101673471606
0.00102576526794
0.00104681091893
0.00109113909011
0.00117049671186
0.00129146118061
0.00146954377768
0.00178202790924
0.00290342797523
0.0010134790513
0.00101731460349
0.00102594694588
0.00104622956383
0.0010894540922
0.00116771332757
0.00128876727269
0.00147117596191
0.00182086056974
0.00291766727568
0.00101423998048
0.00101789091866
0.00102612435228
0.00104562502786
0.0010876839827
0.00116473207724
0.00128545436779
0.00147082098564
0.00184395485153
0.00294765170103
0.0010149886479
0.00101846069711
0.00102630428574
0.00104503836893
0.0010859360513
0.00116165936278
0.00128144634677
0.00147014937259
0.00187724031302
0.00298951496887
0.00101572240573
0.00101902785621
0.00102651280737
0.00104455955999
0.00108445098944
0.00115898371123
0.00127732230385
0.00146955726326
0.00191334725913
0.00297783124951
0.0010164398127
0.00101959849644
0.00102678857798
0.00104433231452
0.00108368406825
0.00115804698853
0.00127578497348
0.00145722772244
0.00180468224691
0.00246225291733
)
;

boundaryField
{
    back
    {
        type            nutkWallFunction;
        blending        stepwise;
        Cmu             0.09;
        kappa           0.41;
        E               9.8;
        value           nonuniform List<scalar> 
167
(
8.7190545323e-05
8.74087550898e-05
8.76751722368e-05
8.80958416544e-05
8.89708610309e-05
9.09678073934e-05
9.51146245785e-05
0.000102573687331
0.000113965396665
0.000130220904254
0.000165092000503
0.000262494541648
9.5969864968e-05
9.61646623781e-05
9.64246136686e-05
9.68912577444e-05
9.79366497111e-05
0.000100322838485
0.000105103079991
0.000113088152184
0.000124128350484
0.000138840297359
0.000176795190796
0.000316222375621
9.85005972624e-05
9.86899869755e-05
9.89487831235e-05
9.94232066698e-05
0.000100489709599
0.000102905999197
0.000107708699905
0.000115709572077
0.00012674323337
0.0001414235214
0.0001811182656
0.000324033647127
9.95915911134e-05
9.98474929728e-05
0.000100317196801
0.00010136986621
0.000103749323444
0.000108488464123
0.000116444794345
0.000127543057792
0.000142420615051
0.000182583579349
0.000316212452504
0.00010018409078
0.000100643808402
0.000101672814229
0.000104002831741
0.00010866746313
0.00011655967195
0.000127688926865
0.000142753564599
0.000183916648178
0.00032251065913
0.000100330033263
0.000100776727013
0.000101777557821
0.000104053048147
0.000108640038114
0.000116461024625
0.000127602878076
0.000142827151623
0.00018389423653
0.000291116976003
0.000100415772589
0.000100847565333
0.000101817403905
0.000104034298342
0.000108538228185
0.000116280996737
0.000127424511523
0.000142826458133
0.000184861638556
0.000283933058964
0.000100485200552
0.000100900918607
0.000101837455581
0.000103991679159
0.000108406997651
0.000116063352523
0.000127200427886
0.000142798848922
0.000185923152896
0.000282339743513
0.000100551848718
0.00010095077041
0.000101852172708
0.000103939720911
0.000108259334277
0.000115818926902
0.00012694401361
0.000142739997658
0.000186732973879
0.000280096689143
0.000100619143984
0.00010100082992
0.000101865634428
0.000103882796872
0.000108099616315
0.000115552450915
0.000126658713645
0.000142607361826
0.000187507785455
0.000285770276337
0.000100687455069
0.00010105166547
0.000101878871681
0.00010382259301
0.000107930383471
0.000115267450972
0.000126351303085
0.000142512107994
0.000189618467378
0.000295877935576
0.000100756299357
0.000101103057315
0.000101891924649
0.000103759766003
0.000107752971949
0.000114966196819
0.000126021939599
0.00014247937682
0.000194579752693
0.000316764128551
0.000100824945543
0.000101154573956
0.000101905233222
0.000103695870725
0.00010756930967
0.000114649660659
0.000125642610586
0.000142281163993
0.000199212402929
0.000323893003363
0.000100892822338
0.000101205913268
0.000101919353789
0.000103634480354
0.000107389155451
0.00011432784076
0.000125202082532
0.000142011172375
0.000206340938295
0.000331032628783
0.000100959655167
0.000101257379766
0.000101936510331
0.000103583305299
0.00010723278206
0.000114039956984
0.000124741235456
0.000141783887477
0.000220205602733
0.000338247707237
0.0001010252942
0.000101309533353
0.000101960403149
0.000103556209303
0.000107143365886
0.000113905332029
0.000124501742484
0.000140673747243
0.000214527820029
0.000297336198326
)
;
    }
    sides
    {
        type            nutkWallFunction;
        blending        stepwise;
        Cmu             0.09;
        kappa           0.41;
        E               9.8;
        value           nonuniform List<scalar> 
12
(
4.63966808622e-05
4.6512972604e-05
4.66549533209e-05
4.68791336718e-05
4.73454218968e-05
4.84094665915e-05
5.06185824605e-05
5.45907491211e-05
6.06538382474e-05
6.93002188228e-05
8.78010534232e-05
0.000137115026182
)
;
    }
    bottom
    {
        type            nutkWallFunction;
        blending        stepwise;
        Cmu             0.09;
        kappa           0.41;
        E               9.8;
        value           nonuniform List<scalar> 0();
    }
    front
    {
        type            nutkWallFunction;
        blending        stepwise;
        Cmu             0.09;
        kappa           0.41;
        E               9.8;
        value           nonuniform List<scalar> 
167
(
8.7190545323e-05
8.74087550898e-05
8.76751722368e-05
8.80958416544e-05
8.89708610309e-05
9.09678073934e-05
9.51146245785e-05
0.000102573687331
0.000113965396665
0.000130220904254
0.000165092000503
0.000262494541648
9.5969864968e-05
9.61646623781e-05
9.64246136686e-05
9.68912577444e-05
9.79366497111e-05
0.000100322838485
0.000105103079991
0.000113088152184
0.000124128350484
0.000138840297359
0.000176795190796
0.000316222375621
9.85005972624e-05
9.86899869755e-05
9.89487831235e-05
9.94232066698e-05
0.000100489709599
0.000102905999197
0.000107708699905
0.000115709572077
0.00012674323337
0.0001414235214
0.0001811182656
0.000324033647127
9.95915911134e-05
9.98474929728e-05
0.000100317196801
0.00010136986621
0.000103749323444
0.000108488464123
0.000116444794345
0.000127543057792
0.000142420615051
0.000182583579349
0.000316212452504
0.00010018409078
0.000100643808402
0.000101672814229
0.000104002831741
0.00010866746313
0.00011655967195
0.000127688926865
0.000142753564599
0.000183916648178
0.00032251065913
0.000100330033263
0.000100776727013
0.000101777557821
0.000104053048147
0.000108640038114
0.000116461024625
0.000127602878076
0.000142827151623
0.00018389423653
0.000291116976003
0.000100415772589
0.000100847565333
0.000101817403905
0.000104034298342
0.000108538228185
0.000116280996737
0.000127424511523
0.000142826458133
0.000184861638556
0.000283933058964
0.000100485200552
0.000100900918607
0.000101837455581
0.000103991679159
0.000108406997651
0.000116063352523
0.000127200427886
0.000142798848922
0.000185923152896
0.000282339743513
0.000100551848718
0.00010095077041
0.000101852172708
0.000103939720911
0.000108259334277
0.000115818926902
0.00012694401361
0.000142739997658
0.000186732973879
0.000280096689143
0.000100619143984
0.00010100082992
0.000101865634428
0.000103882796872
0.000108099616315
0.000115552450915
0.000126658713645
0.000142607361826
0.000187507785455
0.000285770276337
0.000100687455069
0.00010105166547
0.000101878871681
0.00010382259301
0.000107930383471
0.000115267450972
0.000126351303085
0.000142512107994
0.000189618467378
0.000295877935576
0.000100756299357
0.000101103057315
0.000101891924649
0.000103759766003
0.000107752971949
0.000114966196819
0.000126021939599
0.00014247937682
0.000194579752693
0.000316764128551
0.000100824945543
0.000101154573956
0.000101905233222
0.000103695870725
0.00010756930967
0.000114649660659
0.000125642610586
0.000142281163993
0.000199212402929
0.000323893003363
0.000100892822338
0.000101205913268
0.000101919353789
0.000103634480354
0.000107389155451
0.00011432784076
0.000125202082532
0.000142011172375
0.000206340938295
0.000331032628783
0.000100959655167
0.000101257379766
0.000101936510331
0.000103583305299
0.00010723278206
0.000114039956984
0.000124741235456
0.000141783887477
0.000220205602733
0.000338247707237
0.0001010252942
0.000101309533353
0.000101960403149
0.000103556209303
0.000107143365886
0.000113905332029
0.000124501742484
0.000140673747243
0.000214527820029
0.000297336198326
)
;
    }
    atmosphere
    {
        type            calculated;
        value           nonuniform List<scalar> 
16
(
0.00179631031531
0.009
0.009
0.00265947707626
0.009
0.0023811051004
0.00231246474817
0.00231327748158
0.009
0.009
0.009
0.009
0.009
0.009
0.009
0.00246225291733
)
;
    }
    floatingObject
    {
        type            nutkWallFunction;
        blending        stepwise;
        Cmu             0.09;
        kappa           0.41;
        E               9.8;
        value           nonuniform List<scalar> 0();
    }
    procBoundary1to0
    {
        type            processor;
        value           nonuniform List<scalar> 10(0.00101713855745 0.00102017101738 0.00102712962239 0.00104434793547 0.00108365811607 0.00115969047103 0.0012832067658 0.00146649277109 0.00173238842685 0.0020548245681);
    }
    procBoundary1to2
    {
        type            processor;
        value           nonuniform List<scalar> 
18
(
0.000646663899509
0.000958663759534
0.000986579251755
0.000998422237037
0.000998422237037
0.00100427926249
0.00100427926249
0.00100597936528
0.00100703366623
0.0010079158964
0.00100876895238
0.00100962692664
0.00101049245394
0.00101135735586
0.00101221303826
0.00101305338899
0.00101387333925
0.0010146686098
)
;
    }
}


// ************************************************************************* //
