/*--------------------------------*- C++ -*----------------------------------*\
| =========                 |                                                 |
| \\      /  F ield         | OpenFOAM: The Open Source CFD Toolbox           |
|  \\    /   O peration     | Version:  v2012                                 |
|   \\  /    A nd           | Website:  www.openfoam.com                      |
|    \\/     M anipulation  |                                                 |
\*---------------------------------------------------------------------------*/
FoamFile
{
    version     2.0;
    format      ascii;
    class       volScalarField;
    location    "2";
    object      p_rgh;
}
// * * * * * * * * * * * * * * * * * * * * * * * * * * * * * * * * * * * * * //

dimensions      [1 -1 -2 0 0 0 0];


internalField   nonuniform List<scalar> 
167
(
8584.81527548
8584.86231638
8584.98416985
8585.20063309
8585.53242145
8586.01374202
8586.71856931
8587.7530367
8589.11705911
4821.97463262
82.7683180155
0.837836389371
8584.5985759
8584.61147479
8584.69501829
8584.86608449
8585.13744612
8585.5281253
8586.09330981
8586.98537142
8587.65987755
4799.75838191
67.4009114856
-0.0870161766364
8584.32061664
8584.2763971
8584.29761954
8584.39883418
8584.59011627
8584.88922299
8585.33220597
8586.04182368
8586.36729729
4768.00718247
64.5254521055
-0.0926091770285
8583.83283209
8583.76612084
8583.77288659
8583.861909
8584.05319619
8584.36588012
8584.9163245
8585.11789371
4750.86224471
63.8948878039
-0.0990293778083
8583.08441766
8582.97103083
8582.93365953
8582.99625757
8583.17068378
8583.57570041
8583.72050917
4731.35444039
61.6092071176
-0.125962960925
8582.2700038
8582.00396322
8581.8105489
8581.7211716
8581.74005869
8581.98309108
8582.01806803
4709.80160251
58.7072421462
-0.116948910516
8581.33252986
8580.88108779
8580.49903504
8580.22620725
8580.06870361
8580.13996896
8580.05980615
4688.49278664
55.0020962058
0.492410508697
8580.28781812
8579.61157637
8578.99892674
8578.50191729
8578.1414538
8578.06324593
8578.01251789
4660.48791841
52.5934630594
0.050426206448
8579.15542501
8578.20654619
8577.30884912
8576.525459
8575.89753028
8575.60578162
8575.52068413
4625.20982878
49.9621413251
-0.192047210577
8577.96286679
8576.68626321
8575.4343271
8574.27667888
8573.27448071
8572.63088223
8572.33983897
4576.48886534
44.9683603858
-0.10485777583
8576.74826223
8575.08680134
8573.39900001
8571.75916538
8570.24009789
8569.04105993
8568.25149471
4509.06355518
38.7612964133
-0.0553044084683
8575.56491187
8573.46074272
8571.25654311
8569.01843971
8566.81962503
8564.82264705
8563.169
4418.17147978
30.8775054966
-0.0273304054329
8574.48291628
8571.88631496
8569.0927627
8566.14877244
8563.10645111
8560.08166555
8557.20261929
4303.83901263
22.872192036
-0.0117503442833
8573.58761225
8570.46609584
8567.03096102
8563.29065145
8559.26649847
8555.01674271
8550.6627148
4171.4196662
14.4800205319
-0.0018824891134
8572.97779049
8569.32413438
8565.2268719
8560.65343334
8555.56681533
8549.9080003
8529.60998165
4031.58360439
4.4328665452
0.0043516013978
8572.75990917
8568.59712934
8563.86718853
8558.50046073
8552.38550725
8545.24344509
8464.27509437
3918.85422528
0.0328876251827
0.00697453696751
)
;

boundaryField
{
    back
    {
        type            fixedFluxPressure;
        gradient        uniform 0;
        value           nonuniform List<scalar> 
167
(
8584.81527548
8584.86231638
8584.98416985
8585.20063309
8585.53242145
8586.01374202
8586.71856931
8587.7530367
8589.11705911
4821.97463262
82.7683180155
0.837836389371
8584.5985759
8584.61147479
8584.69501829
8584.86608449
8585.13744612
8585.5281253
8586.09330981
8586.98537142
8587.65987755
4799.75838191
67.4009114856
-0.0870161766364
8584.32061664
8584.2763971
8584.29761954
8584.39883418
8584.59011627
8584.88922299
8585.33220597
8586.04182368
8586.36729729
4768.00718247
64.5254521055
-0.0926091770285
8583.83283209
8583.76612084
8583.77288659
8583.861909
8584.05319619
8584.36588012
8584.9163245
8585.11789371
4750.86224471
63.8948878039
-0.0990293778083
8583.08441766
8582.97103083
8582.93365953
8582.99625757
8583.17068378
8583.57570041
8583.72050917
4731.35444039
61.6092071176
-0.125962960925
8582.2700038
8582.00396322
8581.8105489
8581.7211716
8581.74005869
8581.98309108
8582.01806803
4709.80160251
58.7072421462
-0.116948910516
8581.33252986
8580.88108779
8580.49903504
8580.22620725
8580.06870361
8580.13996896
8580.05980615
4688.49278664
55.0020962058
0.492410508697
8580.28781812
8579.61157637
8578.99892674
8578.50191729
8578.1414538
8578.06324593
8578.01251789
4660.48791841
52.5934630594
0.050426206448
8579.15542501
8578.20654619
8577.30884912
8576.525459
8575.89753028
8575.60578162
8575.52068413
4625.20982878
49.9621413251
-0.192047210577
8577.96286679
8576.68626321
8575.4343271
8574.27667888
8573.27448071
8572.63088223
8572.33983897
4576.48886534
44.9683603858
-0.10485777583
8576.74826223
8575.08680134
8573.39900001
8571.75916538
8570.24009789
8569.04105993
8568.25149471
4509.06355518
38.7612964133
-0.0553044084683
8575.56491187
8573.46074272
8571.25654311
8569.01843971
8566.81962503
8564.82264705
8563.169
4418.17147978
30.8775054966
-0.0273304054329
8574.48291628
8571.88631496
8569.0927627
8566.14877244
8563.10645111
8560.08166555
8557.20261929
4303.83901263
22.872192036
-0.0117503442833
8573.58761225
8570.46609584
8567.03096102
8563.29065145
8559.26649847
8555.01674271
8550.6627148
4171.4196662
14.4800205319
-0.0018824891134
8572.97779049
8569.32413438
8565.2268719
8560.65343334
8555.56681533
8549.9080003
8529.60998165
4031.58360439
4.4328665452
0.0043516013978
8572.75990917
8568.59712934
8563.86718853
8558.50046073
8552.38550725
8545.24344509
8464.27509437
3918.85422528
0.0328876251827
0.00697453696751
)
;
    }
    sides
    {
        type            fixedFluxPressure;
        gradient        uniform 0;
        value           nonuniform List<scalar> 
12
(
8584.81527548
8584.86231638
8584.98416985
8585.20063309
8585.53242145
8586.01374202
8586.71856931
8587.7530367
8589.11705911
4821.97463262
82.7683180155
0.837836389371
)
;
    }
    bottom
    {
        type            fixedFluxPressure;
        gradient        nonuniform List<scalar> 0();
        value           nonuniform List<scalar> 0();
    }
    front
    {
        type            fixedFluxPressure;
        gradient        uniform 0;
        value           nonuniform List<scalar> 
167
(
8584.81527548
8584.86231638
8584.98416985
8585.20063309
8585.53242145
8586.01374202
8586.71856931
8587.7530367
8589.11705911
4821.97463262
82.7683180155
0.837836389371
8584.5985759
8584.61147479
8584.69501829
8584.86608449
8585.13744612
8585.5281253
8586.09330981
8586.98537142
8587.65987755
4799.75838191
67.4009114856
-0.0870161766364
8584.32061664
8584.2763971
8584.29761954
8584.39883418
8584.59011627
8584.88922299
8585.33220597
8586.04182368
8586.36729729
4768.00718247
64.5254521055
-0.0926091770285
8583.83283209
8583.76612084
8583.77288659
8583.861909
8584.05319619
8584.36588012
8584.9163245
8585.11789371
4750.86224471
63.8948878039
-0.0990293778083
8583.08441766
8582.97103083
8582.93365953
8582.99625757
8583.17068378
8583.57570041
8583.72050917
4731.35444039
61.6092071176
-0.125962960925
8582.2700038
8582.00396322
8581.8105489
8581.7211716
8581.74005869
8581.98309108
8582.01806803
4709.80160251
58.7072421462
-0.116948910516
8581.33252986
8580.88108779
8580.49903504
8580.22620725
8580.06870361
8580.13996896
8580.05980615
4688.49278664
55.0020962058
0.492410508697
8580.28781812
8579.61157637
8578.99892674
8578.50191729
8578.1414538
8578.06324593
8578.01251789
4660.48791841
52.5934630594
0.050426206448
8579.15542501
8578.20654619
8577.30884912
8576.525459
8575.89753028
8575.60578162
8575.52068413
4625.20982878
49.9621413251
-0.192047210577
8577.96286679
8576.68626321
8575.4343271
8574.27667888
8573.27448071
8572.63088223
8572.33983897
4576.48886534
44.9683603858
-0.10485777583
8576.74826223
8575.08680134
8573.39900001
8571.75916538
8570.24009789
8569.04105993
8568.25149471
4509.06355518
38.7612964133
-0.0553044084683
8575.56491187
8573.46074272
8571.25654311
8569.01843971
8566.81962503
8564.82264705
8563.169
4418.17147978
30.8775054966
-0.0273304054329
8574.48291628
8571.88631496
8569.0927627
8566.14877244
8563.10645111
8560.08166555
8557.20261929
4303.83901263
22.872192036
-0.0117503442833
8573.58761225
8570.46609584
8567.03096102
8563.29065145
8559.26649847
8555.01674271
8550.6627148
4171.4196662
14.4800205319
-0.0018824891134
8572.97779049
8569.32413438
8565.2268719
8560.65343334
8555.56681533
8549.9080003
8529.60998165
4031.58360439
4.4328665452
0.0043516013978
8572.75990917
8568.59712934
8563.86718853
8558.50046073
8552.38550725
8545.24344509
8464.27509437
3918.85422528
0.0328876251827
0.00697453696751
)
;
    }
    atmosphere
    {
        type            totalPressure;
        rho             rho;
        psi             none;
        gamma           1;
        p0              uniform 0;
        value           nonuniform List<scalar> 
16
(
0
0
-9.09571635183e-05
0
-7.91798627282e-05
0
0
0
0
-0.000129997387232
-2.3115810212e-05
-2.00319648522e-05
-1.03568135814e-05
-8.91645710935e-05
-8.9864270807e-07
0
)
;
    }
    floatingObject
    {
        type            fixedFluxPressure;
        gradient        nonuniform List<scalar> 0();
        value           nonuniform List<scalar> 0();
    }
    procBoundary1to0
    {
        type            processor;
        value           nonuniform List<scalar> 10(8573.03603459 8568.41519253 8563.11829951 8557.06200668 8550.14867829 8542.30539704 8440.00247929 3809.86396174 0.0122541758589 0.00652761861047);
    }
    procBoundary1to2
    {
        type            processor;
        value           nonuniform List<scalar> 
18
(
8584.82461825
8584.63870509
8584.41090242
8583.95805848
8583.95805848
8583.26902703
8583.26902703
8582.60062971
8581.83892689
8581.00472611
8580.12247491
8579.22240503
8578.34366793
8577.53692803
8576.86377939
8576.39680242
8576.21658954
8576.40738591
)
;
    }
}


// ************************************************************************* //
