/*--------------------------------*- C++ -*----------------------------------*\
| =========                 |                                                 |
| \\      /  F ield         | OpenFOAM: The Open Source CFD Toolbox           |
|  \\    /   O peration     | Version:  v2012                                 |
|   \\  /    A nd           | Website:  www.openfoam.com                      |
|    \\/     M anipulation  |                                                 |
\*---------------------------------------------------------------------------*/
FoamFile
{
    version     2.0;
    format      ascii;
    class       volScalarField;
    location    "5.9";
    object      ddt0(k);
}
// * * * * * * * * * * * * * * * * * * * * * * * * * * * * * * * * * * * * * //

dimensions      [0 2 -3 0 0 0 0];


internalField   nonuniform List<scalar> 
164
(
-0.000354294015987
-0.000434149588198
-0.000484779722996
-0.000606050372678
-5.78368469511e-05
0.00825383681815
0.0457516554127
0.0188149780157
-0.00040242384139
-0.000533661161022
-0.000572577878037
-0.000605658148366
0.000579702743654
0.0109093830228
0.0422297169929
-0.0168815492001
-0.000404128202927
-0.000537734530341
-0.000579033187777
-0.000616354048475
0.000491126400476
0.00917993779314
0.0311585340333
0.0493590539869
-0.000359808988585
-0.000442924915328
-0.000502802839469
-0.000628653745985
-0.000201903898295
0.00415336038619
0.0177597983084
-0.167988772965
-0.000475337559478
-0.000687400245833
-0.000675433777287
0.00149336683273
0.0047616045528
-0.204197138646
-0.000517011569527
-0.000743014073261
-0.000860522452052
0.000792633485677
-0.00417792561674
-0.0690127440237
-0.000553453712842
-0.000797784867235
-0.00107059202734
0.000353555599967
0.000112970450522
-0.00474951989266
-0.000558327663932
-0.000806140479418
-0.0011295962384
8.66976769152e-05
-0.0033372190692
-0.00185583279528
-0.000539885537843
-0.000742886822502
-0.00088599387452
0.000645851850752
0.00406243311439
0.0555688039697
-0.000503579018703
-0.000618246287707
-0.000347341116813
0.00293581784739
0.0125011827266
0.0616416773835
-0.000464457405776
-0.0004720304012
0.000250933742532
0.00656677226582
0.0248456852527
0.0130423058772
-0.000433234503021
-0.000408280108377
0.000367905783919
0.0074954729363
0.0346365428764
0.0506569626995
-0.000400265367604
-0.000326703572747
0.000536287108382
0.00743899635214
0.0391152562589
0.0731486185891
-0.000367723436999
-0.000217443355707
0.00105813477905
0.00879570522647
0.0246684214679
0.0136381354881
-0.00034828652556
-0.000184607427973
0.00105605035543
0.00810564524391
0.0207185766285
0.00551755634523
-0.000345386079875
-0.00023126459018
0.000727312235867
0.00673672778218
0.019577054702
0.00568454331344
-0.000343434637545
-0.000267096148995
0.000533215041021
0.00652949103684
0.0192860779218
0.00605904936108
-0.000330082371248
-0.000231098462399
0.000649976737219
0.00668995449221
0.0154151029611
0.00343822446743
-0.000310231203165
-0.000141528510495
0.00102264126915
0.00800654632627
0.0141163613993
0.00158416837994
-0.000285385166739
-5.9688127063e-06
0.00149349060987
0.00881105732275
0.0165611553527
0.0028378341504
-0.000261146756781
0.000124557164417
0.00183733962591
0.00921420127878
0.0235604342263
0.00660895286954
-0.000243125906773
0.000216068436393
0.00211950931966
0.00872075667849
0.0217005682402
0.00636043677124
-0.000226845815571
0.000288733112162
0.00237655861259
0.0088117501106
0.0158726288911
0.00292991419719
-0.000213901732849
0.000333691280859
0.00259988240999
0.0098014164181
0.0146233793003
0.000691025006531
0.00271961051133
0.0112136987411
0.016149782088
0.000158658660186
0.00268682806982
0.0131286450999
0.0182788499627
0.000631266376198
0.00265765396721
0.0124097273837
-0.00422092884945
-0.00710395372315
)
;

boundaryField
{
    back
    {
        type            calculated;
        value           nonuniform List<scalar> 
164
(
-0.000354294015987
-0.000434149588198
-0.000484779722996
-0.000606050372678
-5.78368469511e-05
0.00825383681815
0.0457516554127
0.0188149780157
-0.00040242384139
-0.000533661161022
-0.000572577878037
-0.000605658148366
0.000579702743654
0.0109093830228
0.0422297169929
-0.0168815492001
-0.000404128202927
-0.000537734530341
-0.000579033187777
-0.000616354048475
0.000491126400476
0.00917993779314
0.0311585340333
0.0493590539869
-0.000359808988585
-0.000442924915328
-0.000502802839469
-0.000628653745985
-0.000201903898295
0.00415336038619
0.0177597983084
-0.167988772965
-0.000475337559478
-0.000687400245833
-0.000675433777287
0.00149336683273
0.0047616045528
-0.204197138646
-0.000517011569527
-0.000743014073261
-0.000860522452052
0.000792633485677
-0.00417792561674
-0.0690127440237
-0.000553453712842
-0.000797784867235
-0.00107059202734
0.000353555599967
0.000112970450522
-0.00474951989266
-0.000558327663932
-0.000806140479418
-0.0011295962384
8.66976769152e-05
-0.0033372190692
-0.00185583279528
-0.000539885537843
-0.000742886822502
-0.00088599387452
0.000645851850752
0.00406243311439
0.0555688039697
-0.000503579018703
-0.000618246287707
-0.000347341116813
0.00293581784739
0.0125011827266
0.0616416773835
-0.000464457405776
-0.0004720304012
0.000250933742533
0.00656677226582
0.0248456852527
0.0130423058772
-0.000433234503021
-0.000408280108377
0.000367905783919
0.0074954729363
0.0346365428764
0.0506569626995
-0.000400265367604
-0.000326703572747
0.000536287108382
0.00743899635214
0.0391152562589
0.0731486185891
-0.000367723436999
-0.000217443355707
0.00105813477905
0.00879570522647
0.0246684214679
0.0136381354881
-0.00034828652556
-0.000184607427973
0.00105605035543
0.00810564524391
0.0207185766285
0.00551755634523
-0.000345386079875
-0.00023126459018
0.000727312235867
0.00673672778218
0.019577054702
0.00568454331345
-0.000343434637545
-0.000267096148995
0.000533215041022
0.00652949103684
0.0192860779218
0.00605904936108
-0.000330082371248
-0.000231098462399
0.000649976737219
0.00668995449221
0.0154151029611
0.00343822446743
-0.000310231203165
-0.000141528510495
0.00102264126915
0.00800654632627
0.0141163613993
0.00158416837994
-0.000285385166739
-5.96881270631e-06
0.00149349060987
0.00881105732275
0.0165611553527
0.0028378341504
-0.000261146756781
0.000124557164417
0.00183733962591
0.00921420127878
0.0235604342263
0.00660895286954
-0.000243125906773
0.000216068436393
0.00211950931966
0.00872075667849
0.0217005682402
0.00636043677124
-0.000226845815571
0.000288733112162
0.00237655861259
0.0088117501106
0.0158726288911
0.00292991419719
-0.000213901732849
0.000333691280859
0.00259988240999
0.0098014164181
0.0146233793003
0.000691025006531
0.00271961051133
0.0112136987411
0.016149782088
0.000158658660186
0.00268682806982
0.0131286450999
0.0182788499627
0.000631266376197
0.00265765396721
0.0124097273837
-0.00422092884945
-0.00710395372315
)
;
    }
    sides
    {
        type            calculated;
        value           nonuniform List<scalar> 0();
    }
    bottom
    {
        type            calculated;
        value           nonuniform List<scalar> 0();
    }
    front
    {
        type            calculated;
        value           nonuniform List<scalar> 
164
(
-0.000354294015987
-0.000434149588198
-0.000484779722996
-0.000606050372678
-5.78368469511e-05
0.00825383681815
0.0457516554127
0.0188149780157
-0.00040242384139
-0.000533661161022
-0.000572577878037
-0.000605658148366
0.000579702743654
0.0109093830228
0.0422297169929
-0.0168815492001
-0.000404128202927
-0.000537734530341
-0.000579033187777
-0.000616354048475
0.000491126400476
0.00917993779314
0.0311585340333
0.0493590539869
-0.000359808988585
-0.000442924915328
-0.000502802839469
-0.000628653745985
-0.000201903898295
0.00415336038619
0.0177597983084
-0.167988772965
-0.000475337559478
-0.000687400245833
-0.000675433777287
0.00149336683273
0.0047616045528
-0.204197138646
-0.000517011569527
-0.000743014073261
-0.000860522452052
0.000792633485677
-0.00417792561674
-0.0690127440237
-0.000553453712842
-0.000797784867235
-0.00107059202734
0.000353555599967
0.000112970450522
-0.00474951989266
-0.000558327663932
-0.000806140479418
-0.0011295962384
8.66976769152e-05
-0.0033372190692
-0.00185583279528
-0.000539885537843
-0.000742886822502
-0.00088599387452
0.000645851850752
0.00406243311439
0.0555688039697
-0.000503579018703
-0.000618246287707
-0.000347341116813
0.00293581784739
0.0125011827266
0.0616416773835
-0.000464457405776
-0.0004720304012
0.000250933742533
0.00656677226582
0.0248456852527
0.0130423058772
-0.000433234503021
-0.000408280108377
0.000367905783919
0.0074954729363
0.0346365428764
0.0506569626995
-0.000400265367604
-0.000326703572747
0.000536287108382
0.00743899635214
0.0391152562589
0.0731486185891
-0.000367723436999
-0.000217443355707
0.00105813477905
0.00879570522647
0.0246684214679
0.0136381354881
-0.00034828652556
-0.000184607427973
0.00105605035543
0.00810564524391
0.0207185766285
0.00551755634523
-0.000345386079875
-0.00023126459018
0.000727312235867
0.00673672778218
0.019577054702
0.00568454331345
-0.000343434637545
-0.000267096148995
0.000533215041022
0.00652949103684
0.0192860779218
0.00605904936108
-0.000330082371248
-0.000231098462399
0.000649976737219
0.00668995449221
0.0154151029611
0.00343822446743
-0.000310231203165
-0.000141528510495
0.00102264126915
0.00800654632627
0.0141163613993
0.00158416837994
-0.000285385166739
-5.96881270631e-06
0.00149349060987
0.00881105732275
0.0165611553527
0.0028378341504
-0.000261146756781
0.000124557164417
0.00183733962591
0.00921420127878
0.0235604342263
0.00660895286954
-0.000243125906773
0.000216068436393
0.00211950931966
0.00872075667849
0.0217005682402
0.00636043677124
-0.000226845815571
0.000288733112162
0.00237655861259
0.0088117501106
0.0158726288911
0.00292991419719
-0.000213901732849
0.000333691280859
0.00259988240999
0.0098014164181
0.0146233793003
0.000691025006531
0.00271961051133
0.0112136987411
0.016149782088
0.000158658660186
0.00268682806982
0.0131286450999
0.0182788499627
0.000631266376197
0.00265765396721
0.0124097273837
-0.00422092884945
-0.00710395372315
)
;
    }
    atmosphere
    {
        type            calculated;
        value           nonuniform List<scalar> 
27
(
0.144601219894
-0.0688113564142
1.90424080662
-1.19364897334
-1.37517026707
1.47267854361
1.5704834562
1.56099491932
0.523087613638
0.524772363059
-0.00482654769793
-0.0638071385901
0.14775442942
-0.00524095014697
0.000514788956746
0.000529525675227
0.00059515467927
-6.18885605421e-05
-8.22800714803e-05
-1.83367980486e-05
-1.68005342681e-05
-4.0097618128e-06
1.99713368124e-06
5.28698679724e-07
-7.92090588478e-07
-0.00146203495759
0.000175549727811
)
;
    }
    floatingObject
    {
        type            calculated;
        value           nonuniform List<scalar> 4(-0.000354294015987 -0.00040242384139 -0.000404128202927 -0.000359808988585);
    }
    procBoundary6to3
    {
        type            processor;
        value           nonuniform List<scalar> 8(-0.00029477573745 -0.000340307703234 -0.000420305727278 -0.000521075558088 -5.25432446135e-05 0.00686164447961 0.0386189309566 0.0275425273223);
    }
    procBoundary6to7
    {
        type            processor;
        value           nonuniform List<scalar> 
11
(
-0.000407538108081
-0.000405978160112
-0.000404059843974
-0.000401711101314
-0.000398303548349
-0.000394262693445
-0.000211472502333
0.000327717459748
0.000327717459748
0.000266307931867
0.000235169457493
)
;
    }
    procBoundary6to8
    {
        type            processor;
        value           nonuniform List<scalar> 
16
(
-0.000306145750689
-0.000361292000966
-0.000361292000966
-0.000454669660037
-0.000476773466148
-0.000480999911584
-0.000479220739351
-0.00047315680756
-0.000464616031421
-0.000455372165117
-0.000443964485434
-0.000432158800608
-0.000422549686317
-0.000416999507509
-0.000413658335542
-0.000410156772205
)
;
    }
    procBoundary6to9
    {
        type            processor;
        value           nonuniform List<scalar> 4(0.00258626760788 0.00910530377412 -0.0136985891123 -0.0324226344877);
    }
}


// ************************************************************************* //
