/*--------------------------------*- C++ -*----------------------------------*\
| =========                 |                                                 |
| \\      /  F ield         | OpenFOAM: The Open Source CFD Toolbox           |
|  \\    /   O peration     | Version:  v2012                                 |
|   \\  /    A nd           | Website:  www.openfoam.com                      |
|    \\/     M anipulation  |                                                 |
\*---------------------------------------------------------------------------*/
FoamFile
{
    version     2.0;
    format      ascii;
    class       surfaceVectorField;
    location    "4.4";
    object      Uf_0;
}
// * * * * * * * * * * * * * * * * * * * * * * * * * * * * * * * * * * * * * //

dimensions      [0 1 -1 0 0 0 0];


internalField   nonuniform List<vector> 
300
(
(-0.0498422900476 -0.0132626679229 2.84287721091e-24)
(-0.0481612156904 -0.0128307256201 5.05581298695e-24)
(-0.0512291646727 -0.0155092112707 1.12973389257e-23)
(-0.0493776560578 -0.0149906621153 1.33204451984e-23)
(-0.0527029319143 -0.0180546273293 3.43034912517e-23)
(-0.0506657641767 -0.0174007617638 2.91174936852e-23)
(-0.0542344137012 -0.0209763335159 8.04259772314e-23)
(-0.0519872343858 -0.0201158065363 6.97143100229e-23)
(-0.0557890986721 -0.0243780237063 5.45686004606e-23)
(-0.0533014600705 -0.023221161572 1.26262761679e-22)
(-0.0571573543431 -0.0284382322686 -4.56250063785e-22)
(-0.0545196627084 -0.0268166721824 -6.89095125633e-23)
(-0.0577612898779 -0.0334256362736 1.60320831456e-22)
(-0.0552307633646 -0.0309361346626 -7.1096614165e-22)
(-0.0573544459365 -0.0397830143506 -2.76059567666e-21)
(-0.0545545189644 -0.0368948752422 9.6496321977e-22)
(-0.0569400320908 -0.0476675884195 -8.06346291626e-21)
(-0.052965959291 -0.0461904325926 -3.92707464431e-21)
(-0.0292568865112 -0.0566721272914 -1.15772561333e-20)
(-0.0525449293014 -0.0429791357964 -1.11033815057e-20)
(-0.0148984737037 -0.0585757250023 -1.16991419013e-20)
(-0.00324595816445 -0.0587876056953 -1.87162533442e-20)
(-0.0228452693578 -0.0596121392088 -1.55500920718e-20)
(-0.0476787532253 -0.0144640894855 1.55333809744e-23)
(-0.0488114345769 -0.0167742868079 3.11405999579e-23)
(-0.0499714146868 -0.01933950274 6.45283124565e-23)
(-0.048101034565 -0.0185226288087 4.21787597094e-23)
(-0.0511055838514 -0.0222199461299 1.15551094471e-22)
(-0.0491072361086 -0.0211966510833 9.88599582207e-23)
(-0.0521314412396 -0.0255066343675 2.78464865526e-24)
(-0.0500152101396 -0.0241783046854 1.47004593303e-22)
(-0.0527685929374 -0.0293391600344 -3.23625590428e-22)
(-0.0506875759481 -0.0275248957639 -2.16994926299e-22)
(-0.052324206335 -0.0339542777455 9.36762466644e-23)
(-0.050616052229 -0.0312520970645 -1.16438290245e-21)
(-0.0506799476768 -0.0397182957031 -2.01515747874e-22)
(-0.0487907825198 -0.0367270703668 -1.04130794281e-21)
(-0.0493585645886 -0.0464086337075 -6.96699323374e-21)
(-0.0462757217979 -0.0448748994791 -1.44397838491e-21)
(-0.0262302734351 -0.0531589539035 -1.82423787166e-20)
(-0.0457945164285 -0.0424305911276 -1.27521510536e-20)
(-0.0107165714475 -0.0498170029847 -2.25672035147e-20)
(-0.00658767892218 -0.0532713041708 -2.54815232002e-20)
(-0.0165475745383 -0.0474621971497 -1.90427614327e-20)
(-0.0472805767202 -0.0202841935354 7.65104054736e-23)
(-0.0455723967189 -0.0193859030774 4.52985138074e-23)
(-0.0480963590777 -0.0230517131953 1.30313457053e-22)
(-0.0463401061126 -0.0219623746802 9.81343181695e-23)
(-0.0487025913925 -0.0261094775022 -7.27749816512e-23)
(-0.0469578153194 -0.0247440702423 1.17948888845e-22)
(-0.0487529001252 -0.0295638961567 -1.05775223832e-21)
(-0.0472335163745 -0.0277419142132 -5.22078723084e-22)
(-0.0474290937136 -0.0336205787105 -2.29936709192e-21)
(-0.0465596920247 -0.0310042756881 -2.32680302978e-21)
(-0.0448427640384 -0.0386237843992 -2.28377057985e-21)
(-0.04378779556 -0.035911504407 -2.88326310955e-21)
(-0.043044488351 -0.0442477125691 -7.22913620477e-21)
(-0.0406518734001 -0.0430834018604 -3.13916063553e-21)
(-0.0263722165658 -0.0498368852538 -1.99912955371e-20)
(-0.0402052276023 -0.0411539682738 -1.29181782788e-20)
(-0.0122103777279 -0.0413564217221 -2.19570811182e-20)
(-0.0150674504553 -0.0484077184682 -2.33554836544e-20)
(-0.011874824976 -0.0413672449999 -1.5447628945e-20)
(-0.0446987452481 -0.0209964873525 6.69224265033e-23)
(-0.0431267484359 -0.02007203596 5.1336640891e-23)
(-0.0452956684839 -0.0235887089006 8.57697499609e-23)
(-0.0437482319753 -0.0225245469759 8.55294543837e-23)
(-0.0456114181837 -0.0263515363817 -3.31354852588e-22)
(-0.0441953065279 -0.0250726382957 7.03894301167e-24)
(-0.0451947351137 -0.0293801609237 -1.79112951455e-21)
(-0.0442051918473 -0.0276798569291 -9.47040854928e-22)
(-0.0430759170678 -0.0329712430298 -2.91069904741e-21)
(-0.0429688706024 -0.0304484723162 -2.40047280506e-21)
(-0.0398355470873 -0.0376036873782 -3.73865316523e-21)
(-0.0391555230845 -0.0347737867013 -1.97286311705e-21)
(-0.038294795128 -0.0423538678974 -8.82820270952e-21)
(-0.0359017514603 -0.0411056335782 -5.33040308186e-21)
(-0.0277283438777 -0.0457679485153 -1.6282366396e-20)
(-0.0367910403072 -0.0392502279514 -1.65093267028e-20)
(-0.0138878935526 -0.0411448728152 -1.68460314812e-20)
(-0.0196914593422 -0.0449820674069 -2.19515055764e-20)
(-0.0111900528081 -0.04380961918 -1.45492055745e-20)
(-0.0422550016312 -0.0215563950956 6.99436687714e-23)
(-0.0407699032065 -0.0206566777347 5.95348325288e-23)
(-0.0427524649637 -0.0239737052908 6.79864743445e-24)
(-0.0413312248466 -0.0230075322597 7.71478939486e-23)
(-0.0429287032942 -0.0264247619978 -6.08647059329e-22)
(-0.0417445187653 -0.0253536553506 -1.03158571878e-22)
(-0.0421506504412 -0.028973938081 -1.55638414544e-21)
(-0.0416562607562 -0.0276124008046 -1.02002278123e-21)
(-0.0392557809054 -0.032006593977 -1.46263687471e-21)
(-0.0399364204527 -0.0299393228491 -1.83420507139e-21)
(-0.0354477808499 -0.0358867247618 -3.56461303368e-21)
(-0.0352755235932 -0.0335112690122 -2.65363538069e-21)
(-0.0345908316153 -0.0400054976412 -1.30115270752e-20)
(-0.0317830212642 -0.038674012811 -5.85191168323e-21)
(-0.0280696443036 -0.0430893767777 -2.21784658833e-20)
(-0.0337070933068 -0.0366682527993 -1.48318392594e-20)
(-0.0164666316203 -0.0443528258705 -1.96546796697e-20)
(-0.0184285320448 -0.0441438463481 -1.87038855125e-20)
(-0.00956428114372 -0.0536660480011 -1.03296555461e-20)
(-0.0399324017104 -0.0220868688978 6.67390577059e-23)
(-0.0384635218398 -0.0212213300802 5.94284202439e-23)
(-0.040443186529 -0.0243820894197 -3.28093253643e-23)
(-0.0390362568654 -0.0235418121307 6.82922899054e-23)
(-0.0406378562882 -0.0266070478863 -5.14534293776e-22)
(-0.0395197754656 -0.0258115872742 1.48939114189e-23)
(-0.0396726737002 -0.0287980565276 -1.29784370717e-21)
(-0.0394654405642 -0.0279227807644 -2.42820459358e-22)
(-0.0362110059122 -0.0312923729516 -3.02520357738e-21)
(-0.0374422562234 -0.0300938259514 2.54813035937e-22)
(-0.0318767504229 -0.0343805766725 -4.94093403024e-21)
(-0.0321874133199 -0.0331033867787 -1.54184664951e-21)
(-0.0306425873506 -0.0376320344046 -7.67222386744e-21)
(-0.0285315931827 -0.036995094796 6.32502023511e-22)
(-0.0219806465373 -0.0426168158594 -1.13572588886e-20)
(-0.028722270323 -0.0347580771861 -1.22477569298e-21)
(-0.00984080521943 -0.0532675039401 -9.37886138886e-21)
(-0.00777803259618 -0.0436513176646 -2.94760745827e-21)
(-0.00506857639443 -0.0597532694924 -4.27633711721e-21)
(-0.0376454273605 -0.0226836809518 6.09816524434e-23)
(-0.0361281212565 -0.0218075771169 1.19354477338e-23)
(-0.0382213997774 -0.0249937879166 1.15995526689e-22)
(-0.0367263477751 -0.0242053407682 4.86395082994e-23)
(-0.038502526668 -0.0272322393196 2.86607745837e-22)
(-0.0372814828026 -0.0266017988239 4.49225624899e-22)
(-0.037453243433 -0.0294254380894 1.30983628375e-21)
(-0.0372723730303 -0.0289129173014 2.16497689404e-21)
(-0.033660081816 -0.0317940687689 1.7381699638e-21)
(-0.0350737261366 -0.0313822869277 7.7002471999e-21)
(-0.0289351666534 -0.0343139042764 4.03158940424e-21)
(-0.0296676366793 -0.0342461304984 1.33772333108e-20)
(-0.0264645903028 -0.0369563467894 7.07995019798e-21)
(-0.025889171077 -0.0370925248887 1.99023441871e-20)
(-0.0143782680619 -0.0415785321185 7.18487573737e-21)
(-0.0241000793773 -0.033988067397 2.4345808883e-20)
(-0.00303521386473 -0.0518315887822 2.15491681338e-21)
(0.00247633574107 -0.0423891347288 2.31610197181e-20)
(-0.00216183170793 -0.0588464746926 6.85890284415e-21)
(-0.0352642610894 -0.0233630716978 -4.06696410128e-25)
(-0.0336784942607 -0.0223895262502 1.80193693754e-23)
(-0.0358572762074 -0.0258621121761 3.8186960651e-22)
(-0.0342274508142 -0.0249542955726 2.16161750988e-22)
(-0.0361421781623 -0.0284035340433 2.3275947731e-21)
(-0.0347401649371 -0.0276417260928 1.78737507346e-21)
(-0.0350060068587 -0.0310507278987 8.55538781019e-21)
(-0.03462525694 -0.0304219469495 7.97612654547e-21)
(-0.0311884690741 -0.033681714016 1.93393105469e-20)
(-0.0324427948012 -0.0334207746788 2.4158548612e-20)
(-0.0266402433986 -0.0357821007688 2.92479880937e-20)
(-0.0275672800605 -0.0362138524768 4.47034718434e-20)
(-0.0235304364737 -0.0375273377758 3.71682028722e-20)
(-0.0241439474317 -0.0380875380486 5.58842178242e-20)
(-0.00685469614473 -0.0404074003489 4.03219528638e-20)
(-0.0212199945276 -0.0338444412071 6.13964357158e-20)
(0.00331608114365 -0.0528475516184 2.78650057489e-20)
(0.0149184984156 -0.0415118994294 5.86893481304e-20)
(-0.00241955788816 -0.0528413090723 1.92400994103e-20)
(-0.0326874238524 -0.0240177538186 2.34587816773e-22)
(-0.0310787644968 -0.0228796248847 1.10962309462e-22)
(-0.0331574811515 -0.0267865828141 1.62166721794e-21)
(-0.0314587159199 -0.0256242749663 7.18511338198e-22)
(-0.0332763238148 -0.0297677748522 7.43590684583e-21)
(-0.0317590287601 -0.0286176713534 4.15486257231e-21)
(-0.032089896744 -0.0329204022056 2.35792873472e-20)
(-0.0314726625901 -0.0318657430935 1.67555123184e-20)
(-0.0287765069853 -0.0357924159929 4.95227099084e-20)
(-0.0295707995782 -0.0352646190616 4.62020941772e-20)
(-0.0249818141961 -0.037411432989 7.13397015739e-20)
(-0.0259482715453 -0.0379748475384 8.35576301279e-20)
(-0.0217146429212 -0.0383210298777 8.01124506678e-20)
(-0.0232343582148 -0.0391619033848 1.06395288079e-19)
(-0.00138136948759 -0.0403714898797 7.97638309823e-20)
(-0.0191695003615 -0.0342075555103 1.09273643362e-19)
(0.00800274202882 -0.0439957614482 5.00644417917e-20)
(0.0185455226721 -0.0401579567104 1.05168945178e-19)
(-0.000731057798419 -0.0402918322188 2.79222564056e-20)
(-0.0298961916499 -0.0245072925213 5.94885830887e-22)
(-0.0283548625388 -0.0231718631133 2.3493743884e-22)
(-0.0301067244824 -0.0274926894206 3.25170669256e-21)
(-0.0284733718259 -0.0260074672699 1.15356008971e-21)
(-0.0299817995455 -0.0307899774455 1.34744680449e-20)
(-0.0284617581809 -0.0291580141949 5.77688972734e-21)
(-0.0289263498251 -0.0342856147848 3.93783191484e-20)
(-0.0279770244009 -0.0326301757842 2.24062000378e-20)
(-0.0266293471355 -0.0372921661401 8.02370143967e-20)
(-0.0265642405797 -0.0361411715692 5.90163172748e-20)
(-0.0240313541859 -0.038741118236 1.18613216633e-19)
(-0.024499312658 -0.0388345098785 1.0485501667e-19)
(-0.0205958919514 -0.0393033484943 1.35556480774e-19)
(-0.0226721311333 -0.0399618451508 1.36444388452e-19)
(0.000672752065424 -0.0407228936796 1.34678757558e-19)
(-0.017749472044 -0.0349772915195 1.39454919205e-19)
(0.0118809989227 -0.0312764983595 8.30267597918e-20)
(0.00909812715572 -0.0390283478209 1.35997876412e-19)
(0.00953604361715 -0.0281971945803 3.85786425067e-20)
(-0.0269940826148 -0.0246893761452 7.93611697667e-22)
(-0.0256073173296 -0.023197553223 3.68995341192e-22)
(-0.0268853171151 -0.0276940750707 3.67874312449e-21)
(-0.0254686928685 -0.0259753050974 1.05794911167e-21)
(-0.0265200097965 -0.0310241253609 1.47086217202e-20)
(-0.0251316960095 -0.0290535381011 4.85287787333e-21)
(-0.0256934848722 -0.0345471887346 4.20441981642e-20)
(-0.0244539352228 -0.0324054518844 1.83188607163e-20)
(-0.0244891748598 -0.0374600627609 8.36343195477e-20)
(-0.0236513392008 -0.0357458819737 4.86491838091e-20)
(-0.0230754943762 -0.0390520764206 1.22686188488e-19)
(-0.0229072794869 -0.0384867915829 8.65487413326e-20)
(-0.0197426096285 -0.0401221597016 1.40342826882e-19)
(-0.0216020478682 -0.040009867053 1.14219962726e-19)
(-0.00977594581084 -0.0412069370657 1.40774038059e-19)
(-0.0166638252362 -0.0359114239923 1.18521694045e-19)
(0.00359430462132 -0.0239805218172 9.15497591273e-20)
(-0.00812901086891 -0.0400819309655 1.17092709319e-19)
(0.0116369409655 -0.0245600091825 4.32020222851e-20)
(-0.0241558126433 -0.024497830998 6.33332755195e-22)
(-0.0229998534385 -0.022982077001 2.8419937005e-22)
(-0.023764813579 -0.027343891825 2.23208386051e-21)
(-0.0226226240255 -0.0256023472851 5.10633280319e-22)
(-0.023182688501 -0.0304537724784 8.46311686941e-21)
(-0.0220217783223 -0.0284473337156 2.35059359862e-21)
(-0.0225478308979 -0.0336616279299 2.49238463612e-20)
(-0.0212460320576 -0.0314588578224 8.9319042614e-21)
(-0.0221537515231 -0.0364721715795 5.1563605594e-20)
(-0.0208407487021 -0.0344391968047 2.56796923491e-20)
(-0.0215118104162 -0.0384178689843 7.80825155702e-20)
(-0.0209615482939 -0.0372157936822 4.86297718952e-20)
(-0.0184909517919 -0.0402507630102 9.23988298881e-20)
(-0.0197691377759 -0.039468582126 6.49965584224e-20)
(-0.0166178128779 -0.0419171010293 9.48403653052e-20)
(-0.0149978672299 -0.0367923689193 6.72861480048e-20)
(-0.00460187354001 -0.0322925676746 6.87449724771e-20)
(-0.0177530499548 -0.0422979565121 6.68364074423e-20)
(0.00458384883525 -0.03178252258 2.4114914813e-20)
(-0.0215255250892 -0.0240982260119 1.61499895174e-22)
(-0.0205295838118 -0.0226104620694 2.56703374727e-22)
(-0.0209626161932 -0.0266967687059 6.29143018428e-22)
(-0.0200240434842 -0.0250368126766 2.6818154405e-22)
(-0.0202261307526 -0.0294837030747 2.81938099061e-21)
(-0.0192347801456 -0.027604372242 1.10962769763e-21)
(-0.0196674007862 -0.0323044177352 9.68775024927e-21)
(-0.0184252429313 -0.0302612087254 3.73804044139e-21)
(-0.0197343401793 -0.0349386222855 2.27458586503e-20)
(-0.0182064711985 -0.0328360049281 1.07586052944e-20)
(-0.0193338056785 -0.0372029015564 3.55438147474e-20)
(-0.0186972150361 -0.0355325918218 1.97976250394e-20)
(-0.0163912509145 -0.0399038105046 3.98838765391e-20)
(-0.0170681980258 -0.0387568566492 2.52378013056e-20)
(-0.013943444995 -0.0426459130921 3.92821901419e-20)
(-0.0122563749999 -0.0373838281523 2.51763860331e-20)
(-0.0068457035421 -0.0432651182884 2.22063497782e-20)
(-0.0171330618087 -0.0425553622246 2.48492388159e-20)
(-0.0071259830855 -0.0462273905819 5.14526622867e-21)
(-0.0190902806462 -0.0235661844706 3.63385023604e-22)
(-0.018242325041 -0.0221163420342 4.17806375963e-22)
(-0.0184267344878 -0.0259289890973 7.48666223248e-22)
(-0.0176611288025 -0.0242862941244 4.99999614985e-22)
(-0.0176139878223 -0.0284001911497 2.0282871484e-21)
(-0.0167634379085 -0.0264949790531 1.1790607497e-21)
(-0.0171248791712 -0.030889236889 4.80889548652e-21)
(-0.0159360511274 -0.0287649653078 2.58882106161e-21)
(-0.0173213183259 -0.0332677214896 7.81037168354e-21)
(-0.0158278383615 -0.0309973342804 5.47739468643e-21)
(-0.0166716067514 -0.0358411300667 9.49161159759e-21)
(-0.016123698675 -0.0336807229152 8.42787026301e-21)
(-0.0132147033116 -0.0392703623858 1.05303107995e-20)
(-0.0136389257339 -0.037948444011 1.03261737093e-20)
(-0.0131137057736 -0.0433131535374 1.07434347071e-20)
(-0.00821288281285 -0.0377039903681 4.33478126521e-21)
(-0.0109382537152 -0.0497449515815 7.78815526632e-21)
(-0.0107013567147 -0.0411091288878 4.14204295824e-21)
(-0.00420223585518 -0.0548994151022 3.6663596088e-21)
(-0.0168872798895 -0.0228530877136 5.54420967345e-22)
(-0.0162059334676 -0.0215574465721 1.21317738845e-21)
(-0.0161541334931 -0.0248667110724 9.30394141435e-22)
(-0.0156472968339 -0.0233648367489 1.46491039052e-21)
(-0.015263020547 -0.0268725992858 1.7395946629e-21)
(-0.0147573228096 -0.025023327372 2.06584601668e-21)
(-0.01481403486 -0.029003801944 3.25732026153e-21)
(-0.013804573089 -0.0267176323812 2.60971034248e-21)
(-0.0149053927164 -0.0312148501527 6.0948932659e-21)
(-0.01361655664 -0.028580532019 3.65174644283e-21)
(-0.0134321013856 -0.0340659178307 9.26243237471e-21)
(-0.013272452708 -0.0314936478203 5.59207700491e-21)
(-0.00887344195522 -0.038314833091 4.13064417498e-21)
(-0.00938995097364 -0.0369609727289 9.7697696483e-21)
(-0.00693485913417 -0.0432582383058 -2.26661048363e-21)
(-0.00326899320637 -0.0378404977636 2.64922067683e-21)
(-0.00605223185628 -0.0488952632746 2.02473007297e-23)
(-0.00506352547913 -0.0393610284776 2.52184685363e-21)
(-0.00320745227632 -0.0518291372735 4.26090631347e-22)
(-0.0150616109966 -0.0220901411245 2.12366681162e-21)
(-0.0143918432002 -0.0235788378553 2.60036226576e-21)
(-0.0134310014644 -0.0248945777276 2.93596169625e-21)
(-0.0127503603864 -0.0264427671905 3.00413652378e-21)
(-0.0121979582644 -0.0286055993819 3.14893018184e-21)
(-0.00944922778594 -0.03203316175 6.0994142785e-21)
(-0.00398200906186 -0.0368592143716 8.28834615016e-21)
(-0.00196887258354 -0.0416421866252 7.43767801409e-21)
(-0.00314143547551 -0.0454643006789 2.92769018425e-21)
)
;

boundaryField
{
    back
    {
        type            calculated;
        value           uniform (0 0 0);
    }
    sides
    {
        type            calculated;
        value           nonuniform List<vector> 0();
    }
    bottom
    {
        type            calculated;
        value           nonuniform List<vector> 0();
    }
    front
    {
        type            calculated;
        value           uniform (0 0 0);
    }
    atmosphere
    {
        type            calculated;
        value           nonuniform List<vector> 
16
(
(0 -0.0696944065404 0)
(0 -0.0561149744982 0)
(0 -0.0460298199357 0)
(0 -0.0418291381343 0)
(0 -0.0459782585509 0)
(0 -0.057763246331 0)
(0 -0.0547395558131 0)
(0 -0.0525917499723 0)
(0 -0.04568636616 0)
(0 -0.0415435473491 0)
(0 -0.0260813395248 0)
(0 -0.0252393478812 0)
(0 -0.0315550730689 0)
(0 -0.0526680530644 0)
(0 -0.0498892025209 0)
(0 -0.0452520694447 0)
)
;
    }
    floatingObject
    {
        type            calculated;
        value           nonuniform List<vector> 0();
    }
    procBoundary5to0
    {
        type            processor;
        value           nonuniform List<vector> 
12
(
(-0.0501661422831 -0.0115665478752 -3.33975027439e-24)
(-0.0516232718601 -0.0136247049835 1.47459907496e-24)
(-0.0532103034206 -0.0159588295584 1.65161451781e-23)
(-0.0549080656634 -0.0186415631681 3.50430727715e-23)
(-0.0567022505869 -0.0217608306294 6.67936540258e-23)
(-0.0585789518888 -0.0254437095348 -1.54476195454e-22)
(-0.0602172884794 -0.0298007456585 -1.01617594809e-21)
(-0.0609112162524 -0.0358605410512 1.07479092415e-21)
(-0.0608502302092 -0.0460256708046 -3.87219820119e-21)
(-0.061549545515 -0.0418115036797 -9.39873666977e-21)
(-0.00514649977564 -0.0646123651566 -1.74822864096e-20)
(-0.0339656545928 -0.0787586239925 -9.73160182193e-21)
)
;
    }
    procBoundary5to3
    {
        type            processor;
        value           nonuniform List<vector> 10((-0.0144801482949 -0.0211611168346 6.17548853468e-21) (-0.0141583530676 -0.0225686358601 7.21290464284e-21) (-0.0134412524903 -0.0235231393416 7.99928566576e-21) (-0.0122560655473 -0.0244485250852 6.80001611533e-21) (-0.0114534084035 -0.025838258662 4.02295802556e-21) (-0.0098446882723 -0.0292616799361 3.26678287077e-21) (-0.0045638239073 -0.0358961549833 8.78225093513e-21) (0.00151487359655 -0.0374689511932 6.39355964634e-21) (-0.00124065879862 -0.0366719116636 6.12771276609e-21) (-0.00341870153331 -0.0470126576879 -1.80980946243e-21));
    }
    procBoundary5to4
    {
        type            processor;
        value           nonuniform List<vector> 
18
(
(-0.0485659840811 -0.0112563945867 -1.58212356048e-24)
(-0.0466124585137 -0.0123701869824 5.39267803493e-24)
(-0.0460681916603 -0.0138848373226 1.76687642465e-23)
(-0.0470680020744 -0.0160973767308 2.01634038483e-23)
(-0.0463787606315 -0.0177548220355 3.12015635999e-23)
(-0.0439848771915 -0.0185501705965 3.65480602113e-23)
(-0.0416451611391 -0.0191989443625 4.03986248064e-23)
(-0.0393525303363 -0.0197799563598 4.88639587488e-23)
(-0.0370641810747 -0.0203478336413 5.43128830876e-23)
(-0.0347061389494 -0.0209130849339 2.86866216672e-23)
(-0.0322292333283 -0.0214177460252 8.08323304719e-23)
(-0.0296332100239 -0.0217831839867 1.2290422198e-22)
(-0.0269830573087 -0.0219416847652 2.07901163052e-22)
(-0.0243796096377 -0.0218902752632 3.10963952132e-22)
(-0.0218904314833 -0.0216279243687 1.85808846917e-22)
(-0.0195371739788 -0.0212789961063 2.90568247622e-22)
(-0.0173669475845 -0.0208167983413 4.53116679488e-22)
(-0.0154296922246 -0.0203646603151 1.86644403709e-21)
)
;
    }
}


// ************************************************************************* //
