/*--------------------------------*- C++ -*----------------------------------*\
| =========                 |                                                 |
| \\      /  F ield         | OpenFOAM: The Open Source CFD Toolbox           |
|  \\    /   O peration     | Version:  v2012                                 |
|   \\  /    A nd           | Website:  www.openfoam.com                      |
|    \\/     M anipulation  |                                                 |
\*---------------------------------------------------------------------------*/
FoamFile
{
    version     2.0;
    format      ascii;
    class       volScalarField;
    location    "3.7";
    object      ddt0(k);
}
// * * * * * * * * * * * * * * * * * * * * * * * * * * * * * * * * * * * * * //

dimensions      [0 2 -3 0 0 0 0];


internalField   nonuniform List<scalar> 
164
(
-0.00153327535883
-0.00154428825299
-0.00155600592445
-0.00156781314441
-0.0015788798821
-0.00158929963663
-0.00160638423881
-0.00166099985581
-0.00178980172977
-0.00139416777441
0.00697412721988
0.0498536475742
0.043824794823
-0.00109606105733
-0.00134007449461
-0.00143292481799
-0.00147210375709
-0.0015041391837
-0.00151514802852
-0.00152647669934
-0.00153887005262
-0.00155196912424
-0.00156467370456
-0.00157584666756
-0.00158418415635
-0.0015917065123
-0.00161494159591
-0.00165959820293
-0.00099008160091
0.00777791254414
0.0426605781255
0.0332779226885
-0.00108561111294
-0.00132857016377
-0.0014213009119
-0.00146094154744
-0.00148107387185
-0.00149453911167
-0.00150651099486
-0.00151919458051
-0.00153341398712
-0.0015480557685
-0.00156122938346
-0.0015717520386
-0.0015790617479
-0.00158531868137
-0.00161038808463
-0.00167422096767
-0.00103764990904
0.00710966048824
0.034607307755
0.0162799056209
-0.00107505414119
-0.00131738616759
-0.00140987823783
-0.00144969540179
-0.00147027095508
-0.00148430324141
-0.00149726621071
-0.00151206179943
-0.00152786505167
-0.00154262125337
-0.00155501446596
-0.00156348128554
-0.001572009401
-0.00158417117436
-0.00164501119312
-0.00186349234339
-0.00168089984353
0.0055878189941
0.0397627730564
0.0128453739305
-0.00106429234292
-0.00130705042382
-0.00139905932197
-0.00143875672587
-0.0014593716533
-0.00147325634602
-0.00148574545024
-0.00150123954556
-0.00151306315041
-0.00152259813199
-0.00153457065624
-0.0015444074467
-0.00156870529354
-0.00157769030904
-0.00167263252546
-0.00203732230328
-0.00220666559608
0.00412952051601
0.0355014055346
0.00290359570863
-0.00105435645634
-0.00129823617005
-0.00138939745421
-0.00142842022455
-0.00144796937994
-0.00145920354267
-0.0014656053624
-0.00145149213126
-0.00148195215951
-0.00147048850108
-0.00148925963964
-0.00154089302093
-0.00158276399045
-0.00152837143943
-0.00162666448177
-0.00211707753439
-0.00258751374527
0.00214552088082
0.0232037910638
-0.00478642667203
-0.00104518969096
-0.00129171609778
-0.00138202920708
-0.00142005037246
-0.00143747668725
-0.0014430799358
-0.00143636135378
-0.00136230779645
-0.00134722820335
-0.00132560817347
-0.00137070173563
-0.00118807390116
-0.00116744618593
-0.00109506132696
-0.00140263088305
-0.00209187739928
-0.00273231411051
0.00217803882048
0.0346423080032
0.0160041410671
-0.00103792164031
-0.0012862960526
-0.00137572862554
-0.00141239904023
-0.00142659583169
-0.00142208361592
-0.00138669940686
-0.00118914853719
-0.00103308702977
-0.00128367145424
-0.0013728514547
-0.00140874528118
-0.00142088559604
-0.00140892550989
-0.00135738448677
-0.00114542534143
-0.00103301108664
-0.00128363542086
-0.00137282753491
-0.00140871869601
-0.00142086054305
-0.00140877766706
-0.00135711090338
-0.00114419517083
-0.00103779270812
-0.00128614950124
-0.00137557918692
-0.0014122603886
-0.00142647457432
-0.00142196897619
-0.00138694554523
-0.00118569522574
)
;

boundaryField
{
    back
    {
        type            calculated;
        value           nonuniform List<scalar> 
164
(
-0.00153327535883
-0.00154428825299
-0.00155600592445
-0.00156781314441
-0.0015788798821
-0.00158929963663
-0.00160638423881
-0.00166099985581
-0.00178980172977
-0.00139416777441
0.00697412721988
0.0498536475742
0.043824794823
-0.00109606105733
-0.00134007449461
-0.00143292481799
-0.00147210375709
-0.0015041391837
-0.00151514802852
-0.00152647669934
-0.00153887005262
-0.00155196912424
-0.00156467370456
-0.00157584666756
-0.00158418415635
-0.0015917065123
-0.00161494159591
-0.00165959820293
-0.00099008160091
0.00777791254414
0.0426605781255
0.0332779226885
-0.00108561111294
-0.00132857016377
-0.0014213009119
-0.00146094154744
-0.00148107387185
-0.00149453911167
-0.00150651099486
-0.00151919458051
-0.00153341398712
-0.0015480557685
-0.00156122938346
-0.0015717520386
-0.0015790617479
-0.00158531868137
-0.00161038808463
-0.00167422096767
-0.00103764990904
0.00710966048824
0.034607307755
0.0162799056209
-0.00107505414119
-0.00131738616759
-0.00140987823783
-0.00144969540179
-0.00147027095508
-0.00148430324141
-0.00149726621071
-0.00151206179943
-0.00152786505167
-0.00154262125337
-0.00155501446596
-0.00156348128554
-0.001572009401
-0.00158417117436
-0.00164501119312
-0.00186349234339
-0.00168089984353
0.0055878189941
0.0397627730564
0.0128453739305
-0.00106429234292
-0.00130705042382
-0.00139905932197
-0.00143875672587
-0.0014593716533
-0.00147325634602
-0.00148574545024
-0.00150123954556
-0.00151306315041
-0.00152259813199
-0.00153457065624
-0.0015444074467
-0.00156870529354
-0.00157769030904
-0.00167263252546
-0.00203732230328
-0.00220666559608
0.00412952051601
0.0355014055346
0.00290359570863
-0.00105435645634
-0.00129823617005
-0.00138939745421
-0.00142842022455
-0.00144796937994
-0.00145920354267
-0.0014656053624
-0.00145149213126
-0.00148195215951
-0.00147048850108
-0.00148925963964
-0.00154089302093
-0.00158276399045
-0.00152837143943
-0.00162666448177
-0.00211707753439
-0.00258751374527
0.00214552088082
0.0232037910638
-0.00478642667203
-0.00104518969096
-0.00129171609778
-0.00138202920708
-0.00142005037246
-0.00143747668725
-0.0014430799358
-0.00143636135378
-0.00136230779645
-0.00134722820335
-0.00132560817347
-0.00137070173563
-0.00118807390116
-0.00116744618593
-0.00109506132696
-0.00140263088305
-0.00209187739928
-0.00273231411051
0.00217803882048
0.0346423080032
0.0160041410671
-0.00103792164031
-0.0012862960526
-0.00137572862554
-0.00141239904023
-0.00142659583169
-0.00142208361592
-0.00138669940686
-0.00118914853719
-0.00103308702977
-0.00128367145424
-0.0013728514547
-0.00140874528118
-0.00142088559604
-0.00140892550989
-0.00135738448677
-0.00114542534143
-0.00103301108664
-0.00128363542086
-0.00137282753491
-0.00140871869601
-0.00142086054305
-0.00140877766706
-0.00135711090338
-0.00114419517083
-0.00103779270812
-0.00128614950124
-0.00137557918693
-0.0014122603886
-0.00142647457432
-0.00142196897619
-0.00138694554523
-0.00118569522574
)
;
    }
    sides
    {
        type            calculated;
        value           nonuniform List<scalar> 0();
    }
    bottom
    {
        type            calculated;
        value           nonuniform List<scalar> 10(-0.00109606105733 -0.00108561111294 -0.00107505414119 -0.00106429234292 -0.00105435645634 -0.00104518969096 -0.00103792164031 -0.00103308702977 -0.00103301108664 -0.00103779270812);
    }
    front
    {
        type            calculated;
        value           nonuniform List<scalar> 
164
(
-0.00153327535883
-0.00154428825299
-0.00155600592445
-0.00156781314441
-0.0015788798821
-0.00158929963663
-0.00160638423881
-0.00166099985581
-0.00178980172977
-0.00139416777441
0.00697412721988
0.0498536475742
0.043824794823
-0.00109606105733
-0.00134007449461
-0.00143292481799
-0.00147210375709
-0.0015041391837
-0.00151514802852
-0.00152647669934
-0.00153887005262
-0.00155196912424
-0.00156467370456
-0.00157584666756
-0.00158418415635
-0.0015917065123
-0.00161494159591
-0.00165959820293
-0.00099008160091
0.00777791254414
0.0426605781255
0.0332779226885
-0.00108561111294
-0.00132857016377
-0.0014213009119
-0.00146094154744
-0.00148107387185
-0.00149453911167
-0.00150651099486
-0.00151919458051
-0.00153341398712
-0.0015480557685
-0.00156122938346
-0.0015717520386
-0.0015790617479
-0.00158531868137
-0.00161038808463
-0.00167422096767
-0.00103764990904
0.00710966048824
0.034607307755
0.0162799056209
-0.00107505414119
-0.00131738616759
-0.00140987823783
-0.00144969540179
-0.00147027095508
-0.00148430324141
-0.00149726621071
-0.00151206179943
-0.00152786505167
-0.00154262125337
-0.00155501446596
-0.00156348128554
-0.001572009401
-0.00158417117436
-0.00164501119312
-0.00186349234339
-0.00168089984353
0.0055878189941
0.0397627730564
0.0128453739305
-0.00106429234292
-0.00130705042382
-0.00139905932197
-0.00143875672587
-0.0014593716533
-0.00147325634602
-0.00148574545024
-0.00150123954556
-0.00151306315041
-0.00152259813199
-0.00153457065624
-0.0015444074467
-0.00156870529354
-0.00157769030904
-0.00167263252546
-0.00203732230328
-0.00220666559608
0.00412952051601
0.0355014055346
0.00290359570863
-0.00105435645634
-0.00129823617005
-0.00138939745421
-0.00142842022455
-0.00144796937994
-0.00145920354267
-0.0014656053624
-0.00145149213126
-0.00148195215951
-0.00147048850108
-0.00148925963964
-0.00154089302093
-0.00158276399045
-0.00152837143943
-0.00162666448177
-0.00211707753439
-0.00258751374527
0.00214552088082
0.0232037910638
-0.00478642667203
-0.00104518969096
-0.00129171609778
-0.00138202920708
-0.00142005037246
-0.00143747668725
-0.0014430799358
-0.00143636135378
-0.00136230779645
-0.00134722820335
-0.00132560817347
-0.00137070173563
-0.00118807390116
-0.00116744618593
-0.00109506132696
-0.00140263088305
-0.00209187739928
-0.00273231411051
0.00217803882048
0.0346423080032
0.0160041410671
-0.00103792164031
-0.0012862960526
-0.00137572862554
-0.00141239904023
-0.00142659583169
-0.00142208361592
-0.00138669940686
-0.00118914853719
-0.00103308702977
-0.00128367145424
-0.0013728514547
-0.00140874528118
-0.00142088559604
-0.00140892550989
-0.00135738448677
-0.00114542534143
-0.00103301108664
-0.00128363542086
-0.00137282753491
-0.00140871869601
-0.00142086054305
-0.00140877766706
-0.00135711090338
-0.00114419517083
-0.00103779270812
-0.00128614950124
-0.00137557918693
-0.0014122603886
-0.00142647457432
-0.00142196897619
-0.00138694554523
-0.00118569522574
)
;
    }
    atmosphere
    {
        type            calculated;
        value           nonuniform List<scalar> 7(0.0143249942271 0.0124396579721 0.000588810121863 -0.00636601542468 -0.00690404466513 0.0217946882526 -0.0944858886841);
    }
    floatingObject
    {
        type            calculated;
        value           nonuniform List<scalar> 8(-0.00134722820335 -0.00132560817347 -0.00137070173563 -0.00118807390116 -0.00118914853719 -0.00114542534143 -0.00114419517083 -0.00118569522574);
    }
    procBoundary3to4
    {
        type            processor;
        value           nonuniform List<scalar> 
13
(
-0.00153957202227
-0.00154944937432
-0.00156003014524
-0.00110646034243
-0.00135154064422
-0.0014443320982
-0.00148280260704
-0.00151317368859
-0.00152312574146
-0.00152312574146
-0.00149153719599
-0.00149153719599
-0.00149153719599
)
;
    }
    procBoundary3to5
    {
        type            processor;
        value           nonuniform List<scalar> 10(-0.00157098387745 -0.00158184818311 -0.00159547988227 -0.0016276175699 -0.00173066396922 -0.00197647152575 -0.00188101438641 0.00544640832071 0.0544634664201 0.0592879189788);
    }
    procBoundary3to6
    {
        type            processor;
        value           nonuniform List<scalar> 8(-0.000898910038809 -0.000995635163529 -0.00145628202998 -0.00241289719421 -0.00303568446079 0.0016112571884 0.0266487540316 -0.00907530040167);
    }
    procBoundary3to8
    {
        type            processor;
        value           nonuniform List<scalar> 8(-0.00104503980631 -0.00129146713949 -0.00138180514788 -0.0014198384606 -0.00143726489991 -0.00144306669698 -0.00143693557516 -0.00136349374146);
    }
}


// ************************************************************************* //
