/*--------------------------------*- C++ -*----------------------------------*\
| =========                 |                                                 |
| \\      /  F ield         | OpenFOAM: The Open Source CFD Toolbox           |
|  \\    /   O peration     | Version:  v2012                                 |
|   \\  /    A nd           | Website:  www.openfoam.com                      |
|    \\/     M anipulation  |                                                 |
\*---------------------------------------------------------------------------*/
FoamFile
{
    version     2.0;
    format      ascii;
    class       volScalarField;
    location    "3.7";
    object      p;
}
// * * * * * * * * * * * * * * * * * * * * * * * * * * * * * * * * * * * * * //

dimensions      [1 -1 -2 0 0 0 0];


internalField   nonuniform List<scalar> 
164
(
5101.48515248
4616.70038972
4132.5612026
3649.03488895
3166.06599877
2683.57272054
2201.4421158
1719.54496225
1237.91662575
755.939719323
298.70523452
35.5963418018
-9.62850085262
8516.89444856
8027.84053201
7539.3599354
7051.4742755
6077.57219641
5591.61643172
5106.36631312
4621.83301995
4138.00029251
3654.82549431
3172.2354863
2690.11360828
2208.31166221
1726.69179856
1245.34793816
763.65072333
304.135517734
36.9541764692
-9.61049211686
8520.61747115
8031.56565755
7543.09761941
7055.23563946
6568.00406837
6081.44173445
5595.59726142
5110.52710678
4626.26051862
4142.77491993
3660.02625468
3177.92682087
2696.3175331
2214.97525941
1733.80118543
1252.91727289
771.835302168
310.986953171
39.6042325247
-9.60771974406
8523.76014186
8034.70276942
7546.22913667
7058.36080073
6571.12975909
6084.58791967
5598.80603397
5113.88350696
4629.90288649
4146.80666907
3664.56550354
3183.11075553
2702.21037164
2221.41191088
1740.79181335
1260.5252623
780.197742207
318.803109988
43.1347123905
-9.62654171485
8526.32593633
8037.25435596
7548.75284782
7060.84244969
6573.55812975
6086.96172211
5601.13932909
5116.27805328
4632.63650221
4149.95162032
3668.26604092
3187.65628789
2707.89036297
2227.61527816
1747.5295724
1267.77742212
788.199555293
326.667285176
46.7803425941
-9.63438792581
8528.33001823
8039.23419751
7550.68348888
7062.69334609
6575.29735522
6088.55159308
5602.50744123
5117.47794034
4634.41474695
4152.08658928
3670.84478197
3191.20740109
2713.37505298
2233.67810538
1754.0088643
1274.58168955
795.882953681
334.295286806
50.5480022053
-9.62123541783
8529.79483862
8040.66721293
7552.04787735
7063.94020642
6576.36768034
6089.43756955
5603.25481762
5118.23364742
4635.39408918
4153.43940573
3672.58852991
3192.56653134
2719.7904617
2240.15335678
1760.39499323
1281.33325361
803.120153274
341.311010341
53.7864462012
-9.59468600231
8530.75332055
8041.59450638
7552.90152379
7064.64015728
6576.7389606
6089.04465336
5601.44020834
5113.45133313
8531.23726298
8042.06039048
7553.32549382
7064.98674144
6576.96180619
6089.12810048
5601.18920056
5112.81736143
8531.26710424
8042.09113778
7553.3586763
7065.02309959
6577.0025183
6089.17027317
5601.2367286
5112.87263155
8530.84216107
8041.68687725
7553.00033173
7064.74836784
6576.86289427
6089.20208452
5601.60884517
5113.61173876
)
;

boundaryField
{
    back
    {
        type            calculated;
        value           nonuniform List<scalar> 
164
(
5101.48515248
4616.70038972
4132.5612026
3649.03488895
3166.06599877
2683.57272054
2201.4421158
1719.54496225
1237.91662575
755.939719323
298.70523452
35.5963418018
-9.62850085262
8516.89444856
8027.84053201
7539.3599354
7051.4742755
6077.57219641
5591.61643172
5106.36631312
4621.83301995
4138.00029251
3654.82549431
3172.2354863
2690.11360828
2208.31166221
1726.69179856
1245.34793816
763.65072333
304.135517734
36.9541764692
-9.61049211686
8520.61747115
8031.56565755
7543.09761941
7055.23563946
6568.00406837
6081.44173445
5595.59726142
5110.52710678
4626.26051862
4142.77491993
3660.02625468
3177.92682087
2696.3175331
2214.97525941
1733.80118543
1252.91727289
771.835302168
310.986953171
39.6042325247
-9.60771974406
8523.76014186
8034.70276942
7546.22913667
7058.36080073
6571.12975909
6084.58791967
5598.80603397
5113.88350696
4629.90288649
4146.80666907
3664.56550354
3183.11075553
2702.21037164
2221.41191088
1740.79181335
1260.5252623
780.197742207
318.803109988
43.1347123905
-9.62654171485
8526.32593633
8037.25435596
7548.75284782
7060.84244969
6573.55812975
6086.96172211
5601.13932909
5116.27805328
4632.63650221
4149.95162032
3668.26604092
3187.65628789
2707.89036297
2227.61527816
1747.5295724
1267.77742212
788.199555293
326.667285176
46.7803425941
-9.63438792581
8528.33001823
8039.23419751
7550.68348888
7062.69334609
6575.29735522
6088.55159308
5602.50744123
5117.47794034
4634.41474695
4152.08658928
3670.84478197
3191.20740109
2713.37505298
2233.67810538
1754.0088643
1274.58168955
795.882953681
334.295286806
50.5480022053
-9.62123541783
8529.79483862
8040.66721293
7552.04787735
7063.94020642
6576.36768034
6089.43756955
5603.25481762
5118.23364742
4635.39408918
4153.43940573
3672.58852991
3192.56653134
2719.7904617
2240.15335678
1760.39499323
1281.33325361
803.120153274
341.311010341
53.7864462012
-9.59468600231
8530.75332055
8041.59450638
7552.90152379
7064.64015728
6576.7389606
6089.04465336
5601.44020834
5113.45133313
8531.23726298
8042.06039048
7553.32549382
7064.98674144
6576.96180619
6089.12810048
5601.18920056
5112.81736143
8531.26710424
8042.09113778
7553.3586763
7065.02309959
6577.0025183
6089.17027317
5601.2367286
5112.87263155
8530.84216107
8041.68687725
7553.00033173
7064.74836784
6576.86289427
6089.20208452
5601.60884517
5113.61173876
)
;
    }
    sides
    {
        type            calculated;
        value           nonuniform List<scalar> 0();
    }
    bottom
    {
        type            calculated;
        value           nonuniform List<scalar> 10(8761.7033368 8765.42627162 8768.56887366 8771.13458514 8773.138525 8774.60318717 8775.56149118 8776.04520622 8776.07489095 8775.64989203);
    }
    front
    {
        type            calculated;
        value           nonuniform List<scalar> 
164
(
5101.48515248
4616.70038972
4132.5612026
3649.03488895
3166.06599877
2683.57272054
2201.4421158
1719.54496225
1237.91662575
755.939719323
298.70523452
35.5963418018
-9.62850085262
8516.89444856
8027.84053201
7539.3599354
7051.4742755
6077.57219641
5591.61643172
5106.36631312
4621.83301995
4138.00029251
3654.82549431
3172.2354863
2690.11360828
2208.31166221
1726.69179856
1245.34793816
763.65072333
304.135517734
36.9541764692
-9.61049211686
8520.61747115
8031.56565755
7543.09761941
7055.23563946
6568.00406837
6081.44173445
5595.59726142
5110.52710678
4626.26051862
4142.77491993
3660.02625468
3177.92682087
2696.3175331
2214.97525941
1733.80118543
1252.91727289
771.835302168
310.986953171
39.6042325247
-9.60771974406
8523.76014186
8034.70276942
7546.22913667
7058.36080073
6571.12975909
6084.58791967
5598.80603397
5113.88350696
4629.90288649
4146.80666907
3664.56550354
3183.11075553
2702.21037164
2221.41191088
1740.79181335
1260.5252623
780.197742207
318.803109988
43.1347123905
-9.62654171485
8526.32593633
8037.25435596
7548.75284782
7060.84244969
6573.55812975
6086.96172211
5601.13932909
5116.27805328
4632.63650221
4149.95162032
3668.26604092
3187.65628789
2707.89036297
2227.61527816
1747.5295724
1267.77742212
788.199555293
326.667285176
46.7803425941
-9.63438792581
8528.33001823
8039.23419751
7550.68348888
7062.69334609
6575.29735522
6088.55159308
5602.50744123
5117.47794034
4634.41474695
4152.08658928
3670.84478197
3191.20740109
2713.37505298
2233.67810538
1754.0088643
1274.58168955
795.882953681
334.295286806
50.5480022053
-9.62123541783
8529.79483862
8040.66721293
7552.04787735
7063.94020642
6576.36768034
6089.43756955
5603.25481762
5118.23364742
4635.39408918
4153.43940573
3672.58852991
3192.56653134
2719.7904617
2240.15335678
1760.39499323
1281.33325361
803.120153274
341.311010341
53.7864462012
-9.59468600231
8530.75332055
8041.59450638
7552.90152379
7064.64015728
6576.7389606
6089.04465336
5601.44020834
5113.45133313
8531.23726298
8042.06039048
7553.32549382
7064.98674144
6576.96180619
6089.12810048
5601.18920056
5112.81736143
8531.26710424
8042.09113778
7553.3586763
7065.02309959
6577.0025183
6089.17027317
5601.2367286
5112.87263155
8530.84216107
8041.68687725
7553.00033173
7064.74836784
6576.86289427
6089.20208452
5601.60884517
5113.61173876
)
;
    }
    atmosphere
    {
        type            calculated;
        value           nonuniform List<scalar> 7(-9.81171062095 -9.81132599525 -9.81114401099 -9.81142909929 -9.81125263261 -9.81070449005 -9.81068845113);
    }
    floatingObject
    {
        type            calculated;
        value           nonuniform List<scalar> 8(4635.39408918 4153.43940573 3672.58852991 3192.56653134 4868.64279341 4868.00860173 4868.06360001 4868.8025572);
    }
    procBoundary3to4
    {
        type            processor;
        value           nonuniform List<scalar> 
13
(
5095.94205746
4610.91590525
4126.5012536
8512.59828849
8023.53396656
7535.02608274
7047.0945809
6073.02424166
5586.92841754
5586.92841754
6564.20246885
6564.20246885
6564.20246885
)
;
    }
    procBoundary3to5
    {
        type            processor;
        value           nonuniform List<scalar> 10(3642.67819695 3159.41217548 2676.6535797 2194.32491926 1712.33280829 1230.66718371 748.827404274 294.167751739 34.6455040309 -9.6374780432);
    }
    procBoundary3to6
    {
        type            processor;
        value           nonuniform List<scalar> 8(2733.36733185 2248.2126671 1766.35933334 1286.83538023 809.532239352 348.602334287 58.4665470761 -9.5622722825);
    }
    procBoundary3to8
    {
        type            processor;
        value           nonuniform List<scalar> 8(8529.94139679 8040.81880275 7552.20902986 7064.11656555 6576.56571834 6089.66028465 5603.52521288 5118.57563988);
    }
}


// ************************************************************************* //
