/*--------------------------------*- C++ -*----------------------------------*\
| =========                 |                                                 |
| \\      /  F ield         | OpenFOAM: The Open Source CFD Toolbox           |
|  \\    /   O peration     | Version:  v2012                                 |
|   \\  /    A nd           | Website:  www.openfoam.com                      |
|    \\/     M anipulation  |                                                 |
\*---------------------------------------------------------------------------*/
FoamFile
{
    version     2.0;
    format      ascii;
    class       surfaceScalarField;
    location    "3.7";
    object      phi;
}
// * * * * * * * * * * * * * * * * * * * * * * * * * * * * * * * * * * * * * //

dimensions      [0 3 -1 0 0 0 0];
oriented        oriented;


internalField   nonuniform List<scalar> 
296
(
-3.31939102603e-05
-5.99143854276e-05
-3.85006109923e-05
-6.61598205645e-05
-4.45352670099e-05
-7.28036047974e-05
-5.10049871652e-05
-8.063713011e-05
-5.61498565325e-05
-9.05038469101e-05
-6.06952168177e-05
-9.9934783601e-05
-6.68450389255e-05
-0.000104712956794
-7.76125956896e-05
-0.000109031834937
-9.77533738083e-05
-0.000120550298197
-0.000125540302273
-0.000127182112026
-0.000159409807274
-7.21259786606e-05
-0.0002339287876
-0.000204025990717
-0.000196860454451
-5.2383118512e-06
-4.8336002739e-05
-9.78117741794e-06
-4.2614370228e-05
-1.42573110636e-05
-3.93988106157e-05
-3.89302856053e-05
-2.86354245685e-05
-4.40822622693e-05
-3.38171016017e-05
-4.88007521762e-05
-3.91249373375e-05
-5.46089450132e-05
-4.52523068264e-05
-6.00359718838e-05
-5.26244742011e-05
-6.54360707312e-05
-6.01422773422e-05
-7.31244431839e-05
-6.45373031442e-05
-8.61135777853e-05
-6.52327245378e-05
-9.9242328667e-05
-6.68343632111e-05
-0.000103111718161
-7.52489902101e-05
-0.000100614753812
-9.98881328284e-05
-9.59071398619e-05
-0.000135877139638
-9.11898074037e-05
-0.000167579069629
-4.04228292392e-05
-0.000212264611722
-0.000159340088004
-0.000145761247951
-5.79113824313e-06
-4.2542886699e-05
-1.09915540636e-05
-3.74119427756e-05
-1.61253671976e-05
-3.42631174884e-05
-2.1363458989e-05
-3.36909875929e-05
-2.69141135027e-05
-3.51213331566e-05
-3.27982082376e-05
-3.8198684835e-05
-3.88817988565e-05
-4.27187292422e-05
-4.48262092988e-05
-4.86671872319e-05
-5.23203303773e-05
-5.25454622906e-05
-6.22413810066e-05
-5.55192047282e-05
-7.22083651501e-05
-6.31613945427e-05
-7.6212770869e-05
-8.21117037021e-05
-7.03350404621e-05
-0.000105119987743
-6.6596119099e-05
-0.000106847280561
-7.24233026779e-05
-9.47813399345e-05
-9.83154778022e-05
-7.0007565052e-05
-0.000135276984598
-5.42228706863e-05
-0.000163533711697
-1.2164218e-05
-0.000194188887227
-0.000128684018643
-9.54557019781e-05
-6.20962744856e-06
-3.63315312856e-05
-1.20635536138e-05
-3.15564660919e-05
-1.76513103926e-05
-2.86740522779e-05
-2.35156140849e-05
-2.78258859155e-05
-2.98753165797e-05
-2.8761554685e-05
-3.71857537535e-05
-3.08890681165e-05
-4.50218746596e-05
-3.48843720715e-05
-5.15927752418e-05
-4.20989275445e-05
-6.12550470587e-05
-4.28863580391e-05
-7.62481954889e-05
-4.05291028202e-05
-9.09934790271e-05
-4.84179072043e-05
-9.4607068786e-05
-7.84974061675e-05
-7.80018276075e-05
-0.000121720822543
-6.67040080976e-05
-0.000118136673261
-6.83744157962e-05
-9.30994618509e-05
-8.90255700959e-05
-4.93444561271e-05
-0.000121508167435
-2.17320298121e-05
-0.000148438909286
1.47693336145e-05
-0.000214292638117
-6.28281325844e-05
-5.73041700915e-05
-6.72304246541e-06
-2.96072205668e-05
-1.28998084367e-05
-2.53787064539e-05
-1.90105862334e-05
-2.25626072485e-05
-2.5237986989e-05
-2.15982839146e-05
-3.22407234852e-05
-2.17592274473e-05
-4.12547106754e-05
-2.18762002094e-05
-5.22757931615e-05
-2.38651058419e-05
-6.31603160937e-05
-3.121672032e-05
-7.82156425164e-05
-2.78333941798e-05
-9.87956808856e-05
-1.99504268392e-05
-0.000120380694708
-2.68319206559e-05
-0.000127986356012
-7.08870514666e-05
-9.01174761027e-05
-0.000159577864292
-7.22232396787e-05
-0.000136012863709
-7.21012909341e-05
-9.31992527733e-05
-8.90472535952e-05
-3.23763835651e-05
-0.000111270485502
5.06948942251e-07
-0.000125340778211
2.88450615925e-05
-0.000193164554237
4.99760408926e-06
-1.7113779991e-05
-7.01197668967e-06
-2.25946042902e-05
-1.34735676306e-05
-1.89167788645e-05
-1.99499376893e-05
-1.6086223918e-05
-2.71695626472e-05
-1.43790419671e-05
-3.65149822046e-05
-1.24146588457e-05
-4.91928365978e-05
-9.1996884132e-06
-6.59431762255e-05
-7.11650855571e-06
-8.59229878354e-05
-1.12389363934e-05
-9.6164163358e-05
-1.75935728105e-05
-0.000117012046742
8.97938607285e-07
-0.000139939958219
-3.90025390149e-06
-0.000151415335627
-5.93978929815e-05
-8.79922956059e-05
-0.000222977152397
-7.606973799e-05
-0.000147902562592
-8.92468553445e-05
-7.99842317207e-05
-0.000105632322771
-1.5955063374e-05
-0.000116012613515
1.09097115974e-05
-0.00011297724505
2.58167047972e-05
-0.000140062829689
3.20983300672e-05
2.50111621631e-05
-7.38063753904e-06
-1.52140034723e-05
-1.37823458391e-05
-1.25154047819e-05
-1.96320259536e-05
-1.02371507478e-05
-2.5951348493e-05
-8.06062814905e-06
-3.38188553382e-05
-4.54838018012e-06
-4.64375663857e-05
3.41751164654e-06
-6.95173018249e-05
1.59613983262e-05
-0.000108774499967
2.80166065365e-05
-0.000126368065467
-0.000125468687251
-0.000129362240722
-0.000188747568192
-9.75125142609e-05
-9.09253209674e-05
-0.000119757620426
-0.000142183316323
-0.000147616191035
-0.000132452619192
-0.000144899755711
-7.48881106944e-06
-7.72584962025e-06
-1.37507587607e-05
-6.25439365409e-06
-1.90312662172e-05
-4.95779860592e-06
-2.3393825865e-05
-3.6994365107e-06
-2.61918588762e-05
-1.75190912872e-06
-2.52475116293e-05
2.47141581846e-06
-1.65429895867e-05
7.2550171567e-06
1.14726608082e-05
-7.60207640487e-06
-1.25411409823e-07
-1.36979335254e-05
-1.60374682261e-07
-1.84347518275e-05
-2.23023704175e-07
-2.18386582615e-05
-2.97754870022e-07
-2.31820134946e-05
-4.10892736033e-07
-2.01832981851e-05
-5.29641899699e-07
-1.22611499237e-05
-6.69367463983e-07
-7.89401720214e-07
-7.63233071424e-06
7.50418413233e-06
-1.37059078286e-05
5.91014927404e-06
-1.84689502638e-05
4.53671211649e-06
-2.19177850039e-05
3.14760258411e-06
-2.33100069445e-05
9.77924206377e-07
-2.03218675043e-05
-3.520912331e-06
-1.2332441036e-05
-8.6610574238e-06
-1.31231651691e-05
-7.54123864678e-06
-1.38669357602e-05
-1.92722749239e-05
-2.37375774126e-05
-2.67363346532e-05
-2.58599517962e-05
-1.72236139758e-05
)
;

boundaryField
{
    back
    {
        type            calculated;
        value           uniform 0;
    }
    sides
    {
        type            calculated;
        value           nonuniform List<scalar> 0();
    }
    bottom
    {
        type            calculated;
        value           uniform 0;
    }
    front
    {
        type            calculated;
        value           uniform 0;
    }
    atmosphere
    {
        type            calculated;
        value           nonuniform List<scalar> 7(-0.000288729278388 -0.000263360180033 -0.000244490514002 -0.000252439736412 -0.000233328815381 -0.000182151915618 -0.000171071896715);
    }
    floatingObject
    {
        type            calculated;
        value           uniform 0;
    }
    procBoundary3to4
    {
        type            processor;
        value           nonuniform List<scalar> 
13
(
6.46137259943e-05
7.14630978602e-05
7.88331484634e-05
5.35767187392e-05
4.71600010233e-05
4.38766926142e-05
4.34660942767e-05
4.90940050776e-05
2.84916032287e-05
5.39805049179e-05
-1.87900663143e-05
2.36245892497e-05
4.06739878143e-05
)
;
    }
    procBoundary3to5
    {
        type            processor;
        value           nonuniform List<scalar> 10(8.71008133214e-05 9.5641964818e-05 0.000104474753322 0.000110859637533 0.000119800419873 0.000140694205624 0.000154972337893 0.000105996782683 0.000278547201376 0.000251668702637);
    }
    procBoundary3to6
    {
        type            processor;
        value           nonuniform List<scalar> 8(-0.000314177950828 -0.000154446838654 -5.11052673907e-05 6.51218588149e-06 1.63682000298e-05 1.06618777747e-05 4.45622807946e-05 5.12230587368e-05);
    }
    procBoundary3to8
    {
        type            processor;
        value           nonuniform List<scalar> 8(1.50420435916e-05 1.22320155674e-05 9.93789154301e-06 7.60864795599e-06 3.97256092203e-06 -4.40070407756e-06 -1.73004377792e-05 -3.03476379079e-05);
    }
}


// ************************************************************************* //
