/*--------------------------------*- C++ -*----------------------------------*\
| =========                 |                                                 |
| \\      /  F ield         | OpenFOAM: The Open Source CFD Toolbox           |
|  \\    /   O peration     | Version:  v2012                                 |
|   \\  /    A nd           | Website:  www.openfoam.com                      |
|    \\/     M anipulation  |                                                 |
\*---------------------------------------------------------------------------*/
FoamFile
{
    version     2.0;
    format      ascii;
    class       surfaceVectorField;
    location    "3.7";
    object      Uf;
}
// * * * * * * * * * * * * * * * * * * * * * * * * * * * * * * * * * * * * * //

dimensions      [0 1 -1 0 0 0 0];


internalField   nonuniform List<vector> 
296
(
(-0.0130542042493 -0.00663878205206 1.38637702723e-21)
(-0.0119828770855 -0.00673228793383 4.45482598471e-21)
(-0.0144154349639 -0.00770012219846 1.78037063462e-21)
(-0.0132319641129 -0.00777103638341 7.12462917973e-21)
(-0.0159363688516 -0.00890705340198 1.85925263392e-21)
(-0.0145607209595 -0.00901347640724 8.2404972653e-21)
(-0.0176765489897 -0.010200997433 1.68199806837e-21)
(-0.016127426022 -0.0104380724941 7.51277378305e-21)
(-0.019445774982 -0.0112299713065 1.52253348548e-21)
(-0.018100769382 -0.0116650638868 7.23051880044e-21)
(-0.0208456385119 -0.0121390433635 1.42317158779e-21)
(-0.0199869567202 -0.0123486700334 6.44097228641e-21)
(-0.0220974682858 -0.0133690077851 1.66776718759e-21)
(-0.0209425913587 -0.0128401986872 4.74313611251e-21)
(-0.0245558036431 -0.0155225191379 9.05789643354e-23)
(-0.0218063669874 -0.0145132339221 3.03583360685e-21)
(-0.0274283076606 -0.0195506747617 3.22145614816e-21)
(-0.0241100596394 -0.014163907749 1.79687657014e-21)
(-0.0232772693018 -0.0251080604547 9.4457304285e-21)
(-0.0254364224051 -0.0271228075967 6.31001152257e-21)
(-0.0332733456429 -0.0318819614549 -6.25310030208e-22)
(-0.0144251957321 -0.0180348496852 7.29013480032e-21)
(-0.0459881117526 -0.04678575752 -1.0886844419e-20)
(-0.0408051981434 -0.0404263988355 -1.86299581438e-20)
(-0.0393720908902 -0.0548854546149 -1.61122617472e-20)
(-0.00957943233374 -0.00104766237024 9.53634716876e-22)
(-0.00966720054781 -0.000498397894012 1.84177224137e-21)
(-0.00865040971665 -0.00195623548359 2.01134275455e-22)
(-0.00852287404559 -0.00165627022838 4.68599929692e-22)
(-0.00827416552934 -0.00285146221272 1.16929928955e-22)
(-0.00787976212315 -0.00258678554125 2.0937610425e-22)
(-0.00778605712105 -0.00355203188591 4.13942512533e-22)
(-0.00977150087642 -0.00572708491369 2.36265054937e-21)
(-0.00881645245386 -0.00562344692694 4.32539227781e-21)
(-0.0108112248103 -0.00676342032035 5.63102534906e-21)
(-0.00976015043524 -0.00674121754121 1.30058408394e-20)
(-0.0119824124811 -0.00782498746751 1.01930781372e-20)
(-0.0109217890026 -0.00784276693684 3.04376531901e-20)
(-0.0132049539899 -0.00905046136528 1.35847558104e-20)
(-0.0120071943768 -0.0090162821848 5.00192942708e-20)
(-0.0146346169312 -0.0105248948402 1.38940184144e-20)
(-0.0130872141462 -0.010553676375 5.695972897e-20)
(-0.0165048480342 -0.0120284554684 1.30612945151e-20)
(-0.0146248886368 -0.012412802798 5.27350878275e-20)
(-0.0186410766351 -0.0129074606288 1.21489576014e-20)
(-0.0172227155571 -0.0138589666853 5.84541114832e-20)
(-0.0201410196527 -0.0130465449076 9.76093681113e-21)
(-0.0198484657334 -0.0139253570407 5.70645089824e-20)
(-0.0207078168927 -0.0133668726422 6.11120253178e-21)
(-0.0206223436321 -0.0132457656484 4.10985461241e-20)
(-0.0212562585809 -0.015049798042 4.74213121266e-21)
(-0.0201229507625 -0.0142994511215 2.16480524014e-20)
(-0.0217889763027 -0.0199776265657 4.88543194456e-21)
(-0.0191814279724 -0.013618536713 6.5510677968e-21)
(-0.0165247172386 -0.0271754279277 4.15441589438e-21)
(-0.0182379614807 -0.0280031100326 6.73019077883e-21)
(-0.0234141138115 -0.0335158139259 -1.07145133132e-20)
(-0.00808456584785 -0.0187944738465 6.3591695843e-21)
(-0.034261642322 -0.0424529223444 -2.3855375472e-20)
(-0.0318680176008 -0.0401190914154 -2.13995248341e-20)
(-0.0291522495903 -0.0495590165029 -1.83762472882e-20)
(-0.00855323789543 -0.00115822764863 1.35673745419e-21)
(-0.0085085773398 -0.000554787017302 2.26679659446e-21)
(-0.00769164393577 -0.00219831081271 4.76841758486e-22)
(-0.00748238855511 -0.00182773884447 7.75924869814e-22)
(-0.00732168571962 -0.00322507343952 5.06388687828e-22)
(-0.00685262349769 -0.00286917616092 6.75725608314e-22)
(-0.00742132543889 -0.0042726917978 1.45079179811e-21)
(-0.00673819751858 -0.00396166008093 1.69680710937e-21)
(-0.00789835025439 -0.00538282270053 4.81650260614e-21)
(-0.00702426663132 -0.00511266937627 6.40384432349e-21)
(-0.00867537069445 -0.00655964164751 1.49685825679e-20)
(-0.00763973696699 -0.00636958330879 2.31693577199e-20)
(-0.00973206063786 -0.00777635977129 3.78124686805e-20)
(-0.00854374584843 -0.00775774196175 7.40056106983e-20)
(-0.0108317821996 -0.00896524185975 7.02638693237e-20)
(-0.00973343744639 -0.00903567879636 1.7934332167e-19)
(-0.0117950749125 -0.0104640660755 9.33942674304e-20)
(-0.0105090924581 -0.0103755082471 2.95207235402e-19)
(-0.0130667247275 -0.0124482762013 9.5800798383e-20)
(-0.0111038409456 -0.0124413942245 3.37541815456e-19)
(-0.015325380229 -0.01444167303 9.81279047955e-20)
(-0.0126322789085 -0.0151647269431 3.25105317038e-19)
(-0.0184642152699 -0.0152425541738 1.03369662864e-19)
(-0.0164223407404 -0.0173270923724 3.98405428288e-19)
(-0.0204529584268 -0.0140670080924 8.84021182953e-20)
(-0.0210239975487 -0.0163842443057 4.12540673483e-19)
(-0.0201384255972 -0.0133192238198 5.66353959937e-20)
(-0.0213694561122 -0.013665455615 3.1128257808e-19)
(-0.0180328005241 -0.0144846605356 2.34569889855e-20)
(-0.0189562679869 -0.0139249104952 1.50945207699e-19)
(-0.0154111123075 -0.0196630955604 8.39582663108e-21)
(-0.0140015130104 -0.0130408942453 5.11970069335e-20)
(-0.00978768558723 -0.0270553969197 8.93494446875e-21)
(-0.0108445741373 -0.0268501799578 2.79111251969e-20)
(-0.0169887516558 -0.0327067423394 -4.32584193653e-21)
(-0.0024328436 -0.0174418769752 1.8964842934e-20)
(-0.0266386202863 -0.0388377774455 -1.59203966503e-20)
(-0.0257368037286 -0.0371297008875 -1.55365995441e-20)
(-0.0190911403956 -0.0506843239983 -1.28583583726e-20)
(-0.00740930693731 -0.00124192548971 1.68598401008e-21)
(-0.00726630625711 -0.000596930501304 2.31965365479e-21)
(-0.00661102629364 -0.00241271072277 9.74808719642e-22)
(-0.00631129321838 -0.00196501978711 1.09912322869e-21)
(-0.00623947834381 -0.00353026207853 1.86614402985e-21)
(-0.00573481045558 -0.00309495805826 1.8618128248e-21)
(-0.00627921949769 -0.00470312281697 6.64985963475e-21)
(-0.00556517718311 -0.00428575911569 6.84934436907e-21)
(-0.00664690541098 -0.00597506331593 2.47566994373e-20)
(-0.005752310937 -0.0055591925603 2.79242169143e-20)
(-0.00725914270956 -0.00743715075071 8.22063858504e-20)
(-0.0061778136233 -0.00701461972182 1.07116675424e-19)
(-0.00821205709415 -0.00900437493192 2.15536463688e-19)
(-0.0069768744143 -0.00888879870872 3.53070097086e-19)
(-0.00908571381256 -0.0103185550484 4.04286687748e-19)
(-0.00841978550891 -0.0105963308826 8.55542078669e-19)
(-0.0095450837525 -0.0122510094117 5.39354783428e-19)
(-0.00857727160781 -0.0124612814679 1.35603361594e-18)
(-0.01051097571 -0.0152496390978 5.66846334111e-19)
(-0.00810582056405 -0.0154583163729 1.52363092715e-18)
(-0.0135445988688 -0.0181986958054 6.2538284053e-19)
(-0.00968358144086 -0.0193777786596 1.38883428571e-18)
(-0.0189250792019 -0.0189214137572 7.07576438907e-19)
(-0.0156994812335 -0.0230568270213 1.67315467048e-18)
(-0.0220523507088 -0.0156003655215 6.35421133268e-19)
(-0.0243441645085 -0.020255122981 1.75284403238e-18)
(-0.0203440551169 -0.0133408016195 4.05592389786e-19)
(-0.0236273346521 -0.0144713797805 1.41403321388e-18)
(-0.0151555767884 -0.0136748831592 1.78685225647e-19)
(-0.0186198923702 -0.0141464312574 7.50556100023e-19)
(-0.00943932127153 -0.0178051140192 7.07123054993e-20)
(-0.00986889122542 -0.0129746442296 2.9817398238e-19)
(-0.003424684339 -0.024301633487 3.79410236622e-20)
(-0.00434640596243 -0.0250005861344 1.40205919114e-19)
(-0.00951765503225 -0.0296877818572 7.75408532647e-21)
(0.0029538667229 -0.0151145967453 1.01830081544e-19)
(-0.0180960648955 -0.0428585276233 -1.24745612664e-20)
(-0.0125656265169 -0.0321781903178 6.92969997578e-20)
(-0.0114608340183 -0.0517542324141 6.42351751667e-20)
(-0.00616423516735 -0.00134460849308 1.7327928734e-21)
(-0.00592144411335 -0.000641432555586 2.00820893558e-21)
(-0.00543232200678 -0.00257996168734 1.98612733385e-21)
(-0.00507574129078 -0.00207593958888 1.62681923081e-21)
(-0.00506384652731 -0.00380211724668 6.84501316402e-21)
(-0.0045125214497 -0.0032734616205 5.29166398197e-21)
(-0.00506011366922 -0.0050475973978 2.81237016486e-20)
(-0.00431965678291 -0.00456223149664 2.35624566122e-20)
(-0.00538165349392 -0.00644814469705 1.10284192901e-19)
(-0.00435184548945 -0.00603030843311 9.97353803047e-20)
(-0.0059895938835 -0.00825094213508 3.77980386659e-19)
(-0.00437524004188 -0.00785049337366 3.92321440386e-19)
(-0.00716268873876 -0.0104551586323 9.93075712067e-19)
(-0.00477302116838 -0.0106190045906 1.29353938288e-18)
(-0.00807371233757 -0.0126320632187 1.80728900686e-18)
(-0.00624334406401 -0.0134019827594 3.09347512846e-18)
(-0.00746061455564 -0.0156431285033 2.34030975966e-18)
(-0.00556667883596 -0.0157878746052 4.73463296743e-18)
(-0.00743608664137 -0.0197591361771 2.34561887876e-18)
(-0.00399008536785 -0.0193251344645 5.38100214609e-18)
(-0.0117252262025 -0.0240761389416 2.43660611566e-18)
(-0.00536638413118 -0.0237804294113 4.43108704462e-18)
(-0.0212980304798 -0.0255972712024 2.71842226395e-18)
(-0.0141774102933 -0.0293165710838 4.9293166435e-18)
(-0.0262230040973 -0.0180234952205 2.53145611298e-18)
(-0.0319155728584 -0.0232857057625 4.88029406169e-18)
(-0.0217648142624 -0.0144446479357 1.75899692411e-18)
(-0.0272025727418 -0.0141333514768 3.72657697233e-18)
(-0.0131375479551 -0.0144202581868 8.70044856755e-19)
(-0.0186398505547 -0.0158428165484 2.11458824492e-18)
(-0.00491046266857 -0.017809450719 3.67667595994e-19)
(-0.00647527671302 -0.0152347470428 9.40492586663e-19)
(0.00144549513616 -0.0222540971004 2.04094976996e-19)
(0.00010138978845 -0.0255101443395 4.64703712692e-19)
(-0.000152413635655 -0.0250681556423 1.63372995976e-19)
(0.0057690123185 -0.0139264510486 3.36076626684e-19)
(-0.00612953442232 -0.0386329108474 1.46006736191e-19)
(0.000999520817851 -0.027041707021 2.48011205242e-19)
(-0.0034227559982 -0.0438889692595 2.28508942684e-19)
(-0.00486421612098 -0.00140239533793 1.90223529299e-21)
(-0.00451892085805 -0.000693954317679 1.67181855348e-21)
(-0.00419305347983 -0.00269471352613 4.93235587893e-21)
(-0.00378335577291 -0.00215815509851 3.06581418984e-21)
(-0.00375891909426 -0.00398998753787 2.20091074302e-20)
(-0.0032172447836 -0.00335411097985 1.41775849521e-20)
(-0.00348557780256 -0.00543391252944 9.51741352683e-20)
(-0.00287580839341 -0.00462644068855 6.49297669854e-20)
(-0.00325243565321 -0.00730299644093 3.81772627789e-19)
(-0.00248293176915 -0.00612545881075 2.71294044838e-19)
(-0.00326682556833 -0.00983856731957 1.30788043661e-18)
(-0.00183993768264 -0.00814979209294 1.0311920326e-18)
(-0.00396141365367 -0.0131886352451 3.39393879927e-18)
(-0.00142330171114 -0.011416249123 3.15074800207e-18)
(-0.00359952001432 -0.0171845975671 6.02081908903e-18)
(-0.00224778727868 -0.0165001562699 7.53945513198e-18)
(-0.0018808850364 -0.0192328326716 7.77532535386e-18)
(-0.0035187145621 -0.0210345874569 1.29472096996e-17)
(-0.00200709875371 -0.0234024093484 7.46647031196e-18)
(0.000179587721457 -0.0237836966414 1.51190751516e-17)
(-0.00738821633829 -0.0279879916439 6.92379757247e-18)
(-0.000780050780299 -0.0237347151247 1.03129722596e-17)
(-0.0251873318087 -0.0302830671253 7.09118844125e-18)
(-0.0118795785963 -0.0331578374092 1.15045285537e-17)
(-0.0342670523382 -0.0175984591212 6.07541492104e-18)
(-0.0445954304794 -0.0266376297311 8.6633592271e-18)
(-0.0246601642179 -0.015213947598 4.08216829314e-18)
(-0.0295805125184 -0.0130206585128 6.34330447918e-18)
(-0.0125049532412 -0.0178493710689 2.18503597482e-18)
(-0.0159968463441 -0.0196347446185 3.4091348131e-18)
(-0.00212164556904 -0.0211264645541 1.03752870336e-18)
(-0.00319101267479 -0.0212115887074 1.68530324496e-18)
(0.00372070291068 -0.0232025227031 5.96685362381e-19)
(0.00218194231949 -0.0302091232412 9.25855922604e-19)
(0.00495254654364 -0.02259544901 4.20714835951e-19)
(0.00516334095945 -0.0162223655873 7.06725468879e-19)
(0.00280948485236 -0.0280125659377 3.30513411735e-19)
(0.00641966601344 -0.025718679162 5.68766949856e-19)
(0.00500223243263 -0.0372859321354 5.21460771642e-19)
(-0.00349119290494 -0.00147612750781 2.83539745033e-21)
(-0.00304280069445 -0.000742381947872 1.674253976e-21)
(-0.00291019817683 -0.00275646916782 1.2311043263e-20)
(-0.00250308095639 -0.00219671596336 6.23237216623e-21)
(-0.00243538228325 -0.00392640519072 5.70982445073e-20)
(-0.00204743014956 -0.0033200814344 3.07246502164e-20)
(-0.00188753582596 -0.00519026969859 2.41049676555e-19)
(-0.00161212562981 -0.00442371305851 1.35626426919e-19)
(-0.00086583601294 -0.00676377106763 9.20713449651e-19)
(-0.000909676036023 -0.00548036533952 5.33458906784e-19)
(0.000681937651228 -0.00928751327714 2.87405959807e-18)
(0.000683502329308 -0.00648341743014 1.88662833037e-18)
(0.00200119562009 -0.013903460365 7.29626433477e-18)
(0.00319227966525 -0.00792195437218 5.1466395696e-18)
(-0.00106288257095 -0.0217548999935 1.44658457426e-17)
(0.00560332130729 -0.00935743505869 1.12160328093e-17)
(-0.0012883310292 -0.0252736130935 2.02909594973e-17)
(0.00179153177033 -0.0250937374503 1.79655770992e-17)
(-0.00516587986382 -0.0258724481445 1.48937032408e-17)
(-0.0343038802447 -0.0377495136383 1.30766993396e-17)
(-0.0443592977345 -0.0195025028522 8.93124878524e-18)
(-0.0222465610195 -0.0181850641935 5.67027099915e-18)
(-0.00622919531514 -0.0239515240853 2.90940208324e-18)
(0.00210715080766 -0.0284366632647 1.57363046421e-18)
(0.00465503929994 -0.029523238207 1.0358960291e-18)
(0.00707426025904 -0.0264905238385 8.54777582784e-19)
(0.00861183793953 -0.0289799511421 7.59714309763e-19)
(-0.00210378967906 -0.00149776221389 5.0712286919e-21)
(-0.00154516992405 -0.000781247874724 2.71646827069e-21)
(-0.0016956031855 -0.00275015175214 2.46459791196e-20)
(-0.00125087873082 -0.00220583671542 1.10432852513e-20)
(-0.00132677796335 -0.00380625324344 1.09252832628e-19)
(-0.000991559721184 -0.00325298636294 5.31981825774e-20)
(-0.000854347008806 -0.00467876517299 4.28035657148e-19)
(-0.000739887302141 -0.00419834406056 2.26907850107e-19)
(0.000114575088926 -0.00523837177524 1.4993737875e-18)
(-0.000350381825744 -0.00476946725473 8.40240388099e-19)
(0.00174834795368 -0.00504950232586 4.15920830191e-18)
(0.000494283163691 -0.00474751282537 2.94020820783e-18)
(0.00370875642308 -0.00330859791735 9.06640804413e-18)
(0.00145100343134 -0.0042144070717 8.05568513446e-18)
(0.00229453216164 -0.000795539176966 1.89002275788e-17)
(-0.000730635372872 -0.00152041528097 8.68852483007e-21)
(-2.50822819646e-05 -0.000801944700863 4.017918472e-21)
(-0.000587256769739 -0.00273958670508 3.95954887091e-20)
(-3.20749364522e-05 -0.0022113011793 1.40483020119e-20)
(-0.000442761613224 -0.0036869503655 1.70853200056e-19)
(-4.46047408351e-05 -0.00322179238092 6.55710684156e-20)
(-0.000233851904931 -0.00436773165231 6.39112581059e-19)
(-5.95509740045e-05 -0.00410846640874 2.76131708908e-19)
(0.000208046684493 -0.00463640269891 2.28107480843e-18)
(-8.21785472067e-05 -0.00452731272302 1.00171166499e-18)
(0.000752567412125 -0.00403665963702 6.83668504039e-18)
(-0.00010592837994 -0.00443220821308 3.56098771569e-18)
(0.00115034661162 -0.00245222998475 1.78895046692e-17)
(-0.000133873492797 -0.00366722646817 1.01127760521e-17)
(-0.000157880344043 -0.00058480699877 2.5665166334e-17)
(0.000675160187242 -0.00152646614285 9.37769565387e-21)
(0.00150083682647 -0.000784590978564 4.09674568844e-21)
(0.000514356548248 -0.00274118156571 4.00238817185e-20)
(0.00118202985481 -0.00221550940065 1.20362482199e-20)
(0.000343511956533 -0.00369379005276 1.70849577268e-19)
(0.000907342423298 -0.00327288344114 5.35876067049e-20)
(9.53086325836e-05 -0.00438355700077 6.38730792841e-19)
(0.000629520516822 -0.00423324421869 2.26560335102e-19)
(-0.000400841642168 -0.0046620013889 2.28162457225e-18)
(0.000195584841275 -0.00482289355289 8.39649898097e-19)
(-0.00101210992152 -0.00406437350085 6.83707872738e-18)
(-0.0007041824662 -0.00481842425588 2.94033851146e-18)
(-0.00148343030368 -0.0024664882072 1.78884377169e-17)
(-0.00173221148476 -0.0042948708731 8.05541485183e-18)
(-0.00262463303382 -0.000844395094544 1.89016719837e-17)
(0.00206199606881 -0.00150824772936 6.75529825448e-21)
(0.00163918190979 -0.00277338715204 2.55999732064e-20)
(0.0012425114514 -0.00385445498478 1.09298364539e-19)
(0.000732493150934 -0.00474751548253 4.27479440358e-19)
(-0.000288521023599 -0.00534726693064 1.49836383731e-18)
(-0.00199686150178 -0.00517199035924 4.15867463591e-18)
(-0.00407690019002 -0.00344472279517 9.06864911865e-18)
)
;

boundaryField
{
    back
    {
        type            calculated;
        value           uniform (0 0 0);
    }
    sides
    {
        type            calculated;
        value           nonuniform List<vector> 0();
    }
    bottom
    {
        type            calculated;
        value           uniform (0 0 0);
    }
    front
    {
        type            calculated;
        value           uniform (0 0 0);
    }
    atmosphere
    {
        type            calculated;
        value           nonuniform List<vector> 7((0 -0.0577458556776 0) (0 -0.0526720360066 0) (0 -0.0488981028005 0) (0 -0.0504879472824 0) (0 -0.0466657630762 0) (0 -0.0364303831236 0) (0 -0.034214379343 0));
    }
    floatingObject
    {
        type            calculated;
        value           nonuniform List<vector> 8((0 -1.66533453694e-15 2.08166817117e-16) (0 0 2.08166817117e-16) (0 0 0) (0 -3.33066907388e-15 2.08166817117e-16) (4.16333634234e-16 0 0) (0 0 2.08166817117e-16) (0 0 2.08166817117e-16) (0 0 0));
    }
    procBoundary3to4
    {
        type            processor;
        value           nonuniform List<vector> 
13
(
(-0.0129227451989 -0.00555937671518 6.88600364289e-22)
(-0.014292619572 -0.0064566459594 9.95744816768e-22)
(-0.0157666296927 -0.00750939826001 1.11087868537e-21)
(-0.0107153437478 -0.00042137404154 1.71676962771e-21)
(-0.00943200020466 -0.0014465552319 3.17746686953e-22)
(-0.00877533852285 -0.0022480050342 3.10220550317e-23)
(-0.00869321885535 -0.00306290206901 1.14528324312e-22)
(-0.00981880101552 -0.00482845327786 7.7972601356e-22)
(-0.011817314015 -0.00569832064574 8.57888075726e-22)
(-0.0107961009836 -0.00577252207905 2.03408744008e-21)
(-0.00841653500619 -0.00375801326286 3.33158336985e-22)
(-0.00895647929668 -0.00472491784994 8.78897294227e-22)
(-0.00813479756287 -0.00455786896657 1.37000762256e-21)
)
;
    }
    procBoundary3to5
    {
        type            processor;
        value           nonuniform List<vector> 10((-0.0174201626643 -0.0087074784321 1.14130224967e-21) (-0.0191283929636 -0.00992093526761 1.01530334433e-21) (-0.0208949506645 -0.0110472506495 1.34810867481e-21) (-0.0221719275065 -0.0123110866754 1.50445142996e-21) (-0.0239600839745 -0.014594444432 2.58931461018e-21) (-0.0281388411247 -0.014793329615 5.59010012438e-22) (-0.0309944675785 -0.025114300109 7.82253755908e-21) (-0.0211993565366 -0.0163912630793 7.49481287872e-21) (-0.0557094402751 -0.0384475083317 -1.53664613857e-20) (-0.0503337405274 -0.0604136488863 -1.37909694536e-20));
    }
    procBoundary3to6
    {
        type            processor;
        value           nonuniform List<vector> 8((-0.0628355901656 -0.0216310310399 8.31921660768e-18) (-0.0308893677307 -0.0218809859512 6.40399210226e-18) (-0.0102210534781 -0.0313236092493 3.59386135522e-18) (0.0013024371763 -0.0329784781986 2.11638799924e-18) (0.00327364000596 -0.039161513724 1.3529225135e-18) (0.00213237555494 -0.0214799857 1.12219588097e-18) (0.00891245615892 -0.0274374766898 9.96322236298e-19) (0.0102446117474 -0.0344639162541 9.19384248113e-19));
    }
    procBoundary3to8
    {
        type            processor;
        value           nonuniform List<vector> 8((0.00300840871833 -0.000746037021034 3.08646696472e-21) (0.00244640311347 -0.0022160038315 7.19479848286e-21) (0.0019875783086 -0.00336397326668 3.09483767679e-20) (0.0015217295912 -0.0044937167044 1.35017328981e-19) (0.000794512184407 -0.00558532311849 5.32184780096e-19) (-0.000880140815512 -0.0066303212556 1.88444795763e-18) (-0.00346008755583 -0.00813510534654 5.14761241321e-18) (-0.00606952758157 -0.00965466413935 1.12230107874e-17));
    }
}


// ************************************************************************* //
