/*--------------------------------*- C++ -*----------------------------------*\
| =========                 |                                                 |
| \\      /  F ield         | OpenFOAM: The Open Source CFD Toolbox           |
|  \\    /   O peration     | Version:  v2012                                 |
|   \\  /    A nd           | Website:  www.openfoam.com                      |
|    \\/     M anipulation  |                                                 |
\*---------------------------------------------------------------------------*/
FoamFile
{
    version     2.0;
    format      ascii;
    class       volScalarField;
    location    "2.6";
    object      k_0;
}
// * * * * * * * * * * * * * * * * * * * * * * * * * * * * * * * * * * * * * //

dimensions      [0 2 -2 0 0 0 0];


internalField   nonuniform List<scalar> 
167
(
0.00590503702514
0.00597542220163
0.00613572053697
0.00648622711623
0.00718260764425
0.00847447371712
0.0111811796268
0.0205813880963
0.0549598335934
0.00596771050651
0.00613058263797
0.00647991297629
0.0071512785407
0.00834739191364
0.0108385836266
0.0199068350987
0.0637526210918
0.00596027799115
0.00612646203127
0.00647799306026
0.00714457565953
0.00833694687291
0.0108640276506
0.0184960323944
0.0500412231586
0.00587622058346
0.00595354682676
0.00612479816314
0.0064834393513
0.0071587988121
0.00837332980455
0.0110672331206
0.0194413857666
0.0439626533645
0.00586676406068
0.00594742907522
0.00612509554579
0.00649372679271
0.00718182376341
0.0084019506752
0.0110904028133
0.0200807594196
0.045830049245
0.00585738898094
0.00594166852775
0.00612636863222
0.00650596491014
0.00720713581201
0.00842377342416
0.0110631977186
0.0207830015072
0.0541508357089
0.00580562298839
0.00584811968483
0.00593613481841
0.00612798237364
0.00651856992958
0.00723293364889
0.0084531614755
0.0110748320545
0.0208301663469
0.0526829743074
0.00576886756618
0.00579468922383
0.00583903330543
0.00593076729168
0.00612964090491
0.0065311219234
0.00725882801993
0.0084921421982
0.0111487917688
0.02053360443
0.0480498283376
0.00575713202141
0.00578400353492
0.00583017610094
0.00592556110011
0.00613129399081
0.00654303715805
0.00728347095456
0.00853317115968
0.011279057072
0.0207369058119
0.0462742601786
0.0057735126679
0.00582148864491
0.0059204138803
0.00613265553044
0.00655425745947
0.00730555535834
0.00855708726091
0.0113667570115
0.022266444245
0.0545443113709
0.00576277208257
0.00581246432486
0.00591476577694
0.00613322740497
0.00656390859605
0.00732441649444
0.0085720917542
0.0113939410759
0.0236710990986
0.0712618761464
0.00575005727375
0.00580132955777
0.00590672639346
0.00613089759545
0.00657044369214
0.00733976501081
0.00859099670027
0.0114756420127
0.0248625477379
0.0726624798401
0.0057298268639
0.00578240366625
0.00589059961915
0.00612047599407
0.0065690296535
0.00734984534278
0.00863422593914
0.0118314741705
0.0266066540095
0.0733700027455
0.00568570063267
0.00573903494864
0.00584922977531
0.0060836676016
0.00654012394004
0.00733119806922
0.00865972191126
0.0122031625363
0.0281631884191
0.0740763396586
0.00554083165004
0.00557150226987
0.00562429329008
0.0057340806812
0.00596859059847
0.00642649919557
0.00721635649984
0.00857969586947
0.01235658408
0.0287602132652
0.0745092621859
0.00522858848813
0.00525789078624
0.00530727452614
0.0054095797172
0.00563047273716
0.00606473276151
0.00682304049245
0.00818278619926
0.0120172648427
0.0280416648626
0.0733778865074
0.0042139596685
0.00424080191659
0.00428146834341
0.00436032691629
0.00452936645328
0.00487232524332
0.00550970361297
0.0066734779167
0.009632424892
0.0216439626371
0.0662556150502
)
;

boundaryField
{
    back
    {
        type            kqRWallFunction;
        value           nonuniform List<scalar> 
167
(
0.00590503702514
0.00597542220163
0.00613572053697
0.00648622711623
0.00718260764425
0.00847447371712
0.0111811796268
0.0205813880963
0.0549598335934
0.00596771050651
0.00613058263797
0.00647991297629
0.0071512785407
0.00834739191364
0.0108385836266
0.0199068350987
0.0637526210918
0.00596027799115
0.00612646203127
0.00647799306026
0.00714457565953
0.00833694687291
0.0108640276506
0.0184960323944
0.0500412231586
0.00587622058346
0.00595354682676
0.00612479816314
0.0064834393513
0.0071587988121
0.00837332980455
0.0110672331206
0.0194413857666
0.0439626533645
0.00586676406068
0.00594742907522
0.00612509554579
0.00649372679271
0.00718182376341
0.0084019506752
0.0110904028133
0.0200807594196
0.045830049245
0.00585738898094
0.00594166852775
0.00612636863222
0.00650596491014
0.00720713581201
0.00842377342416
0.0110631977186
0.0207830015072
0.0541508357089
0.00580562298839
0.00584811968483
0.00593613481841
0.00612798237364
0.00651856992958
0.00723293364889
0.0084531614755
0.0110748320545
0.0208301663469
0.0526829743074
0.00576886756618
0.00579468922383
0.00583903330543
0.00593076729168
0.00612964090491
0.0065311219234
0.00725882801993
0.0084921421982
0.0111487917688
0.02053360443
0.0480498283376
0.00575713202141
0.00578400353492
0.00583017610094
0.00592556110011
0.00613129399081
0.00654303715805
0.00728347095456
0.00853317115968
0.011279057072
0.0207369058119
0.0462742601786
0.0057735126679
0.00582148864491
0.0059204138803
0.00613265553044
0.00655425745947
0.00730555535834
0.00855708726091
0.0113667570115
0.022266444245
0.0545443113709
0.00576277208257
0.00581246432486
0.00591476577694
0.00613322740497
0.00656390859605
0.00732441649444
0.0085720917542
0.0113939410759
0.0236710990986
0.0712618761464
0.00575005727375
0.00580132955777
0.00590672639346
0.00613089759545
0.00657044369214
0.00733976501081
0.00859099670027
0.0114756420127
0.0248625477379
0.0726624798401
0.0057298268639
0.00578240366625
0.00589059961915
0.00612047599407
0.0065690296535
0.00734984534278
0.00863422593914
0.0118314741705
0.0266066540095
0.0733700027455
0.00568570063267
0.00573903494864
0.00584922977531
0.0060836676016
0.00654012394004
0.00733119806922
0.00865972191126
0.0122031625363
0.0281631884191
0.0740763396586
0.00554083165004
0.00557150226987
0.00562429329008
0.0057340806812
0.00596859059847
0.00642649919557
0.00721635649984
0.00857969586947
0.01235658408
0.0287602132652
0.0745092621859
0.00522858848813
0.00525789078624
0.00530727452614
0.0054095797172
0.00563047273716
0.00606473276151
0.00682304049245
0.00818278619926
0.0120172648427
0.0280416648626
0.0733778865074
0.0042139596685
0.00424080191659
0.00428146834341
0.00436032691629
0.00452936645328
0.00487232524332
0.00550970361297
0.0066734779167
0.009632424892
0.0216439626371
0.0662556150502
)
;
    }
    sides
    {
        type            kqRWallFunction;
        value           nonuniform List<scalar> 
11
(
0.0042139596685
0.00424080191659
0.00428146834341
0.00436032691629
0.00452936645328
0.00487232524332
0.00550970361297
0.0066734779167
0.009632424892
0.0216439626371
0.0662556150502
)
;
    }
    bottom
    {
        type            kqRWallFunction;
        value           nonuniform List<scalar> 0();
    }
    front
    {
        type            kqRWallFunction;
        value           nonuniform List<scalar> 
167
(
0.00590503702514
0.00597542220163
0.00613572053697
0.00648622711623
0.00718260764425
0.00847447371712
0.0111811796268
0.0205813880963
0.0549598335934
0.00596771050651
0.00613058263797
0.00647991297629
0.0071512785407
0.00834739191364
0.0108385836266
0.0199068350987
0.0637526210918
0.00596027799115
0.00612646203127
0.00647799306026
0.00714457565953
0.00833694687291
0.0108640276506
0.0184960323944
0.0500412231586
0.00587622058346
0.00595354682676
0.00612479816314
0.0064834393513
0.0071587988121
0.00837332980455
0.0110672331206
0.0194413857666
0.0439626533645
0.00586676406068
0.00594742907522
0.00612509554579
0.00649372679271
0.00718182376341
0.0084019506752
0.0110904028133
0.0200807594196
0.045830049245
0.00585738898094
0.00594166852775
0.00612636863222
0.00650596491014
0.00720713581201
0.00842377342416
0.0110631977186
0.0207830015072
0.0541508357089
0.00580562298839
0.00584811968483
0.00593613481841
0.00612798237364
0.00651856992958
0.00723293364889
0.0084531614755
0.0110748320545
0.0208301663469
0.0526829743074
0.00576886756618
0.00579468922383
0.00583903330543
0.00593076729168
0.00612964090491
0.0065311219234
0.00725882801993
0.0084921421982
0.0111487917688
0.02053360443
0.0480498283376
0.00575713202141
0.00578400353492
0.00583017610094
0.00592556110011
0.00613129399081
0.00654303715805
0.00728347095456
0.00853317115968
0.011279057072
0.0207369058119
0.0462742601786
0.0057735126679
0.00582148864491
0.0059204138803
0.00613265553044
0.00655425745947
0.00730555535834
0.00855708726091
0.0113667570115
0.022266444245
0.0545443113709
0.00576277208257
0.00581246432486
0.00591476577694
0.00613322740497
0.00656390859605
0.00732441649444
0.0085720917542
0.0113939410759
0.0236710990986
0.0712618761464
0.00575005727375
0.00580132955777
0.00590672639346
0.00613089759545
0.00657044369214
0.00733976501081
0.00859099670027
0.0114756420127
0.0248625477379
0.0726624798401
0.0057298268639
0.00578240366625
0.00589059961915
0.00612047599407
0.0065690296535
0.00734984534278
0.00863422593914
0.0118314741705
0.0266066540095
0.0733700027455
0.00568570063267
0.00573903494864
0.00584922977531
0.0060836676016
0.00654012394004
0.00733119806922
0.00865972191126
0.0122031625363
0.0281631884191
0.0740763396586
0.00554083165004
0.00557150226987
0.00562429329008
0.0057340806812
0.00596859059847
0.00642649919557
0.00721635649984
0.00857969586947
0.01235658408
0.0287602132652
0.0745092621859
0.00522858848813
0.00525789078624
0.00530727452614
0.0054095797172
0.00563047273716
0.00606473276151
0.00682304049245
0.00818278619926
0.0120172648427
0.0280416648626
0.0733778865074
0.0042139596685
0.00424080191659
0.00428146834341
0.00436032691629
0.00452936645328
0.00487232524332
0.00550970361297
0.0066734779167
0.009632424892
0.0216439626371
0.0662556150502
)
;
    }
    atmosphere
    {
        type            inletOutlet;
        inletValue      uniform 0.1;
        value           nonuniform List<scalar> 
17
(
0.1
0.1
0.1
0.1
0.045830049245
0.1
0.1
0.1
0.1
0.0545443113709
0.1
0.1
0.1
0.1
0.1
0.1
0.1
)
;
    }
    floatingObject
    {
        type            kqRWallFunction;
        value           nonuniform List<scalar> 0();
    }
    procBoundary11to9
    {
        type            processor;
        value           nonuniform List<scalar> 9(0.00591449285664 0.00598277543477 0.00613963089664 0.00649008541339 0.00722165133555 0.00868999194811 0.0118422854288 0.0215009485655 0.0552382455748);
    }
    procBoundary11to10
    {
        type            processor;
        value           nonuniform List<scalar> 
23
(
0.00587139274927
0.00589545615018
0.00589545615018
0.00588581178103
0.00588581178103
0.00583888660973
0.00582780265459
0.00581669160386
0.00581669160386
0.00578079475535
0.00578079475535
0.00574997269172
0.00573747189736
0.00574559503139
0.00574559503139
0.00573381514275
0.00572016502124
0.00569920079759
0.00565474321388
0.00565474321388
0.00551780019702
0.00520596297929
0.00419186936594
)
;
    }
}


// ************************************************************************* //
