/*--------------------------------*- C++ -*----------------------------------*\
| =========                 |                                                 |
| \\      /  F ield         | OpenFOAM: The Open Source CFD Toolbox           |
|  \\    /   O peration     | Version:  v2012                                 |
|   \\  /    A nd           | Website:  www.openfoam.com                      |
|    \\/     M anipulation  |                                                 |
\*---------------------------------------------------------------------------*/
FoamFile
{
    version     2.0;
    format      ascii;
    class       surfaceVectorField;
    location    "2.6";
    object      Uf;
}
// * * * * * * * * * * * * * * * * * * * * * * * * * * * * * * * * * * * * * //

dimensions      [0 1 -1 0 0 0 0];


internalField   nonuniform List<vector> 
304
(
(0.000831961728269 0.0133233885928 -8.52315178153e-24)
(0.000137935377309 0.0143964635623 -1.2684559805e-22)
(-0.000103442643704 0.0134988903242 -1.90427227788e-23)
(-0.00033491620351 0.0153340324869 -1.5043180198e-21)
(-0.00069437587378 0.0145116395376 -1.29177696945e-22)
(-0.000199304092142 0.0161262830041 -4.04274012116e-21)
(-0.000922218357456 0.0153732020739 -2.69270746834e-21)
(0.000969598804506 0.017121936147 -1.05926795161e-20)
(-0.000518917413433 0.0164714854423 -5.34430994568e-21)
(0.00505162365712 0.01879669926 -1.46644173452e-20)
(0.000911313832831 0.018469103277 -2.16703499142e-20)
(-0.000415432733759 0.0248887993969 -1.00509533186e-20)
(0.00498041780865 0.0297919893762 -1.65369034369e-20)
(0.012267719309 0.0231372687297 -3.01365434445e-21)
(-0.00864386238788 0.0303663602277 -1.23616408262e-20)
(0.0351757115049 -0.0153933862487 2.17943326108e-21)
(-0.000856726025248 0.0136598730341 -2.13748216737e-23)
(-0.00116689014021 0.0128031960004 -7.35532703192e-24)
(-0.00119012056853 0.014609043737 -1.31756714548e-21)
(-0.00164610848043 0.0138379051009 -3.15981589393e-23)
(-0.00111128801631 0.0154473813701 -3.99427729285e-21)
(-0.00176291836109 0.0147050517671 -1.91740469125e-21)
(-0.000534195791867 0.0165423616541 -1.64219803437e-20)
(-0.00161573996684 0.0156065115143 -3.9471776762e-21)
(0.000812018137223 0.0183037982722 -2.35428360059e-20)
(-0.000851145220955 0.0177066271752 -1.92499374596e-20)
(-0.00406968529838 0.0232039979048 -1.88475909444e-20)
(7.99194579081e-05 0.0257237742502 -1.68135137608e-20)
(0.00482118251527 0.0171385246457 -7.16855322063e-21)
(-0.00257773300294 0.0256738918331 -1.31374257095e-20)
(0.0870020103675 -0.0288755506743 1.83653049195e-21)
(-0.00190143999725 0.0130551882597 -1.75786642975e-23)
(-0.00228127375715 0.012185148996 1.8179290435e-23)
(-0.00211024025823 0.0140718426859 -6.31435704708e-22)
(-0.00266494590998 0.0133378612212 -1.55152772754e-22)
(-0.00195883795212 0.0148574273878 -1.87030507459e-21)
(-0.00255076231635 0.01429124744 -9.75882445229e-22)
(-0.00135980271452 0.0152944018702 -6.77513479205e-21)
(-0.0020546486476 0.0151681771534 -1.91189604329e-21)
(-8.85970526678e-05 0.0153096323084 -1.25206152145e-20)
(-0.000867496784069 0.0169166527599 -9.21787440336e-21)
(0.00399778655249 0.0131448177483 -1.11033485259e-20)
(0.00224441538834 0.0237070636455 -1.38857538705e-20)
(0.0836456682905 0.00900794669121 -4.13234199694e-21)
(0.00156107474906 0.021119322016 -7.14657986506e-21)
(0.1479887392 -0.00113145929499 -1.49131628e-20)
(-0.00256438039689 0.0112992737303 2.74024502614e-23)
(-0.00286602076356 0.0103161467532 1.16926500721e-23)
(-0.00306518605967 0.0125370100954 -1.19394818021e-22)
(-0.00352051698681 0.0115916524574 4.34745685806e-23)
(-0.00313939061633 0.0137549585036 -4.99599513276e-22)
(-0.00388502621744 0.0130068424951 -3.23207806572e-22)
(-0.00263245659369 0.0147885321269 -1.01747341393e-21)
(-0.00358670873192 0.0143674053227 -5.15082923167e-22)
(-0.00127629807022 0.0155650976188 -4.3546356546e-21)
(-0.00283327097201 0.016141031425 -3.09281750229e-21)
(0.00177521897713 0.0157512759596 -1.05830130593e-20)
(-0.0010548442645 0.0187195251334 -1.18345100462e-20)
(0.00124473342273 0.0142914443048 -9.92898520964e-21)
(0.00370388887273 0.0277562238188 -1.36697185642e-20)
(0.118893952852 0.0211977218888 -1.79274006682e-20)
(-0.00534622078382 0.0277674311558 9.83565579401e-20)
(0.12362971257 0.127962268481 3.85795757678e-20)
(-0.00385981627749 0.010604102799 2.77647683913e-23)
(-0.00413181204698 0.00950354302729 3.01733483629e-23)
(-0.00446941655305 0.0120425130153 -1.60338419969e-22)
(-0.00496049166334 0.0108899614762 3.50159706832e-24)
(-0.00462848486611 0.0137028950561 -3.38691216463e-22)
(-0.00554768404657 0.0126121340566 -4.20845089445e-22)
(-0.00421009229385 0.0156731291232 -2.59042701153e-21)
(-0.00555942602135 0.0144708189302 -1.85874720991e-21)
(-0.00312479652332 0.0180933480426 -1.05726918939e-20)
(-0.0052555918486 0.0175929817432 -5.40916068234e-21)
(-0.000520339636359 0.0216336018669 -1.49212155511e-20)
(-0.00459623871192 0.0217299273448 -1.65485992122e-20)
(-0.00603066548516 0.0275947305413 9.46158245856e-20)
(-0.00225750746971 0.0324939655107 -1.57695198008e-20)
(-0.0576517523848 0.053573217316 1.54863534376e-19)
(-0.0313281798918 0.0350398265629 8.80114123299e-20)
(-0.209498288891 0.121821393215 5.17548242492e-20)
(-0.00527790953324 0.00973909158652 5.91017703994e-24)
(-0.00544409265228 0.00848934028277 1.59119365888e-23)
(-0.00616981786141 0.0113234153827 -2.57005072407e-22)
(-0.00654660120198 0.00990608397493 -2.19912189771e-22)
(-0.00675013115104 0.0133183224746 -1.94090108289e-21)
(-0.00754496897641 0.0118129748158 -1.05457382272e-21)
(-0.00708006778028 0.0159181947688 -4.67748088072e-21)
(-0.00816176983007 0.0139051385271 -4.15749067771e-21)
(-0.00755255844164 0.0196111044078 -1.13850680006e-20)
(-0.00895047699976 0.0179331265545 -5.47132363646e-21)
(-0.00746610420878 0.0256230643974 -1.73969034619e-20)
(-0.0106092067357 0.0227624040786 -1.78625653806e-20)
(-0.0248005357537 0.0336113653259 -2.23739320565e-20)
(-0.0102460748403 0.0336484503436 -2.33965797659e-20)
(-0.137476767074 0.0496897327771 -1.5097297797e-20)
(-0.0474058340836 0.0375966617931 -1.1046372824e-19)
(-0.148509179231 0.0081308800058 -8.98466687475e-20)
(-0.00548204917002 0.00731573612773 -9.37566835795e-24)
(-0.00536532456 0.0061522306692 -3.34165854453e-24)
(-0.00673750231108 0.00856622088357 -2.09910430222e-22)
(-0.0066957775879 0.00720515756124 -4.09290582113e-23)
(-0.00803307610852 0.0101644389837 -1.01748094008e-21)
(-0.00814675110228 0.00852233644937 -2.74894068946e-22)
(-0.00924451235812 0.0122994153277 -3.27116341755e-21)
(-0.0096822772903 0.0103903585069 -1.89155606986e-21)
(-0.0105563577938 0.0151448996533 -4.95133343345e-21)
(-0.0110095038958 0.0123928997623 -4.00475938374e-21)
(-0.0127400308923 0.019273737912 -1.19488210165e-20)
(-0.013081010602 0.0166858286696 -5.37120818227e-21)
(-0.0145191598084 0.0257623781479 -2.38622416846e-20)
(-0.017098659153 0.0210071452921 -1.67097974988e-20)
(-0.0334904361118 0.0339506541681 -1.11486375949e-19)
(-0.0184345362445 0.0311251173847 -2.65377060634e-20)
(-0.0743775451912 0.0414047817451 -1.8521309919e-19)
(-0.0548591919106 0.0347985617557 -1.3844541072e-19)
(-0.082034983832 0.00471469271878 -1.23015917185e-19)
(-0.00518931511443 0.00510381786992 -7.66187375628e-24)
(-0.00488287105276 0.00411009230919 4.82246089074e-24)
(-0.0065488131375 0.00596038981122 -3.48950483979e-23)
(-0.00622278293834 0.00478549639232 -7.73583572829e-24)
(-0.00810522845323 0.00704799080388 -1.05912696936e-22)
(-0.00778482743881 0.00562055087777 -7.7787433119e-23)
(-0.00984895693058 0.00848119799807 -1.14896919873e-21)
(-0.00958187358608 0.00669899899745 -9.23319675787e-23)
(-0.0116798735862 0.0103668228401 -2.62515203606e-21)
(-0.0115699754459 0.0083423021631 -1.52401723542e-21)
(-0.0139144094077 0.0131041159636 -4.42463413256e-21)
(-0.0137486507579 0.00996049234629 -2.68275971079e-21)
(-0.0175141237108 0.0169026058218 -1.01321846646e-20)
(-0.0168808060603 0.0139219543822 -8.32036496485e-21)
(-0.0204375028827 0.0217657824587 -1.93852618776e-20)
(-0.0219624150207 0.0167294530982 -1.4606336802e-20)
(-0.0386054473978 0.0265740622973 -5.3496740834e-20)
(-0.0232429365084 0.0263789458754 -2.06915402268e-20)
(-0.0621838988399 0.0283443912434 -7.62482287142e-20)
(-0.0566292275103 0.0244885582939 -6.75884296717e-20)
(-0.060148965164 0.010623506506 -6.3081595074e-20)
(-0.00587132326224 0.00375136341097 4.74849891874e-24)
(-0.00742464050052 0.00437168598101 -5.06282204494e-23)
(-0.00684445862922 0.00322505694829 -1.56828524215e-23)
(-0.00924242987509 0.00515790416243 -6.42067037621e-23)
(-0.00857258380889 0.00377511591231 -8.4903078159e-23)
(-0.0113626099461 0.00627914276094 -4.6738000427e-22)
(-0.0107048120471 0.00450996204506 -7.73244100769e-23)
(-0.0137242228602 0.00788636281299 -1.58162491015e-21)
(-0.0131788392759 0.0057513942174 -1.18001803083e-21)
(-0.0167393250778 0.0100517682688 -6.57849054309e-21)
(-0.0159153993546 0.00675135919112 -1.2226449578e-21)
(-0.0211523447976 0.0129534615208 -1.27945171022e-20)
(-0.0197833613559 0.0100950616626 -1.10528196371e-20)
(-0.024192656001 0.0161509915491 -1.59126151511e-20)
(-0.0251602864712 0.0107592164756 -1.32613196046e-20)
(-0.040889088176 0.0185324104957 -3.47832290645e-20)
(-0.0256244176461 0.0205894926719 -1.74154223635e-20)
(-0.0558835117284 0.0199903520155 -5.44217960315e-20)
(-0.0580865644183 0.0145794351354 -4.30661188529e-20)
(-0.0503405559368 0.0148516224683 -4.62589402476e-20)
(-0.00798399425075 0.00256386640701 -4.99577101311e-23)
(-0.00716594816756 0.00153648094566 -1.79184787327e-23)
(-0.0100097880761 0.00305299622091 -9.80207844737e-23)
(-0.00906308157833 0.00172364310929 -2.95349436758e-23)
(-0.0124548415745 0.00371842625008 -7.89962436641e-22)
(-0.0113715387013 0.00201098695336 -1.6113313475e-22)
(-0.0152587316346 0.00467991384683 -8.21038078481e-22)
(-0.0141414234032 0.00270789451385 -1.3005323662e-21)
(-0.0188877502206 0.00611758037424 -5.69697405178e-21)
(-0.0173538426698 0.00294197293074 -1.45226365399e-22)
(-0.0235580875357 0.00831276337935 -1.15196221395e-20)
(-0.0219789586764 0.00571845288219 -7.09959764474e-21)
(-0.0263316784642 0.00993445906383 -1.4764126817e-20)
(-0.0267820981326 0.00409826092544 -9.72627023543e-21)
(-0.0430383627736 0.0116641812061 -2.5698312152e-20)
(-0.0273541492048 0.0144750180604 -1.44565142617e-20)
(-0.0568693370085 0.0137572835531 -3.4903263069e-20)
(-0.0601793423592 0.00579625685388 -2.84503819711e-20)
(-0.053366153088 0.00848405691873 -2.83723743537e-20)
(-0.00816958588948 0.000645254423244 2.50428772256e-24)
(-0.00710440378488 -0.00020177095139 -3.25506424166e-25)
(-0.0103102104798 0.000662341567594 -9.2647293952e-23)
(-0.00908112068119 -0.000437552774182 -1.52153697441e-23)
(-0.0129824856593 0.000771668339246 -6.71703064305e-22)
(-0.0114816083785 -0.000697638551498 -1.08498248678e-22)
(-0.0160653745251 0.00115799682739 -6.24720653114e-22)
(-0.0145282321087 -0.000620665085557 -1.29731579108e-21)
(-0.0202507442011 0.00166086300691 -1.54784995835e-21)
(-0.0178569098012 -0.00140770057965 -3.84439873461e-22)
(-0.0249824222761 0.00327749606358 -5.30624574071e-21)
(-0.0235955816685 0.001015296855 -2.46659781572e-21)
(-0.0275413454415 0.00388575149329 -9.41865768008e-21)
(-0.0273902639531 -0.00308182357321 -4.84071597688e-21)
(-0.0440278145572 0.00477489687404 -1.72085840808e-20)
(-0.0282432545713 0.00758309639677 -1.14450065796e-20)
(-0.0541631693505 0.00327834858027 -2.19194932558e-20)
(-0.0586825151564 -0.00444491259083 -2.84756683871e-20)
(-0.04353205003 -0.011449624155 -2.55277257737e-20)
(-0.00794851329904 -0.0012741499991 -1.80451638909e-23)
(-0.00671976403849 -0.00192188039798 3.98448632475e-23)
(-0.0100934785197 -0.00177797154346 -3.10663244699e-23)
(-0.00857764557874 -0.00259121247449 -2.60510936021e-23)
(-0.0128088935186 -0.00231026971921 -7.3411097545e-22)
(-0.0109494037918 -0.00342427823029 2.15611562758e-23)
(-0.0160826096671 -0.00282963044503 -1.05703501142e-21)
(-0.0140087072052 -0.00411850865196 -1.82788646417e-21)
(-0.0206496511863 -0.00308716378888 -1.30318773082e-21)
(-0.0175990276604 -0.00609274674447 -1.07540877827e-21)
(-0.0256943158895 -0.00345271504882 -2.00106805188e-21)
(-0.0232296291058 -0.00428524841725 -3.21007579256e-21)
(-0.0278737620996 -0.00248091646231 -6.8670648764e-21)
(-0.0283617943837 -0.0112602908051 -1.39726570521e-21)
(-0.041190362701 -0.00349815380008 -2.2712090886e-20)
(-0.0272259395845 -0.000550428404976 -1.40451136356e-20)
(-0.0474722733255 -0.0135985116847 -3.20839009051e-20)
(-0.0485820714007 -0.0157630091109 -4.41573441805e-20)
(-0.0359113540981 -0.0270850384875 -3.88986727423e-20)
(-0.00725634796699 -0.00318262700052 3.18389335363e-23)
(-0.00591107628637 -0.00348270673882 1.09943042878e-22)
(-0.00929277555943 -0.00416766784806 2.65763871437e-23)
(-0.00759221283727 -0.00458963166368 9.64776095271e-23)
(-0.0118917824864 -0.00537372470834 -1.07221433245e-21)
(-0.00974274376485 -0.00597289234648 1.41332229547e-22)
(-0.0151312170471 -0.00682282561887 -1.84626023101e-21)
(-0.0125588244327 -0.00749116728446 -1.40017011329e-21)
(-0.0195783777432 -0.0084351403367 -2.98229684e-21)
(-0.0159858584919 -0.010530912146 -1.57292474448e-21)
(-0.0248351932533 -0.0105099740468 -2.60627344588e-21)
(-0.0211540612997 -0.00998836462341 -1.0744657156e-20)
(-0.0266552842103 -0.0123960182968 -8.57531446439e-21)
(-0.0264753332383 -0.0197293783824 -7.71400171458e-21)
(-0.034844681102 -0.0149531869046 -3.54903669301e-20)
(-0.0246686593736 -0.00899817409106 -1.62863002866e-20)
(-0.0377758641638 -0.0248241723979 -5.09721160177e-20)
(-0.0387110508056 -0.0266810582515 -5.06242594182e-20)
(-0.0282443745763 -0.0369669822857 -4.42460702485e-20)
(-0.00611642132416 -0.00482295839582 1.74581718869e-22)
(-0.0047275488107 -0.00467624808959 2.37549503706e-22)
(-0.00787461724721 -0.00629376252833 2.11233451931e-22)
(-0.00612031765884 -0.00615569638969 4.1917396318e-22)
(-0.0101636334572 -0.00817050935024 -1.86623551295e-22)
(-0.00786476054867 -0.00803569189096 3.7617383906e-22)
(-0.013037939722 -0.0104881067449 -1.12683462675e-21)
(-0.0102398987554 -0.0102616454269 -8.61009698173e-22)
(-0.0170022316207 -0.0133664174285 -9.33528506045e-21)
(-0.0131062855926 -0.0141650408193 -5.34184900641e-23)
(-0.0218139051873 -0.0170390409287 -1.58523854247e-20)
(-0.0174804401043 -0.0151495102248 -1.46460244777e-20)
(-0.0234953300184 -0.0215931465582 -1.54249875368e-20)
(-0.0219207070329 -0.0272120765675 -1.07287288945e-20)
(-0.0283185932633 -0.0253596060814 -3.14201927747e-20)
(-0.0209020684218 -0.0170714857486 -1.83961724719e-20)
(-0.0295382374454 -0.0344756036059 -4.38982136489e-20)
(-0.0295948464325 -0.0364460518504 -5.72835862302e-20)
(-0.0218396752906 -0.0447274285549 -4.94842846307e-20)
(-0.00359576382451 -0.00446526943874 2.21756497971e-22)
(-0.00249536079252 -0.00386996780176 2.66809814332e-22)
(-0.00465789383835 -0.00592391194757 4.82141748018e-22)
(-0.00326724306549 -0.0052231531884 4.27981997341e-22)
(-0.00601300646954 -0.00779672825596 5.8411435031e-22)
(-0.00424582045585 -0.00695747319594 8.49841593802e-22)
(-0.00777634340065 -0.0101503627697 -2.98212307818e-22)
(-0.00550938187144 -0.00918812726286 6.32747581635e-22)
(-0.0100136945301 -0.0132964251633 2.12406438516e-22)
(-0.00709212085714 -0.0119040607948 -8.61511625984e-22)
(-0.0131802964568 -0.0172670862073 -5.36415790731e-21)
(-0.0091340920589 -0.016385171562 1.99878280398e-21)
(-0.0167475042849 -0.0223020495975 -9.52236794756e-21)
(-0.0124443393289 -0.0185514549694 -4.69296514605e-21)
(-0.0179569492842 -0.0295618359878 -1.36999138296e-20)
(-0.0146603700893 -0.0321634670485 -6.3311624642e-21)
(-0.0200621898853 -0.0350390356323 -4.42595659273e-20)
(-0.0154247389569 -0.023526209461 -1.40735058887e-20)
(-0.0196357498541 -0.0434004143308 -6.2869657212e-20)
(-0.0212334493264 -0.0433445799319 -2.88403793704e-20)
(-0.0174535311465 -0.0470133594244 -2.38163565739e-20)
(-0.0022560164228 -0.00453906678399 4.73035313702e-22)
(-0.00125283228382 -0.00363367437585 5.30110915161e-22)
(-0.0029393687896 -0.00615856146128 7.95681843125e-22)
(-0.00164561201591 -0.00505726365845 6.61413252362e-22)
(-0.0038082461188 -0.00823198286268 8.98474825127e-22)
(-0.00217033779824 -0.00692016542765 1.0861908272e-21)
(-0.00492096988672 -0.010910586598 6.94482634688e-23)
(-0.0028287668164 -0.00933919753901 1.11950305635e-21)
(-0.00638073192773 -0.0143971100033 9.24864739484e-22)
(-0.00360371269118 -0.0122589403237 -1.9313038593e-21)
(-0.00849704342641 -0.0188460070311 2.66997556524e-21)
(-0.00468359281522 -0.0169892356782 3.77247675409e-21)
(-0.0104254661438 -0.0249277132154 -1.5017596627e-21)
(-0.00636150283808 -0.0196211621291 -3.50396764851e-21)
(-0.012932426388 -0.03350172371 -6.70475452326e-21)
(-0.00608584580135 -0.0330392611713 -4.33984092195e-21)
(-0.0202080871316 -0.0396639520206 1.34568066825e-21)
(-0.00926238801197 -0.0267435823437 3.8988547878e-21)
(-0.0202056481489 -0.0443746105596 1.02129212677e-20)
(-0.016523174926 -0.0478249468966 1.15637987349e-19)
(-0.0161069428652 -0.0576430242017 8.73815100518e-20)
(-0.000636474614702 -0.00407065245974 7.1848885382e-22)
(-0.000885425119209 -0.00571516295882 9.51922236436e-22)
(-0.00119869306579 -0.0078844400851 1.30721905842e-21)
(-0.00155394612928 -0.0107121978059 -8.81249066423e-22)
(-0.00214597383479 -0.014315018494 9.16308155299e-22)
(-0.00337216628172 -0.0189979142689 -2.40146645967e-21)
(-0.00402600830337 -0.0253590080978 -6.34204890777e-21)
(-0.00377991359465 -0.0314447540362 6.26376838911e-21)
(-0.00185664454399 -0.0407071434917 1.18191161468e-19)
(-0.0125790646039 -0.0572291830701 1.92806576133e-19)
)
;

boundaryField
{
    back
    {
        type            calculated;
        value           uniform (0 0 0);
    }
    sides
    {
        type            calculated;
        value           uniform (0 0 0);
    }
    bottom
    {
        type            calculated;
        value           nonuniform List<vector> 0();
    }
    front
    {
        type            calculated;
        value           uniform (0 0 0);
    }
    atmosphere
    {
        type            calculated;
        value           nonuniform List<vector> 
17
(
(0.0336103158787 0.000821058722102 6.29591672052e-22)
(0 -0.0346886078001 0)
(0 -0.0519812711847 0)
(0.239163931911 0.0455529113126 -2.97701117339e-20)
(-0.101905138785 0.386713418678 1.06929263269e-19)
(0 -0.0113047097212 0)
(0 -0.02507063714 0)
(-0.0682378387831 0.00645773231514 -6.97581116456e-20)
(-0.0546066556618 0.0101811894654 -5.64050785024e-20)
(-0.0542654378101 0.0167825583847 -3.61128019928e-20)
(0 -0.00655593397743 0)
(0 -0.0212191047543 0)
(0 -0.0324909168619 0)
(0 -0.0408801633778 0)
(0 -0.047786237002 0)
(0 -0.0457205628196 0)
(0 -0.0733371048787 0)
)
;
    }
    floatingObject
    {
        type            calculated;
        value           nonuniform List<vector> 0();
    }
    procBoundary11to9
    {
        type            processor;
        value           nonuniform List<vector> 9((0.00174975870333 0.0131396928505 2.09760111066e-23) (0.000976082611741 0.0143012403339 -3.63879812752e-23) (0.000248947197969 0.0153769465676 -2.57943662937e-22) (-0.000124994182179 0.0162651596546 -1.87263373749e-21) (0.000480027400689 0.0175253983812 -5.22238833341e-21) (0.00258783216543 0.0189547464664 -1.25688373363e-20) (0.0110729375159 0.0308375368426 -1.10973349382e-20) (-0.0103962571498 0.0278100327401 -6.94711926419e-21) (0.0128578517173 -0.00840066209321 -2.51683888526e-21));
    }
    procBoundary11to10
    {
        type            processor;
        value           nonuniform List<vector> 
23
(
(0.00154920410811 0.012173676914 -1.34513957605e-24)
(0.000592725690411 0.0123946060312 1.79282067153e-23)
(-0.000268058758089 0.0126006069628 7.408635718e-24)
(-0.00138233376092 0.011943142487 -1.64178974849e-24)
(-0.00167330308398 0.0110199811592 7.5813700779e-24)
(-0.00188902707135 0.010107586423 4.52541666428e-24)
(-0.00307596541206 0.00933871819326 7.198035273e-24)
(-0.00429268065734 0.00842723215212 3.53605347385e-23)
(-0.00433768207431 0.00732281306686 1.00729297918e-23)
(-0.00431986474623 0.00628758103359 1.48891814619e-23)
(-0.0041627273393 0.00529015340043 1.05689662501e-23)
(-0.00401216921665 0.00438364114124 -6.34199405954e-24)
(-0.00456892987218 0.00325255891081 1.36200887159e-23)
(-0.00538273469965 0.00280549838826 8.39399021375e-24)
(-0.00630100155192 0.00224432563585 -1.20373611265e-23)
(-0.00643312541032 0.000708494453232 -3.11668129199e-24)
(-0.00622206606204 -0.000888543253809 1.87103780361e-23)
(-0.00565059635285 -0.00237433155016 5.70909578953e-23)
(-0.00474109908488 -0.0036407625228 7.50055538929e-23)
(-0.00363305858144 -0.00350583162825 5.92125481571e-23)
(-0.0027650185434 -0.00333034304874 3.73267296123e-22)
(-0.00172220733087 -0.00329997759139 5.67640708806e-22)
(-0.000445312133811 -0.00282018979346 9.10807057219e-22)
)
;
    }
}


// ************************************************************************* //
