/*--------------------------------*- C++ -*----------------------------------*\
| =========                 |                                                 |
| \\      /  F ield         | OpenFOAM: The Open Source CFD Toolbox           |
|  \\    /   O peration     | Version:  v2012                                 |
|   \\  /    A nd           | Website:  www.openfoam.com                      |
|    \\/     M anipulation  |                                                 |
\*---------------------------------------------------------------------------*/
FoamFile
{
    version     2.0;
    format      ascii;
    class       volScalarField;
    location    "0.4";
    object      alpha.water;
}
// * * * * * * * * * * * * * * * * * * * * * * * * * * * * * * * * * * * * * //

dimensions      [0 0 0 0 0 0 0];


internalField   nonuniform List<scalar> 
1984
(
1.00000002795
1.00000003104
1.00000003138
1.00000003073
1.00000003049
1.0000000467
1.0000000652
1.0000000796
1.00000010759
1.00000007465
1.00000008
1.00000008158
1.00000007526
1.00000006529
1.00000004892
1.00000001616
1
0.999999999849
0.999999910618
0.79158058439
1.00000003129
1.00000003373
1.00000003378
1.00000003257
1.00000003178
1.00000004599
1.00000006864
1.00000007491
1.00000013185
1.00000008685
1.0000000866
1.00000008553
1.00000007887
1.00000006354
1.00000004589
1.00000000644
1
0.999999999736
0.99999990012
0.791296157468
1.00000003282
1.00000003504
1.00000003448
1.00000003264
1.00000003094
1.00000004348
1.00000005105
1.00000010031
1.00000011051
1.00000011783
1.00000009502
1.00000008917
1.00000007649
1.00000005997
1.00000003617
1
0.999999999996
0.999999999084
0.999999897339
0.788986308964
1.00000003378
1.00000003568
1.00000003431
1.00000003128
1.00000002786
1.00000003139
1.00000005294
1.00000006637
1.00000018076
1.00000013659
1.00000011275
1.00000009077
1.00000007361
1.00000005076
1.00000002541
0.99999999933
0.99999998106
0.999999984658
0.999999877978
0.786051662826
1.0000000348
1.00000003625
1.00000003386
1.0000000294
1.00000002437
1.00000002271
1.0000000338
1.000000065
1.00000010451
1.00000019523
1.00000016024
1.00000008906
1.00000006649
1.00000004102
1.00000001092
0.999999984595
0.999999964637
0.999999968533
0.999999855738
0.782152700656
1.000000036
1.00000003688
1.0000000333
1.0000000273
1.00000002098
1.00000001707
1.00000002234
1.00000005412
1.00000009078
1.00000012171
1.00000015591
1.00000008274
1.00000005876
1.00000003004
0.999999999393
0.999999970012
0.999999951912
0.999999956676
0.9999998355
0.77727500423
1.00000003729
1.00000003751
1.00000003268
1.00000002502
1.00000001726
1.00000001241
1.00000001564
1.00000004361
1.00000008151
1.00000010834
1.00000014424
1.00000007551
1.00000005075
1.0000000209
0.999999990547
0.999999958741
0.999999948033
0.999999949886
0.999999819159
0.771391841071
1.0000000385
1.00000003805
1.00000003202
1.00000002275
1.00000001336
1.00000000751
1.00000000983
1.00000003491
1.00000007122
1.00000009794
1.00000013019
1.00000006813
1.00000004366
1.00000001368
0.999999983589
0.999999952206
0.999999946702
0.999999947205
0.999999803837
0.764467003359
1.00000003945
1.00000003837
1.00000003132
1.00000002067
1.00000000978
1.00000000272
1.00000000443
1.000000027
1.00000006274
1.00000008707
1.00000011766
1.00000006145
1.00000003786
1.00000000841
0.999999979104
0.99999994869
0.999999945317
0.999999945371
0.99999978502
0.756458814776
1.00000004002
1.00000003837
1.00000003052
1.00000001883
1.00000000671
0.999999998719
0.999999999663
1.00000002076
1.00000005381
1.00000007837
1.00000010471
1.00000005524
1.00000003296
1.00000000463
0.999999976545
0.999999947259
0.999999944774
0.999999944122
0.999999763317
0.747319744231
1.00000004011
1.00000003799
1.00000002959
1.00000001724
1.00000000436
0.999999995562
0.999999996032
1.00000001518
1.0000000472
1.00000006894
1.00000009397
1.00000004977
1.00000002903
1.00000000221
0.999999975633
0.999999947688
0.999999945582
0.999999944355
0.999999738428
0.736995486026
1.0000000397
1.00000003723
1.00000002858
1.00000001602
1.00000000285
0.999999993647
0.999999993506
1.0000000114
1.00000003986
1.00000006153
1.00000008252
1.00000004465
1.00000002577
1.00000000109
0.999999976266
0.999999950081
0.999999947981
0.999999946283
0.999999709469
0.725423944872
1.00000003879
1.00000003609
1.00000002755
1.00000001526
1.00000000231
0.99999999292
0.999999992271
1.00000000762
1.00000003439
1.00000005265
1.00000007329
1.00000004061
1.00000002399
1.00000000172
0.999999978784
0.999999955444
0.99999995407
0.999999952111
0.999999676461
0.712534059516
1.00000003735
1.00000003456
1.00000002647
1.00000001485
1.00000000223
0.999999992611
0.999999990752
1.00000000277
1.00000002585
1.00000004925
1.00000006318
1.00000004221
1.00000002866
1.00000001041
0.999999986718
0.999999965822
0.999999964228
0.999999960728
0.99999963908
0.698244457854
1.00000003527
1.00000003241
1.00000002493
1.00000001385
1.00000000103
0.999999992687
0.999999985715
0.999999994132
1.00000002529
1.00000003283
1.00000007785
1.00000004948
1.00000004514
1.00000001875
1
0.999999970463
0.999999969421
0.999999965401
0.999999584844
0.682461932585
1.00000003622
1.00000003295
1.00000002321
1.0000000112
1.00000000726
0.999999986847
0.999999973379
0.999999988723
1.00000000267
1.0000000458
1.00000005491
1.00000005949
1.00000004503
1.00000003419
1.00000000094
0.999999987567
0.99999998228
0.999999978999
0.999999527552
0.665079516895
1.00000003871
1.00000003066
1.00000002216
1.00000002314
0.99999999157
0.999999984437
0.999999973378
0.999999958625
1.00000001015
1.00000003491
1.00000007411
1.00000007674
1.00000007678
1.00000005041
1.0000000219
0.99999998923
0.999999986846
0.999999979898
0.999999439835
0.645974463609
1.00000003517
1.0000000322
1.00000002838
1.00000000091
1.00000000295
0.999999977046
0.99999997003
0.9999999804
1.00000000429
1.00000002007
1.00000003859
1.00000004558
1.00000004779
1.00000003801
1.0000000222
1
0.999999999982
0.999999989614
0.999999340843
0.625005380073
1.00000004752
1.00000003984
1.00000002836
1.00000001025
0.999999995776
0.999999986665
0.999999981832
0.99999999085
1.00000000266
1.00000001674
1.00000003103
1.00000004043
1.00000004444
1.00000004107
1.00000002787
1
0.999999999984
0.999999987123
0.999999201913
0.602009113212
1.00000002288
1.00000001993
1.00000002487
1.00000000459
0.999999993532
0.999999986857
0.999999985757
0.999999989986
1.00000000089
1.00000001353
1.00000002721
1.00000003747
1.00000004353
1.00000004302
1.00000003112
1
0.999999999992
0.99999998646
0.999999028693
0.576796873903
1.00000001462
1.00000001207
1.00000000832
0.999999998564
0.999999989991
0.999999984208
0.999999983155
0.999999987257
0.999999997396
1.00000000918
1.00000002237
1.0000000334
1.0000000406
1.00000004213
1.00000003007
1
1.00000000002
0.999999979608
0.999998816537
0.549149649622
1.00000001137
1.00000000906
1.00000000329
0.999999995006
0.999999986971
0.99999998133
0.999999979813
0.999999983573
0.999999992465
1.00000000381
1.00000001619
1.0000000275
1.00000003535
1.00000003791
1.00000002473
1
1.00000000007
0.999999972854
0.999998538864
0.518813029649
1.00000001488
1.00000001144
1.00000000398
0.999999994333
0.999999984075
0.99999997613
0.999999972727
0.999999974953
0.99999998227
0.999999995219
1.00000000821
1.00000002144
1.00000003106
1.00000003459
1.00000001883
1
1.00000000013
0.999999964604
0.999998195731
0.485490038906
1.00000002222
1.00000001674
1.00000000608
0.999999992682
0.999999977769
0.999999965943
0.999999959845
0.999999957202
0.999999968467
0.999999984026
1.00000000326
1.00000001921
1.00000003067
1.00000003443
1.0000000139
1
1.00000000022
0.999999953987
0.999993859862
0.448872376106
1.00000002658
1.00000002
1.00000000738
0.999999990981
0.999999972897
0.999999957054
0.999999941884
0.999999934148
0.999999944593
0.99999997634
1.00000000083
1.00000001834
1.00000003099
1.00000003504
1.00000000852
1
1.00000000004
0.999999940028
0.99899636368
0.409559009432
1.00000003744
1.00000002964
1.00000001307
0.999999991208
0.999999964811
0.999999935548
0.99999990275
0.999999902392
0.999999902392
0.999999959621
1.00000000087
1.00000002569
1.00000004561
1.0000000532
1.00000001648
1
1.00000000013
0.999999917531
0.996514732277
0.367609124043
1.00000002384
1.0000000184
1.00000000713
0.999999992787
0.999999975781
0.999999954407
0.99999994124
0.999999925423
0.999999918362
0.999999988638
1.00000000893
1.00000002912
1.00000004495
1.00000004995
1
1
1.00000000022
0.999999881263
0.991773358032
0.323311658961
1.00000001795
1.00000001281
1.00000000338
0.999999991749
0.999999979513
0.999999968637
0.999999961918
0.999999961481
0.999999963038
1.00000000067
1.0000000238
1.00000004507
1.00000006006
1.00000006245
1
1.00000000001
0.999999997436
0.999999818131
0.983817687993
0.277128293661
1.00000001346
1.00000000823
0.999999999961
0.999999988771
0.999999978756
0.999999971924
0.999999970817
0.999999983923
1.00000000254
1.00000003018
1.00000005386
1.00000006564
1.0000000798
1.00000007807
1
1.00000000003
0.999999995662
0.999999725162
0.97151492662
0.229859434406
1.00000000887
1.00000000351
0.999999995134
0.999999985263
0.999999977042
0.999999972783
0.999999977477
0.999999999513
1.00000002797
1.00000005798
1.00000008745
1.00000008664
1.00000009899
1.00000009135
1
1.00000000009
0.999999993173
0.999999585221
0.953380100582
0.182621258539
1.00000000399
0.999999998695
0.999999990358
0.999999981863
0.999999975587
0.999999974613
0.999999984546
1.00000000877
1.0000000488
1.0000000828
1.00000011933
1.00000010538
1.00000011484
1.00000009983
1
1.00000000019
0.999999989464
0.999999384881
0.927742662854
0.136687265874
0.99999999908
0.999999993118
0.999999985922
0.999999978841
0.999999974499
0.999999976788
0.999999989892
1.00000001926
1.00000006616
1.0000001038
1.00000014673
1.00000012006
1.00000012582
1.00000010277
1
1.00000000026
1.00000004205
0.999999133207
0.892829391383
0.0935748532259
0.999999993702
0.999999988246
0.999999981873
0.999999976125
0.999999973547
0.999999978351
0.999999993534
1.00000002724
1.00000007899
1.00000011917
1.00000016732
1.00000012945
1.0000001313
1.00000010007
1
1.00000000031
1.00000001004
0.999998883285
0.847086262914
0.0551080745876
0.999999989187
0.999999983967
0.999999978182
0.999999973439
0.999999972278
0.999999978254
0.999999994619
1.00000003116
1.00000008564
1.00000012696
1.00000017889
1.00000013297
1.00000013156
1.00000009375
1
1.00000000042
0.999999982063
0.999998485104
0.789604005413
0.021920958227
0.999999985409
0.999999980263
0.999999974765
0.999999970465
0.99999996995
0.999999976152
0.999999992277
1.00000002999
1.00000008489
1.00000012589
1.00000018002
1.00000013087
1.00000012771
1.00000008585
1
1.0000000004
0.99999997537
0.999998198529
0.715769820452
0
0.999999981919
0.999999976662
0.999999971028
0.999999966379
0.999999966135
0.999999971662
0.999999986909
1.00000002389
1.0000000771
1.00000011653
1.00000017126
1.0000001247
1.0000001219
1.00000008024
1
1.0000000145
0.999999975957
0.999998071865
0.619881784546
0
0.999999977832
0.999999972117
0.999999965782
0.999999960289
0.999999959131
0.999999964294
0.999999978946
1.00000001528
1.0000000653
1.00000010256
1.00000015621
1.0000001176
1.00000011686
1.00000007906
1
1.00000000342
1.00000002552
0.997922558039
0.520759799632
-8.47032947254e-23
0.999999976846
0.999999969903
0.999999962175
0.999999955554
0.999999948705
0.999999954577
0.999999971241
1.00000000818
1.00000005566
1.00000009194
1.00000014112
1.00000011404
1.00000011591
1.00000008796
1
1.00000000005
1.00000000255
0.990187261372
0.427988276103
-5.29395592034e-24
0.999999977125
0.999999971753
0.99999996328
0.999999954933
0.999999948142
0.99999995043
0.999999970131
1.00000000444
1.00000005396
1.00000009794
1.00000014121
1.00000012902
1.00000013478
1.00000012102
1.0000000324
1
1
0.977255438864
0.347718373311
-4.8166737267e-09
0.999999976103
0.999999969013
0.999999961761
0.999999953472
0.999999951543
0.999999952862
0.999999970692
1.00000001333
1.00000008763
1.00000009313
1.00000020386
1.00000016738
1.00000018441
1.00000015307
1.00000007809
1
1
0.962376569169
0.285177874479
0
0.999999963788
0.999999956702
0.999999955015
0.999999936687
0.999999950381
0.999999944301
0.999999985604
1.00000003604
1.0000000589
1.00000014737
1.00000020101
1.00000020313
1.00000018245
1.0000001505
1.00000008152
1
1
0.95071627817
0.242036785474
7.52316384526e-38
0.999999949334
0.999999942582
0.999999896884
0.999999888888
0.999999888812
0.999999963013
0.99999998377
1.00000001015
1.00000010327
1.00000014757
1.00000024205
1.00000025316
1.00000023541
1.00000014966
1.00000010238
1.0000000285
1
0.957822535217
0.228390096327
8.45260981545e-21
0.999999896416
0.99999985047
0.999999818965
0.999999803881
0.999999811997
0.999999847093
0.999999961764
1.00000001669
1.00000007335
1.00000011273
1.00000015927
1.00000016025
1.0000001241
1.00000002935
1.00000000717
1
1
0.984816263793
0.272518488155
1.37362274265e-19
0.999999913722
0.999999880824
0.999999859127
0.999999830769
0.999999804881
0.999999891826
0.999999968226
1.00000000613
1.00000005031
1.00000008786
1.00000011713
1.0000001168
1.00000009018
0.999999996757
0.999999917001
0.999999966191
0.999999989602
0.999999985659
0.390984084257
0.001024732672
0.999999917048
0.999999916714
0.999999902943
0.999999900025
0.999999891096
0.999999933054
0.999999966547
1
1.00000003806
1.00000007182
1.00000009503
1.00000009427
1.00000007669
1.00000000739
0.999999915253
0.999999942809
0.99999997159
0.999999977139
0.55168768072
0.00890877062469
0.999999905245
0.999999894849
0.99999989358
0.99999990418
0.999999924088
0.999999940375
0.999999964645
0.999999995701
1.00000002742
1.00000006183
1.00000008523
1.0000000883
1.00000009629
1.00000004178
0.99999992866
0.999999902762
0.999999942269
0.999999970684
0.707212315105
0.0271079140999
0.999999896684
0.999999894725
0.999999894503
0.999999908373
0.999999927913
0.99999994402
0.99999996541
0.999999987619
1.00000002483
1.00000006063
1.00000008453
1.00000013047
1.00000015708
1.00000007061
0.999999961066
0.999999779064
0.999999835904
0.999999958135
0.833709037823
0.0288439614478
0.99999991303
0.9999999107
0.999999916278
0.999999924932
0.999999939772
0.999999951299
0.999999962153
0.999999981048
1.00000003216
1.00000004845
1.00000007446
1.00000012018
1.00000016123
1.00000006123
0.999999927244
0.999999765813
0.999999765813
0.999999936036
0.999999909776
0.0670607888305
0.999999935727
0.999999936126
0.99999993867
0.999999944203
0.999999953705
0.99999995821
0.999999964894
0.999999983607
1.00000015623
1.00000007405
0.999999993151
0.999999823636
0.999999765813
0.999999922979
0.999999929117
0.187954107698
0.999999949431
0.999999950075
0.999999952639
0.999999955957
0.999999958619
0.999999955629
0.999999950856
0.999999950413
1.00000004713
1.00000006864
1.00000001086
0.999999954684
0.999999924656
0.999999935864
0.999999933087
0.713652460361
0.999999959738
0.999999956474
0.999999956474
0.999999955131
0.999999949999
0.999999934551
0.999999895085
0.999999947473
1.00000003305
1.00000006346
1.00000001219
0.999999969784
0.999999936329
0.999999936942
0.999999935864
0.713653815215
0.999999957452
0.99999994756
0.999999945086
0.999999943447
0.999999932989
0.999999900784
0.99999989108
0.999999934439
0.999999979319
0.999999934565
0.999999935951
0.999999904479
0.999999907153
0.999999936346
0.999999933087
0.187955424429
0.999999933517
0.999999916439
0.999999901387
0.999999899431
0.999999886571
0.999999854931
0.999999797044
0.999999791715
0.999999824789
0.999999843822
0.999999949399
1.0000000252
1.00000010423
0.999999960267
0.999999823909
0.999999801205
0.999999929551
0.999999966774
0.999999939883
0.0670610096954
0.999999910661
0.999999896782
0.999999888843
0.999999884472
0.99999987307
0.999999856132
0.999999836282
0.999999819314
0.999999800325
0.999999830718
0.999999904852
1
1.00000000673
0.999999847993
0.999999801176
0.999999801155
0.999999939063
0.999999985658
0.833708838486
0.0288437205999
0.999999886543
0.999999859032
0.999999845985
0.999999839508
0.999999829193
0.999999817327
0.999999805618
0.999999795185
0.999999800329
0.999999829989
0.999999894586
0.999999996108
0.999999973272
0.999999816448
0.999999801241
0.999999875263
0.99999998035
0.999999992675
0.707210053589
0.0271075570155
0.999999833339
0.999999806245
0.999999799543
0.999999797184
0.999999791309
0.999999781767
0.999999772683
0.999999780082
0.999999813349
0.999999858114
0.999999923545
1
0.999999998424
0.999999871716
0.999999911732
0.999999993092
0.999999993013
0.999999997556
0.551686936379
0.00890870425983
0.999999793806
0.999999775805
0.99999976419
0.999999764336
0.999999761455
0.999999761338
0.999999765349
0.999999795612
0.999999837507
0.999999893103
0.999999961146
1.00000001668
1.00000005661
1.00000003124
1.00000008074
1.00000003631
1
1
0.390984159263
0.00102473522428
0.999999771763
0.999999764416
0.9999997567
0.9999997567
0.9999997567
0.999999763729
0.999999785315
0.999999818728
0.999999869084
0.99999993227
0.999999995855
1.00000005471
1.00000011219
1.00000015293
1.00000021529
1.00000007276
1
0.984816477342
0.272518766172
-1.95214624563e-20
0.999999787151
0.999999778774
0.999999776996
0.999999776
0.999999778308
0.999999789013
0.999999811641
0.999999850319
0.999999905754
0.999999972278
1.00000002788
1.00000009784
1.00000017412
1.00000021258
1.00000028937
1.00000005282
1
0.957822738258
0.228390294948
3.4327995421e-21
0.999999835348
0.99999983128
0.999999823978
0.999999818246
0.999999816535
0.999999824083
0.999999846635
0.999999886132
0.999999943271
1.0000000005
1.00000006041
1.00000013264
1.00000021228
1.00000023722
1.00000028549
1.00000001409
1
0.950716507519
0.242036825671
0
0.999999886165
0.999999882669
0.999999873576
0.999999863196
0.999999856646
0.999999859711
0.999999879053
0.99999991645
0.999999970735
1.00000002729
1.00000008127
1.00000014906
1.00000021796
1.00000023112
1.00000021468
1
1
0.962376885734
0.285177900184
-7.31889405987e-22
0.99999993787
0.999999931969
0.999999918699
0.99999990297
0.999999890873
0.999999888819
0.999999904785
0.999999941381
0.999999987568
1.00000004022
1.00000008668
1.00000014424
1.0000001951
1.00000019401
1.00000010805
1
1
0.977255803063
0.347718461006
-4.81667241122e-09
0.999999970831
0.999999963947
0.9999999485
0.999999929312
0.999999913324
0.999999907885
0.999999919004
0.999999950319
0.999999992913
1.00000004348
1.00000008143
1.00000012211
1.00000015069
1.00000013427
1.00000001835
1.00000000005
1.00000000652
0.990187461879
0.427988482971
0
0.99999998992
0.999999982384
0.999999963533
0.999999935057
0.99999991226
0.99999990101
0.999999901033
0.999999930833
0.999999970587
1.00000004353
1.00000006937
1.00000009893
1.00000010236
1.00000007051
1
1.00000000315
1.00000002979
0.997922633523
0.520760079007
0
1.00000001664
1.00000001299
1.00000000319
0.999999994623
0.999999982279
0.999999972762
0.999999977261
0.999999984083
0.9999999889
1.00000002969
1.00000006777
1.00000007936
1.00000006089
1.00000002823
1
1.0000000143
0.999999978704
0.999998076152
0.619882086599
1.69406589451e-22
1.00000002349
1.00000001975
1.0000000117
1.00000000178
0.999999994098
0.999999989085
0.999999988755
0.999999993862
1.00000000534
1.00000001831
1.00000003107
1.00000005565
1.00000006012
1.00000000423
1
1.00000000074
0.999999974505
0.99999819542
0.715770071995
8.60957776481e-40
1.00000002465
1.00000002152
1.00000001515
1.00000000757
1.00000000101
0.999999997492
0.999999997386
1.0000000009
1.0000000078
1.00000001552
1.00000002276
1.00000002434
1.00000001761
1
0.999999995701
0.999999999956
0.999999977985
0.999998474032
0.789604179699
0.0219210290787
1.00000002304
1.00000002066
1.0000000158
1.00000001017
1.00000000545
1.000000003
1.00000000351
1.00000000676
1.00000001186
1.00000001738
1.00000002218
1.00000002288
1.0000000179
0.999999998521
0.999999985437
0.999999991955
0.999999995878
0.999998862561
0.847086391897
0.0551081825367
1.0000000204
1.00000001881
1.0000000153
1.00000001117
1.00000000792
1.00000000665
1.00000000782
1.00000001116
1.00000001584
1.00000002061
1.00000002426
1.0000000253
1.00000002288
1.00000000586
0.999999987974
0.999999989801
1.00000002633
0.99999911357
0.892829474598
0.0935749989727
1.00000001796
1.00000001712
1.00000001447
1.00000001134
1.00000000901
1.00000000838
1.00000000994
1.00000001343
1.00000001802
1.00000002244
1.0000000255
1.00000002684
1.00000002503
1.00000001138
0.999999992687
0.999999992931
0.999999979237
0.999999371861
0.927742691549
0.136687435714
1.00000001642
1.00000001603
1.00000001376
1.00000001093
1.00000000873
1.00000000808
1.00000000949
1.0000000128
1.00000001718
1.00000002132
1.00000002391
1.00000002469
1.00000002133
1.00000001002
0.999999993739
0.999999993319
0.999999984551
0.999999574275
0.953380085934
0.182621435146
1.00000001666
1.00000001627
1.00000001365
1.00000001016
1.00000000709
1.00000000556
1.00000000614
1.00000000883
1.00000001283
1.0000000169
1.00000001936
1.00000001906
1.00000001515
1.00000000469
0.999999992298
0.999999991199
0.999999986056
0.999999713535
0.971514884596
0.229859605205
1.00000002169
1.00000001985
1.00000001531
1.00000000938
1.00000000365
1.00000000035
0.999999999656
1.00000000133
1.00000000478
1.00000001011
1.0000000141
1.00000001482
1.0000000112
1.00000000034
0.999999986046
0.99999998351
0.999999981501
0.999999800375
0.983817646908
0.277128439329
1.00000002768
1.00000002405
1.00000001658
1.00000000704
0.999999998144
0.999999991055
0.99999998816
0.999999990482
0.999999997688
1.00000000513
1.0000000115
1.00000001368
1.0000000098
0.999999998593
0.999999987829
0.999999986852
0.999999986034
0.999999863098
0.991773323491
0.323311778352
1.00000003126
1.00000002694
1.00000001752
1.00000000546
0.999999993752
0.999999983755
0.999999978996
0.99999998161
0.999999990705
1.00000000249
1.00000001104
1.00000001488
1.000000012
1.0000000023
0.99999999483
0.999999993198
0.99999999195
0.999999907472
0.996514703871
0.367609202194
1.00000003862
1.00000003403
1.00000002275
1.00000000764
0.999999992711
0.999999979482
0.999999975359
0.999999976396
0.999999987892
1.00000000409
1.0000000166
1.00000002408
1.00000002355
1.00000001534
0.999999997418
0.999999995793
0.999999996041
0.999999933741
0.998996350917
0.409559066151
1.00000002326
1.00000002082
1.00000001391
1.00000000465
0.99999999583
0.999999989237
0.999999985999
0.999999990364
0.999999999333
1.00000000858
1.00000001897
1.00000002664
1.00000003031
1.0000000293
1.00000000767
1
0.999999999924
0.999999953224
0.999993858732
0.448872422858
1.00000002257
1.00000002056
1.00000001426
1.00000000581
0.999999997923
0.999999992471
0.999999991528
0.999999996345
1.00000000498
1.00000001655
1.00000002863
1.00000003853
1.00000004455
1.00000004568
1.0000000276
1
0.999999999927
0.99999996397
0.999998195639
0.485490080131
1.0000000231
1.00000002127
1.00000001533
1.00000000748
1.00000000029
0.999999995835
0.999999996032
1.00000000205
1.00000001173
1.00000002511
1.00000003862
1.00000005001
1.00000005675
1.00000005805
1.00000004087
1
0.99999999994
0.999999972944
0.999998539127
0.518813058143
1.00000002412
1.0000000223
1.0000000166
1.00000000941
1.00000000285
0.999999999308
1.00000000023
1.00000000677
1.00000001808
1.00000003266
1.00000004714
1.00000005967
1.00000006545
1.00000006466
1.00000004622
1
1.00000000001
0.999999979637
0.999998816775
0.54914965707
1.00000002493
1.00000002315
1.00000001824
1.00000001321
1.00000000647
1.00000000251
1.00000000356
1.00000001116
1.00000002382
1.00000004008
1.00000005654
1.00000007616
1.00000008036
1.00000007209
1.00000004734
1
0.999999999984
0.999999986459
0.99999902842
0.576796849861
1.00000002589
1.00000002759
1.00000002949
1.00000001816
1.00000001025
1.00000000356
1.00000000729
1.00000001371
1.00000003182
1.0000000472
1.000000097
1.00000009449
1.00000009236
1.00000006858
1.00000004103
1
0.999999999983
0.999999986641
0.999999200161
0.602009040983
1.00000004035
1.00000004272
1.00000002896
1.00000002707
1.00000001112
1.00000000751
1.00000000584
1.00000002002
1.00000003334
1.00000009133
1.00000008381
1.00000013775
1.00000009315
1.00000007206
1.00000001903
0.999999997726
0.999999985876
0.999999983271
0.999999332366
0.625005260616
1.00000004551
1.00000004314
1.00000003931
1.00000004718
1.00000001929
1.00000000818
1.00000001216
1.00000002082
1.00000005724
1.00000007055
1.00000018213
1.00000016678
1.00000014341
1.00000008498
1.00000003718
0.999999978201
0.999999967873
0.999999965929
0.99999942596
0.645974380728
1.0000000506
1.00000008635
1.00000004517
1.00000001948
1.00000001205
1.00000000783
1.00000000968
1.0000000152
1.00000003253
1.00000006468
1.00000011229
1.00000017631
1.00000012834
1.0000000391
1
0.999999966809
0.999999960552
0.99999995775
0.999999506453
0.665079478138
1.00000005103
1.00000006642
1.00000002773
1.00000001844
1.00000001223
1.00000000957
1.00000001119
1.00000001641
1.00000002933
1.00000008406
1.0000000914
1.00000012158
1.00000010348
1.00000002896
0.999999993211
0.999999958287
0.999999954388
0.999999951423
0.999999571887
0.682461865066
1.00000004927
1.00000005953
1.00000002539
1.00000001757
1.00000001274
1.00000001063
1.000000013
1.00000001853
1.00000003853
1.00000007766
1.00000012247
1.00000016254
1.00000005671
1.00000002215
0.999999990081
0.999999956722
0.999999953564
0.999999951207
0.999999629453
0.698244383361
1.00000006072
1.00000002984
1.00000002317
1.00000001717
1.00000001285
1.00000001159
1.00000001361
1.00000002029
1.0000000478
1.00000011985
1.00000009307
1.00000014003
1.000000054
1.00000002325
0.999999991699
0.999999962829
0.999999958524
0.999999958654
0.999999682837
0.712533956569
1.00000002893
1.00000002648
1.00000002192
1.00000001677
1.00000001312
1.00000001172
1.00000001397
1.00000002613
1.0000001105
1.00000008062
1.00000012974
1.0000001167
1.00000005475
1.00000002582
0.999999999024
0.99999997111
0.999999964713
0.999999967948
0.999999729554
0.725423827189
1.00000002596
1.000000025
1.00000002127
1.00000001666
1.00000001303
1.0000000116
1.00000001562
1.00000006648
1.00000007194
1.00000013102
1.00000015543
1.00000007356
1.0000000536
1.00000003064
1.00000000438
0.999999983809
0.999999974014
0.999999979453
0.999999772477
0.736995350745
1.00000002505
1.00000002454
1.00000002101
1.00000001647
1.00000001276
1.0000000115
1.00000002573
1.00000005857
1.00000008329
1.00000016112
1.0000000775
1.00000006631
1.00000005247
1.00000003408
1.00000001209
0.999999993676
0.999999984054
0.999999989241
0.999999807579
0.747319598716
1.00000002496
1.00000002438
1.00000002072
1.00000001601
1.00000001217
1.00000001113
1.00000002832
1.00000003924
1.00000009161
1.00000009102
1.00000007931
1.00000006266
1.00000005153
1.00000003671
1.00000001914
1
0.999999997732
0.999999997361
0.999999837033
0.756458668111
1.00000002492
1.0000000241
1.00000002017
1.00000001522
1.00000001135
1.00000000983
1.00000001808
1.00000004183
1.00000005882
1.00000012738
1.00000009562
1.00000005861
1.00000004999
1.00000003967
1.00000002486
1
0.999999999995
0.999999998547
0.999999855127
0.764466886195
1.0000000246
1.00000002353
1.00000001939
1.00000001425
1.00000001041
1.00000000864
1.00000001213
1.00000003148
1.00000004736
1.00000006348
1.00000008467
1.00000005449
1.0000000504
1.0000000426
1.00000003203
1
0.999999999996
0.999999998927
0.999999869098
0.771391755404
1.00000002396
1.00000002274
1.0000000185
1.00000001333
1.00000000945
1.00000000792
1.00000000969
1.00000002399
1.0000000428
1.00000006273
1.00000007477
1.0000000522
1.00000005103
1.00000004729
1.00000003892
1.0000000064
1
0.9999999997
0.999999881168
0.77727494511
1.00000002317
1.00000002192
1.00000001773
1.00000001269
1.00000000885
1.00000000737
1.00000000861
1.00000002235
1.00000006455
1.00000004332
1.00000008986
1.00000005375
1.00000005432
1.00000005175
1.00000004689
1.00000001605
1
0.99999999972
0.999999889374
0.782152674684
1.0000000225
1.0000000213
1.00000001735
1.00000001264
1.00000000907
1.00000000753
1.00000000932
1.00000004363
1.00000003639
1.00000006912
1.00000007032
1.00000005624
1.0000000573
1.000000058
1.00000005342
1.00000002598
1
0.99999999973
0.999999895507
0.786051673265
1.00000002341
1.00000002125
1.0000000173
1.00000001303
1.00000000982
1.00000000859
1.00000001621
1.00000003185
1.00000005942
1.00000008237
1.00000005291
1.00000005731
1.00000006167
1.0000000627
1.00000006036
1.0000000325
1
0.999999999734
0.999999899698
0.788986337999
1.00000002348
1.00000002079
1.00000001709
1.00000001326
1.00000001075
1.00000000987
1.00000001893
1.00000004574
1.0000000412
1.00000007745
1.00000005533
1.00000006069
1.00000006413
1.00000006656
1.00000006282
1.00000003572
1
0.999999999737
0.999999900962
0.791296185795
1.00000001122
1.0000000096
1.00000000763
1.00000000615
1.00000000544
1.00000000572
1.00000002261
1.00000001743
1.00000003208
1.00000004336
1.00000002995
1.00000003192
1.00000003394
1.00000003329
1.0000000306
1.0000000082
1
0.999999999849
0.999999910752
0.791580624253
)
;

boundaryField
{
    back
    {
        type            zeroGradient;
    }
    sides
    {
        type            zeroGradient;
    }
    bottom
    {
        type            zeroGradient;
    }
    front
    {
        type            zeroGradient;
    }
    atmosphere
    {
        type            inletOutlet;
        inletValue      uniform 0;
        value           nonuniform List<scalar> 
100
(
0
0
0
0
0
0
0
0
0
0
0
0
0
0
0
0
0
0
0
0
0
0
0
0
0
0
0
0
0
0
0
0
0
0
0
0
0
0
0
0
0
0
1.37362274265e-19
0.001024732672
0
0
0
0.0670607888305
0.187954107698
0.713652460361
0.713653815215
0.187955424429
0.0670610096954
0
0
0
0.00102473522428
-1.95214624563e-20
0
0
0
0
0
0
0
0
0
0
0
0
0
0
0
0
0
0
0
0
0
0
0
0
0
0
0
0
0
0
0
0
0
0
0
0
0
0
0
0
0
0
)
;
    }
    floatingObject
    {
        type            zeroGradient;
    }
}


// ************************************************************************* //
