/*--------------------------------*- C++ -*----------------------------------*\
| =========                 |                                                 |
| \\      /  F ield         | OpenFOAM: The Open Source CFD Toolbox           |
|  \\    /   O peration     | Version:  v2012                                 |
|   \\  /    A nd           | Website:  www.openfoam.com                      |
|    \\/     M anipulation  |                                                 |
\*---------------------------------------------------------------------------*/
FoamFile
{
    version     2.0;
    format      ascii;
    class       volVectorField;
    location    "0.4";
    object      ddt0(rho,U);
}
// * * * * * * * * * * * * * * * * * * * * * * * * * * * * * * * * * * * * * //

dimensions      [1 -2 -2 0 0 0 0];


internalField   nonuniform List<vector> 
1984
(
(5.16059445634 -5.15204313135 1.06728305212e-19)
(5.90092829281 -13.8003304869 1.3102140003e-18)
(5.95646005584 -23.9221900456 -1.39801922236e-20)
(5.90162379655 -33.9081808968 -6.2525066858e-20)
(5.86447253699 -43.7597615502 -2.13204495351e-19)
(5.84180159953 -53.5868734233 -1.74919289666e-19)
(5.82335440797 -63.4075867115 -1.12909249881e-18)
(5.80396078117 -73.2228935515 5.02377310132e-19)
(5.78070772464 -83.0291906415 5.35267713388e-19)
(5.75129571214 -92.8189258042 1.07018843078e-18)
(5.71358027826 -102.580940969 7.76995585704e-20)
(5.66519030212 -112.300423725 2.21226390773e-19)
(5.60293219862 -121.958567737 -1.81621833567e-20)
(5.52086162072 -131.529748793 -7.64073860411e-20)
(5.40151003551 -140.969932097 4.01706316254e-20)
(5.19013338497 -150.258343592 5.92617303198e-20)
(4.72197343877 -159.366840558 -1.75363479091e-19)
(3.54769760286 -166.232117288 -5.05188093718e-19)
(5.96381208436 -168.79982322 -7.77384741755e-18)
(14.9864451174 -104.344739915 -1.07265066709e-18)
(13.8056539258 -5.89672127089 6.95337133221e-20)
(14.5975615308 -14.5692807755 4.28056950731e-19)
(14.6709586768 -24.5522076743 2.55317712336e-20)
(14.6221818132 -34.607975814 -2.40612636409e-19)
(14.5965687657 -44.5826769034 -2.29078622384e-18)
(14.5916953037 -54.5632494354 -8.84241490456e-19)
(14.5923602213 -64.5510583241 -1.8205345427e-18)
(14.5897281468 -74.5379420881 -1.21620843314e-18)
(14.5777589934 -84.5167751412 2.31083788697e-19)
(14.5513572307 -94.4785158802 -3.24864808152e-18)
(14.5055210774 -104.411392424 -1.05147345716e-18)
(14.435048624 -114.30074233 -1.69038198302e-18)
(14.334006756 -124.129617646 -1.35993263119e-18)
(14.1943521948 -133.880309676 7.11956361395e-20)
(14.0012610959 -143.52251869 6.56201319474e-19)
(13.7212574172 -153.066995302 -1.38012356421e-19)
(13.2864069311 -162.974246264 2.99209286577e-19)
(12.4980825056 -172.382902441 2.06816545721e-18)
(10.2507644443 -175.667667439 -1.27787851258e-18)
(5.10882572596 -101.555274099 -1.65248351441e-17)
(23.8811351956 -5.96378861465 2.68751391506e-19)
(24.5399371486 -14.6280791317 2.39102608624e-18)
(24.6540477863 -24.6407667486 3.46759039432e-19)
(24.6612485444 -34.7142043837 -1.9029748293e-20)
(24.6609871812 -44.6998062971 -2.08152753296e-19)
(24.6641824842 -54.6975073954 1.63990714033e-19)
(24.6647404203 -64.709607533 -1.10740712696e-19)
(24.655478244 -74.7267132742 3.34142648356e-19)
(24.629191295 -84.7410845105 1.76042229183e-19)
(24.5784370345 -94.7435961207 -9.91086272795e-20)
(24.4955662036 -104.722468883 -9.24209941002e-21)
(24.3727076998 -114.663048704 -1.37554726971e-19)
(24.2020567612 -124.548360157 -6.66967861578e-21)
(23.9761599352 -134.359761253 4.40171486954e-19)
(23.6896402628 -144.063155406 1.90858884274e-19)
(23.3337520477 -153.655257546 2.53634732741e-19)
(22.8898755333 -163.482225851 2.35820084756e-19)
(22.4903566368 -172.278043541 1.50168934125e-20)
(21.3812370686 -174.638399396 -1.28201169365e-18)
(11.2475064373 -101.679087202 -6.70924532844e-19)
(33.8620362187 -5.91536419584 1.21104388053e-18)
(34.5896394804 -14.5518883342 1.99150479031e-18)
(34.733673554 -24.6135931059 2.15785081329e-19)
(34.7763436002 -34.7088106561 3.26908839057e-20)
(34.8010772617 -44.7021728097 -7.37111517338e-21)
(34.8204929388 -54.7075848994 8.06023169147e-20)
(34.8307244842 -64.7329161115 1.74573007917e-19)
(34.8242824857 -74.7704932 -1.32978697021e-20)
(34.7922924257 -84.8134678579 3.57241153394e-21)
(34.7249806532 -94.8530149144 4.62798207327e-20)
(34.6119518827 -104.877678478 -5.96758736345e-20)
(34.4424221136 -114.872978625 1.3377404841e-19)
(34.205869646 -124.821494874 -5.19708345478e-20)
(33.8925785108 -134.702968522 5.12336346091e-20)
(33.4952175964 -144.481159996 3.34740520323e-20)
(32.9977633901 -154.150960263 9.24351466294e-20)
(32.357694743 -164.007588271 2.11296539693e-19)
(31.6662367763 -172.733926116 2.26866400527e-19)
(29.2520797933 -174.69668816 4.55715146226e-19)
(13.774301844 -100.981095251 1.33170061344e-19)
(43.6682198895 -5.88273166804 -1.00004126883e-19)
(44.5281981778 -14.4874171359 2.72347666412e-18)
(44.69596988 -24.5665028942 4.42207769079e-19)
(44.7602256441 -34.671760862 5.50256573294e-20)
(44.8074867607 -44.6712837382 7.25678217128e-21)
(44.8480912732 -54.6855449143 1.84381661744e-20)
(44.8765985398 -64.7265117625 2.41510667271e-20)
(44.8837278673 -74.7887717669 -3.26986974442e-21)
(44.8581843346 -84.8669192727 -5.68150205007e-21)
(44.7875490971 -94.9531894898 2.04966895038e-20)
(44.6583981862 -105.036453605 2.01310426736e-21)
(44.4566883522 -115.102262473 2.07256424703e-20)
(44.1684644942 -125.132921097 -3.5066896467e-21)
(43.7805885878 -135.106575933 5.24809863585e-20)
(43.2817256418 -144.984939502 1.45379018961e-20)
(42.6485450946 -154.76166692 5.38462245515e-20)
(41.8270404437 -164.708991982 2.00092858935e-19)
(40.8804190219 -173.525300973 9.482494647e-20)
(37.578463833 -175.282374649 -2.72464772489e-18)
(17.0681403763 -99.8910898204 -1.13535936466e-19)
(53.4265451959 -5.86571062286 -4.77284786548e-20)
(54.4514588078 -14.4362321979 2.71127986283e-18)
(54.6498656773 -24.5110513572 9.4268275873e-20)
(54.7355385123 -34.6148823261 5.16936852598e-20)
(54.8080742963 -44.6161388329 1.25043169811e-20)
(54.8764376537 -54.6388029556 -4.31482624283e-23)
(54.9325755848 -64.6976345335 3.85620985368e-21)
(54.9645426423 -74.7893547258 8.98121625619e-22)
(54.9582340106 -84.9102252779 -2.85792828958e-21)
(54.8979156028 -95.0537564003 1.12107481178e-21)
(54.7667772721 -105.209779738 3.69185120875e-21)
(54.5470463488 -115.364107336 2.90170471949e-21)
(54.2206716084 -125.498732658 4.64799008717e-21)
(53.7701087667 -135.590723457 8.11870180801e-21)
(53.1788997989 -145.600616487 1.26984198411e-20)
(52.4158615311 -155.522356222 5.44388785681e-20)
(51.4150576187 -165.615540555 2.70328896575e-19)
(50.2139601089 -174.598074053 2.54630562471e-19)
(46.1428831094 -176.217578554 -1.1367794237e-18)
(20.5588303572 -98.436708347 1.20152037594e-20)
(63.1520742572 -5.85327896285 -1.32772034553e-20)
(64.3607627055 -14.3828258213 4.7395452343e-19)
(64.5989461014 -24.4410646434 -1.0945462609e-19)
(64.7121947309 -34.5341880234 3.61419005696e-21)
(64.8171804508 -44.5313789133 4.42003116618e-21)
(64.922814527 -54.5598824361 1.71530072896e-21)
(65.0184139611 -64.6369714468 4.42694563897e-21)
(65.0890347444 -74.7615488055 1.00661693798e-20)
(65.1173347939 -84.9318120856 1.00973951735e-21)
(65.0839990657 -95.14283014 5.01894608927e-21)
(64.9681969008 -105.385603623 4.34205015921e-21)
(64.7479345805 -115.646647671 4.38704528324e-21)
(64.4005450068 -125.908076963 7.09274204671e-21)
(63.9034523723 -136.14636989 2.172066815e-20)
(63.2345624625 -146.32153702 9.86287678055e-21)
(62.3550615398 -156.429260524 -1.39820815987e-21)
(61.1878720688 -166.723109857 6.46571406848e-19)
(59.7402253828 -175.928108584 1.24092648004e-18)
(54.9348557405 -177.430134761 -4.28467366037e-19)
(24.0968665686 -96.5885817291 1.600367696e-19)
(72.8387867778 -5.83962796508 -1.05744328822e-18)
(74.2411336713 -14.3179293683 8.1046531314e-19)
(74.5271910194 -24.3486979412 1.45517785624e-19)
(74.6765643057 -34.4213738012 4.46873282837e-20)
(74.8242591574 -44.4069260796 6.41663860796e-21)
(74.9797694044 -54.4364568633 5.26963921933e-21)
(75.1298602845 -64.5299980303 2.21807682622e-21)
(75.2564149303 -74.6888949159 2.85430089939e-21)
(75.3385275145 -84.9136176024 4.8528043123e-22)
(75.352919096 -95.2011718186 7.87846909337e-22)
(75.2743424733 -105.544087329 5.71778487792e-21)
(75.0760312611 -115.929954026 3.78076383874e-20)
(74.7301728485 -126.341413548 1.00738355318e-20)
(74.2086821836 -136.754786937 4.90572782799e-20)
(73.4835273618 -147.129834545 3.20085890297e-20)
(72.5085462164 -157.464691245 -9.75976206056e-20)
(71.196760793 -168.011382262 2.12556888431e-19)
(69.5223515782 -177.485193317 -4.56063571807e-18)
(64.0070379273 -178.871514085 -4.82449383167e-18)
(27.6523553641 -94.298503573 -2.72203414861e-19)
(82.4777158011 -5.82128889529 1.19280922022e-19)
(84.08073008 -14.2347482111 1.73059430298e-18)
(84.4226869911 -24.2254740734 2.49937530156e-19)
(84.6183208759 -34.2659738262 7.86380445418e-20)
(84.8213994091 -44.2299525359 -2.97405107192e-21)
(85.0422378093 -54.2531548281 2.49263301821e-21)
(85.2650530072 -64.3588557319 2.86106613638e-22)
(85.4683948109 -74.5512717736 -1.30598575209e-21)
(85.6275083482 -84.8335865795 1.3210476097e-21)
(85.7147682964 -95.2051971669 -2.01835097681e-21)
(85.7000875747 -105.660599973 -3.74255453348e-22)
(85.551401642 -116.18886612 2.4325492837e-20)
(85.235193853 -126.773549389 9.3028822722e-21)
(84.7173531218 -137.391137865 1.06228243383e-20)
(83.9635101925 -148.001143517 2.20295675025e-20)
(82.9200201197 -158.604453369 1.03720213789e-19)
(81.4904948444 -169.455078046 1.88784126972e-19)
(79.6138218074 -179.240546175 2.10272830826e-19)
(73.4056891884 -180.50405275 -2.61262423697e-19)
(31.2056646584 -91.5018766294 -1.10097497021e-19)
(92.0552001797 -5.79549469221 -7.66603644608e-19)
(93.8653430642 -14.1269784129 3.23856325901e-18)
(94.2717499049 -24.0620669678 3.7683281005e-19)
(94.5252686376 -34.0556789774 2.99616414884e-20)
(94.7986521042 -43.985133358 1.59862139616e-21)
(95.1030971645 -53.9916247969 -1.30334309815e-22)
(95.4202057471 -64.1022713563 1.18302672412e-21)
(95.7250164561 -74.3247065468 7.72620083875e-22)
(95.9886415176 -84.6653768706 2.18046767467e-21)
(96.1787292438 -95.1266070105 -2.43572596796e-21)
(96.259881007 -105.705377693 3.35584429234e-21)
(96.1941765901 -116.3927119 1.62436033682e-20)
(95.9417657661 -127.173475852 2.53792162823e-21)
(95.4618654311 -138.024600688 1.40838937569e-20)
(94.7131424362 -148.905224336 1.07148144359e-20)
(93.6338414228 -159.819202289 6.1424671694e-20)
(92.1178381303 -171.025942385 2.28715703639e-19)
(90.0669795044 -181.166703937 -1.18208957314e-19)
(83.1803256742 -182.295346459 -5.24840630469e-18)
(34.7396390427 -88.1201230978 -2.16794552458e-19)
(101.553017084 -5.75960435847 -7.73379287506e-19)
(103.576867981 -13.9881236428 -1.23524447854e-18)
(104.057081799 -23.8480942453 -4.20558012012e-19)
(104.381657646 -33.7763183116 -1.44697755796e-19)
(104.742530064 -43.65459954 -1.41071446189e-20)
(105.15176981 -53.6303743018 -5.83357782074e-22)
(105.58826207 -63.7352714803 1.04862283696e-21)
(106.023342857 -73.9809834587 1.53615287065e-21)
(106.423705447 -84.3778632918 1.58810842895e-21)
(106.751872479 -94.9318097979 -3.63043793128e-21)
(106.966628814 -105.642902407 2.96037224114e-21)
(107.023568983 -116.504673478 1.92684707931e-20)
(106.875773616 -127.503778026 -3.08450820337e-20)
(106.474968283 -138.617892745 -1.55507199103e-20)
(105.771964114 -149.805641388 -8.35715458847e-23)
(104.695805718 -161.074180285 7.79034768762e-20)
(103.12963419 -172.69201373 -1.2192856507e-19)
(100.937133061 -183.234890176 -2.65645266107e-18)
(93.3874759072 -184.2136753 -8.50255129349e-19)
(38.2374050328 -84.0614644285 1.12079074307e-21)
(110.948360776 -5.71083778554 -1.00813980282e-18)
(113.192846265 -13.8111453863 -3.0984285873e-19)
(113.757203906 -23.571943161 1.39434299293e-19)
(114.167651756 -33.4117775714 -7.04634118969e-20)
(114.635532944 -43.2178524284 -8.87025506295e-21)
(115.173780334 -53.1446194266 7.27361123621e-22)
(115.758459372 -63.2289404614 -3.67179119323e-21)
(116.357021308 -73.487292671 8.91683145158e-24)
(116.931456566 -83.9346952353 1.53619077141e-21)
(117.438759377 -94.5813759753 6.57570431576e-21)
(117.831344354 -105.43126153 6.4783720325e-21)
(118.057624777 -116.481091305 -5.27299607955e-22)
(118.062747832 -127.719901758 1.09500455447e-21)
(117.789935392 -139.126526533 7.80161301645e-21)
(117.180973199 -150.659002416 1.26858578675e-20)
(116.154179054 -162.328359925 1.0375464132e-19)
(114.58042266 -174.416412404 1.8760884306e-19)
(112.284795699 -185.412847897 -8.70135260184e-20)
(104.091850784 -186.22490294 -1.84113980001e-18)
(41.6799420597 -79.219804555 -2.10084233042e-18)
(120.213460286 -5.64615511932 -9.27624636703e-19)
(122.68590537 -13.5882918255 3.13516780993e-18)
(123.345814684 -23.2206520974 3.50890097875e-19)
(123.858665764 -32.9439106467 4.10662484467e-20)
(124.455485915 -42.6516610256 -6.58367669061e-21)
(125.150091644 -52.5061276983 -3.12026558795e-23)
(125.915660117 -62.5501780012 -4.26415475267e-21)
(126.7156087 -72.8058940933 -1.41496868453e-21)
(127.506972402 -83.2938273344 -4.49514872163e-21)
(128.240811275 -94.0294526258 1.37333235678e-21)
(128.862602036 -105.021448142 6.0595878893e-21)
(129.312800971 -116.270625844 2.01171121501e-20)
(129.52763565 -127.769202491 8.3519044711e-21)
(129.440611797 -139.497750954 5.41483886095e-20)
(128.983032373 -151.413787753 2.62506452254e-20)
(128.060525104 -163.533138863 -6.76934435502e-20)
(126.529678191 -176.155840529 2.6316340299e-19)
(124.177292279 -187.662940358 -2.38291243656e-19)
(115.367741942 -188.290092189 -3.55072043501e-18)
(45.0443291489 -73.4727764774 -1.46280723931e-19)
(129.315086794 -5.56220521492 -1.33285103788e-18)
(132.023173147 -13.3110257686 5.10726001723e-19)
(132.79113859 -22.779847643 1.19231710444e-19)
(133.424668053 -32.3524771933 -1.8360728928e-19)
(134.174807362 -41.9299744432 -1.81588312163e-20)
(135.056342572 -51.6830708265 -8.35758690183e-21)
(136.03955771 -61.6614640418 -1.06923335144e-20)
(137.083757598 -71.8937517185 8.6163715912e-21)
(138.140826848 -82.407044221 -5.67956560946e-22)
(139.155513429 -93.2231251734 -4.06553748612e-21)
(140.065805383 -104.35653371 4.24483237694e-21)
(140.803360957 -115.813276426 -1.08908788739e-20)
(141.294391995 -127.589778152 -5.01471626943e-20)
(141.461270088 -139.669199402 5.59219434829e-20)
(141.223083533 -152.008803288 2.85547885055e-21)
(140.470330965 -164.630599727 1.55186338881e-19)
(139.042864218 -177.858711968 -2.55875041197e-19)
(136.690217592 -189.940132949 1.01386997719e-18)
(127.300828206 -190.363381263 1.65822331754e-18)
(48.3021141061 -66.6794611776 1.96928761946e-18)
(138.214028957 -5.45530668113 2.69033245046e-19)
(141.165696055 -12.9700120855 2.70152695331e-18)
(142.055284933 -22.2337388494 -2.47031125621e-19)
(142.829478539 -31.6151336841 -1.43957896229e-19)
(143.759750242 -41.0238856929 1.31916232301e-21)
(144.862015942 -50.639931658 -1.20568537506e-21)
(146.103783413 -60.5206733762 -1.92010200587e-20)
(147.440276593 -70.7022489762 1.33987665239e-20)
(148.818100322 -81.2194728456 3.12703246316e-21)
(150.175449397 -92.1017187623 -3.33991123815e-21)
(151.442236344 -103.370775928 8.85169214454e-21)
(152.540534707 -115.039176726 -9.70260659301e-21)
(153.385324553 -127.108969085 -5.01235935397e-21)
(153.886276154 -139.567101235 -9.97679058401e-22)
(153.94817326 -152.371139175 4.3539190394e-21)
(153.443510663 -165.551259839 1.48001070014e-19)
(152.192400755 -179.46283095 -8.21751202035e-20)
(149.90896509 -192.189626315 -3.11634549348e-18)
(139.990515808 -192.389738284 -8.6840399751e-18)
(51.4174902941 -58.6779304222 -4.04122680751e-18)
(146.864564837 -5.32146478407 -5.32344971727e-19)
(150.06785611 -12.5551732693 -2.88449195831e-18)
(151.093612301 -21.5651897021 -7.01661506685e-19)
(152.030070469 -30.7075086155 -3.32232632116e-19)
(153.169575887 -39.9016940141 -1.11542656993e-20)
(154.529533842 -49.3375029384 -1.43505014679e-20)
(156.07490967 -59.0809596657 -1.48712398216e-20)
(157.756981359 -69.1768857345 4.20214423631e-22)
(159.517198759 -79.6690929144 -1.0829844942e-20)
(161.287024149 -90.5960704155 -9.39354239644e-21)
(162.987882619 -101.988436707 -1.14141962152e-21)
(164.531452902 -113.867124299 -5.15300381515e-21)
(165.820271212 -126.241601373 -5.06058888775e-21)
(166.749520307 -139.104249435 -2.21074184537e-20)
(167.207337246 -152.413838771 -3.40227765144e-20)
(167.044726438 -166.211565973 2.031958793e-19)
(166.058593223 -180.892853922 -4.12160274622e-19)
(163.930294298 -194.344223516 5.70035631857e-19)
(153.552786611 -194.302308849 -3.23732401566e-18)
(54.3449313755 -49.2819236238 -1.74066308853e-18)
(155.213985002 -5.15636722211 -5.44282698256e-19)
(158.676860212 -12.0557329621 -4.63629372381e-19)
(159.854136797 -20.7558208087 -1.53982608421e-19)
(160.975809526 -29.6033612074 -2.84132203815e-19)
(162.355761621 -38.5290251482 -4.95312894008e-21)
(164.013271295 -47.7329847399 -1.12657794225e-20)
(165.911244287 -57.2908567685 -3.65491293345e-20)
(167.997474558 -67.2572411673 -2.02529160594e-20)
(170.208453398 -77.6865139946 4.09999777796e-22)
(172.468979407 -88.6279802046 -4.74416356617e-21)
(174.691844438 -100.123161201 2.28723694213e-21)
(176.777616383 -112.203556291 2.39383613872e-21)
(178.61516735 -124.888409195 -3.34377419512e-21)
(180.083303133 -138.177790685 2.26399266468e-20)
(181.050867271 -152.033120145 -3.45285823662e-20)
(181.343293893 -166.510455717 1.72208738723e-19)
(180.730255364 -182.056485204 -3.02402358907e-19)
(178.864090908 -196.320344791 7.83386027837e-20)
(168.123982957 -196.018964623 5.30278114709e-18)
(57.0263278634 -38.27820377 3.83820608546e-18)
(163.202232433 -4.95543829272 -8.17574348987e-19)
(166.93228442 -11.4603982602 1.00621673145e-18)
(168.276961416 -19.7862794157 5.99457988983e-20)
(169.607869051 -28.2748115122 -2.43733800165e-20)
(171.261112362 -36.8692130656 -4.30584255689e-20)
(173.258502814 -45.7804081186 -4.10781850512e-20)
(175.561603125 -55.0943937449 -2.69172139798e-20)
(178.115454681 -64.8769782542 -4.9540247959e-20)
(180.85217953 -75.1945802527 -2.05673139572e-20)
(183.690420396 -86.109350846 -9.05146255353e-21)
(186.534312531 -97.6762203868 6.5717014934e-21)
(189.272951874 -109.940082106 2.48423398458e-21)
(191.780333685 -122.933050804 7.93753200702e-21)
(193.916993711 -136.665883436 5.64069113836e-20)
(195.529401045 -151.104631674 1.97009367522e-20)
(196.412844601 -166.325476712 8.83240301824e-20)
(196.305151803 -182.840528314 3.80699065692e-19)
(194.834868887 -198.013464208 -3.97812619814e-19)
(183.865203733 -197.437533637 -1.12683967046e-17)
(59.3868767795 -25.4214876943 2.76939978627e-19)
(170.761574302 -4.71399863263 1.73839195425e-19)
(174.765684154 -10.7576638294 3.39278279771e-19)
(176.293819875 -18.636593936 2.40520375638e-19)
(177.858542012 -26.6930090921 -6.25963125162e-20)
(179.818896133 -34.8838547178 -1.84985724802e-20)
(182.20028357 -43.4309853753 -4.28395085013e-21)
(184.963902909 -52.4316722128 -1.48684310682e-21)
(188.053109502 -61.964071469 -1.81072926566e-21)
(191.396879552 -72.1084912014 -5.00275172978e-20)
(194.908516375 -82.9423155674 -4.07960174766e-24)
(198.484060526 -94.5367033499 -1.23801842905e-21)
(202.001027519 -106.953340323 -5.03011902473e-21)
(205.31773328 -120.241145211 7.18045931122e-21)
(208.274448356 -134.425551791 -1.92440616968e-20)
(210.692003706 -149.480108389 -2.54951609733e-20)
(212.330187789 -165.508220072 1.09767706306e-19)
(212.889916828 -183.105423439 7.81386056655e-19)
(211.982921611 -199.29157346 4.58315148807e-18)
(200.967213937 -198.429191876 -8.1978367413e-18)
(61.3291460452 -10.4298611958 9.0445562391e-18)
(177.816585675 -4.42710803248 -1.2701479184e-18)
(182.100555793 -9.93581158474 3.82547951762e-18)
(183.827861564 -17.2865679843 -3.85266793848e-19)
(185.650707229 -24.8284957008 -4.35559266122e-19)
(187.952204043 -32.5334340968 -5.92916153049e-20)
(190.762412914 -40.6340112793 -2.48294040442e-20)
(194.043711127 -49.2393970544 -3.23407961102e-20)
(197.739409196 -58.4413865403 8.61142011175e-20)
(201.776931006 -68.3360807399 -6.20634678376e-20)
(206.065784479 -79.0186302646 -1.22950403867e-20)
(210.495125868 -90.5797618822 5.50746378815e-20)
(214.931514168 -103.102120897 -3.13659693772e-20)
(219.217240006 -116.656425626 1.78812672042e-20)
(223.170617802 -131.288061609 6.03638492373e-21)
(226.583294816 -146.982048468 5.6221283499e-20)
(229.173432412 -163.878486134 7.60744796609e-19)
(230.599005138 -182.67902696 -1.38627333795e-18)
(230.464024266 -199.98726739 -1.58498531779e-17)
(219.654900028 -198.829998772 -1.47514153614e-17)
(62.7236902099 7.02163990948 6.09664514233e-18)
(184.284254878 -4.09014093372 -2.98913317231e-18)
(188.852314949 -8.98392848443 -5.04681407681e-19)
(190.793539611 -15.7167830497 6.92201004852e-20)
(192.897709573 -22.652439343 -1.86376460831e-19)
(195.573234484 -29.7786564889 -4.25225222518e-20)
(198.856431494 -37.3381851972 5.70574531161e-20)
(202.712807009 -45.4525072896 -6.81975141849e-20)
(207.08781035 -54.2281969901 4.1063073499e-21)
(211.909692644 -63.7789707077 -5.09060415254e-20)
(217.086566158 -74.2204928668 -1.48774570347e-20)
(222.502868051 -85.6668645065 4.60017385466e-21)
(228.015804428 -98.2266701985 -2.0207153515e-20)
(233.452206349 -111.998707033 9.97013907516e-21)
(238.607342974 -127.05527791 -2.30910091759e-20)
(243.240067959 -143.398486417 2.3893579588e-20)
(247.019713052 -161.218033347 4.12969945983e-19)
(249.553228897 -181.350086212 -1.26075997724e-18)
(250.446517714 -199.888800304 -1.73222489006e-19)
(240.186595767 -198.428990935 -6.90278088207e-18)
(63.3896406594 27.3156763005 -8.40088656725e-19)
(190.074333255 -3.69861778475 -1.32762701313e-18)
(194.928555577 -7.89190699412 -5.85456760964e-19)
(197.096721695 -13.9092380454 -2.60125782505e-19)
(199.503114201 -20.137783237 -6.50276254067e-20)
(202.582900627 -26.5818839286 -2.72119929367e-20)
(206.380684021 -33.493365922 5.86982505723e-21)
(210.867561551 -41.0060068931 -7.06369482005e-21)
(215.994038442 -49.2419456615 5.00300395765e-21)
(221.692471011 -58.3341997377 -1.15787369037e-19)
(227.873068432 -68.4217440669 -3.17482146581e-21)
(234.419000108 -79.6462029498 2.20104613408e-20)
(241.181153853 -92.1478675156 -8.24420408104e-20)
(247.972973813 -106.061350618 3.73164842939e-20)
(254.566893664 -121.495018491 -4.088040777e-21)
(260.685957259 -138.476264102 3.06731686483e-21)
(265.942485056 -157.263055796 6.6692933033e-19)
(269.879707115 -178.862692526 -2.12798332157e-18)
(272.107185252 -198.735584743 -1.72259282672e-17)
(262.837882177 -196.958409073 1.26435509505e-17)
(63.0551656036 50.9110188774 -1.97954577637e-19)
(195.090398885 -3.24856309194 -2.10182018562e-18)
(200.230007999 -6.65134006407 -1.1945441793e-18)
(202.635289739 -11.8484654172 -9.96796324912e-20)
(205.361048107 -17.2606681339 1.07754674543e-20)
(208.870755253 -22.9091232097 -1.12319501409e-19)
(213.219675577 -29.0528729633 -6.27480562863e-20)
(218.387580117 -35.837463937 -1.00766946096e-19)
(224.333825429 -43.4009410104 -6.92323506565e-20)
(230.999202337 -51.8968881793 -5.76440892894e-20)
(238.300796912 -61.4901837008 -6.80985675906e-20)
(246.125604634 -72.3542229501 -2.08385880014e-21)
(254.323235733 -84.6673650565 -4.17940813417e-20)
(262.698140374 -98.609188656 -7.73914521494e-22)
(271.00265934 -114.335774264 4.27798832546e-23)
(278.923395899 -131.911859326 -2.00421635813e-20)
(286.008775427 -151.692938051 1.30453913489e-19)
(291.719792062 -174.911588663 -1.25435829307e-19)
(295.640555795 -196.231552444 -2.36203759412e-18)
(287.834665688 -194.099776324 -1.3006017289e-17)
(61.236878596 78.4220551276 5.62332164364e-19)
(199.231142354 -2.7367761568 -6.72789705527e-19)
(204.651762312 -5.25629467119 1.37966256982e-19)
(207.300371448 -9.52295048416 1.90456389091e-19)
(210.357031877 -14.0023862467 -2.06103385658e-19)
(214.315268122 -18.7323835131 -1.43753845119e-19)
(219.243794534 -23.9765012604 -1.41989719366e-20)
(225.134763145 -29.8906216185 -1.047068319e-20)
(231.960951693 -36.6282538481 -2.78463588258e-20)
(239.677085805 -44.3642796564 -1.25781332934e-19)
(248.213564005 -53.2914873957 -1.32046222625e-20)
(257.468208492 -63.6189325941 -4.95446472055e-20)
(267.2969363 -75.5695106636 -5.6242123448e-20)
(277.502865376 -89.3778229381 6.70112849802e-20)
(287.825147512 -105.261319009 -3.24944835364e-20)
(297.919090527 -123.338118963 1.32822296272e-19)
(307.27150541 -144.107073692 9.6041849445e-19)
(315.252212936 -169.124114341 1.79492888754e-18)
(321.367317502 -192.122840125 1.9893303711e-18)
(315.149215298 -189.587924107 -3.79283043387e-18)
(56.8935146797 110.705331391 5.11599874115e-18)
(202.392369788 -2.16116520358 -2.40749892948e-20)
(208.085208254 -3.70427159876 3.11137458314e-18)
(210.978067093 -6.92677481493 1.30998871018e-19)
(214.369501175 -10.3518258252 -1.58098591156e-19)
(218.784939838 -14.032898994 -1.7333451915e-19)
(224.309731811 -18.2342074316 -1.44800715657e-20)
(230.952738198 -23.1196914281 -6.59429335083e-20)
(238.705567067 -28.8568865147 1.82398447335e-20)
(247.543556156 -35.6414094457 -1.96334238101e-20)
(257.418350958 -43.6950664011 -7.38843617136e-20)
(268.248166338 -53.2656221383 -3.12597140385e-20)
(279.905570046 -64.6262046646 -1.89952479762e-19)
(292.203951422 -78.0763015967 6.73731445418e-20)
(304.881469277 -93.9082288811 -9.39842263939e-20)
(317.576022651 -112.308959712 8.21597490256e-20)
(329.734705432 -133.976039063 4.65319859142e-19)
(340.671401703 -160.928461784 -1.66459733422e-18)
(349.846556699 -185.96585792 -1.13129916044e-17)
(342.798144079 -180.659731202 -3.89413390198e-17)
(49.8759029985 145.666839439 5.23399300366e-18)
(204.469603342 -1.52119162373 -4.02116312216e-19)
(210.420580898 -1.99736237363 -5.32023269553e-19)
(213.55182352 -4.06149496303 -6.12039600046e-19)
(217.271913915 -6.30804474937 -3.34724159149e-19)
(222.140036034 -8.80450501217 -3.79231642832e-20)
(228.261641664 -11.8106092246 -3.14048831769e-20)
(235.66711221 -15.4948014145 -5.49375663573e-21)
(244.373178364 -20.0359520909 -1.3620152144e-21)
(254.383534228 -25.648505029 -5.44815904257e-20)
(265.680740557 -32.5824446036 1.27601346322e-21)
(278.215002844 -41.1257552756 1.32621939471e-19)
(291.889430824 -51.6062096192 -3.11288955363e-20)
(306.54309394 -64.3963174273 2.14855641161e-19)
(321.930049418 -79.8738420405 3.5158645321e-20)
(337.690885133 -98.301580299 2.00933947587e-19)
(353.265600674 -120.61456332 1.43225729729e-18)
(367.961293296 -149.32260824 -3.41950528511e-18)
(381.207185985 -175.944028932 -1.16598913098e-17)
(367.860387509 -161.988327865 8.25169876881e-18)
(41.9860985248 177.729907346 2.3511044051e-18)
(205.361597109 -0.818075926549 -1.36414623696e-18)
(211.550509237 -0.143160466603 -4.12508743738e-19)
(214.90588957 -0.938020599865 -1.39301703333e-18)
(218.936009437 -1.88325515297 -2.876587411e-19)
(224.23553559 -3.05787217735 -8.10100516288e-20)
(230.933662714 -4.71055779081 -2.10197419434e-19)
(239.087407045 -7.00917999431 -1.27060119705e-19)
(248.745266594 -10.1393617953 -2.72235003399e-20)
(259.948317884 -14.3306325049 -8.83430974771e-20)
(272.721280473 -19.8584218988 -4.13581793068e-20)
(287.059936487 -27.0496802952 -5.37851525837e-20)
(302.915211683 -36.2889137192 -1.71245636553e-19)
(320.171505616 -48.0282848094 9.40764585292e-20)
(338.619199759 -62.7390121352 -1.29298996578e-19)
(357.923949775 -80.7643668095 8.83644124502e-20)
(377.544240536 -103.322164969 1.6723398222e-18)
(396.758989482 -133.306969769 -1.48642871914e-18)
(414.898049297 -160.518290684 -1.67416622683e-17)
(392.981139128 -136.811180271 -3.33532109054e-17)
(30.7737511262 210.600751295 5.0346610741e-18)
(204.974073034 -0.0554960445629 -8.89290493838e-19)
(211.373984923 1.84353344961 9.23506979895e-19)
(214.929250683 2.42093696851 4.19967869573e-19)
(219.235646413 2.89415008192 -2.86571648162e-20)
(224.924780057 3.17585444499 -3.13884974873e-20)
(232.153233778 3.03647147058 3.45594103452e-21)
(241.009693319 2.31527567311 -4.73717286327e-20)
(251.581439804 0.826314959406 -2.29712146017e-20)
(263.956149261 -1.6683418269 -8.62033055121e-20)
(278.2132922 -5.46391879936 -1.869880832e-19)
(294.410724666 -10.92218065 -1.66207966249e-20)
(312.567135319 -18.482754503 -1.75291678127e-19)
(332.637213914 -28.6818099722 -2.04338380094e-20)
(354.473132131 -42.091161259 -2.08233787978e-19)
(377.794081747 -59.1501752549 1.28652708335e-19)
(402.091563407 -81.4660270804 6.85997669763e-19)
(426.442591854 -111.848980914 7.97459144844e-19)
(449.781413193 -136.925197896 -1.40118702768e-17)
(417.495533445 -108.189556733 -4.90626844258e-17)
(14.189528271 247.083635526 5.72749397751e-18)
(203.225421861 0.760289260554 -3.01969674641e-18)
(209.8018016 3.93993970171 -7.99370457681e-20)
(213.520413323 5.97901668711 9.697307701e-20)
(218.051508737 7.97661080062 -1.75346757003e-20)
(224.064402176 9.84061913654 2.22998484219e-20)
(231.746216843 11.3699574895 -2.02737353773e-20)
(241.221804822 12.4192580843 -1.41878402298e-20)
(252.623740871 12.8110324536 -5.10123198295e-20)
(266.095614043 12.308577752 -8.77913973822e-21)
(281.784570181 10.6067988724 4.46010243439e-20)
(299.829113547 7.31790446593 5.59219820383e-20)
(320.340004387 1.9535798343 -2.10092306486e-19)
(343.372467154 -6.10653974763 -8.66989224209e-20)
(368.87731458 -17.5384474448 -1.47199883956e-19)
(396.675241764 -32.9245503682 1.11619370516e-18)
(426.3185094 -54.5442772435 7.45770741908e-19)
(456.832052765 -84.1020148073 5.54812823181e-18)
(486.211350793 -103.256387217 2.95129820304e-17)
(431.847810729 -93.0548475963 -7.8464532616e-17)
(-20.7397663275 302.18063944 2.42732159435e-17)
(200.052663656 1.61956886313 -1.00335697936e-18)
(206.762648944 6.1129770681 3.81792735091e-18)
(210.593492731 9.68358013263 9.82960783086e-19)
(215.277156907 13.295211929 -1.12995276009e-19)
(221.521087334 16.8523869934 6.5843197246e-21)
(229.54440183 20.1933875364 -2.22188643783e-19)
(239.511074621 23.1984706229 2.95204170098e-20)
(251.604465449 25.7102330249 1.52061518441e-19)
(266.032544298 27.5062838119 -6.55764311342e-19)
(283.022202493 28.286696078 -2.11680560866e-20)
(302.812005177 27.6534737398 3.05125237422e-19)
(325.633378768 25.0828470038 -5.1629248845e-20)
(351.67901804 19.880252488 2.46214914889e-19)