/*--------------------------------*- C++ -*----------------------------------*\
| =========                 |                                                 |
| \\      /  F ield         | OpenFOAM: The Open Source CFD Toolbox           |
|  \\    /   O peration     | Version:  v2012                                 |
|   \\  /    A nd           | Website:  www.openfoam.com                      |
|    \\/     M anipulation  |                                                 |
\*---------------------------------------------------------------------------*/
FoamFile
{
    version     2.0;
    format      ascii;
    class       volScalarField;
    location    "0.4";
    object      k;
}
// * * * * * * * * * * * * * * * * * * * * * * * * * * * * * * * * * * * * * //

dimensions      [0 2 -2 0 0 0 0];


internalField   nonuniform List<scalar> 
1984
(
0.0329576070217
0.03611226103
0.036547837692
0.0366096449317
0.0366296936719
0.0366458242939
0.0366613836453
0.0366765520229
0.0366912725307
0.0367054745965
0.0367190926098
0.0367320593939
0.0367443114657
0.0367558121286
0.0367669124331
0.0367829916792
0.0368648822901
0.0375776130854
0.0429952336895
0.0725604529731
0.03613051522
0.0417822793886
0.0426338575437
0.0427584550154
0.0427847422743
0.0428005915095
0.0428155189866
0.0428302781985
0.0428448419097
0.0428591270847
0.0428730650429
0.0428865880468
0.0428996416338
0.0429122496088
0.0429252505409
0.0429480119359
0.0430683045139
0.0439681909255
0.0497231547333
0.0760813825406
0.036595150082
0.0426814610437
0.0436220080107
0.0437594713129
0.0437858232437
0.0438003464604
0.0438139346146
0.0438274082627
0.0438406907523
0.0438536713743
0.0438662505457
0.0438783481374
0.0438898948192
0.0439008987719
0.0439122067051
0.043933491868
0.0440542258877
0.0449550682674
0.0506275892413
0.0764294040768
0.036665842802
0.0428217656715
0.0437766644084
0.0439150789622
0.0439401830913
0.0439533874297
0.0439658193303
0.0439782691416
0.0439906245763
0.0440027274654
0.0440144631237
0.0440257306488
0.0440364496253
0.0440466177281
0.0440570898651
0.0440776888269
0.0441987965131
0.0451036914579
0.0507767169112
0.0764858969387
0.0366886037727
0.0428514529416
0.0438071376999
0.043944475038
0.043968276088
0.0439803077424
0.043991739283
0.0440033432597
0.0440149757326
0.0440264652451
0.0440376597782
0.0440484460453
0.0440587352091
0.0440685140766
0.0440786515399
0.044099167245
0.0442217755667
0.0451356299449
0.0508335507193
0.0765179951647
0.0367069775645
0.0428683658889
0.043823147132
0.0439593484087
0.0439820043503
0.0439929811335
0.0440034832007
0.0440142869808
0.0440252377489
0.0440361474324
0.044046857449
0.0440572306964
0.0440671696196
0.0440766538563
0.0440865747976
0.0441072116406
0.0442320358284
0.045158126912
0.0508912438536
0.0765540607183
0.0367254968958
0.0428844791215
0.0438383219852
0.0439735728559
0.043995257655
0.0440052973456
0.0440149377442
0.0440249740373
0.0440352547546
0.0440455869524
0.0440558037722
0.0440657583787
0.0440753437075
0.04408453472
0.044094254488
0.0441151082232
0.0442427433568
0.0451839761098
0.0509602045414
0.0765970204439
0.0367445968726
0.0429010328396
0.0438540385825
0.0439885081418
0.0440093774694
0.0440185986645
0.04402745775
0.0440367752292
0.0440464118165
0.044056176528
0.0440659007337
0.0440754319366
0.0440846569593
0.0440935489541
0.0441030728631
0.0441242304604
0.0442552767542
0.0452145462753
0.0510414235744
0.0766473075991
0.0367643496659
0.0429181534884
0.0438703971658
0.0440042164529
0.0440244022506
0.0440329169928
0.0440410809824
0.0440497414975
0.0440587750763
0.0440679988662
0.0440772453253
0.0440863614566
0.044095230214
0.0441038261297
0.0441131671258
0.0441347279143
0.0442698262033
0.0452501252563
0.0511351854083
0.0767051466786
0.0367848016621
0.0429358773587
0.043887405643
0.0440206752755
0.0440402877458
0.0440481976223
0.044055752306
0.0440638240365
0.0440723070559
0.0440810281192
0.0440898255474
0.0440985469927
0.0441070748682
0.0441153878582
0.0441245689953
0.0441466497792
0.044286497213
0.0452909675062
0.0512418416915
0.076770768622
0.0368059974963
0.0429542400162
0.0439050805877
0.0440378792747
0.0440570108321
0.0440644066887
0.0440714341907
0.0440789878458
0.0440869785512
0.0440952451122
0.0441036315564
0.0441119896117
0.0441202023137
0.0441282553334
0.0441373101949
0.0441600481621
0.0443054105146
0.045337378389
0.0513618347122
0.0768444332621
0.0368279793517
0.0429732797129
0.0439234485566
0.0440558396852
0.0440745691002
0.0440815322952
0.0440881103924
0.0440952166913
0.0441027780865
0.0441106439525
0.0441186667773
0.0441267013797
0.0441346338681
0.0441424591733
0.0441514321857
0.0441749878562
0.0443267118804
0.0453897204342
0.0514956876744
0.0769264356201
0.036850784939
0.0429930349012
0.0439425415334
0.0440745780866
0.0440929741053
0.0440995786233
0.0441057811031
0.0441125107039
0.0441197079218
0.0441272333706
0.0441349460315
0.0441427057654
0.0441504018413
0.0441580408594
0.0441669878967
0.0441915484996
0.0443505754633
0.0454484171897
0.0516440043841
0.0770171122982
0.0368744455126
0.04301354196
0.0439623933883
0.0440941216523
0.0441122461039
0.0441185605793
0.0441244585605
0.0441308821064
0.0441377839453
0.044145033444
0.0441524972527
0.0441600385681
0.0441675507229
0.0441750542083
0.0441840432369
0.0442098266064
0.0443772072608
0.0455139589911
0.0518074745323
0.0771168488801
0.036898983799
0.0430348332124
0.0439830371602
0.0441144996179
0.0441324099912
0.0441385001173
0.0441441639249
0.0441503530779
0.0441570309525
0.0441640740178
0.0441713587087
0.0441787452647
0.0441861353179
0.0441935632633
0.044202676678
0.0442299360493
0.0444068496088
0.04558691102
0.0519868843026
0.0772260896333
0.036924412116
0.0430569353258
0.0440045028536
0.0441357405147
0.044153492852
0.0441594231208
0.0441649219765
0.0441709515342
0.0441774791054
0.0441843948285
0.0441915718404
0.0441988802121
0.044206219034
0.0442136451748
0.0442229802291
0.0442520138142
0.0444397859876
0.0456679255988
0.0521831266332
0.077345348502
0.0369507283565
0.0430798659041
0.044026815171
0.0441578707158
0.0441755188742
0.0441813541557
0.044186761918
0.0441927084593
0.044199171079
0.0442060394956
0.044213195121
0.0442205107777
0.0442278834447
0.0442353910643
0.0442450659934
0.0442762175686
0.044476349452
0.045757748327
0.0523972157849
0.0774752223365
0.0369779134207
0.0431036330706
0.044049991421
0.0441809065573
0.044198510072
0.0442043185045
0.0442097079749
0.044215652376
0.0442221352735
0.0442290491426
0.0442362765187
0.044243694644
0.0442511974934
0.0442588901677
0.0442690469243
0.0443027291432
0.044516926679
0.0458572427791
0.0526303087075
0.0776164146029
0.0370059297504
0.0431282309527
0.0440740371343
0.044204861539
0.0442224783083
0.0442283274043
0.0442337869595
0.0442398264885
0.0442464310503
0.0442534971506
0.0442609076129
0.0442685393661
0.0442762858085
0.0442842816414
0.0442950857265
0.0443317745053
0.0445619722872
0.0459673895055
0.0528837087923
0.0777697507755
0.0370347050882
0.0431536289105
0.0440989415163
0.0442297313436
0.0442474252241
0.0442534019356
0.044259022325
0.0442652587287
0.044272097693
0.0442794363772
0.0442871564491
0.0442951321075
0.0443032557149
0.0443116959735
0.0443233470476
0.0443636059994
0.0446120152017
0.046089321618
0.0531589061326
0.0779362237673
0.0370641543766
0.0431797912322
0.0441246782315
0.0442555002183
0.0442733501696
0.0442795406656
0.0442854243023
0.0442919735938
0.0442991750446
0.044306924619
0.0443151008998
0.0443235734526
0.044332232268
0.0443412861805
0.0443540247496
0.0443985216093
0.0446676748755
0.0462243397069
0.0534575926182
0.0781170368027
0.0370941476924
0.0432066514178
0.0441512127054
0.0442821394384
0.0443002265109
0.0443067296609
0.0443129929371
0.0443199876797
0.0443276989348
0.0443360197234
0.0443448236547
0.0443539735131
0.044363355579
0.0443732263614
0.0443873430377
0.0444368706265
0.0447296762033
0.0463739366045
0.0537816853741
0.0783136660966
0.037124515107
0.0432341121197
0.0441784731044
0.044309591059
0.0443280086029
0.0443349369988
0.0443417129595
0.0443493056692
0.0443576974178
0.0443667766019
0.0443764099462
0.0443864510615
0.0443967811097
0.0444077137638
0.0444235606608
0.0444790626615
0.0447988679196
0.0465398269751
0.0541333444858
0.0785279248979
0.0371550378673
0.0432620412188
0.0442063597076
0.0443377708093
0.0443566259793
0.0443641086323
0.0443715503405
0.0443799174549
0.0443891887143
0.044399245674
0.0444099463859
0.0444211328784
0.0444326799728
0.0444449706504
0.0444629755466
0.0445255775727
0.0448762430951
0.0467239887472
0.0545149963517
0.0787619893199
0.0371854414082
0.0432902656499
0.0442347379191
0.0443665624901
0.0443859789911
0.0443941644205
0.0444024481263
0.0444117948327
0.0444221768234
0.0444334688913
0.0444455178337
0.0444581521542
0.0444712395028
0.044485247371
0.0445059308281
0.0445769761462
0.0449629569083
0.0469286708618
0.0549293790447
0.0790187435248
0.0372153907751
0.0433185671563
0.0442634329227
0.0443958112553
0.0444159304635
0.0444249885932
0.0444343182843
0.0444448811659
0.0444566438052
0.0444694740843
0.0444832044733
0.0444976478623
0.0445126645428
0.0445288253053
0.0445528200396
0.0446339099377
0.045060342062
0.0471564004476
0.0553796325833
0.0793021439915
0.0372444689861
0.0433466611904
0.0442922108548
0.0444253083005
0.0444462945894
0.0444564225792
0.0444670337981
0.044479086912
0.0444925429339
0.0445072628524
0.0445230630167
0.0445397413974
0.0445571513543
0.0445759912037
0.0446040664599
0.0446971110963
0.0451698957509
0.0474098804593
0.0558694913172
0.0796179096647
0.0372722009331
0.0433742250925
0.0443208039133
0.0444548097581
0.0444768485409
0.0444882704544
0.0445004326342
0.0445142942544
0.0445298134043
0.0445468360661
0.0445651706752
0.0445845958215
0.044604960405
0.0446271191961
0.04466020693
0.0447674626037
0.04529331435
0.0476919881629
0.0564030180787
0.0799709205292
0.0372980127753
0.0434008520159
0.0443488676086
0.044484000232
0.0445073027971
0.0445202731461
0.0445342943838
0.0445503287487
0.0445683318622
0.0445881441841
0.0446095615092
0.0446323422931
0.0446563341574
0.0446825852742
0.0447218106635
0.0448459336572
0.0454324608404
0.048005887626
0.0569827351137
0.0803585571294
0.0373212373467
0.0434260597235
0.0443759873982
0.0445124969352
0.0445373028826
0.0445521113622
0.0445683446489
0.0445869721019
0.0446079499085
0.0446311145969
0.0446562529517
0.0446831069701
0.0447115301595
0.0447428064446
0.0447895194602
0.0449336021521
0.0455893127448
0.0483546320441
0.0576114521862
0.0807825546862
0.0373411178541
0.0434492860461
0.0444016714064
0.0445398406859
0.0445664195274
0.0445833930146
0.0446022381968
0.0446239376056
0.0446484528243
0.044675621681
0.0447052273714
0.0447370010735
0.0447708127253
0.0448082341391
0.0448640394948
0.0450316285063
0.0457659151341
0.0487414504008
0.0582933627711
0.0812503815118
0.0373568072486
0.0434698835066
0.0444253435543
0.0445654884669
0.0445941402234
0.0446136450529
0.0446355526896
0.0446608669692
0.0446895620673
0.0447214849817
0.0447564241647
0.0447941099157
0.0448344430871
0.0448793438431
0.0449461227321
0.0451411950927
0.0459642205821
0.0491693752523
0.0590316650644
0.0817658320245
0.0373673828713
0.0434871148843
0.0444463352378
0.044588806136
0.0446198623254
0.0446423054349
0.0446677798613
0.0446973202859
0.0447309233035
0.0447684563619
0.0448097264696
0.0448544787698
0.0449026649929
0.0449566170301
0.0450365274626
0.0452633829118
0.0461857337924
0.0496399419425
0.0598219835319
0.0823156303885
0.0373718801152
0.0435001251949
0.0444638709854
0.0446090625456
0.0446428884878
0.0446687175172
0.0446983171943
0.04473276732
0.0447720960351
0.0448162076102
0.0448649464005
0.0449180950508
0.0449756827427
0.0450405108753
0.0451359476595
0.0453989487401
0.0464308523952
0.0501518683825
0.0606481312215
0.082832832949
0.0373706985913
0.0435067870988
0.0444766832357
0.0446253654762
0.0446624159471
0.0446921255005
0.0447264616372
0.0447665791449
0.0448125436076
0.0448643176449
0.0449218081845
0.04498486555
0.0450536303768
0.0451314113277
0.0452449010848
0.0455479622421
0.0466976174708
0.0506930175613
0.0614169200934
0.0828110218887
0.0373676026634
0.0435026326531
0.0444824506406
0.0446365009966
0.0446775483906
0.0447116935683
0.0447513969595
0.0447979603245
0.0448515696108
0.0449122531093
0.044979926616
0.0450545892419
0.0451365317299
0.0452295691498
0.0453635934433
0.0457094472065
0.0469805875641
0.0512347614309
0.0620660692707
0.0827326771605
0.0373607200835
0.0434872508243
0.0444801831426
0.0446414879457
0.0446873771426
0.0447266040743
0.0447723937246
0.0448262351192
0.0448884344401
0.0449591495645
0.0450385724422
0.0451268707113
0.0452242356435
0.0453350065526
0.0454917066474
0.0458805554208
0.0472679976769
0.0517511376719
0.0626742161425
0.0829574873931
0.0373480378624
0.0434604802632
0.0444690598376
0.0446393536535
0.0446909154619
0.0447358847603
0.0447885342459
0.0448506380859
0.0449226303483
0.0450047301464
0.0450972958141
0.0452006846851
0.0453158368092
0.0454473348202
0.0456282342009
0.0460558340846
0.0475388092278
0.0522009158083
0.0631946817075
0.0832071016526
0.0373279038995
0.0434224221725
0.0444484403115
0.0446291301086
0.0446871467192
0.0447385402939
0.0447988875812
0.0448703057674
0.0449533533398
0.0450483728092
0.0451558684001
0.0452763442611
0.0454110509586
0.0455647260039
0.0457702443644
0.0462275436033
0.0477634071527
0.0525326375819
0.0635366564002
0.0833079447053
0.0372985765794
0.0433732693441
0.0444178252647
0.0446099427998
0.0446750945024
0.0447335811715
0.0448024815553
0.0448843481429
0.04497988067
0.0450895118692
0.0452137799559
0.0453534204559
0.04551005323
0.0456886821333
0.0459192956012
0.0463853835246
0.0479074024372
0.052679373021
0.0635596506132
0.0831435149759
0.0372587396087
0.043313363771
0.0443768781038
0.044581059885
0.0446538904495
0.0447200713279
0.0447983762705
0.0448919080545
0.045001561481
0.0451277123668
0.0452707122995
0.0454315632046
0.0456121890398
0.0458178746195
0.0460759956923
0.0465495930094
0.0479802130392
0.0525249250057
0.0631141990469
0.0826351492212
0.0372078345057
0.0432433895745
0.0443255614476
0.0445420105963
0.0446228590618
0.0446972441199
0.0447857812168
0.044892298112
0.0450179849367
0.0451627720284
0.0453267156696
0.0455108910253
0.0457175361446
0.0459522935325
0.0462403507642
0.0467246781607
0.0480652906277
0.0521646102462
0.0616617794265
0.080976457819
0.0371460818669
0.0431648118465
0.0442644541364
0.0444927624283
0.0445816811673
0.0446645534793
0.0447641057935
0.0448851750455
0.0450292694533
0.0451951930591
0.0453823455073
0.0455918894908
0.0458262103184
0.046090658383
0.0464080983831
0.0469021061405
0.0481549843857
0.0517466738899
0.0597296468936
0.0750848840752
0.0370744656839
0.0430800930949
0.044194961506
0.044433978874
0.0445304904174
0.0446218217679
0.0447330212439
0.0448705951351
0.0450362909358
0.0452262170327
0.045438846497
0.0456759323003
0.0459397869927
0.0462340079927
0.0465796481208
0.0470804348366
0.0482442895921
0.0512830238379
0.0576807168972
0.0688783847206
0.0369948801008
0.0429928041608
0.0441195756511
0.0443672046174
0.0444701233878
0.0445691447174
0.0446920322947
0.0448481218097
0.0450382389267
0.0452542123822
0.0454942440059
0.0457621715917
0.046058809072
0.0463821469064
0.0467538918204
0.0472549432088
0.0483240292251
0.050829947328
0.056297429199
0.074665370809
0.0369101940838
0.0429075176135
0.0440419480206
0.0442951174952
0.0444020735897
0.0445061929778
0.0446366448351
0.0448013943607
0.0449970352116
0.0452267811295
0.0454929195482
0.0458042780066
0.0461547821958
0.0465190858133
0.0469190502741
0.0474155903689
0.0483813908566
0.0504322527685
0.055386363035
0.0791497200779
0.0368241626495
0.0428293555546
0.0439668763134
0.0442216596162
0.0443282497754
0.0444287355515
0.0445328723159
0.0445565056317
0.0445517540628
0.0446813975106
0.0449520371474
0.0453656664925
0.0459199771153
0.0464719218336
0.0469893120465
0.0475311445609
0.0484143817669
0.0500951613915
0.0549741348216
0.0861942912341
0.0367410460151
0.0427629644889
0.0438997407696
0.0441512755707
0.0442487454218
0.0443136025866
0.0441868238086
0.0429622394593
0.0405329489222
0.039868820529
0.0400780628901
0.0409738306476
0.0435852428515
0.0454338241961
0.0465687809586
0.0474154658655
0.0483534628665
0.0498218168739
0.0542190419178
0.0813766417399
0.0366662143367
0.0427133725653
0.0438473293537
0.0440883692907
0.0441539072255
0.0441025110668
0.0434150585171
0.0383089147142
0.0416900828616
0.0445132446387
0.0460049187266
0.0471119749614
0.0481655911455
0.0495744500135
0.05301956577
0.0740864315177
0.0366097752882
0.0426818734835
0.0438194334033
0.0440596411197
0.044116611077
0.0440236845426
0.0431579437548
0.0373021935288
0.0385623411109
0.0434963598857
0.0453341108871
0.0466117711103
0.0478166379367
0.0492454090758
0.0516718136089
0.0644491114444
0.036609780929
0.042681877598
0.0438194363327
0.0440596424189
0.0441166102159
0.0440236803839
0.043157934401
0.0373021895715
0.0385623924404
0.0434964645388
0.0453343144586
0.0466120127035
0.04781700442
0.0492460585909
0.0516732624727
0.0644577206685
0.0366662252135
0.0427133811796
0.0438473354656
0.0440883722058
0.0441539048921
0.0441025015504
0.0434150418606
0.0383089042969
0.0416901432505
0.0445133963778
0.0460052789863
0.0471124141209
0.0481662107741
0.0495754221132
0.0530215895801
0.0740938850045
0.0367410611188
0.04276297665
0.0438997490903
0.0441512780916
0.0442487393978
0.0443135845816
0.0441867957931
0.0429622099416
0.0405329138098
0.0398687915994
0.0400780509153
0.0409738485054
0.0435853133391
0.0454340060244
0.0465692347906
0.0474159632304
0.0483541366783
0.049822828739
0.05422074934
0.0813797843075
0.0368241656086
0.0428293544501
0.0439668720278
0.044221652634
0.0443282390166
0.0444287186085
0.0445328486004
0.0445564801753
0.0445517254198
0.0446813736261
0.0449520302519
0.0453656812455
0.0459200342915
0.0464720865433
0.0469897567091
0.0475316329865
0.0484150478677
0.050096120209
0.0549753895503
0.0861950356714
0.0369101880193
0.0429075064592
0.044041933504
0.0442951005143
0.0444020537791
0.0445061690111
0.0446366167981
0.0448013647571
0.0449970092217
0.0452267646099
0.0454929214191
0.0458043112551
0.0461548641585
0.0465192673343
0.0469194823919
0.0474160433621
0.0483820003504
0.0504331038467
0.0553872775913
0.0791502829296
0.0369948644205
0.0429927827674
0.0441195512478
0.0443671780872
0.044470095548
0.0445691146378
0.0446920012518
0.044848093123
0.0450382172115
0.0452542034984
0.0454942546902
0.0457622148665
0.0460589057278
0.0463823376456
0.0467543028734
0.047255354604
0.0483245671858
0.0508306550051
0.056298090012
0.074665680086
0.0370744421792
0.043080064588
0.0441949302206
0.0444339459168
0.0445304595852
0.0446217897675
0.0447329903051
0.044870569608
0.0450362749322
0.0452262150739
0.0454388627847
0.0456759797903
0.0459398855207
0.046234191066
0.0465800215382
0.0470807959038
0.0482447465557
0.0512835685712
0.0576811571458
0.0688785850937
0.0371460504077
0.0431647763512
0.0442644154764
0.0444927300973
0.0445816431673
0.0446645271977
0.0447640819962
0.0448851553962
0.0450292585659
0.045195194627
0.0453823598626
0.045591931133
0.0458262974531
0.0460908194635
0.0464084220552
0.0469024094852
0.0481553527965
0.0517470684675
0.0597299203963
0.0750849820906
0.0372078053414
0.0432433556839
0.0443255290621
0.0445419755146
0.0446228311059
0.0446972157658
0.0447857594129
0.0448922918039
0.0450179781383
0.0451627714045
0.0453267132727
0.0455109094278
0.0457175907727
0.0459524129272
0.0462406123106
0.0467249212146
0.0480655766433
0.0521648774935
0.061661940642
0.0809765429478
0.0372587151533
0.0433133365907
0.0443768491322
0.0445810329621
0.0446538642122
0.0447200530553
0.0447983641322
0.04489190226
0.0450015671096
0.045127721687
0.0452707284148
0.0454316041122
0.0456122701299
0.0458180138722
0.0460762571789
0.0465498247122
0.0479804586506
0.0525251160772
0.0631142962989
0.0826352104497
0.0372985613723
0.0433732537554
0.0444178084444
0.0446099253182
0.0446750781851
0.0447335685155
0.0448024780759
0.0448843532036
0.0449798940551
0.045089536785
0.0452138086135
0.0453534770103
0.0455101437103
0.0456888247825
0.0459195358475
0.0463855870108
0.0479075968797
0.05267950124
0.063559705394
0.0831435640636
0.0373278993899
0.0434224191179
0.0444484355859
0.0446291237512
0.0446871399579
0.0447385355934
0.0447988885451
0.0448703175902
0.0449533765749
0.0450484057089
0.045155914608
0.0452764165941
0.0454111523098
0.0455648698317
0.0457704620196
0.0462277157604
0.0477635540406
0.0525327191982
0.0635366842375
0.0833079658329
0.0373480411187
0.043460486549
0.0444690641153
0.0446393554538
0.0446909156925
0.0447358856829
0.0447885391626
0.0448506521288
0.044922656142
0.0450047664814
0.045097347224
0.0452007610301
0.0453159369866
0.0454474715144
0.0456284210527
0.046055974585
0.0475389161183
0.0522009693253
0.0631946888245
0.0832070931612
0.0373607266561
0.0434872610133
0.0444801902832
0.0446414907662
0.0446873761057
0.0447266007576
0.0447723931178
0.0448262422741
0.0448884531775
0.0449591846457
0.0450386215531
0.0451269433099
0.0452243264579
0.0453351252085
0.0454918568507
0.0458806640276
0.0472680737903
0.0517511664529
0.0626742016456
0.0829574737541
0.0373676111825
0.0435026452362
0.0444824624866
0.0446365116851
0.044677558245
0.0447117033713
0.0447514082016
0.0447979740943
0.0448515857461
0.0449122811534
0.0449799704844
0.0450546536465
0.0451366097296
0.0452296688216
0.0453637081751
0.0457095284323
0.0469806391423
0.0512347668951
0.0620660481071
0.0827326618321
0.0373707082009
0.0435068009878
0.0444766971241
0.0446253789263
0.0446624290398
0.0446921385799
0.0447264751346
0.0447665927216
0.0448125580777
0.0448643361072
0.0449218335907
0.044984915333
0.0450536978871
0.0451314947531
0.0452449861748
0.0455480219966
0.0466976490937
0.0506930141896
0.0614168974357
0.082811008572
0.0373718897254
0.0435001391339
0.044463885512
0.0446090772168
0.0446429032218
0.0446687323112
0.0446983319701
0.0447327811135
0.0447721086712
0.0448162213255
0.0448649626351
0.0449181237392
0.0449757243846
0.0450405730724
0.0451360110329
0.0453989926792
0.0464308726988
0.0501518607053
0.0606481081057
0.0828328194818
0.0373673915957
0.0434871280897
0.0444463495076
0.0445888211122
0.0446198778431
0.0446423212595
0.0446677955597
0.0446973345739
0.0447309354213
0.0447684681659
0.0448097390212
0.0448545007311
0.0449026955628
0.0449566600706
0.0450365757789
0.0452634152033
0.046185747017
0.0496399320289
0.0598219599935
0.082315617102
0.0373568146687
0.0434698954514
0.0444253570077
0.0445655031772
0.0445941559969
0.0446136615078
0.0446355691875
0.0446608820066
0.0446895745561
0.0447214963802
0.0447564354832
0.0447941290256
0.0448344690702
0.0448793795285
0.0449461618253
0.0451412189161
0.0459642284367
0.0491693641164
0.0590316414481
0.0817658188028
0.0373411238124
0.0434492964714
0.0444016836968
0.0445398547031
0.0445664350901
0.0445834096758
0.0446022552203
0.0446239534042
0.0446484660605
0.0446756334302
0.0447052386707
0.0447370185986
0.0447708356143
0.0448082644934
0.0448640720175
0.0450316466006
0.0457659195765
0.0487414383091
0.0582933394974
0.0812503684939
0.0373212418968
0.0434260685824
0.0443759983312
0.0445125099072
0.044537317754
0.0445521276885
0.0445683616852
0.0445869882803
0.0446079637264
0.0446311268173
0.0446562646989
0.0446831232657
0.0447115502682
0.0447428322472
0.0447895476931
0.0449336178629
0.0455893154373
0.0483546194493
0.0576114295446
0.0807825419893
0.0372980162546
0.0434008595646
0.0443488772408
0.0444840119851
0.0445073165848
0.0445202885525
0.0445343106554
0.044550344417
0.044568345503
0.044588156441
0.0446095736604
0.0446323574172
0.0446563518833
0.0446826073618
0.0447218356645
0.044845949166
0.0454324635457
0.0480058751945
0.0569827135852
0.0803585450431
0.0372722042899
0.0433742322948
0.0443208129323
0.0444548206554
0.0444768612941
0.0444882846438
0.0445004471449
0.0445143076094
0.0445298243558
0.0445468466904
0.044565182941
0.04458461042
0.0446049758535
0.0446271364933
0.0446602270228
0.0447674774466
0.0452933179244
0.047691977088
0.0564029986217
0.0799709094486
0.0372444718849
0.0433466675327
0.0442922187309
0.044425317846
0.0444463059476
0.0444564358974
0.0444670479403
0.044479101014
0.0444925579043
0.0445072760594
0.0445230766325
0.0445397548553
0.0445571635604
0.0445760019861
0.0446040766825
0.0446971193597
0.0451698978363
0.0474098711646
0.0558694740969
0.0796178998478
0.0372153898566
0.0433185689558
0.0442634364042
0.0443958168465
0.0444159384155
0.0444249989438
0.0444343303339
0.0444448933841
0.0444566561103
0.0444694844802
0.0444832127317
0.0444976538408
0.0445126680048
0.0445288266251
0.0445528202074
0.044633909941
0.0450603397218
0.047156390339
0.0553796163901
0.0793021345632
0.0371854445094
0.043290271786
0.044234745079
0.0443665705497
0.044385988013
0.0443941744975
0.0444024596309
0.044411806961
0.044422189777
0.0444334823183
0.0444455312663
0.0444581651732
0.0444712516294
0.0444852582073
0.0445059397208
0.0445769820172
0.0449629577996
0.0469286659326
0.0549293681639
0.079018736942
0.0371550385992
0.0432620443245
0.0442063638997
0.0443377760905
0.0443566324317
0.0443641162094
0.0443715588989
0.0443799268485
0.0443891982129
0.0443992551168
0.0444099553733
0.0444211413323
0.0444326879973
0.0444449784195
0.0444629828024
0.0445255832177
0.0448762451666
0.0467239860504
0.0545149887778
0.0787619846155
0.0371245173173
0.0432341164749
0.0441784780888
0.0443095965552
0.0443280146626
0.0443349436769
0.0443417202702
0.0443493135812
0.0443577058203
0.0443667853859
0.0443764188835
0.0443864600214
0.0443967900493
0.0444077227166
0.0444235693373
0.0444790700373
0.0447988721125
0.0465398267589
0.0541333398033
0.0785279217494
0.0370941510459
0.0432066567101
0.0441512182843
0.0442821452363
0.0443002324939
0.0443067358572
0.0443129994286
0.0443199945982
0.0443277063668
0.0443360277404
0.0443448321879
0.0443539824618
0.0443633647259
0.0443732355403
0.0443873517336
0.0444368778679
0.0447296803798
0.0463739369453
0.0537816820817
0.078313663842
0.0370641576082
0.0431797961163
0.0441246829255
0.0442555055449
0.0442733558976
0.0442795465938
0.044285430419
0.0442919800793
0.0442991820289
0.0443069322681
0.044315109177
0.0443235822968
0.0443322411397
0.0443412947565
0.0443540322943
0.0443985272261
0.0446676772503
0.0462243385886
0.0534575885679
0.0781170343069
0.037034707031
0.0431536315761
0.0440989413083
0.044229734653
0.044247430516
0.0442534077916
0.0442590283221
0.0442652652039
0.0442721047964
0.0442794444989
0.0442871656703
0.044295142966
0.0443032661024
0.0443117049918
0.044323353697
0.044363609367
0.0446120145337
0.0460893172496
0.0531588993143
0.0779362199297
0.0370059284244
0.0431282318597
0.04407404014
0.0442048662659
0.0442224808033
0.0442283325911
0.044233793161
0.044239833325
0.0442464393745
0.044253506892
0.0442609232231
0.0442685545695
0.044276298927
0.0442842910128
0.0442950916323
0.044331774852
0.0445619684264
0.045967380916
0.0528836989568
0.0777697456998
0.0369779179237
0.0431036413082
0.0440499985592
0.0441809157551
0.0441985139748
0.0442043204515
0.0442097119893
0.0442156594943
0.044222143328
0.0442290642693
0.0442362924792
0.0442437173186
0.0442512120218
0.0442589004869
0.0442690510249
0.0443027290387
0.0445169198327
0.0458572329968
0.0526302981117
0.0776164096962
0.0369507354814
0.0430798770112
0.0440268260358
0.0441578849113
0.0441755263455
0.0441813588739
0.0441867658972
0.0441927113911
0.0441991756863
0.0442060456237
0.044213214686
0.0442205354141
0.0442278983374
0.0442353976257
0.0442450681764
0.0442762142694
0.0444763423263
0.0457577382406
0.0523972064206
0.0774752181161
0.0369244199853
0.0430569540252
0.04400451382
0.0441357456584
0.0441534959216
0.0441594250678
0.0441649237823
0.0441709511569
0.0441774796062
0.0441843965643
0.044191581026
0.0441989045882
0.0442062358697
0.0442136460996
0.0442229778775
0.044252008019
0.0444397791017
0.0456679186707
0.0521831226022
0.0773453473888
0.0368989885037
0.0430348436115
0.0439830414678
0.0441145028971
0.0441324131492
0.0441385031681
0.0441441664145
0.0441503543176
0.0441570306337
0.0441640800873
0.0441713638384
0.0441787613048
0.0441861479602
0.0441935650524
0.0442026748504
0.0442299324269
0.0444068439771
0.0455869064771
0.0519868827
0.0772260900846
0.0368744494051
0.0430135476124
0.0439623959845
0.0440941242474
0.0441122492344
0.0441185641964
0.0441244624046
0.0441308850579
0.0441377868474
0.0441450405176
0.0441525102513
0.0441600632614
0.04416755846
0.0441750572191
0.0441840437444
0.0442098247601
0.0443772040695
0.0455139561318
0.051807475441
0.0771168505258
0.0368507885954
0.0429930365753
0.0439425432031
0.0440745804545
0.0440929773595
0.044099582669
0.0441057855328
0.0441125146885
0.044119713389
0.0441272462182
0.0441349562657
0.0441427258115
0.0441504099252
0.0441580458536
0.0441669906829
0.0441915494627
0.0443505750065
0.0454484171903
0.0516440080209
0.0770171152837
0.0368279796891
0.0429732805253
0.0439234500129
0.0440558420693
0.0440745725447
0.0440815366544
0.0440881153139
0.0440952222909
0.0441027913712
0.0441106545483
0.0441186808025
0.0441267174102
0.044134641913
0.0441424651704
0.0441514369254
0.0441749912594
0.0443267143994
0.0453897234223
0.0514956946129
0.0769264402137
0.0368059976672
0.0429542408877
0.0439050821757
0.044037881798
0.0440570143849
0.0440644111544
0.0440714396443
0.0440789981001
0.0440869894344
0.0440952613823
0.044103649296
0.044111998785
0.0441202097495
0.0441282622285
0.044137316569
0.0441600539363
0.0443054156097
0.0453373841558
0.0513618448161
0.0768444394055
0.0367848022117
0.0429358785941
0.043887407489
0.0440206779121
0.0440402912514
0.0440482019937
0.0440557586029
0.0440638333985
0.0440723182849
0.0440810470389
0.0440898313134
0.0440985536042
0.0441070818288
0.0441153952832
0.0441245767343
0.0441466574709
0.0442865045444
0.0452909757355
0.051241854579
0.076770776147
0.0367643507309
0.0429181551478
0.0438703992463
0.0440042190873
0.0440244055177
0.0440329209149
0.0440410867845
0.044049747819
0.0440587850977
0.0440680082919
0.0440772497192
0.0440863669866
0.0440952367041
0.0441038337678
0.0441131758118
0.0441347370878
0.0442698354583
0.0452501355224
0.0511352006382
0.0767051553138
0.036744598434
0.0429010348682
0.0438540408065
0.0439885106425
0.0440093803215
0.0440186018714
0.0440274618286
0.0440367805058
0.0440464174981
0.0440561880211