/*--------------------------------*- C++ -*----------------------------------*\
| =========                 |                                                 |
| \\      /  F ield         | OpenFOAM: The Open Source CFD Toolbox           |
|  \\    /   O peration     | Version:  v2012                                 |
|   \\  /    A nd           | Website:  www.openfoam.com                      |
|    \\/     M anipulation  |                                                 |
\*---------------------------------------------------------------------------*/
FoamFile
{
    version     2.0;
    format      ascii;
    class       volScalarField;
    location    "0.4";
    object      p_rgh;
}
// * * * * * * * * * * * * * * * * * * * * * * * * * * * * * * * * * * * * * //

dimensions      [1 -1 -2 0 0 0 0];


internalField   nonuniform List<scalar> 
1984
(
9580.9832284
9581.37394696
9582.35468979
9583.86676015
9585.89404999
9588.4357244
9591.49197571
9595.06326809
9599.15023262
9603.75295462
9608.87189239
9614.50632215
9620.65491566
9627.31541438
9634.48405027
9642.15328403
9650.31485563
9658.98084855
9667.95549786
7739.28941819
9580.57442929
9580.96386618
9581.9544534
9583.47373399
9585.50214571
9588.04236507
9591.09614135
9594.66442146
9598.74830492
9603.34777265
9608.46365956
9614.09543481
9620.24202964
9626.9015616
9634.07151388
9641.74701209
9649.91958325
9658.63589947
9667.99822408
7737.39425494
9579.55345549
9579.93036826
9580.92006011
9582.4407413
9584.46950466
9587.00938602
9590.06257896
9593.63063359
9597.71444821
9602.31507878
9607.43293208
9613.06823355
9619.22015869
9625.88718665
9633.06693476
9640.75427374
9648.94007759
9657.66398416
9666.93214122
7714.54317578
9577.97979822
9578.3458142
9579.33178772
9580.85092764
9582.87840019
9585.41698136
9588.46916427
9592.03661271
9596.12134302
9600.7236706
9605.84531987
9611.48669572
9617.64759938
9624.32689581
9631.52258135
9639.22973585
9647.44012792
9656.19364662
9665.48625457
7685.81282193
9575.87258674
9576.23272274
9577.21534294
9578.73173381
9580.75650252
9583.29246147
9586.34237464
9589.90843513
9593.99271495
9598.59736681
9603.72319221
9609.37166189
9615.54366381
9622.238469
9629.45455572
9637.18742713
9645.42966878
9654.22140358
9663.55770675
7647.66109298
9573.233436
9573.58914851
9574.56834792
9576.08104704
9578.10173965
9580.63355348
9583.67967651
9587.24287945
9591.32585116
9595.93122452
9601.06145277
9606.717893
9612.90262538
9619.615733
9626.85647974
9634.62100683
9642.90304228
9651.74363056
9661.13888484
7599.93878597
9570.06362164
9570.4147274
9571.38986589
9572.89766379
9574.91260874
9577.43832793
9580.47859335
9584.03686971
9588.11668045
9592.72152476
9597.85488648
9603.51915183
9609.71743376
9616.45092175
9623.71993068
9631.52155743
9639.85103124
9648.75122535
9658.22054091
7542.38304583
9566.36462753
9566.71041189
9567.68043842
9569.18171233
9571.18874772
9573.70581179
9576.73741239
9580.28786429
9584.3616886
9588.96348811
9594.09792515
9599.76873393
9605.98027322
9612.73512349
9620.03494703
9627.87812711
9636.26162015
9645.2311348
9654.7878516
7474.63876088
9562.13813758
9562.47759347
9563.44106216
9564.93368723
9566.93002887
9569.43511811
9572.45434624
9575.99304421
9580.05692289
9584.65188811
9589.78405204
9595.4587284
9601.6818274
9608.45761917
9615.78943447
9623.67724928
9632.11999372
9641.16717599
9650.82305045
7396.29828575
9557.3863607
9557.71824925
9558.67329986
9560.15457011
9562.13669024
9564.6255766
9567.62764956
9571.14943584
9575.19802449
9579.78088793
9584.90580896
9590.58001005
9596.81125015
9603.60582888
9610.9690951
9618.90294082
9627.4085541
9636.54022214
9646.30566207
7306.89720863
9552.11229336
9552.43515869
9553.37948153
9554.84602906
9556.809536
9559.27692673
9562.25580279
9565.75406695
9569.78041383
9574.34410826
9579.45493582
9585.12230038
9591.35619017
9598.16530276
9605.5573959
9613.53664006
9622.10681187
9631.32807184
9641.21211941
7205.90503542
9546.31996583
9546.63212702
9547.56291533
9549.01062389
9550.95013729
9553.38951481
9556.33769351
9559.80414779
9563.79939438
9568.33479507
9573.42240658
9579.07420933
9585.30279182
9592.1196796
9599.53548302
9607.55707088
9616.19120105
9625.50517787
9635.51537675
7092.71516259
9540.01470886
9540.31424292
9541.22813774
9542.65205053
9544.56107175
9546.96452403
9549.8728393
9553.29725806
9557.25037843
9561.745918
9566.79859791
9572.42331169
9578.63571795
9585.45064487
9592.88207215
9600.94006242
9609.63482958
9619.04231109
9629.18445721
6966.63333509
9533.20344988
9533.4881723
9534.38120366
9535.77542733
9537.6462044
9540.00424944
9542.86164706
9546.23160782
9550.12906043
9554.57043741
9559.57338074
9565.15625967
9571.33820115
9578.13792218
9585.57333829
9593.65832363
9602.40711584
9611.90606871
9622.18388887
6826.86446257
9525.895043
9526.16248877
9527.03001613
9528.38762352
9530.21101518
9532.51242661
9535.30572943
9538.60632946
9542.43178486
9546.80137954
9551.7364908
9557.25886726
9563.39207774
9570.15910424
9577.58272893
9585.68107795
9594.47333186
9604.05832248
9614.47294551
6672.4976622
9518.10063593
9518.34804509
9519.18469893
9520.49763515
9522.2630006
9524.49458676
9527.20827199
9530.42187552
9534.15565394
9538.4325441
9543.27718117
9548.71631339
9554.77768253
9561.48985092
9568.8807283
9576.97409792
9585.7943982
9595.45581057
9606.00520888
6502.48739194
9509.83406421
9510.05836752
9510.85800888
9512.1170335
9513.81198569
9515.95854851
9518.57456134
9521.68029697
9525.2994593
9529.45816549
9534.18575998
9539.51346035
9545.47469133
9552.10372546
9559.43522083
9567.49882745
9576.32597273
9586.04894498
9596.72703784
6315.6335532
9501.11228933
9501.31011744
9502.06578999
9503.260278
9504.87088313
9506.91483632
9509.41229618
9512.38624897
9515.863431
9519.87417209
9524.45236225
9529.63482962
9535.46102831
9541.9722413
9549.21053692
9557.21284598
9566.01839158
9575.78166148
9586.57724466
6110.55337032
9491.95587655
9492.12354994
9492.82743668
9493.94556968
9495.45582518
9497.37734465
9499.73240008
9502.54675335
9505.85056296
9509.67847128
9514.06939233
9519.06619084
9524.71522064
9531.06570883
9538.16844051
9546.06885297
9554.81552121
9564.58977222
9575.48495823
5885.6507174
9482.38944233
9482.5229952
9483.16646841
9484.19498058
9485.58712977
9487.36382414
9489.54948221
9492.17261153
9495.26694938
9498.87154079
9503.03072398
9507.79389747
9513.21514221
9519.35269119
9526.26751177
9534.01504033
9542.65480984
9552.4007539
9563.3690142
5639.0780407
9472.44226237
9472.53749024
9473.11104224
9474.03536877
9475.28975534
9476.89674665
9478.88278506
9481.279057
9484.12279977
9487.45754982
9491.33330137
9495.80645202
9500.93957054
9506.80105872
9513.46367467
9520.99463729
9529.46637151
9539.13246128
9550.13637613
5368.69156949
9462.14866441
9462.20117773
9462.69458689
9463.49886895
9464.59402005
9466.0039953
9467.75700285
9469.88666013
9472.43350261
9475.44546304
9478.97825089
9483.09557949
9487.86916938
9493.37874176
9499.71062329
9506.94590428
9515.17248006
9524.69283213
9535.68193276
5072.00187953
9451.54854568
9451.55385364
9451.95623601
9452.62350371
9453.53631624
9454.71969439
9456.20319984
9458.0224449
9460.2208499
9462.85041135
9465.9723545
9469.65777628
9473.98798643
9479.05503661
9484.96062852
9491.80204967
9499.68634467
9508.97858713
9519.8924182
4746.10957763
9440.68780352
9440.64142883
9440.94140951
9441.45380295
9442.15982945
9443.08508299
9444.25987495
9445.72113437
9447.51451538
9449.69536864
9452.32993225
9455.49632403
9459.28551375
9463.80253609
9469.1659804
9475.49137674
9482.90915607
9491.86838698
9502.6253854
4388.02399937
9429.61869251
9429.51631979
9429.70226943
9430.0413754
9430.5152571
9431.14941063
9431.97405361
9433.02651789
9434.35362146
9436.0130973
9438.07504182
9440.62380824
9443.75949648
9447.60014184
9452.2819399
9457.93914182
9464.72626297
9473.18656717
9474.86816043
4003.50285524
9418.40006936
9418.23773375
9418.29807318
9418.44536638
9418.66139789
9418.97069958
9419.40232301
9419.99280731
9420.78854254
9421.84822941
9423.24416279
9425.0653532
9427.41975191
9430.43755942
9434.27236263
9439.07631865
9445.02807856
9452.77379156
9432.07446983
3593.09373797
9407.09743862
9406.87173286
9406.7953216
9406.73276547
9406.66572781
9406.61671264
9406.6122873
9406.68631145
9406.88311305
9407.26005332
9407.88921205
9408.86211347
9410.29216281
9412.31991852
9415.1151323
9418.84633482
9423.71757914
9430.4711595
9367.05930509
3159.55469629
9395.78285615
9395.49120115
9395.26781003
9394.97853428
9394.60455859
9394.16509376
9393.68251743
9393.18618648
9392.71576009
9392.32421326
9392.08079212
9392.07568049
9392.42430845
9393.27443625
9394.80939177
9397.21182727
9400.72722469
9406.177371
9270.94443179
2707.35677973
9384.53444708
9384.17536056
9383.79625415
9383.26544929
9382.5632301
9381.704013
9380.70409791
9379.58593208
9378.38159436
9377.13614633
9375.91164277
9374.79223733
9373.89039269
9373.3560443
9373.38098169
9374.15938132
9375.99950101
9379.75557218
9134.00011403
2244.57102882
9373.43563105
9373.00904251
9372.46769312
9371.68362929
9370.63574962
9369.33202426
9367.78057275
9365.99420286
9363.99395004
9361.81271022
9359.4999512
9357.1275229
9354.79787033
9352.65550541
9350.8925619
9349.71155042
9349.49444279
9351.11097762
8943.37833658
1782.33253681
9362.57387352
9362.08152118
9361.37454385
9360.32967756
9358.92398785
9357.15734497
9355.02752481
9352.53474228
9349.68512181
9346.49426757
9342.99260626
9339.23170442
9335.29443945
9331.30875557
9327.45442256
9323.93433088
9321.20114169
9320.1398929
8683.85450675
1333.00202364
9352.03885518
9351.48510142
9350.61345931
9349.30534485
9347.53617186
9345.29634967
9342.57129768
9339.34558828
9335.60612264
9331.34551853
9326.56760394
9321.29393752
9315.57552582
9309.5082604
9303.24081713
9296.95807351
9291.15754725
9286.72174463
8339.55296244
911.506597287
9341.92004847
9341.31428609
9340.28396836
9338.71516261
9336.58422454
9333.87091661
9330.54659667
9326.57696423
9321.92526534
9316.5550068
9310.43509034
9303.54577994
9295.89130347
9287.5155511
9278.5113166
9269.0156234
9259.50401128
9250.81155717
7896.7997872
535.866137711
9332.31226478
9331.66594296
9330.48442011
9328.6616182
9326.17978519
9323.00456828
9319.09295931
9314.3879427
9308.82504595
9302.3326737
9294.83621198
9286.26219198
9276.55141363
9265.67172898
9253.63112005
9240.4842896
9226.55574291
9212.42052724
7347.8762563
212.851487289
9323.29116451
9322.63002203
9321.29732578
9319.23871926
9316.4310261
9312.81765378
9308.35026059
9302.94167958
9296.4973196
9288.90489073
9280.03894996
9269.75847579
9257.9252285
9244.4024025
9229.08084076
9211.91307824
9192.94944404
9171.33712036
6651.52304164
0.407633086628
9314.95598285
9314.26511909
9312.801156
9310.53364839
9307.43127069
9303.43115844
9298.45512217
9292.39939793
9285.1368198
9276.50578665
9266.33043562
9254.38107779
9240.43632849
9224.21581503
9205.44973552
9183.89906407
9159.06598299
9129.89694027
5760.13529057
-0.25702368305
9307.35457686
9306.64908734
9305.07674833
9302.63132606
9299.27955396
9294.94570972
9289.53097426
9282.90926981
9274.9199855
9265.36395035
9254.00847299
9240.48713523
9224.55094554
9205.70089392
9183.46933594
9157.30819651
9125.90734611
9070.32470813
4838.67783048
-0.445782829937
9300.52082775
9299.82838266
9298.17879855
9295.59485454
9292.04811854
9287.45047447
9281.68482105
9274.60186459
9266.01168926
9255.6756075
9243.29347286
9228.47460978
9210.76302916
9189.50330716
9164.01160035
9133.40450529
9095.52741116
8964.37586721
3976.55059736
-0.443935590674
9294.49007172
9293.83417976
9292.14046657
9289.46474852
9285.78677866
9281.0070757
9274.99287994
9267.57532805
9258.54007581
9247.61601753
9234.45590735
9218.60831939
9199.48253279
9176.27358514
9147.96583545
9113.42669327
9070.60537294
8818.19591656
3230.70751875
-0.399432537526
9289.27552632
9288.6768835
9286.97297797
9284.25653766
9280.51759603
9275.64615854
9269.49626187
9261.88410133
9252.57726499
9241.28323924
9227.62953341
9211.12023021
9191.07956106
9166.55256362
9136.18650943
9098.48381837
9053.3642402
8662.58476632
2649.6372075
-0.354199442261
9284.86672124
9284.34285743
9282.66277514
9279.95859914
9276.23235123
9271.36373029
9265.19504485
9257.53028576
9248.12458889
9236.68260449
9222.83496224
9206.08152906
9185.71397106
9160.69520881
9129.43818199
9089.44640747
9038.38635836
8552.20533267
2248.77189283
-0.357296932018
9281.22639499
9280.79230347
9279.16944081
9276.53100169
9272.89142796
9268.1197848
9262.04458651
9254.45805763
9245.1038404
9233.70382204
9219.93726511
9203.35306635
9183.29060412
9158.77779124
9128.31415128
9089.02220798
9038.06447036
8604.2714918
2122.62778684
-0.531575319451
9278.29415587
9277.96138617
9276.42725421
9273.90656343
9270.42542547
9265.83952965
9259.9586436
9252.5563502
9243.34595227
9232.10243592
9218.61431123
9202.53592136
9183.32545108
9160.22867086
9132.30250622
9097.29413112
9054.41891194
8862.43379654
2532.53759037
-1.50636103616
9275.99300983
9275.76732519
9274.34933934
9271.99498709
9268.73935438
9264.42141942
9258.81700767
9251.66446272
9242.58402111
9231.4808755
9218.34018359
9202.94144109
9184.88568664
9163.74952552
9139.54183104
9111.06538904
9079.41393478
9038.53454067
3630.84317744
3.53870683494
9274.2353882
9274.11461798
9272.83406035
9270.6887464
9267.72017718
9263.74602731
9258.48197028
9251.58762786
9242.42976603
9231.28195016
9218.41505279
9203.63170652
9186.60857833
9167.42677228
9147.45196489
9125.77732054
9104.33563065
9084.16050661
5116.03731711
75.239282965
9272.93019514
9272.90336399
9271.77367524
9269.87110056
9267.24488912
9263.69918313
9258.85946757
9252.19318927
9242.32053172
9230.74082072
9217.95153251
9203.28527028
9186.59803232
9169.21740485
9153.80890528
9137.36916612
9122.2869625
9114.0593167
6541.94972901
220.022862976
9271.99207721
9272.04006624
9271.06483511
9269.42506592
9267.18498346
9264.17980964
9260.00639187
9253.83690099
9242.26459583
9229.78546718
9216.98360849
9200.64084466
9180.47302894
9167.83246714
9157.77206765
9142.99024933
9127.29411695
9119.04007518
7669.60186072
141.968547121
9271.34825404
9271.44569336
9270.61196929
9269.22648758
9267.3529189
9264.67587275
9260.06773178
9251.36839625
9234.85826271
9227.79981872
9216.68812547
9197.8777783
9156.79037131
9167.14045395
9160.79610398
9140.45777898
9111.60488752
9067.71565077
9002.58790941
142.713424673
9270.95181564
9271.08070863
9270.38339692
9269.30778731
9268.14298564
9267.12123848
9266.29594493
9269.35695213
9087.36059731
9173.36904653
9166.50443914
9135.08745458
9079.3232197
8972.05569488
8699.84884171
601.335445346
9270.75484981
9270.89144366
9270.24884284
9269.24993176
9268.11896034
9266.99429935
9266.27878742
9267.31560059
9148.4841438
9187.9091631
9177.94523187
9137.03270594
9058.80738876
8865.7275124
8280.39933242
4387.30804909
9270.75348575
9270.89007729
9270.24747615
9269.24856303
9268.11757996
9266.99284122
9266.2771815
9267.31409084
9148.48322932
9187.90854571
9177.94473584
9137.03224374
9058.80665495
8865.72574382
8280.39596885
4387.31429594
9270.94773212
9271.0766206
9270.37931559
9269.30371763
9268.13891235
9267.11725407
9266.29169964
9269.35260154
9087.35764689
9173.36657465
9166.50268223
9135.08658615
9079.32251311
8972.05331235
8699.84434189
601.341511917
9271.34149295
9271.43893303
9270.60521928
9269.21976879
9267.34616812
9264.66889029
9260.06053838
9251.36064425
9234.84943373
9227.79101184
9216.6805548
9197.8718195
9156.78642243
9167.13736425
9160.79346704
9140.45618328
9111.60426055
9067.71386416
9002.5863579
142.714422734
9271.98269117
9272.03072208
9271.05558475
9269.41593186
9267.17592569
9264.17074108
9259.99721219
9253.82760721
9242.25496398
9229.77609198
9216.97534491
9200.63415109
9180.46767692
9167.82784671
9157.76864591
9142.98844433
9127.29309048
9119.03867273
7669.59914395
141.966315267
9272.91840031
9272.89164318
9271.76210918
9269.8597506
9267.2337542
9263.68824475
9258.84867285
9252.18250827
9242.31005392
9230.73088298
9217.94274487
9203.27828903
9186.59226363
9169.21224773
9153.8053935
9137.36695699
9122.28560451
9114.05809437
6541.9286146
220.019471703
9274.22152011
9274.1008447
9272.82052101
9270.67555481
9267.70742262
9263.73361189
9258.46990638
9251.57597153
9242.41866264
9231.27165175
9218.40598238
9203.62432236
9186.60268391
9167.42186944
9147.44912802
9125.77573619
9104.33443832
9084.15982918
5116.03034811
75.2386355507
9275.97753714
9275.75201463
9274.33435583
9271.98053131
9268.72557107
9264.40810187
9258.80417641
9251.65231142
9242.57261645
9231.47042231
9218.330969
9202.93377744
9184.87982124
9163.74555053
9139.54008348
9111.06403052
9079.41291941
9038.53424109
3630.84386107
3.53871450734
9278.27761887
9277.94506955
9276.41135825
9273.89129582
9270.41090118
9265.8258623
9259.94560512
9252.54409431
9243.33453689
9232.09204447
9218.60502409
9202.52814074
9183.31961845
9160.22522927
9132.30111763
9097.29294435
9054.41806259
8862.43548029
2532.54016146
-1.50636633318
9281.20950435
9280.77558802
9279.15313657
9276.51528246
9272.87649907
9268.10564119
9262.03149135
9254.44611765
9245.09267291
9233.69367588
9219.92787086
9203.34507224
9183.28449247
9158.77401004
9128.3127756
9089.02086736
9038.06380201
8604.2731516
2122.62963138
-0.531577303515
9284.85009874
9284.32639397
9282.6466207
9279.94297549
9276.21742873
9271.34979608
9265.1821426
9257.51848642
9248.11401783
9236.67294167
9222.82639592
9206.07447794
9185.70887777
9160.6920076
9129.4373181
9089.44525523
9038.38575972
8552.20708448
2248.77226605
-0.35729778786
9289.25968795
9288.66116082
9286.95748969
9284.24145297
9280.50312224
9275.63254492
9269.48372567
9261.87272815
9252.56701248
9241.27440641
9227.62158829
9211.1140259
9191.0749936
9166.54971044
9136.18548748
9098.48291549
9053.36368004
8662.58729405
2649.63744367
-0.354200070739
9294.47534607
9293.81951696
9292.12594231
9289.45049385
9285.7729902
9280.9939912
9274.98074296
9267.56436403
9258.53036082
9247.60762846
9234.44880199
9218.60279675
9199.47854852
9176.27095278
9147.96443757
9113.42555662
9070.60485278
8818.19893568
3230.70833483
-0.399432171478
9300.50733028
9299.81490155
9298.16536731
9295.58156446
9292.0351416
9287.43802867
9281.67317134
9274.59124706
9266.00227169
9255.66755973
9243.28665296
9228.46931066
9210.75907669
9189.50053658
9164.00968849
9133.40314613
9095.52673903
8964.37744563
3976.55252423
-0.44393401948
9307.34230154
9306.63679079
9305.06442844
9302.61902804
9299.26740658
9294.93391538
9289.51977897
9282.89893786
9274.91069221
9265.35607108
9254.0016934
9240.48168847
9224.5466153
9205.69758979
9183.46702137
9157.30655418
9125.90644024
9070.32510566
4838.68043654
-0.445779759687
9314.94485985
9314.25398007
9312.79001071
9310.52255517
9307.42032826
9303.42051744
9298.44498313
9292.38987263
9285.12796403
9276.49796622
9266.32358908
9254.37547592
9240.43154809
9224.21195336
9205.44707207
9183.89711758
9159.06482428
9129.89658467
5760.13811554
-0.257017638923
9323.28110386
9322.61995233
9321.28725569
9319.2286891
9316.42112287
9312.80798759
9308.34096543
9302.93283785
9296.48900388
9288.89725194
9280.03194362
9269.75268435
9257.92027824
9244.3981109
9229.0778663
9211.91087073
9192.94804395
9171.33655482
6651.52540833
0.407642178668
9332.30318315
9331.65686209
9330.47534262
9328.6525771
9326.17084537
9322.995815
9319.0844828
9314.37979133
9308.8172492
9302.32535012
9294.82933054
9286.25623582
9276.54609055
9265.66721338
9253.62792516
9240.48190374
9226.55415734
9212.41975377
7347.87787814
212.852171236
9341.91187465
9341.30611104
9340.27580056
9338.70703276
9336.57618473
9333.86302899
9330.53892244
9326.56952785
9321.91806736
9316.54814396
9310.42854543
9303.5400012
9295.88605683
9287.51098743
9278.50800866
9269.01312326
9259.50227125
9250.81060796
7896.80093193
535.867156541
9352.03150644
9351.47775295
9350.60612585
9349.29805709
9347.52897395
9345.28928971
9342.56441462
9339.33889211
9335.59959784
9331.33924139
9326.56156898
9321.28852686
9315.57056881
9309.50388919
9303.23763325
9296.95561342
9291.15580049
9286.72075803
8339.55362318
911.507958642
9362.56727553
9362.07492925
9361.36797879
9360.32317076
9358.9175787
9357.15107351
9355.02141526
9352.52879598
9349.67931686
9346.48865801
9342.98719745
9339.22678835
9335.2899003
9331.30471478
9327.45148402
9323.9320313
9321.19950222
9320.13894978
8683.85461142
1333.00359997
9373.42972854
9373.00315291
9372.46184179
9371.67784974
9370.63007843
9369.32649694
9367.77520924
9365.98898364
9363.98887869
9361.80780292
9359.49522358
9357.12316015
9354.79380349
9352.65184491
9350.88989607
9349.70943438
9349.49291249
9351.11006395
8943.37799966
1782.33416567
9384.52919987
9384.17013204
9383.79107297
9383.26035072
9382.55824866
9381.69918047
9380.69943642
9379.58142691
9378.37724745
9377.13193819
9375.90759984
9374.78843733
9373.88681985
9373.35278365
9373.37858201
9374.15744124
9375.99807192
9379.75467973
9133.9994928
2244.57259203
9395.77823522
9395.48660374
9395.2632671
9394.97407869
9394.60022436
9394.16091446
9393.67851651
9393.18237253
9392.71214714
9392.32067583
9392.07739908
9392.07244014
9392.42123871
9393.27158731
9394.80721133
9397.21001524
9400.72585381
9406.17646092
9270.94378882
2707.35809235
9407.09342233
9406.86774294
9406.79138914
9406.72892225
9406.66201049
9406.6131655
9406.6089269
9406.68318574
9406.88022597
9407.25708949
9407.88638489
9408.8594048
9410.28956612
9412.31746606
9415.11322681
9418.84474334
9423.71634173
9430.47029332
9367.05870515
3159.55575081
9418.39664105
9418.23433044
9418.29472795
9418.44211499
9418.65828257
9418.96776396
9419.39962332
9419.99028373
9420.78622451
9421.84589278
9423.24184273
9425.06309378
9427.41753631
9430.43542528
9434.27064827
9439.07497207
9445.02702049
9452.7730585
9432.07392892
3593.09439808
9429.6158574
9429.51351487
9429.69952004
9430.03870448
9430.51268917
9431.14696227
9431.97176231
9433.02438934
9434.3516327
9436.01117912
9438.07320357
9440.62205322
9443.75780456
9447.59852373
9452.28055365
9457.93801212
9464.72537846
9473.18594407
9474.86778135
4003.50331608
9440.68554404
9440.63919242
9440.93921943
9441.45168077
9442.15779853
9443.08315862
9444.2580623
9445.71945398
9447.51293625
9449.69387118
9452.32849838
9455.49494984
9459.28419973
9463.80130707
9469.16487742
9475.49048127
9482.90845291
9491.867906
9502.62514896
4388.02437715
9451.54684836
9451.55217638
9451.95459579
9452.62191513
9453.53479468
9454.71825172
9456.20184456
9458.02118242
9460.21967718
9462.84931531
9465.97133322
9469.65681296
9473.98707769
9479.05419489
9484.95986784
9491.80134406
9499.68578391
9508.97819739
9519.89222992
4746.10991603
9462.14749877
9462.20002845
9462.69346629
9463.4977881
9464.59298884
9466.00302267
9467.75609653
9469.88582568
9472.43273477
9475.4447641
9478.97761112
9483.09498727
9487.86861388
9493.37822418
9499.71013503
9506.94537302
9515.17204745
9524.69252836
9535.68178163
5072.00210793
9472.44158801
9472.5368274
9473.11039727
9474.03475649
9475.28918293
9476.89622131
9478.88231174
9481.2786406
9484.1224349
9487.45723842
9491.33302725
9495.80620491
9500.93932366
9506.80080308
9513.46338798
9520.99426136
9529.46604908
9539.13222186
9550.13624955
5368.69160478
9482.38921557
9482.52277374
9483.16624289
9484.19479698
9485.5869828
9487.36371547
9489.54941386
9492.17259048
9495.26696865
9498.87160196
9503.03081044
9507.79402907
9513.21523957
9519.35270576
9526.26740639
9534.01479806
9542.65457557
9552.40056099
9563.36889576
5639.07777826
9491.95605448
9492.12372994
9492.82763631
9493.94578912
9495.45606637
9497.37761684
9499.73272476
9502.54709511
9505.85095426
9509.67888378
9514.06998725
9519.06669577
9524.71563395
9531.06591651
9538.1684726
9546.06872269
9554.81535715
9564.58960779
9575.48483181
5885.64999486
9501.11287188
9501.31070505
9502.06636515
9503.26090011
9504.87146565
9506.91547877
9509.41297674
9512.38696754
9515.86412626
9519.87507461
9524.4531265
9529.63581285
9535.46164641
9541.97267391
9549.21059001
9557.21279854
9566.0181743
9575.78148169
9586.57706716
6110.55219878
9509.83498799
9510.05929029
9510.85893499
9512.11797769
9513.81292765
9515.95947862
9518.57554323
9521.68136789
9525.30048795
9529.45914565
9534.18709888
9539.51465065
9545.47563418
9552.10431772
9559.43553007
9567.49880349
9576.32578236
9586.04874086
9596.72683577
6315.63273989
9518.10183364
9518.34927985
9519.18589048
9520.49878492
9522.2641237
9524.49573851
9527.20946583
9530.42302721
9534.15681162
9538.43363721
9543.27843329
9548.71783339
9554.77888121
9561.49037388
9568.88103199
9576.97409323
9585.79426233
9595.45560445
9606.00498255
6502.48701445
9525.89643229
9526.16389499
9527.03137557
9528.38896919
9530.21236067
9532.51377408
9535.30708773
9538.60765828
9542.43301741
9546.8027942
9551.73766038
9557.26026618
9563.39324508
9570.15977508
9577.58309067
9585.68122657
9594.47332134
9604.05823298
9614.47282274
6672.49701933
9533.20500645
9533.4897321
9534.38273234
9535.77695285
9537.64773612
9540.00578826
9542.86318139
9546.23309375
9550.13050054
9554.57190286
9559.57493341
9565.1580523
9571.33928554
9578.13870703
9585.57386815
9593.65858026
9602.40721151
9611.90606822
9622.18382332
6826.86376054
9540.01641992
9540.31593885
9541.2298303
9542.65374659
9544.56277706
9546.96623723
9549.87454082
9553.2988999
9557.25198298
9561.74770948
9566.8000668
9572.42509497
9578.63691748
9585.45159523
9592.88276567
9600.94053139
9609.63512002
9619.04250059
9629.18456159
6966.63236748
9546.32182028
9546.63397762
9547.56476584
9549.01247953
9550.95200248
9553.39138444
9556.33954786
9559.80595167
9563.8013842
9568.33648367
9573.4241321
9579.07593284
9585.30408372
9592.12074978
9599.53634286
9607.55773212
9616.19166602
9625.50555161
9635.51563279
7092.71406123
9552.11429688
9552.43715931
9553.38148128
9554.84803141
9556.81154287
9559.27893188
9562.25779258
9565.7561381
9569.78232926
9574.34611436
9579.45682919
9585.12383652
9591.35754896
9598.16649307
9605.55839322
9613.53750468
9622.10744699
9631.32861671
9641.2125311
7205.9037737
9557.38850621
9557.72039047
9558.67543631
9560.15670266
9562.13881836
9564.62769356
9567.62977326
9571.15156028
9575.20005586
9579.78307748
9584.90731646
9590.58155595
9596.8126643
9603.60711634
9610.97023178
9618.90396971
9627.40935128
9636.54090897
9646.30619736
7306.89585806
9562.14041197
9562.47986089
9563.44331885
9564.93593075
9566.93225572
9569.43732085
9572.45654942
9575.99514808
9580.05901931
9584.65376542
9589.7855701
9595.46029089
9601.68328429
9608.4589826
9615.79068806
9623.67839699
9632.12096872
9641.16797676
9650.82368917
7396.29693474
9566.36701361
9566.71278782
9567.6827967
9569.18404668
9571.19105166
9573.70807422
9576.73963024
9580.29000356
9584.36365958
9588.96554002
9594.09952103
9599.77029919
9605.98175572
9612.7365475
9620.0362865
9627.87932308
9636.26266948
9645.23198361
9654.78851991
7474.63770427
9570.06610053
9570.41719305
9571.39230698
9572.90007021
9574.91497125
9577.44063325
9580.48082204
9584.03897817
9588.11859348
9592.72326278
9597.85640408
9603.52070965
9609.71893866
9616.45238499
9623.72134039
9631.52277063
9639.85213066
9648.75210409
9658.22123222
7542.38230306
9573.23598913
9573.59168569
9574.5708544
9576.08350928
9578.1041462
9580.63589093
9583.68191465
9587.24495477
9591.32773792
9595.93293113
9601.06290325
9606.7194472
9612.90413966
9619.61722505
9626.85793447
9634.62224003
9642.90416232
9651.74450125
9661.13956955
7599.93830897
9575.87519703
9576.23531491
9577.21789943
9578.73423832
9580.75894181
9583.29481828
9586.34460492
9589.91049493
9593.99466541
9598.59867552
9603.72474262
9609.37323026
9615.54519499
9622.23996469
9629.45603274
9637.18866799
9645.43072749
9654.22220893
9663.5583113
7647.66094414
9577.98245044
9578.34844664
9579.33438089
9580.85346308
9582.88086257
9585.4193423
9588.47136353
9592.03877266
9596.12288964
9600.72541459
9605.84703825
9611.48829566
9617.6491364
9624.32840212
9631.52403624
9639.23097295
9647.44108399
9656.19434164
9665.48673714
7685.8130308
9579.55613638
9579.93302779
9580.92267785
9582.44329779
9584.4719822
9587.01173739
9590.06482685
9593.63265025
9597.71641563
9602.31699286
9607.43466551
9613.06986475
9619.22172299
9625.88868286
9633.06838396
9640.75557482
9648.94089925
9657.66457393
9666.93250263
7714.54356941
9580.57712389
9580.96653913
9581.95708389
9583.47630228
9585.50463397
9588.04472348
9591.09835534
9594.66659621
9598.75011736
9603.34981927
9608.46545437
9614.09711051
9620.24359942
9626.90306552
9634.07291887
9641.74829789
9649.9204142
9658.63649255
9667.99857939
7737.39464649
9580.98591845
9581.37661284
9582.35731128
9583.86931923
9585.8965294
9588.4380709
9591.49421381
9595.06532225
9599.15211121
9603.75489698
9608.87358865
9614.50785491
9620.65631913
9627.31668377
9634.48520441
9642.15429101
9650.31569208
9658.98144614
9667.95584973
7739.28991449
)
;

boundaryField
{
    back
    {
        type            fixedFluxPressure;
        gradient        uniform 0;
        value           nonuniform List<scalar> 
1984
(
9580.9832284
9581.37394696
9582.35468979
9583.86676015
9585.89404999
9588.4357244
9591.49197571
9595.06326809
9599.15023262
9603.75295462
9608.87189239
9614.50632215
9620.65491566
9627.31541438
9634.48405027
9642.15328403
9650.31485563
9658.98084855
9667.95549786
7739.28941819
9580.57442929
9580.96386618
9581.9544534
9583.47373399
9585.50214571
9588.04236507
9591.09614135
9594.66442146
9598.74830492
9603.34777265
9608.46365956
9614.09543481
9620.24202964
9626.9015616
9634.07151388
9641.74701209
9649.91958325
9658.63589947
9667.99822408
7737.39425494
9579.55345549
9579.93036826
9580.92006011
9582.4407413
9584.46950466
9587.00938602
9590.06257896
9593.63063359
9597.71444821
9602.31507878
9607.43293208
9613.06823355
9619.22015869
9625.88718665
9633.06693476
9640.75427374
9648.94007759
9657.66398416
9666.93214122
7714.54317578
9577.97979822
9578.3458142
9579.33178772
9580.85092764
9582.87840019
9585.41698136
9588.46916427
9592.03661271
9596.12134302
9600.7236706
9605.84531987
9611.48669572
9617.64759938
9624.32689581
9631.52258135
9639.22973585
9647.44012792
9656.19364662
9665.48625457
7685.81282193
9575.87258674
9576.23272274
9577.21534294
9578.73173381
9580.75650252
9583.29246147
9586.34237464
9589.90843513
9593.99271495
9598.59736681
9603.72319221
9609.37166189
9615.54366381
9622.238469
9629.45455572
9637.18742713
9645.42966878
9654.22140358