/*--------------------------------*- C++ -*----------------------------------*\
| =========                 |                                                 |
| \\      /  F ield         | OpenFOAM: The Open Source CFD Toolbox           |
|  \\    /   O peration     | Version:  v2012                                 |
|   \\  /    A nd           | Website:  www.openfoam.com                      |
|    \\/     M anipulation  |                                                 |
\*---------------------------------------------------------------------------*/
FoamFile
{
    version     2.0;
    format      ascii;
    class       volVectorField;
    location    "3.9";
    object      ddtCorrDdt0(U);
}
// * * * * * * * * * * * * * * * * * * * * * * * * * * * * * * * * * * * * * //

dimensions      [0 1 -2 0 0 0 0];


internalField   nonuniform List<vector> 
167
(
(0.150569763205 0.0173015342221 4.76289525186e-23)
(0.153946870765 0.022627748868 2.49282959553e-23)
(0.158256122149 0.0282625978018 -4.3983356062e-24)
(0.163521719059 0.0343085875822 -3.55644832942e-24)
(0.169770798974 0.0408546923551 7.4698639184e-23)
(0.177008931709 0.048071833237 4.82482346884e-23)
(0.185286678429 0.0562340980392 6.55327642251e-24)
(0.194492532921 0.0648460492697 5.73440324961e-23)
(0.141071198086 0.00840267137205 1.7128010036e-23)
(0.142601648856 0.0142230023115 5.45758340275e-23)
(0.144900836491 0.020164577214 1.34533789682e-23)
(0.148003110317 0.0263528905977 1.95892123694e-23)
(0.151946665717 0.032863011607 -2.8626955178e-24)
(0.15674198752 0.0397960502335 -4.51570607154e-25)
(0.162387829758 0.0472592208471 -6.14458243919e-23)
(0.168925755958 0.0553556811267 -1.11800818992e-23)
(0.176312370174 0.064085590109 1.16823238373e-24)
(0.184400615487 0.0743321055106 -3.11805556906e-23)
(0.194040681593 0.0859517923841 -9.75041877096e-23)
(0.134965730294 0.00950798470196 -5.70683543438e-23)
(0.136359500941 0.0160809218508 -2.92977826267e-24)
(0.138455281453 0.0227871947465 -1.26661798316e-23)
(0.141263371495 0.0297392884287 1.03702558272e-23)
(0.14482361802 0.037029370499 8.3979924684e-24)
(0.149129031702 0.0447533946055 6.24912106874e-25)
(0.154177379543 0.0530277574407 1.06142092596e-24)
(0.159995486525 0.0619746766022 -2.25531051404e-23)
(0.166611335102 0.0716720042793 -2.04011657892e-25)
(0.17408555745 0.0825253995462 -1.46749227308e-23)
(0.181836829482 0.0946717903849 -1.41455036847e-23)
(0.128171179141 0.010509084471 -1.45332272865e-22)
(0.129428789062 0.0177595367945 -1.96939413086e-23)
(0.1313017886 0.0251429178238 -1.63203704151e-23)
(0.133811317642 0.0327789438753 3.13507920453e-24)
(0.136972857666 0.0407525881523 1.84673046435e-23)
(0.14077932355 0.0491544275311 -1.2899512255e-24)
(0.14522158956 0.0581210837909 3.01872845397e-23)
(0.150283529832 0.0677774491307 -3.7718251329e-23)
(0.155958822889 0.0781537855013 -2.40466079269e-24)
(0.162280015716 0.0895320369989 -7.01634886452e-24)
(0.119700088997 0.00398835180081 -1.31911002046e-22)
(0.120757209134 0.011408056774 -1.36157564159e-22)
(0.121864428275 0.019252489754 -9.47140844927e-25)
(0.123518863558 0.0272366851204 1.96184272879e-23)
(0.125728438389 0.0354627258822 2.47738363744e-23)
(0.128497468845 0.0440191544623 1.12377262701e-23)
(0.131812811164 0.0530065579952 -4.533077495e-24)
(0.135656306625 0.062526270038 -2.50483050275e-23)
(0.139977179846 0.0726998678314 5.0021942356e-23)
(0.144721932656 0.083649804381 -2.38748407309e-23)
(0.150084675628 0.0955141665573 -2.10071709816e-23)
(0.111835935979 0.00424477443079 3.1602910264e-23)
(0.112782906084 0.0121978696287 -5.14696646629e-23)
(0.113746998796 0.0205612163374 -2.47651639601e-24)
(0.115192280487 0.029068000716 2.69321521609e-24)
(0.117102532893 0.0378048227509 2.06009997798e-23)
(0.119496170493 0.0468556885211 1.13092643186e-24)
(0.122343316762 0.0563159546923 -1.1824950787e-23)
(0.125614946063 0.0662805782155 -1.1384391654e-23)
(0.129272977937 0.076832850697 -3.38691149153e-23)
(0.133271025137 0.0882444854873 -4.8160285923e-23)
(0.137595702745 0.10054171144 -2.90331217417e-23)
(0.103485418604 0.00447316640843 8.95681290129e-23)
(0.104310142441 0.0128877465915 -8.23458147472e-23)
(0.105146416776 0.0216977047019 -4.00079600803e-23)
(0.106387775332 0.030648032977 2.41927661399e-23)
(0.108021377043 0.0398107418881 1.89073641869e-23)
(0.110055263881 0.0492777767219 -1.17907612639e-23)
(0.112461424791 0.0591288393088 -1.61001551144e-24)
(0.115200961817 0.0694526626539 -2.33343391581e-23)
(0.118232336435 0.08034651777 -1.70125383056e-23)
(0.12152585341 0.0919633593626 -1.63135191498e-24)
(0.0946976523976 0.00465619379073 -2.55976057845e-23)
(0.0954236417128 0.0134669078959 -5.08015407219e-23)
(0.096131734478 0.022671325463 -4.12915020738e-23)
(0.0971782461019 0.0319941097297 2.22373660898e-23)
(0.0985563189549 0.0415127712329 2.67154005131e-23)
(0.100258367606 0.051312692919 -8.98819185786e-24)
(0.102253144145 0.0614665581118 -6.72158086613e-24)
(0.104491326219 0.0720511468445 4.11068378445e-24)
(0.106930103677 0.0831548406546 -2.33274539018e-23)
(0.085529071607 0.00482688783837 -9.97297398331e-23)
(0.0861900838366 0.0139708662394 -1.27807745253e-22)
(0.0867722651582 0.0234827036067 -8.37559488698e-23)
(0.0876411417872 0.0331194694293 -9.05381237836e-25)
(0.0887794929598 0.0429282650653 3.85030070245e-23)
(0.0901786481348 0.052992259417 8.73794509374e-24)
(0.0917936134057 0.0633686366561 -2.93974507061e-23)
(0.0935880113764 0.0741322517547 -4.00274480779e-23)
(0.0955027094342 0.0853528374651 -1.60520905029e-23)
(0.0760754393222 0.0049823566177 -1.91762173776e-23)
(0.0766407909888 0.0144005134007 6.20099043615e-23)
(0.0771180881532 0.0241501138837 5.4282236122e-23)
(0.0778281341261 0.0340447592918 1.09103682737e-23)
(0.078752898443 0.0440858942768 3.16774452796e-23)
(0.0798758918602 0.0543444984083 1.68949307542e-23)
(0.081161743497 0.0648849790818 2.39848457772e-24)
(0.0825682757132 0.075766241481 -4.29723478052e-23)
(0.0840377237931 0.0870384879968 2.7468548411e-23)
(0.0855003903717 0.0987492155575 2.48248250626e-25)
(0.0663840431929 0.00510332252432 7.43903423876e-23)
(0.0668341372591 0.0147434458391 -5.82307445153e-23)
(0.067225645726 0.024696657625 -3.02452846702e-23)
(0.067796185902 0.0347942047414 6.90055253735e-24)
(0.0685307537833 0.0450090864438 5.30747785328e-23)
(0.0694136601217 0.0554188095936 1.888453566e-23)
(0.0704171301563 0.0660727895119 4.76889750423e-24)
(0.0714840937759 0.077018261593 -9.09820147963e-24)
(0.0725751405821 0.0882935659272 -4.13127392974e-24)
(0.0736231764735 0.0999337304206 -2.25503887469e-23)
(0.0564813836542 0.00518875180224 1.0656035494e-22)
(0.05681982747 0.0150104012976 2.00849016474e-23)
(0.0571526109195 0.0251384126389 3.94066925455e-23)
(0.0575968737489 0.0353866080028 2.82080976563e-23)
(0.0581619928501 0.0457346113842 2.51045151967e-23)
(0.0588400016177 0.0562497599369 1.95543632354e-23)
(0.0595930416629 0.0669696212563 5.15365352664e-24)
(0.0603782633964 0.077940414506 6.55155597822e-24)
(0.0611411334643 0.0891948717969 7.89715888349e-24)
(0.0618347571695 0.100760813341 -7.35073920056e-24)
(0.0463948738347 0.00524420270915 4.78391336533e-23)
(0.0466710512547 0.0152210758261 -4.04218713098e-23)
(0.0469288978724 0.0254997121805 4.28253732598e-23)
(0.0472643033945 0.0358388283764 2.18141587406e-23)
(0.0476854889609 0.0462845307739 3.83522178283e-23)
(0.0481849150376 0.0568723279503 9.44909707965e-24)
(0.0487256582233 0.0676292813374 1.17275195725e-23)
(0.0492720002659 0.0785867923042 -5.79123934663e-25)
(0.0497590436688 0.0897740794997 -8.86132398168e-24)
(0.0501302488017 0.101226703647 3.05029158991e-23)
(0.0361698270647 0.00530647428395 -1.90331457685e-23)
(0.0364197885421 0.0153865759114 -1.76240200396e-22)
(0.0365851311255 0.0257602748626 -6.69436905877e-23)
(0.0368281178967 0.0361806284393 6.25035031849e-23)
(0.0371281544003 0.046689969924 9.2536758096e-23)
(0.0374771628177 0.0573163194953 1.29644672584e-23)
(0.0378409706705 0.0680818466377 7.22235555965e-23)
(0.0381862106845 0.0790003312504 -3.43942891497e-23)
(0.0384569367424 0.0900804531549 -6.26732769621e-23)
(0.0385819367236 0.101358556603 7.3172066635e-23)
(0.025824972374 0.00535497314343 -1.00465822877e-22)
(0.0260418106948 0.0155012130779 -1.94585826502e-23)
(0.0261468958842 0.0259323939897 -4.82636537042e-23)
(0.0262997727073 0.0364170435409 4.93784640627e-23)
(0.0264905736599 0.046962089117 3.22642655142e-24)
(0.0267099416045 0.0576027505644 7.24790368088e-23)
(0.0269379926413 0.0683530856306 -1.34460323079e-23)
(0.0271322945466 0.079217456137 1.11259155814e-22)
(0.0272469925505 0.0901854233572 -2.5229429432e-23)
(0.0154039996689 0.00537560359547 3.37545780366e-23)
(0.0156286974304 0.0155653554718 -3.49227537796e-23)
(0.0156760969298 0.0260157823025 4.06628337431e-23)
(0.0157423116683 0.0365356536417 3.85789704483e-23)
(0.0158477765431 0.0470983782209 2.29043145322e-25)
(0.0159829628476 0.0577451053963 1.47260518012e-23)
(0.0161177552898 0.0684757391213 -5.98741499711e-24)
(0.0162147524391 0.0792746079993 -3.32230180544e-24)
(0.0162444188468 0.0901265228602 2.5148224101e-23)
(0.00522499644548 0.00521611967025 5.98295872095e-23)
(0.00539033809614 0.0154024692382 3.31089699314e-23)
(0.00540995911037 0.0259031270853 3.1046461467e-23)
(0.00542125310802 0.0364227302555 1.68113168098e-23)
(0.00545131985504 0.0469787755339 -1.69516552917e-23)
(0.00550466407784 0.0575840020004 -5.79226094792e-23)
(0.00555140766248 0.0682354676513 -2.27805921523e-24)
(0.00558229519562 0.0789358333304 -1.85888870539e-23)
(0.00559076842678 0.0896488353061 -5.15878988477e-23)
)
;

boundaryField
{
    back
    {
        type            calculated;
        value           uniform (0 0 0);
    }
    sides
    {
        type            calculated;
        value           uniform (0 0 0);
    }
    bottom
    {
        type            calculated;
        value           uniform (0 0 0);
    }
    front
    {
        type            calculated;
        value           uniform (0 0 0);
    }
    atmosphere
    {
        type            calculated;
        value           nonuniform List<vector> 0();
    }
    floatingObject
    {
        type            calculated;
        value           nonuniform List<vector> 0();
    }
    procBoundary10to9
    {
        type            processor;
        value           nonuniform List<vector> 
15
(
(0.155368471638 0.0142047989819 4.09021249266e-24)
(0.158989288771 0.0185999889342 5.22014211114e-23)
(0.163627282741 0.0232617606975 3.03746713765e-23)
(0.169319199523 0.0282773138638 -3.62780199003e-24)
(0.176121737487 0.0337788579874 -3.13935176999e-23)
(0.184073938495 0.0398541790358 6.54352469844e-23)
(0.193295706291 0.0466223125489 5.80324589433e-23)
(0.204004724223 0.0540547102211 5.94499287847e-26)
(0.146404135759 0.00718430776865 -8.51127616073e-23)
(0.148074272878 0.0121962807033 2.2134817186e-23)
(0.148074272878 0.0121962807033 2.2134817186e-23)
(0.139668920204 0.00301761637579 2.7017016291e-23)
(0.13368594348 0.00337566642292 -3.36534562529e-23)
(0.127005015161 0.00369682588641 -1.11082978463e-23)
(0.127005015161 0.00369682588641 -1.11082978463e-23)
)
;
    }
    procBoundary10to11
    {
        type            processor;
        value           nonuniform List<vector> 
23
(
(0.205582136584 0.0748471339271 -6.14002746007e-23)
(0.205582136584 0.0748471339271 -6.14002746007e-23)
(0.204267366503 0.0987345220234 6.27232406302e-23)
(0.190193945724 0.108150101 9.42863037774e-23)
(0.16896864695 0.102041190267 -1.06662225069e-22)
(0.16896864695 0.102041190267 -1.06662225069e-22)
(0.155751112561 0.108375578331 -7.97393926602e-23)
(0.142199176399 0.113783668214 1.76183782778e-23)
(0.124860426777 0.104432330058 1.96937615597e-22)
(0.124860426777 0.104432330058 1.96937615597e-22)
(0.109495331661 0.0948707904569 3.92575035324e-23)
(0.109495331661 0.0948707904569 3.92575035324e-23)
(0.0974655474593 0.0970996360402 -2.81297560182e-23)
(0.0974655474593 0.0970996360402 -2.81297560182e-23)
(0.0868607057298 0.110924995318 -7.58782203321e-23)
(0.0745793186101 0.111962440524 -2.41253359353e-23)
(0.0624166691173 0.112691900683 -1.93795680828e-23)
(0.0503327525121 0.113006394602 -2.14527185345e-23)
(0.038458952968 0.11288217385 1.16330475656e-23)
(0.0272195022368 0.101240691494 3.47075561408e-23)
(0.0272195022368 0.101240691494 3.47075561408e-23)
(0.0161508636707 0.100988043083 4.32513757078e-23)
(0.00554731593812 0.100297568816 -5.55385976738e-23)
)
;
    }
}


// ************************************************************************* //
