/*--------------------------------*- C++ -*----------------------------------*\
| =========                 |                                                 |
| \\      /  F ield         | OpenFOAM: The Open Source CFD Toolbox           |
|  \\    /   O peration     | Version:  v2012                                 |
|   \\  /    A nd           | Website:  www.openfoam.com                      |
|    \\/     M anipulation  |                                                 |
\*---------------------------------------------------------------------------*/
FoamFile
{
    version     2.0;
    format      ascii;
    class       volScalarField;
    location    "3.9";
    object      p;
}
// * * * * * * * * * * * * * * * * * * * * * * * * * * * * * * * * * * * * * //

dimensions      [1 -1 -2 0 0 0 0];


internalField   nonuniform List<scalar> 
167
(
6877.14739588
6386.64388978
5895.89497123
5404.88291787
4913.58417222
4421.96849546
3929.99623208
3437.61792389
7850.32681424
7360.19163432
6869.78360411
6379.09437524
5888.10883825
5396.80639406
4905.1601597
4413.1358334
3920.68923044
3427.76237828
2934.28110418
7843.44733716
7353.22845315
6862.69386969
6371.83371393
5880.63147146
5389.06471575
4897.10451707
4404.71401833
3911.84645007
3418.43880354
2924.41434926
7836.86879808
7346.57383342
6855.92407438
6364.90916491
5873.51186604
5381.70889812
4889.47047724
4396.75916072
3903.52734026
3409.71460251
8320.61192534
7830.63164362
7340.26779863
6849.51493343
6358.36229768
5866.79242969
5374.78216303
4882.30206721
4389.31548975
3895.77710631
3401.63109799
8314.78123289
7824.76992383
7334.34546053
6843.50192065
6352.22883954
5860.50914759
5368.32032886
4875.63413154
4382.4163089
3888.62482356
3394.21256908
8309.352287
7819.31387272
7328.83707196
6837.91540956
6346.5389484
5854.69153261
5362.35178268
4869.49333194
4376.08416399
3882.08801588
8304.35089002
7814.2900055
7323.76875136
6832.78089935
6341.31746028
5849.36328843
5356.89854008
4863.89880924
4370.33502579
8299.80029979
7809.72014022
7319.16196952
6828.1193696
6336.58432835
5844.54295226
5351.97712687
4858.86446161
4365.17891834
8295.71900051
7805.62254916
7315.03450469
6823.94769076
6332.35517245
5840.24451331
5347.59943599
4854.39995972
4360.62214686
3866.23868836
8292.12149803
7802.01240178
7311.40071736
6820.27903818
6328.6417372
5836.47791703
5343.77335325
4850.51045449
4356.66804178
3862.22131015
8289.01982507
7798.9016191
7308.27153749
6817.12322848
6325.45229806
5833.24951656
5340.50275571
4847.19727945
4353.31535518
3858.83583091
8286.42376669
7796.2991812
7305.65496278
6814.48724216
6322.79216346
5830.56232942
5337.7879331
4844.45742393
4350.55729104
3856.07101747
8284.34074337
7794.21107445
7303.55725561
6812.37583798
6320.66432824
5828.41697504
5335.62632337
4842.28424906
4348.38111912
3853.9076386
8282.77594676
7792.64260644
7301.98265774
6810.79210102
6319.07011173
5826.81237279
5334.01352927
4840.66835423
4346.77174671
8281.73489339
7791.60003258
7300.93618892
6809.74034051
6318.01231482
5825.74890008
5332.94654141
4839.60228217
4345.71437299
8281.22033388
7791.08431674
7300.41771938
6809.21968765
6317.48898402
5825.22290447
5332.41926452
4839.07604788
4345.19423461
)
;

boundaryField
{
    back
    {
        type            calculated;
        value           nonuniform List<scalar> 
167
(
6877.14739588
6386.64388978
5895.89497123
5404.88291787
4913.58417222
4421.96849546
3929.99623208
3437.61792389
7850.32681424
7360.19163432
6869.78360411
6379.09437524
5888.10883825
5396.80639406
4905.1601597
4413.1358334
3920.68923044
3427.76237828
2934.28110418
7843.44733716
7353.22845315
6862.69386969
6371.83371393
5880.63147146
5389.06471575
4897.10451707
4404.71401833
3911.84645007
3418.43880354
2924.41434926
7836.86879808
7346.57383342
6855.92407438
6364.90916491
5873.51186604
5381.70889812
4889.47047724
4396.75916072
3903.52734026
3409.71460251
8320.61192534
7830.63164362
7340.26779863
6849.51493343
6358.36229768
5866.79242969
5374.78216303
4882.30206721
4389.31548975
3895.77710631
3401.63109799
8314.78123289
7824.76992383
7334.34546053
6843.50192065
6352.22883954
5860.50914759
5368.32032886
4875.63413154
4382.4163089
3888.62482356
3394.21256908
8309.352287
7819.31387272
7328.83707196
6837.91540956
6346.5389484
5854.69153261
5362.35178268
4869.49333194
4376.08416399
3882.08801588
8304.35089002
7814.2900055
7323.76875136
6832.78089935
6341.31746028
5849.36328843
5356.89854008
4863.89880924
4370.33502579
8299.80029979
7809.72014022
7319.16196952
6828.1193696
6336.58432835
5844.54295226
5351.97712687
4858.86446161
4365.17891834
8295.71900051
7805.62254916
7315.03450469
6823.94769076
6332.35517245
5840.24451331
5347.59943599
4854.39995972
4360.62214686
3866.23868836
8292.12149803
7802.01240178
7311.40071736
6820.27903818
6328.6417372
5836.47791703
5343.77335325
4850.51045449
4356.66804178
3862.22131015
8289.01982507
7798.9016191
7308.27153749
6817.12322848
6325.45229806
5833.24951656
5340.50275571
4847.19727945
4353.31535518
3858.83583091
8286.42376669
7796.2991812
7305.65496278
6814.48724216
6322.79216346
5830.56232942
5337.7879331
4844.45742393
4350.55729104
3856.07101747
8284.34074337
7794.21107445
7303.55725561
6812.37583798
6320.66432824
5828.41697504
5335.62632337
4842.28424906
4348.38111912
3853.9076386
8282.77594676
7792.64260644
7301.98265774
6810.79210102
6319.07011173
5826.81237279
5334.01352927
4840.66835423
4346.77174671
8281.73489339
7791.60003258
7300.93618892
6809.74034051
6318.01231482
5825.74890008
5332.94654141
4839.60228217
4345.71437299
8281.22033388
7791.08431674
7300.41771938
6809.21968765
6317.48898402
5825.22290447
5332.41926452
4839.07604788
4345.19423461
)
;
    }
    sides
    {
        type            calculated;
        value           nonuniform List<scalar> 9(8281.22033388 7791.08431674 7300.41771938 6809.21968765 6317.48898402 5825.22290447 5332.41926452 4839.07604788 4345.19423461);
    }
    bottom
    {
        type            calculated;
        value           nonuniform List<scalar> 
13
(
8565.42118319
8559.59031356
8554.16132503
8549.1598951
8544.60925926
8540.52789602
8536.93031269
8533.82854802
8531.23239662
8529.14929756
8527.58440897
8526.54330391
8526.02881679
)
;
    }
    front
    {
        type            calculated;
        value           nonuniform List<scalar> 
167
(
6877.14739588
6386.64388978
5895.89497123
5404.88291787
4913.58417222
4421.96849546
3929.99623208
3437.61792389
7850.32681424
7360.19163432
6869.78360411
6379.09437524
5888.10883825
5396.80639406
4905.1601597
4413.1358334
3920.68923044
3427.76237828
2934.28110418
7843.44733716
7353.22845315
6862.69386969
6371.83371393
5880.63147146
5389.06471575
4897.10451707
4404.71401833
3911.84645007
3418.43880354
2924.41434926
7836.86879808
7346.57383342
6855.92407438
6364.90916491
5873.51186604
5381.70889812
4889.47047724
4396.75916072
3903.52734026
3409.71460251
8320.61192534
7830.63164362
7340.26779863
6849.51493343
6358.36229768
5866.79242969
5374.78216303
4882.30206721
4389.31548975
3895.77710631
3401.63109799
8314.78123289
7824.76992383
7334.34546053
6843.50192065
6352.22883954
5860.50914759
5368.32032886
4875.63413154
4382.4163089
3888.62482356
3394.21256908
8309.352287
7819.31387272
7328.83707196
6837.91540956
6346.5389484
5854.69153261
5362.35178268
4869.49333194
4376.08416399
3882.08801588
8304.35089002
7814.2900055
7323.76875136
6832.78089935
6341.31746028
5849.36328843
5356.89854008
4863.89880924
4370.33502579
8299.80029979
7809.72014022
7319.16196952
6828.1193696
6336.58432835
5844.54295226
5351.97712687
4858.86446161
4365.17891834
8295.71900051
7805.62254916
7315.03450469
6823.94769076
6332.35517245
5840.24451331
5347.59943599
4854.39995972
4360.62214686
3866.23868836
8292.12149803
7802.01240178
7311.40071736
6820.27903818
6328.6417372
5836.47791703
5343.77335325
4850.51045449
4356.66804178
3862.22131015
8289.01982507
7798.9016191
7308.27153749
6817.12322848
6325.45229806
5833.24951656
5340.50275571
4847.19727945
4353.31535518
3858.83583091
8286.42376669
7796.2991812
7305.65496278
6814.48724216
6322.79216346
5830.56232942
5337.7879331
4844.45742393
4350.55729104
3856.07101747
8284.34074337
7794.21107445
7303.55725561
6812.37583798
6320.66432824
5828.41697504
5335.62632337
4842.28424906
4348.38111912
3853.9076386
8282.77594676
7792.64260644
7301.98265774
6810.79210102
6319.07011173
5826.81237279
5334.01352927
4840.66835423
4346.77174671
8281.73489339
7791.60003258
7300.93618892
6809.74034051
6318.01231482
5825.74890008
5332.94654141
4839.60228217
4345.71437299
8281.22033388
7791.08431674
7300.41771938
6809.21968765
6317.48898402
5825.22290447
5332.41926452
4839.07604788
4345.19423461
)
;
    }
    atmosphere
    {
        type            calculated;
        value           nonuniform List<scalar> 0();
    }
    floatingObject
    {
        type            calculated;
        value           nonuniform List<scalar> 0();
    }
    procBoundary10to9
    {
        type            processor;
        value           nonuniform List<scalar> 
15
(
6884.7313372
6394.42703825
5903.9323928
5413.23338525
4922.31152973
4431.14212067
3939.69327221
3447.9219706
7857.45984098
7367.41633782
7367.41633782
8340.19030268
8333.3539515
8326.81467321
8326.81467321
)
;
    }
    procBoundary10to11
    {
        type            processor;
        value           nonuniform List<scalar> 
23
(
2944.76541717
2944.76541717
2440.15173394
2429.67120976
2915.24581123
2915.24581123
2906.8102865
2899.12356696
3387.46369374
3387.46369374
3876.17489308
3876.17489308
3870.89025152
3870.89025152
3371.2174458
3367.14029882
3363.73294381
3360.98061707
3358.85383269
3852.32077003
3852.32077003
3851.28541261
3850.77950798
)
;
    }
}


// ************************************************************************* //
