/*--------------------------------*- C++ -*----------------------------------*\
| =========                 |                                                 |
| \\      /  F ield         | OpenFOAM: The Open Source CFD Toolbox           |
|  \\    /   O peration     | Version:  v2012                                 |
|   \\  /    A nd           | Website:  www.openfoam.com                      |
|    \\/     M anipulation  |                                                 |
\*---------------------------------------------------------------------------*/
FoamFile
{
    version     2.0;
    format      ascii;
    class       volScalarField;
    location    "2";
    object      ddt0(k);
}
// * * * * * * * * * * * * * * * * * * * * * * * * * * * * * * * * * * * * * //

dimensions      [0 2 -3 0 0 0 0];


internalField   nonuniform List<scalar> 
164
(
-0.00467427257806
-0.00574614289366
-0.00600411691964
-0.00606438237173
-0.00607672149763
-0.00608159765872
-0.00608677502718
-0.00609304855203
-0.00467395821761
-0.00575212706931
-0.00601471399498
-0.00607706572658
-0.00608998400352
-0.00609486467994
-0.00609985459595
-0.00610583408767
-0.00467379002572
-0.00575687806428
-0.00602440890133
-0.00608928632079
-0.0061030269803
-0.00610802959025
-0.00611289860479
-0.00611861859404
-0.00612504636718
-0.00613183732905
-0.0046741366825
-0.00576032516562
-0.00603302780702
-0.00610088666587
-0.00611573172937
-0.00612099452324
-0.00612582990229
-0.00613137561845
-0.0061375013168
-0.00614375348724
-0.00467419113205
-0.00576244102417
-0.00604043406852
-0.00611171351474
-0.00612795891078
-0.00613364723596
-0.0061385609398
-0.0061440450375
-0.00614997011117
-0.00615581406644
-0.00467383524269
-0.00576289760801
-0.00604645299694
-0.00612157158705
-0.00613952855139
-0.00614584170098
-0.00615099590392
-0.00615656389334
-0.00616243015485
-0.00616801082772
-0.00467278341096
-0.00576156943702
-0.00605082502626
-0.00613019793167
-0.00615019799639
-0.00615736250558
-0.00616293833903
-0.00616876874227
-0.00617476630202
-0.00618035322157
-0.00467106485092
-0.0057581896529
-0.00605324061779
-0.00613729448043
-0.00615969916963
-0.0061679804437
-0.0061741797916
-0.00618044957268
-0.00618681458172
-0.00619265435215
-0.00466836907021
-0.00575249722644
-0.00605334889717
-0.00614247793883
-0.00616767705469
-0.00617738028619
-0.00618447593427
-0.0061914983028
-0.00619851170741
-0.00620480732152
-0.00466456145703
-0.0057441653284
-0.00605077055258
-0.0061453303027
-0.00617373283054
-0.00618519397553
-0.00619349647505
-0.00620160655715
-0.00620962247185
-0.00621682294613
-0.00465927703577
-0.00573287840173
-0.00604509533026
-0.00614537092534
-0.00617739858654
-0.00619103286922
-0.00620089601894
-0.00621044057349
-0.00621992443368
-0.00622852629152
-0.0046523673235
-0.00571840875089
-0.00603591561727
-0.00614215862297
-0.00617822159134
-0.0061944162501
-0.00620625525175
-0.00621769696977
-0.00622921625365
-0.00624016271944
-0.00464306977804
-0.00570035747159
-0.00602283637583
-0.00613516623256
-0.00617564411925
-0.00619479385169
-0.00620900418882
-0.0062228289175
-0.00623683256609
-0.00625039705246
-0.00463127125146
-0.00567848850189
-0.00600541340578
-0.00612389403774
-0.00616906948373
-0.00619160941357
-0.00620871715513
-0.00622543191888
-0.00624261249234
-0.00625960465332
-0.00461649626482
-0.00565263948846
-0.00598340628103
-0.00610788031521
-0.00615801972623
-0.00618435568062
-0.00620483669732
-0.00622509510484
-0.00624638177202
-0.00626804101754
-0.00459881386181
-0.00562288418011
-0.00595675268365
-0.00608683072707
-0.0061420019378
-0.00617240391576
-0.00619667514716
-0.00622119732721
-0.00624784846743
-0.00627611177037
-0.00457746011291
-0.00558927627966
-0.00592549441851
-0.00606071247681
-0.00612073409105
-0.00615533575773
-0.00618382536142
-0.00609420943387
)
;

boundaryField
{
    back
    {
        type            calculated;
        value           nonuniform List<scalar> 
164
(
-0.00467427257806
-0.00574614289366
-0.00600411691964
-0.00606438237173
-0.00607672149763
-0.00608159765872
-0.00608677502718
-0.00609304855203
-0.00467395821761
-0.00575212706931
-0.00601471399498
-0.00607706572658
-0.00608998400352
-0.00609486467994
-0.00609985459595
-0.00610583408767
-0.00467379002572
-0.00575687806428
-0.00602440890133
-0.00608928632079
-0.0061030269803
-0.00610802959025
-0.00611289860479
-0.00611861859404
-0.00612504636718
-0.00613183732905
-0.0046741366825
-0.00576032516562
-0.00603302780702
-0.00610088666587
-0.00611573172937
-0.00612099452324
-0.00612582990229
-0.00613137561845
-0.0061375013168
-0.00614375348724
-0.00467419113205
-0.00576244102417
-0.00604043406852
-0.00611171351474
-0.00612795891078
-0.00613364723596
-0.0061385609398
-0.0061440450375
-0.00614997011117
-0.00615581406644
-0.00467383524269
-0.00576289760801
-0.00604645299694
-0.00612157158705
-0.00613952855139
-0.00614584170098
-0.00615099590392
-0.00615656389334
-0.00616243015485
-0.00616801082772
-0.00467278341096
-0.00576156943702
-0.00605082502626
-0.00613019793167
-0.00615019799639
-0.00615736250558
-0.00616293833903
-0.00616876874227
-0.00617476630202
-0.00618035322157
-0.00467106485092
-0.0057581896529
-0.00605324061779
-0.00613729448043
-0.00615969916963
-0.0061679804437
-0.0061741797916
-0.00618044957268
-0.00618681458172
-0.00619265435215
-0.00466836907021
-0.00575249722644
-0.00605334889717
-0.00614247793883
-0.00616767705469
-0.00617738028619
-0.00618447593427
-0.0061914983028
-0.00619851170741
-0.00620480732152
-0.00466456145703
-0.0057441653284
-0.00605077055258
-0.0061453303027
-0.00617373283054
-0.00618519397553
-0.00619349647505
-0.00620160655715
-0.00620962247185
-0.00621682294613
-0.00465927703577
-0.00573287840173
-0.00604509533026
-0.00614537092534
-0.00617739858654
-0.00619103286922
-0.00620089601894
-0.00621044057349
-0.00621992443368
-0.00622852629152
-0.0046523673235
-0.00571840875089
-0.00603591561727
-0.00614215862297
-0.00617822159134
-0.0061944162501
-0.00620625525175
-0.00621769696977
-0.00622921625365
-0.00624016271944
-0.00464306977804
-0.00570035747159
-0.00602283637583
-0.00613516623256
-0.00617564411925
-0.00619479385169
-0.00620900418882
-0.0062228289175
-0.00623683256609
-0.00625039705246
-0.00463127125146
-0.00567848850189
-0.00600541340578
-0.00612389403774
-0.00616906948373
-0.00619160941357
-0.00620871715513
-0.00622543191889
-0.00624261249234
-0.00625960465332
-0.00461649626482
-0.00565263948846
-0.00598340628103
-0.00610788031521
-0.00615801972623
-0.00618435568062
-0.00620483669732
-0.00622509510484
-0.00624638177202
-0.00626804101754
-0.00459881386181
-0.00562288418011
-0.00595675268365
-0.00608683072707
-0.0061420019378
-0.00617240391576
-0.00619667514716
-0.00622119732722
-0.00624784846743
-0.00627611177037
-0.00457746011291
-0.00558927627966
-0.00592549441851
-0.00606071247681
-0.00612073409105
-0.00615533575773
-0.00618382536142
-0.00609420943387
)
;
    }
    sides
    {
        type            calculated;
        value           nonuniform List<scalar> 0();
    }
    bottom
    {
        type            calculated;
        value           nonuniform List<scalar> 
17
(
-0.00467427257806
-0.00467395821761
-0.00467379002572
-0.0046741366825
-0.00467419113205
-0.00467383524269
-0.00467278341096
-0.00467106485092
-0.00466836907021
-0.00466456145703
-0.00465927703577
-0.0046523673235
-0.00464306977804
-0.00463127125146
-0.00461649626482
-0.00459881386181
-0.00457746011291
)
;
    }
    front
    {
        type            calculated;
        value           nonuniform List<scalar> 
164
(
-0.00467427257806
-0.00574614289366
-0.00600411691964
-0.00606438237173
-0.00607672149763
-0.00608159765872
-0.00608677502718
-0.00609304855203
-0.00467395821761
-0.00575212706931
-0.00601471399498
-0.00607706572658
-0.00608998400352
-0.00609486467994
-0.00609985459595
-0.00610583408767
-0.00467379002572
-0.00575687806428
-0.00602440890133
-0.00608928632079
-0.0061030269803
-0.00610802959025
-0.00611289860479
-0.00611861859404
-0.00612504636718
-0.00613183732905
-0.0046741366825
-0.00576032516562
-0.00603302780702
-0.00610088666587
-0.00611573172937
-0.00612099452324
-0.00612582990229
-0.00613137561845
-0.0061375013168
-0.00614375348724
-0.00467419113205
-0.00576244102417
-0.00604043406852
-0.00611171351474
-0.00612795891078
-0.00613364723596
-0.0061385609398
-0.0061440450375
-0.00614997011117
-0.00615581406644
-0.00467383524269
-0.00576289760801
-0.00604645299694
-0.00612157158705
-0.00613952855139
-0.00614584170098
-0.00615099590392
-0.00615656389334
-0.00616243015485
-0.00616801082772
-0.00467278341096
-0.00576156943702
-0.00605082502626
-0.00613019793167
-0.00615019799639
-0.00615736250558
-0.00616293833903
-0.00616876874227
-0.00617476630202
-0.00618035322157
-0.00467106485092
-0.0057581896529
-0.00605324061779
-0.00613729448043
-0.00615969916963
-0.0061679804437
-0.0061741797916
-0.00618044957268
-0.00618681458172
-0.00619265435215
-0.00466836907021
-0.00575249722644
-0.00605334889717
-0.00614247793883
-0.00616767705469
-0.00617738028619
-0.00618447593427
-0.0061914983028
-0.00619851170741
-0.00620480732152
-0.00466456145703
-0.0057441653284
-0.00605077055258
-0.0061453303027
-0.00617373283054
-0.00618519397553
-0.00619349647505
-0.00620160655715
-0.00620962247185
-0.00621682294613
-0.00465927703577
-0.00573287840173
-0.00604509533026
-0.00614537092534
-0.00617739858654
-0.00619103286922
-0.00620089601894
-0.00621044057349
-0.00621992443368
-0.00622852629152
-0.0046523673235
-0.00571840875089
-0.00603591561727
-0.00614215862297
-0.00617822159134
-0.0061944162501
-0.00620625525175
-0.00621769696977
-0.00622921625365
-0.00624016271944
-0.00464306977804
-0.00570035747159
-0.00602283637583
-0.00613516623256
-0.00617564411925
-0.00619479385169
-0.00620900418882
-0.0062228289175
-0.00623683256609
-0.00625039705246
-0.00463127125146
-0.00567848850189
-0.00600541340578
-0.00612389403774
-0.00616906948373
-0.00619160941357
-0.00620871715513
-0.00622543191889
-0.00624261249234
-0.00625960465332
-0.00461649626482
-0.00565263948846
-0.00598340628103
-0.00610788031521
-0.00615801972623
-0.00618435568062
-0.00620483669732
-0.00622509510484
-0.00624638177202
-0.00626804101754
-0.00459881386181
-0.00562288418011
-0.00595675268365
-0.00608683072707
-0.0061420019378
-0.00617240391576
-0.00619667514716
-0.00622119732722
-0.00624784846743
-0.00627611177037
-0.00457746011291
-0.00558927627966
-0.00592549441851
-0.00606071247681
-0.00612073409105
-0.00615533575773
-0.00618382536142
-0.00609420943387
)
;
    }
    atmosphere
    {
        type            calculated;
        value           nonuniform List<scalar> 0();
    }
    floatingObject
    {
        type            calculated;
        value           nonuniform List<scalar> 0();
    }
    procBoundary4to0
    {
        type            processor;
        value           nonuniform List<scalar> 8(-0.00467332173787 -0.00573910947788 -0.00599310105276 -0.00605151574339 -0.00606335595121 -0.00606825305872 -0.00607363487111 -0.00608022021755);
    }
    procBoundary4to3
    {
        type            processor;
        value           nonuniform List<scalar> 
13
(
-0.00621331161695
-0.00624624781786
-0.00628254024227
-0.00455257042293
-0.00555233499415
-0.00589013835962
-0.0060297236442
-0.00613298142392
-0.00621331161695
-0.00616591478884
-0.0060297236442
-0.00613298142392
-0.0060627471766
)
;
    }
    procBoundary4to5
    {
        type            processor;
        value           nonuniform List<scalar> 
18
(
-0.00610030490847
-0.00611265720138
-0.00611265720138
-0.00612011240025
-0.00613829398392
-0.00614915584152
-0.00616036480852
-0.00617194037816
-0.00618391111501
-0.00619610126929
-0.00620851621281
-0.00622109538816
-0.00623368590256
-0.00624876186122
-0.00626173603576
-0.00627424262166
-0.00628734398828
-0.00630441345055
)
;
    }
}


// ************************************************************************* //
