/*--------------------------------*- C++ -*----------------------------------*\
| =========                 |                                                 |
| \\      /  F ield         | OpenFOAM: The Open Source CFD Toolbox           |
|  \\    /   O peration     | Version:  v2012                                 |
|   \\  /    A nd           | Website:  www.openfoam.com                      |
|    \\/     M anipulation  |                                                 |
\*---------------------------------------------------------------------------*/
FoamFile
{
    version     2.0;
    format      ascii;
    class       volScalarField;
    location    "2";
    object      epsilon_0;
}
// * * * * * * * * * * * * * * * * * * * * * * * * * * * * * * * * * * * * * //

dimensions      [0 2 -3 0 0 0 0];


internalField   nonuniform List<scalar> 
164
(
0.00556280907565
0.0057460613419
0.00622369174383
0.00637152735977
0.00641708096467
0.00643658226825
0.00645169487708
0.00646766398604
0.00556464027811
0.00574995116545
0.00622982170971
0.0063791448836
0.00642552666021
0.00644556399137
0.00646116048071
0.00647764760302
0.00556536470208
0.0057520077677
0.00623412269128
0.00638521609439
0.0064326588641
0.00645339707205
0.00646961569828
0.00648676927992
0.00650605324022
0.00652793943782
0.00556474909315
0.00575204597974
0.0062364140655
0.00638956956557
0.00643832679153
0.00645994492061
0.00647693754244
0.00649492374264
0.00651514663258
0.00653804122802
0.00556186873332
0.00574984265074
0.00623650172674
0.0063920343699
0.00644238143593
0.00646507774947
0.00648301089038
0.00650199439631
0.00652333803278
0.00654747547082
0.00555729581788
0.00574519252289
0.00623420996093
0.00639242450153
0.0064446338406
0.00646860615042
0.00648764127084
0.00650778519732
0.00653044843215
0.00655608073571
0.0055502388582
0.00573797548116
0.00622931925405
0.00639051759056
0.0064448706937
0.0064703291102
0.00649063245454
0.00651210534279
0.00653628464843
0.0065636453598
0.00554071066981
0.00572789496292
0.00622159362013
0.00638607623224
0.00644286308528
0.00647002160238
0.00649176975756
0.00651474843194
0.00654063683603
0.00656992093135
0.00552833437529
0.00571476663241
0.00621076534659
0.00637882607662
0.00643835362815
0.00646745203614
0.00649083858579
0.00651550108729
0.00654324269718
0.0065746681995
0.00551295507166
0.00569830078276
0.00619658251362
0.00636850534095
0.00643108512649
0.00646236991576
0.00648759077116
0.0065140908846
0.0065438767653
0.00657764822279
0.00549436684819
0.00567835058013
0.00617878375712
0.00635482256289
0.00642078958871
0.00645453114756
0.00648179156318
0.00651032379431
0.00654232240032
0.00657856742421
0.00547196702127
0.00565466749107
0.00615712961616
0.00633751131957
0.00640714639895
0.00644363589108
0.00647319018995
0.00650395322516
0.00653830741554
0.00657705166697
0.00544613797826
0.00562707798462
0.00613138163566
0.00631626255943
0.00638988799262
0.00642943429274
0.00646156460591
0.00649479993129
0.0065317530951
0.00657323762052
0.00541625961798
0.00559558458328
0.00610141128771
0.0062908856
0.00636874514012
0.00641165967675
0.00644663802026
0.00648265897146
0.00652253735995
0.0065670771541
0.00538238171858
0.0055601556136
0.00606719341679
0.00626118689382
0.00634347822685
0.00639001714768
0.00642817436548
0.00646734276203
0.00651050514695
0.00655855440614
0.00534427746708
0.00552088275627
0.00602872037592
0.00622713749787
0.00631391448883
0.00636431141232
0.0064059973404
0.00644868115835
0.00649558514671
0.00654760296814
0.00530249793698
0.00547822362678
0.00598641008217
0.00618885531073
0.0062800429086
0.00633444745717
0.00637990527037
0.00624207718196
)
;

boundaryField
{
    back
    {
        lowReCorrection 0;
        blending        stepwise;
        n               2;
        type            epsilonWallFunction;
        value           nonuniform List<scalar> 
164
(
0.00556280907565
0.0057460613419
0.00622369174383
0.00637152735977
0.00641708096467
0.00643658226825
0.00645169487708
0.00646766398604
0.00556464027811
0.00574995116545
0.00622982170971
0.0063791448836
0.00642552666021
0.00644556399137
0.00646116048071
0.00647764760302
0.00556536470208
0.0057520077677
0.00623412269128
0.00638521609439
0.0064326588641
0.00645339707205
0.00646961569828
0.00648676927992
0.00650605324022
0.00652793943782
0.00556474909315
0.00575204597974
0.0062364140655
0.00638956956557
0.00643832679153
0.00645994492061
0.00647693754244
0.00649492374264
0.00651514663258
0.00653804122802
0.00556186873332
0.00574984265074
0.00623650172674
0.0063920343699
0.00644238143593
0.00646507774947
0.00648301089038
0.00650199439631
0.00652333803278
0.00654747547082
0.00555729581788
0.00574519252289
0.00623420996093
0.00639242450153
0.0064446338406
0.00646860615042
0.00648764127084
0.00650778519732
0.00653044843215
0.00655608073571
0.0055502388582
0.00573797548116
0.00622931925405
0.00639051759056
0.0064448706937
0.0064703291102
0.00649063245454
0.00651210534279
0.00653628464843
0.0065636453598
0.00554071066981
0.00572789496292
0.00622159362013
0.00638607623224
0.00644286308528
0.00647002160238
0.00649176975756
0.00651474843194
0.00654063683603
0.00656992093135
0.00552833437529
0.00571476663241
0.00621076534659
0.00637882607662
0.00643835362815
0.00646745203614
0.00649083858579
0.00651550108729
0.00654324269718
0.0065746681995
0.00551295507166
0.00569830078276
0.00619658251362
0.00636850534095
0.00643108512649
0.00646236991576
0.00648759077116
0.0065140908846
0.0065438767653
0.00657764822279
0.00549436684819
0.00567835058013
0.00617878375712
0.00635482256289
0.00642078958871
0.00645453114756
0.00648179156318
0.00651032379431
0.00654232240032
0.00657856742421
0.00547196702127
0.00565466749107
0.00615712961616
0.00633751131957
0.00640714639895
0.00644363589108
0.00647319018995
0.00650395322516
0.00653830741554
0.00657705166697
0.00544613797826
0.00562707798462
0.00613138163566
0.00631626255943
0.00638988799262
0.00642943429274
0.00646156460591
0.00649479993129
0.0065317530951
0.00657323762052
0.00541625961798
0.00559558458328
0.00610141128771
0.0062908856
0.00636874514012
0.00641165967675
0.00644663802026
0.00648265897146
0.00652253735995
0.0065670771541
0.00538238171858
0.0055601556136
0.00606719341679
0.00626118689382
0.00634347822685
0.00639001714768
0.00642817436548
0.00646734276203
0.00651050514695
0.00655855440614
0.00534427746708
0.00552088275627
0.00602872037592
0.00622713749787
0.00631391448883
0.00636431141232
0.0064059973404
0.00644868115835
0.00649558514671
0.00654760296814
0.00530249793698
0.00547822362678
0.00598641008217
0.00618885531073
0.0062800429086
0.00633444745717
0.00637990527037
0.00624207718196
)
;
    }
    sides
    {
        lowReCorrection 0;
        blending        stepwise;
        n               2;
        type            epsilonWallFunction;
        value           nonuniform List<scalar> 0();
    }
    bottom
    {
        lowReCorrection 0;
        blending        stepwise;
        n               2;
        type            epsilonWallFunction;
        value           nonuniform List<scalar> 
17
(
0.00556280907565
0.00556464027811
0.00556536470208
0.00556474909315
0.00556186873332
0.00555729581788
0.0055502388582
0.00554071066981
0.00552833437529
0.00551295507166
0.00549436684819
0.00547196702127
0.00544613797826
0.00541625961798
0.00538238171858
0.00534427746708
0.00530249793698
)
;
    }
    front
    {
        lowReCorrection 0;
        blending        stepwise;
        n               2;
        type            epsilonWallFunction;
        value           nonuniform List<scalar> 
164
(
0.00556280907565
0.0057460613419
0.00622369174383
0.00637152735977
0.00641708096467
0.00643658226825
0.00645169487708
0.00646766398604
0.00556464027811
0.00574995116545
0.00622982170971
0.0063791448836
0.00642552666021
0.00644556399137
0.00646116048071
0.00647764760302
0.00556536470208
0.0057520077677
0.00623412269128
0.00638521609439
0.0064326588641
0.00645339707205
0.00646961569828
0.00648676927992
0.00650605324022
0.00652793943782
0.00556474909315
0.00575204597974
0.0062364140655
0.00638956956557
0.00643832679153
0.00645994492061
0.00647693754244
0.00649492374264
0.00651514663258
0.00653804122802
0.00556186873332
0.00574984265074
0.00623650172674
0.0063920343699
0.00644238143593
0.00646507774947
0.00648301089038
0.00650199439631
0.00652333803278
0.00654747547082
0.00555729581788
0.00574519252289
0.00623420996093
0.00639242450153
0.0064446338406
0.00646860615042
0.00648764127084
0.00650778519732
0.00653044843215
0.00655608073571
0.0055502388582
0.00573797548116
0.00622931925405
0.00639051759056
0.0064448706937
0.0064703291102
0.00649063245454
0.00651210534279
0.00653628464843
0.0065636453598
0.00554071066981
0.00572789496292
0.00622159362013
0.00638607623224
0.00644286308528
0.00647002160238
0.00649176975756
0.00651474843194
0.00654063683603
0.00656992093135
0.00552833437529
0.00571476663241
0.00621076534659
0.00637882607662
0.00643835362815
0.00646745203614
0.00649083858579
0.00651550108729
0.00654324269718
0.0065746681995
0.00551295507166
0.00569830078276
0.00619658251362
0.00636850534095
0.00643108512649
0.00646236991576
0.00648759077116
0.0065140908846
0.0065438767653
0.00657764822279
0.00549436684819
0.00567835058013
0.00617878375712
0.00635482256289
0.00642078958871
0.00645453114756
0.00648179156318
0.00651032379431
0.00654232240032
0.00657856742421
0.00547196702127
0.00565466749107
0.00615712961616
0.00633751131957
0.00640714639895
0.00644363589108
0.00647319018995
0.00650395322516
0.00653830741554
0.00657705166697
0.00544613797826
0.00562707798462
0.00613138163566
0.00631626255943
0.00638988799262
0.00642943429274
0.00646156460591
0.00649479993129
0.0065317530951
0.00657323762052
0.00541625961798
0.00559558458328
0.00610141128771
0.0062908856
0.00636874514012
0.00641165967675
0.00644663802026
0.00648265897146
0.00652253735995
0.0065670771541
0.00538238171858
0.0055601556136
0.00606719341679
0.00626118689382
0.00634347822685
0.00639001714768
0.00642817436548
0.00646734276203
0.00651050514695
0.00655855440614
0.00534427746708
0.00552088275627
0.00602872037592
0.00622713749787
0.00631391448883
0.00636431141232
0.0064059973404
0.00644868115835
0.00649558514671
0.00654760296814
0.00530249793698
0.00547822362678
0.00598641008217
0.00618885531073
0.0062800429086
0.00633444745717
0.00637990527037
0.00624207718196
)
;
    }
    atmosphere
    {
        type            inletOutlet;
        inletValue      nonuniform List<scalar> 0();
        value           nonuniform List<scalar> 0();
    }
    floatingObject
    {
        lowReCorrection 0;
        blending        stepwise;
        n               2;
        type            epsilonWallFunction;
        value           nonuniform List<scalar> 0();
    }
    procBoundary4to0
    {
        type            processor;
        value           nonuniform List<scalar> 8(0.00555912705917 0.00574037897113 0.00621595283915 0.00636254171255 0.00640744791706 0.00642655422072 0.00644132388529 0.00645693136803);
    }
    procBoundary4to3
    {
        type            processor;
        value           nonuniform List<scalar> 
13
(
0.00642649028875
0.00647768059435
0.00653439969262
0.00525732997258
0.00543283829771
0.00594088269318
0.00614680738944
0.00630038514818
0.00642649028875
0.00634983209903
0.00614680738944
0.00630038514818
0.00620051785184
)
;
    }
    procBoundary4to5
    {
        type            processor;
        value           nonuniform List<scalar> 
18
(
0.00648564825296
0.00649618696698
0.00649618696698
0.00651730695046
0.00655392976876
0.00656486807772
0.00657547329222
0.00658559369073
0.00659495467388
0.00660334143612
0.00661053043226
0.00661606308427
0.00661983682732
0.00662073870351
0.00661965566981
0.00661663742877
0.00661172944555
0.00660481677548
)
;
    }
}


// ************************************************************************* //
