/*--------------------------------*- C++ -*----------------------------------*\
| =========                 |                                                 |
| \\      /  F ield         | OpenFOAM: The Open Source CFD Toolbox           |
|  \\    /   O peration     | Version:  v2012                                 |
|   \\  /    A nd           | Website:  www.openfoam.com                      |
|    \\/     M anipulation  |                                                 |
\*---------------------------------------------------------------------------*/
FoamFile
{
    version     2.0;
    format      ascii;
    class       volScalarField;
    location    "2";
    object      p;
}
// * * * * * * * * * * * * * * * * * * * * * * * * * * * * * * * * * * * * * //

dimensions      [1 -1 -2 0 0 0 0];


internalField   nonuniform List<scalar> 
164
(
8380.65034625
7890.7137693
7400.53186011
6910.04296928
6419.24303496
5928.11621553
5436.6424148
4944.797788
8385.89739349
7895.99336269
7405.86471676
6915.46673034
6424.79115935
5933.82497156
5442.5525026
4950.95642955
8391.40113227
7901.530625
7411.46453789
6921.16711859
6430.62845315
5939.83803463
5448.78404973
4957.4543097
4465.83833506
3973.9308938
8397.12651017
7907.29217705
7417.29516343
6927.10654577
6436.71494252
5946.11160655
5455.2872201
4964.23325022
4472.94456847
3981.4234741
8403.03889512
7913.24080537
7423.3188114
6933.24565909
6443.0091481
5952.60128127
5462.01358738
4971.23894187
4480.27394673
3989.12260254
8409.09666105
7919.33846098
7429.49473164
6939.54302427
6449.46865138
5959.26341712
5468.91840313
4978.4252508
4487.77781656
3996.9753332
8415.25807154
7925.54118296
7435.78100395
6945.95629646
6456.05101413
5966.05591206
5475.96030064
4985.75242045
4495.42000777
4004.95291017
8421.47851861
7931.80520437
7442.13283066
6952.44137736
6462.71317959
5972.9377504
5483.10159111
4993.18766086
4503.17630948
4013.04524586
8427.71185554
7938.08387527
7448.50388084
6958.9524445
6469.41059366
5979.86648939
5490.30422876
5000.70204167
4511.03173719
4021.25509964
8433.90862548
7944.3285156
7454.84532882
6965.44091155
6476.09578397
5986.79707529
5497.5278677
5008.26354395
4518.96879623
4029.59399585
8440.01733827
7950.48759761
7461.10577322
6971.85539251
6482.71722837
5993.67971186
5504.72595099
5015.83068735
4526.95744518
4038.05260693
8445.98629049
7956.50823753
7467.23142139
6978.14136894
6489.22006404
6000.45835577
5511.84159436
5023.34738456
4534.94299077
4046.57944625
8451.76125645
7962.3363225
7473.1666494
6984.24126264
6495.54423162
6007.06985766
5518.80852221
5030.74408059
4542.8516767
4055.09572795
8457.28636947
7967.91506365
7478.85353785
6990.09464887
6501.62528488
6013.4455919
5525.55224849
5037.93683294
4550.58411115
4063.47299778
8462.50615122
7973.18794361
7484.23293219
6995.638763
6507.3962884
6019.51227966
5531.99133378
5044.83329841
4558.03244287
4071.57979018
8467.36922508
7978.10128452
7489.24764189
7000.81101464
6512.78846036
6025.19388335
5538.0409737
5051.33938338
4565.08939888
4079.28047321
8471.82572229
7982.60362072
7493.8419669
7005.55107415
6517.73302914
6030.41357579
5543.61719303
6522.16258508
)
;

boundaryField
{
    back
    {
        type            calculated;
        value           nonuniform List<scalar> 
164
(
8380.65034625
7890.7137693
7400.53186011
6910.04296928
6419.24303496
5928.11621553
5436.6424148
4944.797788
8385.89739349
7895.99336269
7405.86471676
6915.46673034
6424.79115935
5933.82497156
5442.5525026
4950.95642955
8391.40113227
7901.530625
7411.46453789
6921.16711859
6430.62845315
5939.83803463
5448.78404973
4957.4543097
4465.83833506
3973.9308938
8397.12651017
7907.29217705
7417.29516343
6927.10654577
6436.71494252
5946.11160655
5455.2872201
4964.23325022
4472.94456847
3981.4234741
8403.03889512
7913.24080537
7423.3188114
6933.24565909
6443.0091481
5952.60128127
5462.01358738
4971.23894187
4480.27394673
3989.12260254
8409.09666105
7919.33846098
7429.49473164
6939.54302427
6449.46865138
5959.26341712
5468.91840313
4978.4252508
4487.77781656
3996.9753332
8415.25807154
7925.54118296
7435.78100395
6945.95629646
6456.05101413
5966.05591206
5475.96030064
4985.75242045
4495.42000777
4004.95291017
8421.47851861
7931.80520437
7442.13283066
6952.44137736
6462.71317959
5972.9377504
5483.10159111
4993.18766086
4503.17630948
4013.04524586
8427.71185554
7938.08387527
7448.50388084
6958.9524445
6469.41059366
5979.86648939
5490.30422876
5000.70204167
4511.03173719
4021.25509964
8433.90862548
7944.3285156
7454.84532882
6965.44091155
6476.09578397
5986.79707529
5497.5278677
5008.26354395
4518.96879623
4029.59399585
8440.01733827
7950.48759761
7461.10577322
6971.85539251
6482.71722837
5993.67971186
5504.72595099
5015.83068735
4526.95744518
4038.05260693
8445.98629049
7956.50823753
7467.23142139
6978.14136894
6489.22006404
6000.45835577
5511.84159436
5023.34738456
4534.94299077
4046.57944625
8451.76125645
7962.3363225
7473.1666494
6984.24126264
6495.54423162
6007.06985766
5518.80852221
5030.74408059
4542.8516767
4055.09572795
8457.28636947
7967.91506365
7478.85353785
6990.09464887
6501.62528488
6013.4455919
5525.55224849
5037.93683294
4550.58411115
4063.47299778
8462.50615122
7973.18794361
7484.23293219
6995.638763
6507.3962884
6019.51227966
5531.99133378
5044.83329841
4558.03244287
4071.57979018
8467.36922508
7978.10128452
7489.24764189
7000.81101464
6512.78846036
6025.19388335
5538.0409737
5051.33938338
4565.08939888
4079.28047321
8471.82572229
7982.60362072
7493.8419669
7005.55107415
6517.73302914
6030.41357579
5543.61719303
6522.16258508
)
;
    }
    sides
    {
        type            calculated;
        value           nonuniform List<scalar> 0();
    }
    bottom
    {
        type            calculated;
        value           nonuniform List<scalar> 
17
(
8625.45900387
8630.70603951
8636.20976744
8641.93513343
8647.84751094
8653.90527291
8660.06666886
8666.28709949
8672.52041957
8678.71717384
8684.82588312
8690.79477275
8696.56973653
8702.09486081
8707.31474074
8712.17789236
8716.6343883
)
;
    }
    front
    {
        type            calculated;
        value           nonuniform List<scalar> 
164
(
8380.65034625
7890.7137693
7400.53186011
6910.04296928
6419.24303496
5928.11621553
5436.6424148
4944.797788
8385.89739349
7895.99336269
7405.86471676
6915.46673034
6424.79115935
5933.82497156
5442.5525026
4950.95642955
8391.40113227
7901.530625
7411.46453789
6921.16711859
6430.62845315
5939.83803463
5448.78404973
4957.4543097
4465.83833506
3973.9308938
8397.12651017
7907.29217705
7417.29516343
6927.10654577
6436.71494252
5946.11160655
5455.2872201
4964.23325022
4472.94456847
3981.4234741
8403.03889512
7913.24080537
7423.3188114
6933.24565909
6443.0091481
5952.60128127
5462.01358738
4971.23894187
4480.27394673
3989.12260254
8409.09666105
7919.33846098
7429.49473164
6939.54302427
6449.46865138
5959.26341712
5468.91840313
4978.4252508
4487.77781656
3996.9753332
8415.25807154
7925.54118296
7435.78100395
6945.95629646
6456.05101413
5966.05591206
5475.96030064
4985.75242045
4495.42000777
4004.95291017
8421.47851861
7931.80520437
7442.13283066
6952.44137736
6462.71317959
5972.9377504
5483.10159111
4993.18766086
4503.17630948
4013.04524586
8427.71185554
7938.08387527
7448.50388084
6958.9524445
6469.41059366
5979.86648939
5490.30422876
5000.70204167
4511.03173719
4021.25509964
8433.90862548
7944.3285156
7454.84532882
6965.44091155
6476.09578397
5986.79707529
5497.5278677
5008.26354395
4518.96879623
4029.59399585
8440.01733827
7950.48759761
7461.10577322
6971.85539251
6482.71722837
5993.67971186
5504.72595099
5015.83068735
4526.95744518
4038.05260693
8445.98629049
7956.50823753
7467.23142139
6978.14136894
6489.22006404
6000.45835577
5511.84159436
5023.34738456
4534.94299077
4046.57944625
8451.76125645
7962.3363225
7473.1666494
6984.24126264
6495.54423162
6007.06985766
5518.80852221
5030.74408059
4542.8516767
4055.09572795
8457.28636947
7967.91506365
7478.85353785
6990.09464887
6501.62528488
6013.4455919
5525.55224849
5037.93683294
4550.58411115
4063.47299778
8462.50615122
7973.18794361
7484.23293219
6995.638763
6507.3962884
6019.51227966
5531.99133378
5044.83329841
4558.03244287
4071.57979018
8467.36922508
7978.10128452
7489.24764189
7000.81101464
6512.78846036
6025.19388335
5538.0409737
5051.33938338
4565.08939888
4079.28047321
8471.82572229
7982.60362072
7493.8419669
7005.55107415
6517.73302914
6030.41357579
5543.61719303
6522.16258508
)
;
    }
    atmosphere
    {
        type            calculated;
        value           nonuniform List<scalar> 0();
    }
    floatingObject
    {
        type            calculated;
        value           nonuniform List<scalar> 0();
    }
    procBoundary4to0
    {
        type            processor;
        value           nonuniform List<scalar> 8(8375.69307298 7885.72250202 7395.49968104 6904.93133338 6414.02240119 5922.75446476 5431.1026969 4939.03727365);
    }
    procBoundary4to3
    {
        type            processor;
        value           nonuniform List<scalar> 
13
(
5057.36682943
4571.66975156
4086.51489335
8475.82999723
7986.6473973
7497.9646787
7009.79904159
6035.09236741
5057.36682943
5548.63042252
7009.79904159
6035.09236741
6526.00937145
)
;
    }
    procBoundary4to5
    {
        type            processor;
        value           nonuniform List<scalar> 
18
(
4452.55405971
4459.0181748
4459.0181748
3966.72029846
3481.7348265
3489.68444045
3497.80204199
3506.02854999
3514.34643773
3522.76717999
3531.31881908
3540.06641052
3549.03540427
3558.18608269
3567.42681674
3576.57328275
3585.46485115
3593.89223524
)
;
    }
}


// ************************************************************************* //
