/*--------------------------------*- C++ -*----------------------------------*\
| =========                 |                                                 |
| \\      /  F ield         | OpenFOAM: The Open Source CFD Toolbox           |
|  \\    /   O peration     | Version:  v2012                                 |
|   \\  /    A nd           | Website:  www.openfoam.com                      |
|    \\/     M anipulation  |                                                 |
\*---------------------------------------------------------------------------*/
FoamFile
{
    version     2.0;
    format      ascii;
    class       volScalarField;
    location    "2.5";
    object      epsilon_0;
}
// * * * * * * * * * * * * * * * * * * * * * * * * * * * * * * * * * * * * * //

dimensions      [0 2 -3 0 0 0 0];


internalField   nonuniform List<scalar> 
164
(
0.00443361566575
0.00420069801531
0.00552302272225
0.0102021992861
0.0254128483384
0.0613242419638
0.116344125318
0.18889940722
0.00453589377993
0.00457981633336
0.0072319461302
0.0164734341289
0.0407605805774
0.083565252343
0.138759370866
0.201904630672
0.00453607027631
0.00458034555615
0.00723373127262
0.0164787877081
0.0407742879589
0.0835907573301
0.138785202603
0.201921230934
0.00443403510489
0.00420172935929
0.00552552899272
0.0102069844562
0.0254220745833
0.0613417194552
0.116363754961
0.188903813798
0.0054635161804
0.00944868943712
0.0215801083241
0.0498188444138
0.0984716306626
0.163887123318
0.00564571261273
0.00968805527289
0.0207181520165
0.0438217292153
0.0838134670977
0.13906262558
0.00520403289894
0.00827160951921
0.018727330928
0.0444374020272
0.0923056638774
0.182007402908
0.00506025534328
0.00784359973505
0.018581310423
0.0469495117924
0.097940462747
0.185703042332
0.00499018575761
0.00753741449898
0.0180977073799
0.0474752236998
0.0983884548224
0.184868840194
0.0049840590634
0.00740183142385
0.0171434593923
0.0437112383623
0.0903204426277
0.17895223994
0.00509487502798
0.00756485561959
0.0162890589116
0.0383304432666
0.076741327937
0.16702174629
0.00534211985507
0.00808713875607
0.0160824645248
0.0344461660469
0.0631622304058
0.10937146087
0.006047179257
0.00949723786209
0.0170077913412
0.0319825603886
0.0578447881506
0.136535574104
0.00586031977874
0.00929028329273
0.01695426711
0.0309341740394
0.051891979651
0.0877094760234
0.0055389738033
0.00855495959424
0.016237766488
0.0305658654853
0.0521408015775
0.0863118116365
0.00554599904573
0.00842219904217
0.015761970673
0.030511185383
0.0563173302759
0.106812975712
0.0057261240031
0.00861024251128
0.0158044558553
0.0326047592611
0.0654493671379
0.146490875113
0.00563004766244
0.00834750165577
0.0145908476148
0.0276846633063
0.0543085973178
0.117919457977
0.00537311454735
0.00769716670761
0.012917487812
0.0227464653348
0.040630464213
0.0704303990868
0.00509232620615
0.00696289070586
0.0118788636284
0.0234081626724
0.0515464367651
0.152894361651
0.0048964464
0.00639037762829
0.011012776258
0.0240461399594
0.057447328015
0.162660771027
0.00480385014534
0.006101528626
0.0104159156143
0.0232743966887
0.0569283238814
0.162724389771
0.00476815545871
0.00596655642943
0.00993733075884
0.0218839133683
0.0536764367266
0.159718409354
0.00475395591088
0.00588472647641
0.00938915965523
0.019234641272
0.0454344071257
0.121322214705
0.00885165566274
0.0161537174439
0.0304182425836
0.0532377850219
0.00847112301308
0.0146938209059
0.0270773956402
0.0427766484142
0.00836596966813
0.0151953950289
0.0391104015922
0.118709425528
)
;

boundaryField
{
    back
    {
        lowReCorrection 0;
        blending        stepwise;
        n               2;
        type            epsilonWallFunction;
        value           nonuniform List<scalar> 
164
(
0.00443361566575
0.00420069801531
0.00552302272225
0.0102021992861
0.0254128483384
0.0613242419638
0.116344125318
0.18889940722
0.00453589377993
0.00457981633336
0.0072319461302
0.0164734341289
0.0407605805774
0.083565252343
0.138759370866
0.201904630672
0.00453607027631
0.00458034555615
0.00723373127262
0.0164787877081
0.0407742879589
0.0835907573301
0.138785202603
0.201921230934
0.00443403510489
0.00420172935929
0.00552552899272
0.0102069844562
0.0254220745833
0.0613417194552
0.116363754961
0.188903813798
0.0054635161804
0.00944868943712
0.0215801083241
0.0498188444138
0.0984716306626
0.163887123318
0.00564571261273
0.00968805527289
0.0207181520165
0.0438217292153
0.0838134670977
0.13906262558
0.00520403289894
0.00827160951921
0.018727330928
0.0444374020272
0.0923056638774
0.182007402908
0.00506025534328
0.00784359973505
0.018581310423
0.0469495117924
0.097940462747
0.185703042332
0.00499018575761
0.00753741449898
0.0180977073799
0.0474752236998
0.0983884548224
0.184868840194
0.0049840590634
0.00740183142385
0.0171434593923
0.0437112383623
0.0903204426277
0.17895223994
0.00509487502798
0.00756485561959
0.0162890589116
0.0383304432666
0.076741327937
0.16702174629
0.00534211985507
0.00808713875607
0.0160824645248
0.0344461660469
0.0631622304058
0.10937146087
0.006047179257
0.00949723786209
0.0170077913412
0.0319825603886
0.0578447881506
0.136535574104
0.00586031977874
0.00929028329273
0.01695426711
0.0309341740394
0.051891979651
0.0877094760234
0.0055389738033
0.00855495959424
0.016237766488
0.0305658654853
0.0521408015775
0.0863118116365
0.00554599904573
0.00842219904217
0.015761970673
0.030511185383
0.0563173302759
0.106812975712
0.0057261240031
0.00861024251128
0.0158044558553
0.0326047592611
0.0654493671379
0.146490875113
0.00563004766244
0.00834750165577
0.0145908476148
0.0276846633063
0.0543085973178
0.117919457977
0.00537311454735
0.00769716670761
0.012917487812
0.0227464653348
0.040630464213
0.0704303990868
0.00509232620615
0.00696289070586
0.0118788636284
0.0234081626724
0.0515464367651
0.152894361651
0.0048964464
0.00639037762829
0.011012776258
0.0240461399594
0.057447328015
0.162660771027
0.00480385014534
0.006101528626
0.0104159156143
0.0232743966887
0.0569283238814
0.162724389771
0.00476815545871
0.00596655642943
0.00993733075884
0.0218839133683
0.0536764367266
0.159718409354
0.00475395591088
0.00588472647641
0.00938915965523
0.019234641272
0.0454344071257
0.121322214705
0.00885165566274
0.0161537174439
0.0304182425836
0.0532377850219
0.00847112301308
0.0146938209059
0.0270773956402
0.0427766484142
0.00836596966813
0.0151953950289
0.0391104015922
0.118709425528
)
;
    }
    sides
    {
        lowReCorrection 0;
        blending        stepwise;
        n               2;
        type            epsilonWallFunction;
        value           nonuniform List<scalar> 0();
    }
    bottom
    {
        lowReCorrection 0;
        blending        stepwise;
        n               2;
        type            epsilonWallFunction;
        value           nonuniform List<scalar> 0();
    }
    front
    {
        lowReCorrection 0;
        blending        stepwise;
        n               2;
        type            epsilonWallFunction;
        value           nonuniform List<scalar> 
164
(
0.00443361566575
0.00420069801531
0.00552302272225
0.0102021992861
0.0254128483384
0.0613242419638
0.116344125318
0.18889940722
0.00453589377993
0.00457981633336
0.0072319461302
0.0164734341289
0.0407605805774
0.083565252343
0.138759370866
0.201904630672
0.00453607027631
0.00458034555615
0.00723373127262
0.0164787877081
0.0407742879589
0.0835907573301
0.138785202603
0.201921230934
0.00443403510489
0.00420172935929
0.00552552899272
0.0102069844562
0.0254220745833
0.0613417194552
0.116363754961
0.188903813798
0.0054635161804
0.00944868943712
0.0215801083241
0.0498188444138
0.0984716306626
0.163887123318
0.00564571261273
0.00968805527289
0.0207181520165
0.0438217292153
0.0838134670977
0.13906262558
0.00520403289894
0.00827160951921
0.018727330928
0.0444374020272
0.0923056638774
0.182007402908
0.00506025534328
0.00784359973505
0.018581310423
0.0469495117924
0.097940462747
0.185703042332
0.00499018575761
0.00753741449898
0.0180977073799
0.0474752236998
0.0983884548224
0.184868840194
0.0049840590634
0.00740183142385
0.0171434593923
0.0437112383623
0.0903204426277
0.17895223994
0.00509487502798
0.00756485561959
0.0162890589116
0.0383304432666
0.076741327937
0.16702174629
0.00534211985507
0.00808713875607
0.0160824645248
0.0344461660469
0.0631622304058
0.10937146087
0.006047179257
0.00949723786209
0.0170077913412
0.0319825603886
0.0578447881506
0.136535574104
0.00586031977874
0.00929028329273
0.01695426711
0.0309341740394
0.051891979651
0.0877094760234
0.0055389738033
0.00855495959424
0.016237766488
0.0305658654853
0.0521408015775
0.0863118116365
0.00554599904573
0.00842219904217
0.015761970673
0.030511185383
0.0563173302759
0.106812975712
0.0057261240031
0.00861024251128
0.0158044558553
0.0326047592611
0.0654493671379
0.146490875113
0.00563004766244
0.00834750165577
0.0145908476148
0.0276846633063
0.0543085973178
0.117919457977
0.00537311454735
0.00769716670761
0.012917487812
0.0227464653348
0.040630464213
0.0704303990868
0.00509232620615
0.00696289070586
0.0118788636284
0.0234081626724
0.0515464367651
0.152894361651
0.0048964464
0.00639037762829
0.011012776258
0.0240461399594
0.057447328015
0.162660771027
0.00480385014534
0.006101528626
0.0104159156143
0.0232743966887
0.0569283238814
0.162724389771
0.00476815545871
0.00596655642943
0.00993733075884
0.0218839133683
0.0536764367266
0.159718409354
0.00475395591088
0.00588472647641
0.00938915965523
0.019234641272
0.0454344071257
0.121322214705
0.00885165566274
0.0161537174439
0.0304182425836
0.0532377850219
0.00847112301308
0.0146938209059
0.0270773956402
0.0427766484142
0.00836596966813
0.0151953950289
0.0391104015922
0.118709425528
)
;
    }
    atmosphere
    {
        type            inletOutlet;
        inletValue      uniform 0.1;
        value           nonuniform List<scalar> 
27
(
0.1
0.1
0.1
0.1
0.1
0.1
0.1
0.1
0.1
0.1
0.1
0.10937146087
0.1
0.1
0.0863118116365
0.106812975712
0.146490875113
0.117919457977
0.0704303990868
0.152894361651
0.1
0.1
0.1
0.121322214705
0.0532377850219
0.0427766484142
0.118709425528
)
;
    }
    floatingObject
    {
        lowReCorrection 0;
        blending        stepwise;
        n               2;
        type            epsilonWallFunction;
        value           nonuniform List<scalar> 4(0.00443361566575 0.00453589377993 0.00453607027631 0.00443403510489);
    }
    procBoundary6to3
    {
        type            processor;
        value           nonuniform List<scalar> 8(0.00365475156706 0.00428827021271 0.00546184246959 0.00944562682477 0.0215758548468 0.0498156763945 0.098480163484 0.163905301143);
    }
    procBoundary6to7
    {
        type            processor;
        value           nonuniform List<scalar> 
11
(
0.00456296085451
0.00448615294142
0.00443478785266
0.0044083564186
0.00439537019959
0.00438795096554
0.0047440960123
0.00581243755168
0.00581243755168
0.00574831617151
0.00572672957908
)
;
    }
    procBoundary6to8
    {
        type            processor;
        value           nonuniform List<scalar> 
16
(
0.00365498289721
0.00428892282965
0.00428892282965
0.00445872270382
0.00444263786305
0.00444248429536
0.00443934273372
0.00444188318462
0.00447238921724
0.00454159391292
0.00475033093937
0.00468289915739
0.0045964616657
0.00461081325487
0.00468451972946
0.00464532947101
)
;
    }
    procBoundary6to9
    {
        type            processor;
        value           nonuniform List<scalar> 4(0.00834738716833 0.0154073857226 0.0428417253755 0.158823041157);
    }
}


// ************************************************************************* //
