/*--------------------------------*- C++ -*----------------------------------*\
| =========                 |                                                 |
| \\      /  F ield         | OpenFOAM: The Open Source CFD Toolbox           |
|  \\    /   O peration     | Version:  v2012                                 |
|   \\  /    A nd           | Website:  www.openfoam.com                      |
|    \\/     M anipulation  |                                                 |
\*---------------------------------------------------------------------------*/
FoamFile
{
    version     2.0;
    format      ascii;
    class       surfaceScalarField;
    location    "2.1";
    object      alphaPhi0.water;
}
// * * * * * * * * * * * * * * * * * * * * * * * * * * * * * * * * * * * * * //

dimensions      [0 3 -1 0 0 0 0];
oriented        oriented;


internalField   nonuniform List<scalar> 
300
(
8.66736056557e-09
-0.000323761982743
-3.63399998848e-07
-0.000311901145845
-7.75308417922e-07
-0.0003077018671
-1.17553298085e-06
-0.00030967439078
-1.37790823613e-06
-0.000314611647624
-1.30237674656e-06
-0.000321299646689
-8.65715730054e-07
-0.000329488258191
-0.000339201875024
-1.24847444118e-06
-0.000322513660402
-2.96682247206e-06
-0.00031018297345
-4.75193535743e-06
-0.000305916950323
-6.49260500665e-06
-0.000307933938462
-8.0881471059e-06
-0.000313016338994
-9.45275840774e-06
-0.000319935283146
-1.05339719665e-05
-0.000328407279644
-0.000338517879558
-2.67109443338e-06
-0.000319842717145
-5.71056077164e-06
-0.000307143685777
-8.87238815776e-06
-0.000302755327908
-1.20190205167e-05
-0.00030478753735
-1.50682603463e-05
-0.00030996734855
-1.79581479921e-05
-0.000317045636816
-2.05998640967e-05
-0.000325765778022
-2.29550157124e-05
-0.000336162881905
-2.49730348925e-05
-0.000348340828339
-0.000362400178865
-4.15072144373e-06
-0.000315692161097
-8.53926434089e-06
-0.000302755341049
-1.3103774219e-05
-0.00029819104382
-1.76778418125e-05
-0.000300213720789
-2.22160306629e-05
-0.000305429424417
-2.66629766862e-05
-0.000312598939596
-3.0976810807e-05
-0.000321452155181
-3.5110587795e-05
-0.000332029222863
-3.90128138311e-05
-0.000344438527774
-0.000358787308739
-5.48465654184e-06
-0.000310207683665
-1.13979279296e-05
-0.000296842278358
-1.73584517214e-05
-0.000292230756776
-2.34092005488e-05
-0.000294163234168
-2.94754043526e-05
-0.000299363493206
-3.55271248864e-05
-0.000306547482911
-4.15469478546e-05
-0.00031543255895
-4.75112592263e-05
-0.000326064997569
-5.33432028143e-05
-0.000338606455398
-0.000353113203231
-6.99325599081e-06
-0.000303214606266
-1.42115621503e-05
-0.000289624183879
-2.16679467124e-05
-0.000284774618493
-2.91816742361e-05
-0.000286649781484
-3.67825498197e-05
-0.000291762901029
-4.44719371631e-05
-0.000298858383039
-5.22251700731e-05
-0.000307679547422
-6.00211770335e-05
-0.000318269058969
-6.7871804499e-05
-0.000330755667038
-0.000345299467262
-8.41710063848e-06
-0.000294797693389
-1.70880526027e-05
-0.000280953458335
-2.59003198231e-05
-0.000275962613527
-3.48753118214e-05
-0.000277675079757
-4.40036285657e-05
-0.00028263489962
-5.33351599601e-05
-0.000289527134647
-6.28468270152e-05
-0.000298168082007
-7.25547766124e-05
-0.000308561177674
-8.25108770385e-05
-0.000320799393358
-0.000335196704108
-9.8379780653e-06
-0.00028495991306
-1.98324792791e-05
-0.000270959191237
-3.0055489595e-05
-0.000265739879998
-4.04562590099e-05
-0.000267274624122
-5.11057280605e-05
-0.000271985736707
-6.20096832147e-05
-0.000278623413673
-7.32458906973e-05
-0.000286932103048
-8.48463701952e-05
-0.000296960779502
-9.70088167672e-05
-0.000308636780331
-0.000322756868149
-1.11971736139e-05
-0.000273762946789
-2.25390006024e-05
-0.000259617605962
-3.40104884424e-05
-0.000254268672963
-4.57719286021e-05
-0.000255513475462
-5.78634522685e-05
-0.000259894484799
-7.03811329645e-05
-0.000266106064555
-8.3365633984e-05
-0.000273947900226
-9.69420954947e-05
-0.000283384417162
-0.000111005866686
-0.000294572864156
-0.000307868389618
-1.24938496878e-05
-0.000261269313738
-2.50392544489e-05
-0.00024707246133
-3.77761420674e-05
-0.000241532042476
-5.07966029014e-05
-0.000242493316887
-6.42566238583e-05
-0.000246434862497
-7.8165463273e-05
-0.000252197613819
-9.2796184727e-05
-0.000259317513227
-0.000108229174956
-0.000267951553119
-0.000124555476111
-0.000278246442579
-0.00029044101601
-1.37522646812e-05
-0.000247517211938
-2.74172838161e-05
-0.00023340765807
-4.12292535999e-05
-0.000227720375821
-5.53788329502e-05
-0.000228344136041
-7.01495279602e-05
-0.000231664550397
-8.54095062194e-05
-0.000236938137416
-0.00010143975251
-0.000243287606115
-0.000118579167158
-0.000250812287988
-0.000136956450826
-0.000259869082875
-0.000270367457283
-1.47796482324e-05
-0.000232737771408
-2.95546597555e-05
-0.000218632906687
-4.4378267665e-05
-0.000212897088259
-5.96063007925e-05
-0.000213116424302
-7.52242598508e-05
-0.000216047113456
-9.17187973e-05
-0.000220444054036
-0.000109077889298
-0.00022592887135
-0.000127454205751
-0.000232436140406
-0.000147300787042
-0.000240022417715
-0.000248812386099
-1.58625759866e-05
-0.000216875398671
-3.14070056712e-05
-0.000203088680171
-4.71112335904e-05
-0.000197193201639
-6.31597193786e-05
-0.000197068427031
-7.98107150472e-05
-0.000199396605037
-9.70980765229e-05
-0.000203157151469
-0.000115504253641
-0.000207523058377
-0.00013494259986
-0.000212997954805
-0.000155931952687
-0.000219032969755
-0.000225663241188
-1.6758055933e-05
-0.000200117586199
-3.30928578408e-05
-0.000186754204938
-4.94421708917e-05
-0.00018084426755
-6.62217876037e-05
-0.000180289277372
-8.35058444105e-05
-0.000182113035086
-0.000101646337131
-0.000185017113961
-0.00012053147392
-0.000188638271119
-0.000140804075227
-0.000192725464314
-0.000162758943005
-0.000197077804913
-0.000201604675409
-1.75224111095e-05
-0.000182595388546
-3.44517364903e-05
-0.000169825180234
-5.13996271886e-05
-0.000163896791558
-6.86430666572e-05
-0.000163046335155
-8.65025303443e-05
-0.00016425410129
-0.00010498324435
-0.000166536903176
-0.000124394067203
-0.000169227739875
-0.000144952058363
-0.00017216747534
-0.000167078902925
-0.000174950243029
-0.000177000972748
-1.80402467766e-05
-0.000164555335652
-3.5465083119e-05
-0.000152400678153
-5.27461217985e-05
-0.000146616272323
-7.05049899234e-05
-0.000145288038109
-8.86170824334e-05
-0.000146142753003
-0.000107382442984
-0.000147772040173
-0.000126960011566
-0.000149650401412
-0.00014731654159
-0.000168640249721
-1.84986667892e-05
-3.62294013622e-05
-5.38491333553e-05
-7.16558757016e-05
-9.0155781887e-05
-0.000127643400171
-0.000109127299635
)
;

boundaryField
{
    back
    {
        type            calculated;
        value           uniform 0;
    }
    sides
    {
        type            calculated;
        value           nonuniform List<scalar> 0();
    }
    bottom
    {
        type            calculated;
        value           uniform 0;
    }
    front
    {
        type            calculated;
        value           uniform 0;
    }
    atmosphere
    {
        type            calculated;
        value           nonuniform List<scalar> 0();
    }
    floatingObject
    {
        type            calculated;
        value           nonuniform List<scalar> 0();
    }
    procBoundary4to0
    {
        type            processor;
        value           nonuniform List<scalar> 8(0.000323753040321 0.000312272916855 0.0003081134663 0.000310074292006 0.000314813688042 0.000321223760647 0.000329051237325 0.00033827299597);
    }
    procBoundary4to3
    {
        type            processor;
        value           nonuniform List<scalar> 
13
(
-0.000151810766261
-0.000153625759461
-0.000154011617348
-0.000146056889023
-0.000134670343946
-0.000128997033155
-0.000127482216961
-0.000128801139083
-0.000128553581812
-0.000130224311174
7.24035362637e-05
-9.09042381042e-05
-0.000109144011
)
;
    }
    procBoundary4to5
    {
        type            processor;
        value           nonuniform List<scalar> 
18
(
6.28153911198e-08
-1.12181632139e-05
0.000350358768911
0.000363980959675
-2.65537271142e-05
-4.26254532122e-05
-5.90170034838e-05
-7.56851900681e-05
-9.26132705619e-05
-0.000109448284133
-0.000125893988876
-0.000141982506979
-0.00015702970235
-0.00016885550192
-0.000179080698974
-0.000186816734996
-0.000191681456835
-0.000191627765287
)
;
    }
}


// ************************************************************************* //
