/*--------------------------------*- C++ -*----------------------------------*\
| =========                 |                                                 |
| \\      /  F ield         | OpenFOAM: The Open Source CFD Toolbox           |
|  \\    /   O peration     | Version:  v2012                                 |
|   \\  /    A nd           | Website:  www.openfoam.com                      |
|    \\/     M anipulation  |                                                 |
\*---------------------------------------------------------------------------*/
FoamFile
{
    version     2.0;
    format      ascii;
    class       volScalarField;
    location    "1.9";
    object      epsilon;
}
// * * * * * * * * * * * * * * * * * * * * * * * * * * * * * * * * * * * * * //

dimensions      [0 2 -3 0 0 0 0];


internalField   nonuniform List<scalar> 
1984
(
0.00467835187767
0.00515776330683
0.00545976193076
0.00556283891108
0.00561368201559
0.00565330871937
0.00569151355561
0.00573048334356
0.00577106921032
0.00581521802664
0.00587038913391
0.00596285082969
0.00617109083816
0.00668851858511
0.00789438788246
0.0104748382798
0.0155072969669
0.0251152328368
0.0422887204945
0.0677874711718
0.00519245989675
0.00523109615952
0.00562280202298
0.00575131916445
0.00580467894908
0.0058398105283
0.00587153126517
0.00590333045674
0.00593648311762
0.00597371610607
0.0060249748767
0.0061230415741
0.00635941746954
0.00694430599506
0.00825481550118
0.0108255404569
0.0152140716134
0.0225533706448
0.0352775374877
0.0552987155973
0.00553610977139
0.00567424707712
0.00612978590428
0.00627776386051
0.00633581258197
0.00637191408051
0.00640407480561
0.00643649029736
0.00647061955556
0.00650950787066
0.00656424334412
0.00667060896594
0.00692638356082
0.00755215106928
0.00893870205391
0.0116438372771
0.01623691813
0.0238686267973
0.0370246987839
0.058402669188
0.0056663586166
0.00584178878464
0.00632294401405
0.00647791222255
0.00653666426282
0.00657209367196
0.00660364931063
0.00663581888998
0.00667005396254
0.00670942230064
0.00676504863573
0.00687279022914
0.00713011861038
0.00775646393887
0.0091433760766
0.0118648718939
0.0165383224227
0.0243772976432
0.0379881917864
0.0611654644589
0.00572596471716
0.00591294102107
0.00640350656546
0.00656009560712
0.00661785616708
0.0066518353289
0.00668214929999
0.00671340318048
0.00674702618814
0.00678595060012
0.00684102425638
0.00694723921286
0.00719997250298
0.00781491051566
0.00918054058021
0.0118758529786
0.0165499267305
0.0244618898977
0.0383351794932
0.0690706618068
0.00576326046141
0.00595237706943
0.00644610235867
0.00660226654298
0.00665842805989
0.00669065767166
0.00671940206134
0.00674934027206
0.00678186741411
0.00681978164918
0.00687348532956
0.00697679944813
0.00722236005914
0.00782116788626
0.00915738231639
0.0118099910665
0.0164515724661
0.0243776461463
0.0385793793219
0.0848706279071
0.00579351290523
0.00598184514439
0.00647663943651
0.00663180314134
0.00668626955024
0.00671673595851
0.00674383759907
0.00677230588492
0.00680351217442
0.00684011348548
0.0068920309201
0.00699174949908
0.00722888811796
0.00780914687461
0.00911124852786
0.0117122705557
0.0163034445009
0.0242198019589
0.0389156681218
0.100232132097
0.00582127763559
0.0060081513564
0.00650353518926
0.00665766942515
0.0067105697104
0.0067393777561
0.0067648993799
0.00679188899524
0.00682171042766
0.00685688230538
0.00690681752596
0.00700257306583
0.00723050391293
0.00779058799941
0.00905554547719
0.0115986025953
0.0161265655841
0.0240240853407
0.0394042049917
0.112374842557
0.00584779431531
0.00603337882341
0.00652925262114
0.00668252021547
0.00673403611753
0.00676135109078
0.00678540086383
0.00681098186024
0.00683944336698
0.00687317145746
0.00692105099746
0.00701264695558
0.0072308423983
0.00776946984376
0.00899439838738
0.0114733265708
0.01592882546
0.0238053370533
0.0401290043043
0.124026599925
0.00587332078467
0.00605800557095
0.00655444426442
0.0067069655109
0.00675730076558
0.00678329980381
0.00680601334359
0.00683028968782
0.00685746334615
0.00688977084139
0.00693559363194
0.00702292989698
0.00723102298135
0.00774715870822
0.00892957170855
0.0113391122865
0.0157137030427
0.0235555672713
0.040359162725
0.116884340882
0.00589786458524
0.00608204626627
0.00657916444491
0.00673109444742
0.00678040162329
0.0068052429256
0.00682676673744
0.00684985476463
0.00687583619689
0.00690679289689
0.00695058018215
0.00703362439733
0.00723142555629
0.00772435829011
0.00886245448882
0.0111985750261
0.0154852504974
0.0232983180238
0.0404922811835
0.10173088626
0.00592138739994
0.00610546314312
0.00660333150789
0.00675480322928
0.00680323284004
0.00682706226042
0.00684753325321
0.00686955366617
0.00689442080038
0.00692411028563
0.00696593906658
0.0070447285861
0.00723215097447
0.00770144558917
0.0087939788248
0.0110538924477
0.0152480567695
0.0230464420557
0.0410452279838
0.10001617906
0.00594384240856
0.00612814319225
0.0066268686696
0.00677799301323
0.00682566441614
0.00684860757268
0.00686814184133
0.00688919945933
0.00691305086706
0.00694156009845
0.00698152482667
0.00705617914739
0.00723335770877
0.00767897649472
0.00872497294445
0.010906768968
0.0149974614317
0.0227123971371
0.0406406787149
0.0895112661807
0.00596519133725
0.00615004495553
0.00664965670122
0.00680054570774
0.00684758026379
0.00686975051976
0.00688845692569
0.00690864424489
0.00693159300922
0.00695901658799
0.00699720987307
0.0070679041684
0.00723517572273
0.00765778296182
0.00865825997772
0.0107612588258
0.0147280207587
0.0222619236379
0.0401046736473
0.0902447832572
0.00598542619602
0.00617106173259
0.00667155397851
0.00682236179349
0.00686887771201
0.00689039016357
0.00690837419969
0.00692780189921
0.00694993520678
0.00697636284707
0.00701292008391
0.0070799568909
0.00723805554937
0.00763945717614
0.00859808441304
0.010625668493
0.0144404713742
0.0217353877862
0.0442562546192
0.152009404997
0.00600457137203
0.00619102582891
0.00669254127559
0.00684336404216
0.00688947724196
0.00691044472768
0.00692780989706
0.00694656669055
0.00696796405581
0.00699349365501
0.00702861479312
0.00709248103981
0.00724297298225
0.0076278321515
0.0085572890216
0.0105336061117
0.0142075522575
0.0208661057818
0.0378351326968
0.139798749389
0.00602271674706
0.00620991897555
0.00671252256237
0.0068635003535
0.00690933053974
0.00692984885229
0.00694668798316
0.00696486463444
0.00698560465855
0.00701035635843
0.0070442301099
0.00710555755241
0.00725059273232
0.00762497339436
0.00853963588846
0.010518801396
0.0142610560725
0.0208579172509
0.0325146823211
0.0495224147693
0.00603993563401
0.00622761479568
0.00673146245469
0.00688272394978
0.0069283892062
0.00694854886807
0.00696493487998
0.00698259785969
0.00700278331665
0.00702683050453
0.00705957129672
0.00711840098373
0.00725728910258
0.00761775312278
0.00850873285256
0.0104898857003
0.0145145213735
0.022851034077
0.0411907374449
0.0724609673053
0.00605596527531
0.00624400086672
0.0067492490939
0.00690095188932
0.00694659542461
0.00696647903567
0.00698250528538
0.00699975434243
0.00701945756725
0.00704286475843
0.00707447914796
0.00713065609565
0.00726250645347
0.00760505799797
0.00845742491497
0.0104068178525
0.0147926776108
0.0261587409838
0.059307422058
0.159268231878
0.00607096521133
0.00625905907143
0.00676586277172
0.00691818900193
0.00696391143557
0.00698364157941
0.00699940009203
0.007016323374
0.00703562963523
0.00705848348839
0.00708903223603
0.00714255182249
0.00726717960941
0.00759136122291
0.00840493732586
0.0103189134785
0.0149513908505
0.0280409842668
0.0659376954717
0.168471523623
0.00608454001699
0.00627285352202
0.00678140962067
0.00693448998129
0.00698037666022
0.00700002389347
0.00701560734482
0.00703230597194
0.00705132910602
0.00707372018431
0.00710330716302
0.00715425113742
0.00727177853058
0.00757826763261
0.00835824960643
0.0102511658012
0.0150950212477
0.0292945589838
0.0692716520919
0.170215939896
0.00609644420253
0.00628545195507
0.00679584887954
0.00694978626314
0.00699594682783
0.00701561378441
0.00703112341201
0.00704768857735
0.00706651295123
0.00708856224316
0.00711733128339
0.00716583159775
0.00727641979452
0.00756586526351
0.00831480552728
0.010192923991
0.0152175191679
0.0301963954658
0.0712068603031
0.170825916044
0.00610651980759
0.00629671991892
0.00680911605204
0.00696405137368
0.00701059786102
0.00703037669077
0.00704589052975
0.00706241831152
0.00708117976279
0.00710305471893
0.00713113989246
0.0071773587594
0.0072810969431
0.00755371630785
0.00827229928316
0.0101328214996
0.0152940634818
0.0307804985446
0.0721540356354
0.170957805611
0.00611478956901
0.00630667025951
0.00682121046773
0.00697727765188
0.00702429221468
0.00704426228983
0.00705988800269
0.00707653631359
0.00709537162744
0.00711718395741
0.00714473970113
0.00718882735931
0.00728585251124
0.00754131386548
0.00822776247657
0.0100627234747
0.0152933228705
0.0309736837499
0.0720784541748
0.170628710476
0.00612118704763
0.00631507710985
0.00683199030811
0.00698935834271
0.0070369649423
0.0070572405766
0.00707310435079
0.00708997170025
0.00710901951964
0.00713095105413
0.00715818674697
0.00720035096851
0.00729074130179
0.00752859855933
0.00817988226391
0.00997156937698
0.0151739266316
0.0306321323131
0.0705327192324
0.16938239411
0.00612539110756
0.00632185821588
0.0068413326462
0.0070001889141
0.00704852332238
0.00706921705245
0.0070854307994
0.00710266370724
0.00712210621718
0.00714434148576
0.00717146424313
0.00721193993619
0.00729589678855
0.00751573033643
0.00812802114766
0.00985267945094
0.0149154695876
0.0296765583863
0.066593003389
0.164046745818
0.00612751064375
0.00632666545562
0.00684894779254
0.00700956277986
0.00705881859755
0.00708007628114
0.00709678395282
0.00711453877738
0.0071345331515
0.00715728327204
0.007184556577
0.00722369552823
0.00730166293619
0.00750366541745
0.00807469476453
0.00971844288727
0.0145836301878
0.0282396743078
0.0574907167548
0.111918984237
0.00612850531359
0.0063294394094
0.00685456477046
0.00701727437602
0.00706771616443
0.00708971856742
0.00710706769596
0.00712549836322
0.00714623845206
0.00716973961435
0.00719746608105
0.0072357235015
0.00730840485915
0.00749383533981
0.00802464554239
0.00958945235172
0.0143016569006
0.0276766024419
0.0582347432068
0.109853285051
0.00612814988174
0.00632997306683
0.00685796949011
0.0070231230233
0.0070750420207
0.00709798755311
0.00711614206979
0.00713542412953
0.0071571096639
0.00718161051322
0.00721012435654
0.00724801398195
0.00731623490987
0.00748596755022
0.00797657622104
0.00945790120743
0.0140214025111
0.0275934803294
0.0630030808492
0.141089694884
0.00612544187349
0.00632803312763
0.00685894661281
0.00702691430669
0.00708062475626
0.00710473385672
0.00712387479731
0.00714418732416
0.00716701582628
0.00719276440829
0.00722241266953
0.00726045125284
0.00732496960378
0.00747960193659
0.00792730281594
0.00930516467337
0.0136731354844
0.0275453083269
0.0691397252132
0.168833098565
0.00612087932747
0.00632337661841
0.00685729422326
0.00702843344226
0.00708424930643
0.0071097471753
0.00713005780874
0.00715158324686
0.00717577153417
0.0072030352143
0.00723418075761
0.00727290254044
0.00733461299116
0.00747539257774
0.00787983298522
0.00914133796694
0.013262428047
0.0272883022769
0.0715061127076
0.17148199307
0.00611365783677
0.00631585494985
0.0068527575903
0.00702742201861
0.00708566903446
0.00711279644281
0.00713446848767
0.00715740058065
0.00718317049299
0.00721221429241
0.00724516934268
0.0072850909456
0.00734486500655
0.00747283991766
0.00783354985021
0.00897347930535
0.0128677871775
0.0272368524845
0.0741534295575
0.173394548112
0.0061037677059
0.00630514171
0.00684505790413
0.00702360218345
0.00708461892053
0.00711362688641
0.00713686563787
0.00716140653357
0.00718898181067
0.00722003740502
0.00725515269806
0.00729686528268
0.00735586256651
0.00747352411308
0.0077990167125
0.00886100646834
0.0127343314462
0.027568551476
0.0757993984731
0.173423261412
0.00609079161645
0.00629101373852
0.00683388272538
0.00701665068267
0.00708079569279
0.00711196580166
0.0071370023505
0.00716337083652
0.00719293975052
0.00722625800503
0.00726390740372
0.00730801956583
0.0073676686013
0.00748080798924
0.00780312215425
0.00895617152407
0.0133406024314
0.0276586124103
0.0689061722195
0.160122694508
0.00607454899837
0.00627314515266
0.006818931418
0.00700625139243
0.00707389187434
0.00710751627484
0.00713458908321
0.00716298900409
0.00719479139601
0.00723063670461
0.00727100701866
0.00731774240116
0.00737880712376
0.00748835079887
0.0078145636123
0.00912426621395
0.0143869247534
0.0315544963484
0.07385055463
0.166102147902
0.00605476364427
0.00625134602443
0.00679989269245
0.00699205405241
0.00706357834392
0.00709998343858
0.00712934760431
0.00716002094485
0.00719428803027
0.00723285978513
0.00727630351845
0.00732649303602
0.00739329796719
0.00753650300186
0.00816258819184
0.0112845741203
0.0225999844813
0.0495428552304
0.0949479712117
0.183048803526
0.00603083602267
0.00622534182169
0.00677647608305
0.00697373507571
0.00704948083933
0.00708901108316
0.00712097633484
0.00715418285282
0.00719113516636
0.0072325791368
0.00727893529046
0.00733144669623
0.00739677284691
0.00750733519184
0.0078636556596
0.00944086987115
0.0157972442392
0.0363101032148
0.095757723037
0.196897049048
0.0060030085335
0.00619491912614
0.00674839981206
0.00695092694148
0.00703126460215
0.00707428156377
0.0071091820334
0.00714522992054
0.00718517319556
0.00722978173645
0.0072793262195
0.00733456606234
0.00739941756984
0.00749025108708
0.00769814593243
0.00846169780608
0.0120309662705
0.0288604312688
0.10687731123
0.210434685282
0.00597066781359
0.00616005137316
0.00671548664687
0.00692337842457
0.00700858962187
0.00705545979838
0.007093639057
0.00713290779683
0.00717624698687
0.0072244286618
0.00727763157201
0.00733628132985
0.00740283103891
0.0074875768771
0.00765496268639
0.00823511403962
0.0111902545353
0.0268587316353
0.0952746230319
0.221286977795
0.00593378258215
0.00612069655728
0.00667768536577
0.00689084964402
0.00698116310341
0.00703219875764
0.00707405396816
0.00711698188265
0.00716418846775
0.00721651125659
0.00727398069893
0.00733671968893
0.00740650670204
0.00749163438692
0.00766801984604
0.00849310827573
0.0134211169199
0.0343768111202
0.0798248211834
0.205387655472
0.00589215584861
0.00607696673921
0.00663499991806
0.00685328191411
0.00694876322276
0.0070042400229
0.00705016834274
0.00709722165654
0.0071488860463
0.00720601584396
0.00726849187638
0.00733596924549
0.00740937653301
0.0074942441591
0.00764324065421
0.00821719917876
0.011383273373
0.0280957583846
0.094629783481
0.222377890453
0.00584623749063
0.00602934099437
0.00658786116119
0.00681080678473
0.00691135699708
0.00697143198348
0.00702174916904
0.00707341968736
0.00713023458241
0.00719307365671
0.00726150862308
0.00733480904003
0.0074132316269
0.00750071852854
0.00762871678467
0.00802771149485
0.0102448124604
0.0244908692567
0.100082012189
0.211337168943
0.00579635376343
0.00597856196609
0.00653697601608
0.00676393265947
0.00686916654589
0.0069337500569
0.00698870038553
0.00704547880845
0.00710828336482
0.00717790150062
0.00725347348942
0.00733390121166
0.00741908325907
0.00751228697264
0.00763458224815
0.00797854757843
0.0101864437826
0.0262229619851
0.0968188210002
0.203092321406
0.0057433779914
0.00592596199804
0.0064836369995
0.00671362994843
0.00682274426217
0.00689141307012
0.00695092736393
0.00701299580503
0.00708258435021
0.00716011920412
0.00724396514742
0.00733253963304
0.00742570480642
0.00752661433115
0.00765001916667
0.00794500750399
0.00990685201273
0.02582339246
0.0973000929984
0.20538800055
0.0056887764481
0.0058735429208
0.00642985409881
0.00666150287389
0.00677310999445
0.00684463949442
0.00690728979573
0.00697271525685
0.00704812137392
0.00713370381912
0.00722652383375
0.00732438400983
0.00742722327213
0.00753830595611
0.00766815076026
0.00792205981302
0.00930960134604
0.0211285132102
0.102322196546
0.215254815816
0.00563467596004
0.00582406678101
0.0063784000155
0.00660976931267
0.00672145298101
0.0067921091362
0.00684976800152
0.00690261652448
0.00696874647398
0.00705551341608
0.00715639195039
0.00726784379711
0.00739048684157
0.00752480483247
0.00767163656811
0.00790956942536
0.00902926702952
0.0187409176779
0.100518274282
0.227624715147
0.00558371509517
0.00578063181297
0.00633240748163
0.00656116966382
0.00666848323629
0.00672690345042
0.00674658544384
0.00670416789526
0.00665929952695
0.00672759869426
0.00683235876931
0.00697188863091
0.00716480296515
0.00738955054422
0.00759345419804
0.00783917984127
0.00872096391756
0.0164401711276
0.0788787549326
0.19995897793
0.00553856130946
0.00574590750858
0.00629473800216
0.0065180987249
0.00661351247199
0.00663494255297
0.00652794842907
0.00612485762642
0.00709955166274
0.00693885668297
0.00707450246493
0.0074010425144
0.00634436000684
0.00694412753655
0.00733261037344
0.00769677517929
0.00949392072553
0.0299683544135
0.121252942
0.238482226019
0.00550296158659
0.00572236331312
0.00626845290752
0.00648373414557
0.00655924408485
0.00652029243149
0.00620925554968
0.00649246129495
0.0070706593694
0.00648717129032
0.00708103001534
0.00752085014974
0.00888610830668
0.0224923085722
0.118228061136
0.246762258394
0.0054797826022
0.00570863232185
0.00625451660328
0.00646625801255
0.00653059695286
0.00645604123591
0.00604245148593
0.00599428766283
0.00700373212628
0.00650484743306
0.00697194649934
0.00735848137275
0.00830397930246
0.0157098623199
0.0779458144378
0.206433324582
0.00547978769367
0.00570863752897
0.0062545209706
0.00646626083155
0.006530597567
0.00645603969111
0.00604244972919
0.00599429872937
0.00700382678442
0.00650501288582
0.00697222728132
0.00735880609215
0.00830428543994
0.0157099111888
0.0779459249773
0.206433359123
0.0055029751898
0.00572237816651
0.00626846583564
0.00648374325245
0.00655924796464
0.0065202914032
0.00620925663956
0.00649247800151
0.00707084887373
0.00648748561857
0.00708154897468
0.00752149657577
0.0088868538253
0.0224930620773
0.118231035438
0.246763939651
0.00553858456649
0.0057459334092
0.00629476230811
0.00651811839898
0.00661352537437
0.00663494864595
0.00652795270929
0.00612486473031
0.00709955201426
0.00693887078886
0.00707454169896
0.00740111678006
0.00634448832903
0.00694438997509
0.00733310050134
0.00769746460214
0.00949463919593
0.0299678483312
0.121254005867
0.238485444299
0.00558373263087
0.00578065450293
0.00633242879828
0.00656118784925
0.00666849752699
0.00672691438944
0.00674659634342
0.00670418740455
0.00665932513278
0.00672764313627
0.00683243274564
0.00697200862969
0.00716499202616
0.00738987343692
0.00759397696402
0.00783989134957
0.008721700854
0.0164403383811
0.0788776253121
0.199957750267
0.00563469326203
0.00582408754692
0.00637842374469
0.00660979271408
0.0067214743046
0.00679213062485
0.00684979276488
0.00690264853756
0.00696879226877
0.00705558153264
0.00715649159051
0.00726798281521
0.00739069074355
0.00752513997757
0.00767216920207
0.00791026946084
0.00902996225049
0.0187412531057
0.10051731223
0.227621122564
0.00568879537566
0.00587356183486
0.00642988029007
0.00666152972495
0.00677313325311
0.00684466686868
0.00690732588909
0.00697276318676
0.00704818594306
0.00713379144836
0.00722664368473
0.00732454251507
0.0074274402396
0.00753865054503
0.00766868611924
0.00792273546468
0.00931024617202
0.0211290085196
0.102321665709
0.215253356186
0.00574340399871
0.00592598905568
0.00648367205207
0.00671366091204
0.00682276432956
0.00689144093659
0.00695096848645
0.0070130535423
0.00708266276409
0.00716022177694
0.00724409938291
0.00733271242367
0.0074259358922
0.00752697321774
0.00765056205024
0.00794567036695
0.00990747800593
0.0258237921007
0.097299997642
0.205387354318
0.00579639818321
0.00597861023476
0.00653702635132
0.00676398187938
0.00686919929353
0.00693378565262
0.00698875090981
0.00704554733115
0.00710837612565
0.00717801771664
0.00725362072352
0.0073340884683
0.00741933267605
0.00751266701326
0.00763514069832
0.00797920467774
0.0101870336791
0.0262233924654
0.0968194635063
0.203092699611
0.00584630858481
0.00602942028154
0.00658794902449
0.00681088958971
0.00691144057226
0.00697151088575
0.00702183510465
0.00707351321178
0.00713035935562
0.00719321962984
0.00726168828221
0.00733503140646
0.0074135218625
0.00750114290704
0.00762931511842
0.00802838326352
0.0102454081848
0.0244916330837
0.100084074816
0.211339256584
0.00589225177687
0.00607707702848
0.00663511900872
0.00685340338073
0.00694888272769
0.00700436477947
0.00705029834821
0.00709736596293
0.00714904993537
0.00720620497401
0.00726870972257
0.00733622577511
0.00740969704425
0.0074946988535
0.0076438294033
0.00821778635393
0.0113839182707
0.0280967409946
0.0946335227228
0.222379868436
0.00593390032204
0.00612083352564
0.0066778349164
0.00689100203167
0.0069813184447
0.0070323592913
0.00707422498324
0.00711717165623
0.00716440680774
0.00721674115288
0.00727424899081
0.0073370207325
0.00740687362735
0.00749212654142
0.00766865094217
0.00849377675516
0.0134217587519
0.0343784517781
0.0798287383557
0.20538743767
0.00597080834941
0.00616021599235
0.0067156661987
0.0069235626464
0.0070087778204
0.00705565442277
0.00709384475622
0.00713313645168
0.00717650730243
0.0072246986536
0.00727793230506
0.00733662355113
0.00740323526519
0.00748810081823
0.0076556034868
0.00823578085534
0.0111908011263
0.0268597592481
0.095277888354
0.221288882289
0.00600316212229
0.00619510050349
0.00674859976619
0.00695113383486
0.00703147702982
0.00707450116491
0.00710941323583
0.00714548645848
0.00718546310379
0.00723007980424
0.00727966155526
0.007334948394
0.00739985966017
0.00749080396785
0.007698760006
0.00846220133834
0.0120311671153
0.0288606718812
0.106879248011
0.210435561737
0.00603099586848
0.00622552893337
0.00677668519975
0.00697395448266
0.00704970785161
0.00708924561842
0.00712122149695
0.00715445048432
0.00719143682101
0.00723289013883
0.00727928967741
0.00733185271372
0.00739724428838
0.00750790295969
0.00786420826211
0.00944114829972
0.0157972629987
0.0363110233889
0.0957586041195
0.196897474741
0.00605491241597
0.00625152137788
0.00680009074656
0.00699226345707
0.00706379728164
0.00710021280781
0.00712959070704
0.00716028594877
0.00719457722495
0.00723316298281
0.00727664739375
0.00732688943808
0.00739377638475
0.00753709456872
0.00816323517539
0.0112852022638
0.0226009885294
0.04954397363
0.0949477496789
0.183048317928
0.00607469340563
0.00627331618082
0.00681912766125
0.00700646127648
0.00707411326001
0.0071077499048
0.00713483668162
0.00716325500577
0.00719507863199
0.00723094440459
0.00727135076484
0.00731812031391
0.00737924953424
0.00748891944715
0.00781524884605
0.00912499872412
0.0143875761711
0.0315546296617
0.0738501809666
0.166101917677
0.00609093427238
0.00629118448301
0.00683408066123
0.00701686352381
0.0070810208854
0.00711220410097
0.00713725526846
0.00716364178188
0.0071932311746
0.00722656910298
0.00726425026114
0.00730839582744
0.00736810463831
0.00748132914558
0.00780374728865
0.00895680710727
0.0133410351352
0.0276586438849
0.0689061459838
0.160123102945
0.00610391091275
0.00630531449457
0.00684525861461
0.00702381815874
0.0070848473336
0.0071138685188
0.00713712193051
0.00716168084431
0.00718927635912
0.0072203518858
0.00725549805225
0.007297240056
0.00735628995482
0.00747403477431
0.00779959967148
0.00886157063108
0.0127346901856
0.0275686084527
0.0757997251587
0.173423765433
0.00611380254749
0.00631603022996
0.00685296095244
0.00702764048523
0.00708589975127
0.00711304007569
0.00713472632857
0.00715767571025
0.00718346530881
0.00721252969532
0.00724551629456
0.00728546786584
0.00734529101815
0.00747334313072
0.00783411368576
0.00897402210957
0.0128681722829
0.0272369340239
0.0741539147113
0.173395055638
0.00612102900041
0.00632355542522
0.00685750036329
0.00702865414881
0.00708448185159
0.00710999214638
0.00713031615977
0.00715185732474
0.00717606395261
0.00720334945248
0.0072345285341
0.00727328232597
0.00733504008859
0.00747589198718
0.00788038725133
0.00914188848515
0.0132628781798
0.0272885488916
0.0715068570074
0.17148271296
0.00612559657275
0.0063282145574
0.00685915477619
0.0070271366892
0.00708085873869
0.0071049798761
0.00712413313849
0.00714445907712
0.00716730380101
0.00719307644279
0.00722276160771
0.00726083476434
0.00732539846991
0.00748009633253
0.00792785006355
0.00930573401829
0.0136736559824
0.0275457252675
0.0691404346915
0.168833638709
0.00612830536466
0.00633015566586
0.00685817884768
0.00702334669499
0.00707527732481
0.0070982346784
0.00711640030229
0.00713569297471
0.00715739236268
0.00718192103673
0.00721047602875
0.00724840280911
0.00731666824533
0.00748645781873
0.00797711550021
0.0094584801979
0.0140219696679
0.0275937286656
0.0630013998162
0.141086762236
0.00612865802406
0.0063296213055
0.00685477442453
0.00701749897045
0.00706795292101
0.00708996745807
0.00710732657083
0.00712576403438
0.0071465153919
0.00717005239498
0.00719782166938
0.00723611904191
0.00730884070821
0.00749431641901
0.00802516013016
0.00958998566089
0.0143021142301
0.0276768930085
0.0582345308091
0.109854135713
0.00612765873525
0.00632684524764
0.00684915653082
0.00700978740596
0.00705905629629
0.00708032734645
0.00709704739888
0.00711481158869
0.00713481977228
0.00715760796521
0.00718491802167
0.00722409437142
0.00730209529126
0.00750413059083
0.00807519319113
0.00971895896389
0.0145840414471
0.0282398258494
0.057491347893
0.111920421743
0.00612553246631
0.00632203101925
0.00684153360899
0.00700040559016
0.00704875337478
0.00706946146637
0.00708569020308
0.0071029373061
0.00712239849546
0.00714467588093
0.00717183527861
0.007212347427
0.00729633615932
0.00751619575963
0.00812851329913
0.0098532011852
0.0149158934116
0.0296764676699
0.0665922567356
0.164046229805
0.00612133518231
0.00631525472032
0.00683219673906
0.00698958250611
0.0070372050589
0.00705749770311
0.00707337980942
0.00709026572569
0.00710933562233
0.00713130100209
0.00715856792472
0.00720076356477
0.00729118090579
0.00752905480263
0.00818034550863
0.00997203570264
0.0151743742223
0.0306324405308
0.0705328164772
0.169382586112
0.00611493198301
0.00630683827946
0.00682140495206
0.0069774893955
0.00702452046774
0.00704450863567
0.00706015480845
0.00707682632049
0.00709568801146
0.00711753326216
0.00714512308279
0.00718924353616
0.00728629354993
0.00754176520289
0.00822821396666
0.010063181734
0.0152937800202
0.0309739806892
0.0720780809769
0.17062830622
0.00610665639894
0.00629688024183
0.00680930143344
0.00696425474564
0.00701081957296
0.00703061830409
0.007046153976
0.00706270659918
0.00708149615527
0.00710340302555
0.00713152205212
0.00717777229806
0.00728153117826
0.00755415353847
0.00827272944986
0.0101332699353
0.0152945619625
0.0307809338149
0.0721539274648
0.170957366445
0.00609657032046
0.00628560082594
0.00679602083159
0.0069499773922
0.00699615895181
0.00701584862511
0.00703138194835
0.00704797363251
0.00706682743502
0.00708890936852
0.00711771262824
0.00716624283282
0.00727684673713
0.00756628717444
0.00831521132433
0.010193350715
0.0152180416306
0.0301969538544
0.0712070522447
0.170825711814
0.00608465216523
0.00627298797042
0.00678156416011
0.0069346650105
0.00698057511739
0.00700024864349
0.00701585820091
0.0070325858222
0.00705164020187
0.00707406562112
0.00710368858837
0.00715466179808
0.00727219943617
0.00757867508701
0.00835863075916
0.0102515639041
0.0150955473637
0.0292952036846
0.0692719514833
0.170215768356
0.0060710631184
0.00625917940173
0.0067659971052
0.00691834600106
0.00696409365878
0.00698385303859
0.00699963980388
0.00701659520328
0.00703593476782
0.00705882509792
0.00708941296721
0.00714296142699
0.00726759202281
0.00759175171791
0.00840529188566
0.0103192769725
0.0149518934074
0.0280416446228
0.0659379118727
0.168471221143
0.0060560571258
0.00624411838518
0.00674938996295
0.00690111530953
0.00694675743877
0.00696667364327
0.006982728235
0.00700001233769
0.00701975095955
0.00704319752891
0.00707485356922
0.00713106283502
0.00726290687231
0.00760542678665
0.00845775255101
0.0104071459919
0.0147931347084
0.0261593756323
0.059307684572
0.159267947072
0.00604004157333
0.00622775170283
0.0067316218234
0.00688289781175
0.00692855610198
0.00694871912496
0.00696513229094
0.00698283216304
0.00700305582756
0.00702714225303
0.00705993692513
0.00711880076799
0.0072576763181
0.00761809631319
0.00850902853516
0.0104901642981
0.014514878399
0.0228515234544
0.0411910203692
0.0724607355491
0.00602282928249
0.00621006316912
0.00671268438854
0.00686367861721
0.00690950177575
0.00693002311801
0.00694687587539
0.0069650681389
0.00698584921591
0.00701064650889
0.0070445759315
0.00710594728719
0.00725096135242
0.00762528699767
0.00853988970407
0.0105190173828
0.0142612692366
0.0208581093841
0.0325147042107
0.0495222907581
0.00600467758973
0.0061911639703
0.00669268694518
0.00684351105907
0.00688962988343
0.0069106070493
0.00692798654669
0.00694676469682
0.00696819864159
0.00699377719795
0.00702895518613
0.00709286624784
0.00724332207223
0.00762812195036
0.00855750340499
0.0105337504742
0.0142076186846
0.0208660264447
0.0378348822723
0.139798277872
0.00598551517765
0.0061711709382
0.00667167087291
0.00682248741819
0.00686901636825
0.00689054473345
0.00690854851297
0.00692800197977
0.00695017464699
0.00697664361709
0.00701326167926
0.00708032689991
0.00723838911515
0.00763973037035
0.00859828177775
0.0106257925414
0.0144405233876
0.0217354078028
0.0442560479595
0.152009181231
0.00596526573474
0.00615013391088
0.00664975615437
0.00680065666842
0.00684770608687
0.0068698944813
0.00688862342622
0.00690884133373
0.00693182916187
0.0069592966241
0.00699753656018
0.00706824901327
0.0072354865642
0.0076580346034
0.00865843756123
0.0107613692844
0.014728071911
0.0222619572203
0.0401049073416
0.0902447568606
0.00594390392785
0.00612821593743
0.00662695484368
0.0067780918939
0.00682577810143
0.00684873950998
0.00686829748824
0.00688938837524
0.00691328046709
0.00694182822152
0.00698183363583
0.00705649063336
0.00723363844626
0.00767920186909
0.00872512738793
0.0109068612136
0.0149974863948
0.0227123029111
0.0406407875915
0.0895113090583
0.00592143620846
0.00610552445401
0.00660340701532
0.00675489120074
0.00680333477875
0.00682718194502
0.00684767724485
0.0068697333862
0.00689463966555