/*--------------------------------*- C++ -*----------------------------------*\
| =========                 |                                                 |
| \\      /  F ield         | OpenFOAM: The Open Source CFD Toolbox           |
|  \\    /   O peration     | Version:  v2012                                 |
|   \\  /    A nd           | Website:  www.openfoam.com                      |
|    \\/     M anipulation  |                                                 |
\*---------------------------------------------------------------------------*/
FoamFile
{
    version     2.0;
    format      ascii;
    class       volScalarField;
    location    "1.9";
    object      epsilon_0;
}
// * * * * * * * * * * * * * * * * * * * * * * * * * * * * * * * * * * * * * //

dimensions      [0 2 -3 0 0 0 0];


internalField   nonuniform List<scalar> 
1984
(
0.00475806966563
0.00524479226377
0.00555007184494
0.0056537285253
0.0057048108688
0.00574470286094
0.00578318936715
0.00582243217589
0.00586327552711
0.00590769444089
0.00596332135919
0.00605713936487
0.00627004551834
0.0068021314134
0.00804814102253
0.0107264274913
0.0159757324116
0.0260372706716
0.0440296814775
0.0709599590347
0.0052801665772
0.00531867298307
0.00571492842386
0.00584434495476
0.00589797066186
0.00593334142975
0.00596531870112
0.00599737055001
0.00603076684813
0.00606827786492
0.00612008230417
0.00621986545988
0.00646199133265
0.00706406673361
0.00841829296963
0.0110822903277
0.0156428861414
0.0232772497498
0.0364846369962
0.0567449022126
0.00562941637244
0.0057692551555
0.0062302681308
0.00637933646648
0.0064376747884
0.00647403393843
0.00650648647591
0.00653920355192
0.00657363660665
0.00661287792003
0.00666827031965
0.00677656178715
0.0070385244085
0.00768233387605
0.00911405377775
0.0119154590142
0.0166863603727
0.0246278607279
0.0383131106776
0.0598616184695
0.0057616387614
0.00593953441367
0.0064265575033
0.00658269971369
0.00664175186879
0.00667744923951
0.00670931919777
0.00674182399764
0.00677640588751
0.00681617885496
0.00687251925293
0.0069822396878
0.00724575292967
0.00788991390087
0.0093212938912
0.012138285762
0.01699083684
0.0251487973763
0.0393414711434
0.0617005691914
0.00582202394882
0.00601172595209
0.00650830836209
0.00666610081181
0.0067241574942
0.00675839960487
0.00678902969355
0.00682062777608
0.00685461263767
0.00689396043713
0.00694975934828
0.00705791906535
0.0073166506754
0.00794881354957
0.00935752382811
0.0121459390972
0.0169961700402
0.0252248128265
0.0396406537131
0.0633756958179
0.00585972748154
0.00605162008612
0.00655142451205
0.00670880237885
0.00676524929887
0.00679772736535
0.00682677623656
0.00685705128316
0.0068899365222
0.00692827028461
0.00698268118084
0.00708785796221
0.00733913337637
0.00795438161586
0.00933191380783
0.0120743973127
0.0168873617974
0.0251224207852
0.0397392857561
0.0702497318487
0.00589028144625
0.00608136036706
0.00658227194347
0.00673865784263
0.00679339855441
0.00682409565744
0.00685148384219
0.00688027342312
0.006911824314
0.00694882970685
0.00700142035919
0.00710289329703
0.00734541154981
0.00794120779736
0.00928259631779
0.0119697045611
0.0167262745721
0.024940196143
0.0398780012831
0.0855666103484
0.00591832247119
0.00610788279917
0.00660942142831
0.00676479037273
0.00681795691226
0.0068469780433
0.00687276666032
0.00690005880765
0.00693020714969
0.00696576225712
0.0070163290987
0.00711371702465
0.00734665999834
0.00792129993991
0.00922333307304
0.0118482545967
0.0165345598026
0.0247150088643
0.0402078934462
0.102344075191
0.00594511324667
0.00613331190875
0.0066353828666
0.00678990488389
0.00684168281954
0.00686919533788
0.00689349311952
0.00691935742182
0.00694812688278
0.00698221568625
0.007030682139
0.00712378187139
0.00734660216336
0.00789874703492
0.00915837708493
0.0117145276348
0.0163204364851
0.024462323922
0.0408582827225
0.119183807715
0.005970918203
0.00615813990575
0.00666082381785
0.00681462522857
0.00686522304948
0.00689140675547
0.00691435081759
0.00693889224855
0.00696635536725
0.00699900106703
0.00704536601785
0.00713407534454
0.00734639506853
0.00787496997334
0.00908957951458
0.0115713423392
0.0160876076452
0.0241789549679
0.0411264134965
0.121214696223
0.00599574688812
0.00618238494475
0.00668580311757
0.00683904461947
0.00688861878891
0.00691363480555
0.00693537387039
0.00695871035418
0.00698496435987
0.00701623797483
0.00706052408403
0.00714481252827
0.00734644236847
0.00785071823419
0.00901843078599
0.0114215073302
0.0158402738106
0.0238869009859
0.0414077100918
0.107922060627
0.00601956162589
0.00620601172611
0.00671023980418
0.00686305937013
0.00691176413124
0.0069357612074
0.00695643465204
0.00697868927918
0.00700381414011
0.00703380183395
0.00707608896296
0.00715599817458
0.00734685946625
0.00782640130227
0.00894594324431
0.0112673875196
0.0155835972298
0.0235996276407
0.042013895185
0.106329268621
0.00604231523032
0.00622890746771
0.00673405790333
0.00688657027143
0.00693452805823
0.00695763466868
0.00697736129965
0.00699864147608
0.0070227382566
0.00705152976957
0.0070919169141
0.00716757469414
0.00734781576644
0.00780261146618
0.00887299045877
0.0111108406388
0.0153136033818
0.0232341498734
0.0416378475639
0.0941727411863
0.0060639695106
0.00625103283766
0.00675713837268
0.00690945848013
0.00695679318989
0.00697912516488
0.0069980164518
0.00701841722424
0.00704160200056
0.00706929546867
0.00710788073849
0.00717947131499
0.00734944880973
0.00778019462425
0.00880248631228
0.0109561544438
0.0150252335031
0.0227459017783
0.0408400058674
0.0820663097603
0.00608451836415
0.0062722803854
0.00677933881648
0.00693162361242
0.0069784553706
0.00700012994619
0.00701829391699
0.00703792902676
0.00706029203732
0.00708698087921
0.00712390520775
0.00719174214033
0.00735220913883
0.00776073130824
0.00873857742591
0.0108113307579
0.0147170919357
0.0221475907098
0.0444789892323
0.151595627772
0.0061039849063
0.0062924822839
0.00680063829846
0.00695298575941
0.00699943293218
0.00702056553677
0.0070381081387
0.00705706905523
0.00707869305555
0.00710447942584
0.00713995011196
0.00720453619027
0.00735709988796
0.0077481839753
0.00869458620357
0.0107090363748
0.0144564480256
0.021197439279
0.0379928771713
0.138628204934
0.00612245928107
0.00631161536865
0.00682093861269
0.00697349046486
0.00701967559875
0.00704036413604
0.00705738055237
0.00707576106431
0.007096728123
0.0071217370379
0.00715595211743
0.00721794592328
0.00736472021514
0.0077441440332
0.00867240338298
0.0106837150472
0.0144862190457
0.0211578015924
0.0328895775745
0.0497506629505
0.00614002062686
0.00632955140118
0.00684020391779
0.00699308946719
0.00703913216868
0.00705946914055
0.0070760340387
0.00709390074047
0.00711431505827
0.00713861736564
0.00717167947872
0.00723106727759
0.0073713671824
0.00773592405145
0.00863806725539
0.010644762263
0.0147089907276
0.023063202535
0.0414563631274
0.0708261120785
0.00615639625272
0.00634618004898
0.00685832090446
0.00701169829061
0.00705774221462
0.00707780932458
0.00709401606722
0.00711147049131
0.00713140517687
0.00715507167639
0.00718699687184
0.00724366178691
0.00737666840747
0.00772256608863
0.00858396144563
0.0105512245361
0.014946978734
0.0262485325388
0.0593279306632
0.159326994412
0.00617171740984
0.00636147263496
0.00687527996738
0.00702933299626
0.00707547065957
0.0070953880663
0.00711132900505
0.00712846097391
0.00714800377779
0.00717112224317
0.00720197758316
0.00725593606914
0.00738152706447
0.00770847157136
0.00852934068033
0.0104551570893
0.0150763701603
0.028067830131
0.065936205254
0.168588123438
0.00618551134153
0.00637555181133
0.00689118890227
0.00704603531113
0.00709234944506
0.00711218835816
0.0071279572643
0.00714486857538
0.0071641341891
0.00718679737755
0.00721669178338
0.00726804279422
0.00738639158055
0.00769518943131
0.00848109056364
0.0103814236877
0.015202503838
0.0293117679072
0.0694087392314
0.170457944397
0.00619762266042
0.0063884302023
0.00690598872083
0.00706173099673
0.00710833183382
0.00712819512962
0.0071438937916
0.00716067713388
0.00717975056194
0.00720207921242
0.00723116050051
0.00728004927543
0.00739135863465
0.00768277544833
0.0084366205743
0.0103195344786
0.0153198555471
0.0302452079654
0.0715263206658
0.171207353927
0.00620789744624
0.0063999700649
0.00691961085855
0.00707639064144
0.00712339125442
0.0071433718879
0.00715907872412
0.00717582904138
0.00719484649671
0.00721700936851
0.00724541381328
0.00729201251291
0.00739640257468
0.00767074875652
0.00839357220167
0.0102580230019
0.0154027792424
0.0308940371584
0.0726775475961
0.171477905033
0.00621634615698
0.00641018058821
0.00693205154442
0.00709000389558
0.00713748705029
0.00715766456455
0.00717348730093
0.00719036277506
0.00720946086717
0.00723156947477
0.00725945202697
0.00730391575676
0.00740154305853
0.00765854625082
0.0083488231634
0.0101884090653
0.0154171728368
0.0311714010672
0.072802833757
0.171264985886
0.00622290495753
0.00641883454837
0.00694316653427
0.00710246176509
0.00715055204255
0.0071710411577
0.00718710643181
0.0072042058469
0.00722352192895
0.00724575713928
0.00727332664048
0.00731586454108
0.00740681355367
0.00764605193998
0.00830090829313
0.0100988878561
0.0153170525135
0.0309191003322
0.0714071584617
0.170068811869
0.00622724548372
0.00642584382509
0.00695282964491
0.0071136572459
0.00716249102525
0.00718340457626
0.00719982439248
0.00721729438097
0.00723701043353
0.00725955537733
0.00728701729204
0.0073278619601
0.0074123304621
0.00763338057561
0.00824900022935
0.00998147026961
0.0150751435866
0.0300468605136
0.0676309470186
0.165028527157
0.00622945858973
0.00643084606358
0.00696074288555
0.00712337802953
0.00717315086363
0.00719463535269
0.00721155379031
0.00722955045121
0.00724982351763
0.00727288780248
0.00730050310517
0.007340002362
0.00741842650768
0.00762145888868
0.00819545454198
0.00984752549821
0.0147533766404
0.0286943612022
0.0589485163636
0.116647824448
0.00623054344236
0.00643377504076
0.00696662345446
0.00713141147787
0.00718239358869
0.00720463249292
0.00722219848816
0.00724087621751
0.00726189997194
0.00728571885983
0.00731378828722
0.0073523947259
0.00742546831484
0.00761170255165
0.00814496206222
0.00971758390312
0.0144692294259
0.02810766707
0.0596153421627
0.11516532225
0.00623027132679
0.00643441975998
0.00697025088376
0.00713755157228
0.00719004101883
0.00721323606802
0.00723161540888
0.00725115074252
0.00727312488847
0.00729794686384
0.00732680337118
0.00736502778274
0.00743356930584
0.00760385077327
0.0080963209057
0.00958488875677
0.0141841459581
0.0279491926503
0.064144166078
0.149377734009
0.00622763605922
0.00643254497294
0.00697140595033
0.00714159933518
0.00719591709575
0.0072202923655
0.00723966815434
0.00726024213827
0.00728336596767
0.0073094399882
0.00733943034605
0.00737778747157
0.00744254828336
0.00759743152324
0.00804615145825
0.00942948968215
0.0138247756818
0.0277735816443
0.0693540670191
0.169167816507
0.00622310657384
0.00642790151049
0.00696988154743
0.00714333431885
0.00719980174139
0.00722558724267
0.00724614642187
0.00726794452845
0.0072924371173
0.00732003152842
0.00735151840572
0.00739054385144
0.00745241500718
0.00759311162372
0.00799749988223
0.00926127147571
0.013396003348
0.0274441325691
0.0715545299611
0.171602760291
0.00621588587657
0.00642033321377
0.00696541640368
0.00714249139149
0.00720144212446
0.00722888395454
0.00725082274283
0.00727404297911
0.00730012995543
0.00732951378312
0.00736281324225
0.00740302494264
0.00746287472095
0.00759037800307
0.0079494752112
0.00908532841218
0.0129654762544
0.027302409648
0.0742054155845
0.173547700269
0.00620595466786
0.00640950962181
0.00695772340335
0.00713878508782
0.00720056654648
0.00722992258314
0.00725345149299
0.00727830033618
0.00730621009078
0.00733762144139
0.00737308879381
0.00741507799744
0.00747405545935
0.00759070678008
0.0079116804829
0.00895468581772
0.0127568922291
0.0274763561967
0.0759536478148
0.173466844762
0.00619289010721
0.00639519915492
0.00694648212535
0.00713188347662
0.00719686354675
0.00722842299852
0.00725377992444
0.00728048313306
0.00731041300762
0.00734410858706
0.00738212196887
0.00742650771782
0.0074860429004
0.00759732698001
0.0079096531242
0.00901550182414
0.0132388465502
0.0272532694237
0.0684948416123
0.157184717555
0.00617650615867
0.00637707059086
0.00693138291529
0.00712146024036
0.00719001662444
0.00722408019368
0.00725151162162
0.00728028334449
0.00731248190542
0.0073487362334
0.00738950085808
0.00743652745949
0.00749741933941
0.00760405599517
0.0079114691453
0.00912759762537
0.0141050725537
0.0309346985196
0.0744140205225
0.1661767881
0.00615651028802
0.00635492486737
0.00691210570626
0.00710715494802
0.00717968530112
0.00721658988717
0.0072463608302
0.00727745216339
0.00731216286072
0.00735119037556
0.00739506657788
0.00744552946774
0.00751163787032
0.00764661975365
0.00822252811279
0.0111837832682
0.0224339563871
0.0502911298705
0.0981127784713
0.185600550793
0.0061323109012
0.00632848350955
0.00688835059506
0.00708863312184
0.00716548653827
0.00720558690209
0.00723801737195
0.0072716999073
0.00730915942765
0.00735113055375
0.00739801260689
0.00745096977934
0.00751624738274
0.00762341184129
0.00795696699119
0.00943816530854
0.0155482386109
0.0354842857877
0.0930090226605
0.196433662397
0.00610411413149
0.00629752696642
0.00685982884389
0.00706551817847
0.00714707355002
0.00719074107816
0.00722617505799
0.00726277024568
0.00730329691334
0.00734851614552
0.0073986789215
0.00745448878823
0.00751965444499
0.0076094567492
0.00780842625219
0.00852536731224
0.0118867388883
0.0278440479819
0.104964945664
0.210207531913
0.00607131514731
0.00626202190422
0.00682635448661
0.00703754724651
0.00712409379362
0.00717170493229
0.00721050039101
0.00725040014306
0.00729441197242
0.0073433046289
0.00739722760486
0.00745655186445
0.00752358402405
0.00760788934946
0.00776874600541
0.00830577744216
0.0110221312612
0.0258038535954
0.0941895196045
0.221607422466
0.00603386330782
0.00622192552039
0.00678787102012
0.00700447344168
0.00709624548541
0.00714812401354
0.00719069012665
0.00723434647967
0.00728233548027
0.00733548688416
0.00739379630296
0.00745732380581
0.00752765832738
0.0076120551113
0.00777526701426
0.00848853221912
0.0128371908668
0.0327348405982
0.0796701391249
0.204052012473
0.00599157209053
0.00617735474239
0.00674438746453
0.00696623253441
0.00706329900165
0.00711972885101
0.00716647293732
0.00721437005548
0.00726695156099
0.00732505773437
0.00738853416149
0.00745696892862
0.00753113602435
0.00761605584197
0.00775863137158
0.00828675569503
0.0112398021696
0.0274467104332
0.0951887635335
0.223047690531
0.0059448677518
0.00612879255201
0.00669633508736
0.00692296047047
0.00702521801873
0.00708635862218
0.00713761048125
0.0071902645809
0.00724815774583
0.00731215615614
0.0073817716215
0.00745623191816
0.00753567776694
0.00762387530655
0.00774944633864
0.0081275539449
0.0102182647091
0.0239674319952
0.0999276910427
0.211759466657
0.00589408514923
0.0060769966385
0.00664443862583
0.00687517234644
0.00698222722811
0.00704799246586
0.0071040050419
0.00716191946775
0.0072260034435
0.00729699566302
0.00737395618609
0.00745575525259
0.00754224482187
0.00763656701463
0.00775813815602
0.00808755321763
0.0101865158746
0.0258105887371
0.096354388925
0.203225920393
0.00584011065878
0.00602332822968
0.00659001801733
0.00682385737345
0.00693488766493
0.00700484661972
0.00706555672394
0.00712894099419
0.00720006128478
0.00727922602967
0.00736467395159
0.00745482333789
0.00754959740431
0.00765192314304
0.0077758196492
0.00806148119595
0.00992354207074
0.0254089813213
0.0966222637804
0.205356289369
0.00578443642395
0.00596983515341
0.00653512705652
0.00677065536125
0.00688424351618
0.00695715747389
0.00702114138479
0.00708809798856
0.00716538252812
0.00725285871646
0.00734744744636
0.00744707864977
0.0075518579095
0.00766452532785
0.00779567399605
0.00804696193976
0.00939196794524
0.0208275510078
0.101203018204
0.215201333111
0.00572921822277
0.00591933898543
0.00648259831586
0.00671783699347
0.00683152392941
0.00690363811532
0.0069627499471
0.00701723341163
0.00708556672829
0.00717435664796
0.00727711591578
0.00739050749742
0.00751545826857
0.0076515091158
0.00779995266659
0.0080370051308
0.0091293010138
0.0185667577115
0.0989142514175
0.227457759763
0.00567714826551
0.00587501677897
0.00643564321744
0.00666821179453
0.00677747806697
0.00683733347942
0.00685814378798
0.00681578721763
0.00677395036951
0.00684371817628
0.00694998012808
0.00709175260218
0.00728982389712
0.00751462790433
0.00772089585681
0.00796687403615
0.00882140443442
0.0162265670546
0.076642871461
0.198794914171
0.0056309744461
0.00583960101157
0.00639719184894
0.00662425609449
0.00672149637491
0.00674406501557
0.00663699556652
0.00623055477706
0.0072283462459
0.00706316515111
0.00719984929863
0.00752901746239
0.00645755532972
0.00705953520839
0.00745324693201
0.00781551280591
0.00952939123611
0.0299747181395
0.121404045231
0.238384140273
0.00559450626453
0.00581561102191
0.00637037673396
0.00658920415312
0.00666620453621
0.00662771543729
0.00631303202282
0.00660064968047
0.0071944515236
0.00659399644294
0.00719499258358
0.0076372029265
0.00895549775965
0.022239790299
0.117806244244
0.246708311011
0.00557080273036
0.00580159776134
0.00635615555814
0.00657139490875
0.00663711145322
0.00656261410721
0.00614479493155
0.00609618944183
0.0071080646396
0.00660468860681
0.00708141438215
0.00747452990112
0.00839422531605
0.0155686594116
0.0768237522252
0.205794392788
0.00557080786594
0.00580160302397
0.00635615996095
0.00657139772904
0.00663711202305
0.00656261241528
0.0061447929422
0.00609620021599
0.00710816041619
0.00660485671026
0.007081700876
0.00747486122258
0.00839453398408
0.015568696037
0.0768238114943
0.205794202301
0.00559452001012
0.00581562608916
0.00637038982713
0.0065892133518
0.00666620835681
0.00662771414018
0.00631303258886
0.00660066554575
0.00719464574933
0.00659431644831
0.0071955222091
0.00763786152186
0.00895625929907
0.0222406101484
0.117809324445
0.246709906072
0.00563099772707
0.00583962719445
0.00639721640052
0.00662427594042
0.0067215093114
0.00674407091958
0.00663699955721
0.00623056181188
0.00722834600781
0.00706317895009
0.00719988911779
0.00752909234189
0.00645768645533
0.00705980318584
0.00745374888291
0.0078162169525
0.00953015004824
0.0299744151369
0.121405301746
0.238387218151
0.00567716564677
0.00587503982594
0.00643566487738
0.00666823025977
0.00677749251718
0.00683734441489
0.00685815452281
0.00681580669152
0.0067739761415
0.00684376348449
0.00695005551857
0.00709187519626
0.00729001771745
0.00751495851158
0.00772143264002
0.00796760251329
0.00882216143406
0.0162267346297
0.0766414034524
0.198793380778
0.00572923577555
0.00591936019656
0.00648262259499
0.00671786094065
0.00683154567527
0.00690365996151
0.00696277505083
0.00701726581489
0.00708561321124
0.00717442602895
0.00727721776322
0.00739064990573
0.00751566718016
0.00765185239454
0.00780049985286
0.00803772237015
0.00913001400599
0.0185670936975
0.0989130744593
0.227454181511
0.005784456398
0.00596985468121
0.00653515401249
0.00677068297273
0.00688426732159
0.00695718542961
0.00702117822404
0.00708814683716
0.00716544837523
0.0072529482562
0.00734757011005
0.00744724110945
0.00755208027635
0.00766487808734
0.0077962235257
0.00804765396552
0.00939262761212
0.0208279590821
0.101202462863
0.215199895741
0.00584013826997
0.00602335604251
0.00659005393391
0.00682388908658
0.00693490809902
0.00700487495535
0.00706559858521
0.00712899985506
0.00720014134977
0.00727933091689
0.00736481137571
0.00745500036825
0.00754983377436
0.00765228985414
0.00777637600553
0.00806215976455
0.00992417689235
0.025409350012
0.0966220884476
0.20535563098
0.00589413098115
0.00607704617539
0.00664449029945
0.00687522269557
0.00698226095081
0.00704802881871
0.0071040564694
0.00716198923425
0.00722609814577
0.00729711444555
0.00737410678116
0.0074559467894
0.0075424992646
0.00763695439296
0.00775870937164
0.00808822628054
0.010187114614
0.0258109780465
0.096354898911
0.203226204167
0.00594494071
0.00612887370799
0.00669642493765
0.00692304533053
0.00702530347793
0.00708643930501
0.00713769833723
0.00719035996601
0.00724828535765
0.00731230526817
0.00738195546238
0.00745645948957
0.0075359741548
0.00762430823712
0.0077500589301
0.00812824499239
0.0102188721039
0.0239681748866
0.0999295549367
0.211761379515
0.00599167048551
0.00617746773672
0.00674450936617
0.00696635677535
0.0070634213586
0.00711985657247
0.00716660577722
0.00721451758781
0.0072671188292
0.00732525107067
0.00738875668732
0.0074572308702
0.00753146230041
0.0076165193515
0.00775923557337
0.00828736143375
0.011240456144
0.0274476553009
0.095192218305
0.223049402008
0.00603398379735
0.0062220658077
0.00678802412546
0.00700462940629
0.00709640441218
0.00714828819814
0.00719086495745
0.00723454025586
0.00728255874936
0.00733572132374
0.00739407040992
0.00745763079856
0.00752803180403
0.0076125563198
0.00777591251155
0.00848922195481
0.0128378521951
0.0327365689974
0.0796742538783
0.204051231048
0.00607145852916
0.00626219046908
0.00682653835618
0.00703773584796
0.00712428636705
0.00717190392984
0.00721071046647
0.00725063354519
0.00729467794553
0.00734358001308
0.00739753414951
0.00745690059827
0.00752399522432
0.00760842322424
0.00776940078285
0.00830646112549
0.0110226873793
0.0258048618662
0.0941926583178
0.221609213191
0.00610427074375
0.00629771263285
0.00686003359494
0.00706572999302
0.00714729088435
0.00719096554461
0.00722641106349
0.00726303194428
0.00730359290976
0.00734881986864
0.00739902055143
0.00745487849859
0.00752010442202
0.00761002136681
0.00780905738328
0.00852588883799
0.0118869414067
0.0278442260424
0.104966773696
0.210208275896
0.00613247365441
0.00632867488946
0.00688856460835
0.00708885762978
0.00716571868576
0.00720582646887
0.00723826744899
0.00727197252908
0.0073094669567
0.00735144720313
0.00739837347961
0.00745138368236
0.00751672780592
0.0076239933661
0.00795753792259
0.00943844833077
0.0155482000381
0.0354852238168
0.0930099761913
0.196434054833
0.00615666194626
0.00635510418316
0.00691230836488
0.00710736922368
0.00717990926419
0.00721682436329
0.0072466090806
0.00727772240646
0.00731245717171
0.00735149853533
0.00739541596847
0.00744593301728
0.00751212543541
0.00764722428033
0.00822319216804
0.0111844196653
0.022434983957
0.0502923743141
0.0981125081675
0.185600131862
0.006176653767
0.00637724570939
0.00693158389105
0.00712167518404
0.00719024330635
0.00722431929113
0.00725176475002
0.00728055483862
0.00731277465208
0.00734904953864
0.00738985069529
0.00743691217936
0.0074978694854
0.00760463614528
0.00791217040689
0.00912835348472
0.0141057704666
0.030934831494
0.0744136548439
0.166176517079
0.00619303620472
0.00639537410682
0.00694668489526
0.00713210148356
0.00719709416327
0.00722866693983
0.00725403861128
0.0072807598442
0.0073107101883
0.00734442547024
0.00738247090257
0.00742689116149
0.00748648767712
0.00759785853236
0.00791029176509
0.00901615140782
0.0132392957622
0.0272533043822
0.0684947217286
0.157185067941
0.00620610147165
0.0064096866801
0.00695792899666
0.00713900627392
0.00720080042557
0.00723016990734
0.0072537136501
0.00727858056183
0.00730651054518
0.00733794190968
0.00737344045094
0.00741546013468
0.00747449152404
0.00759122860872
0.00791227761191
0.00895526233241
0.0127572570482
0.0274763791985
0.0759538855864
0.173467293922
0.00621603424706
0.00642051279838
0.00696562465561
0.00714271506839
0.00720167830683
0.00722913329027
0.0072510864849
0.00727432407673
0.00730043073524
0.00732983528939
0.00736316668132
0.00740340953287
0.007463309758
0.00759089267436
0.00795005386794
0.00908588503655
0.0129658723234
0.0273024700852
0.074205793006
0.173548143248
0.00622325987926
0.00642808462571
0.00697009257339
0.00714356022595
0.00720003974638
0.00722583792863
0.00724641070128
0.00726822459688
0.00729273549733
0.00732035194253
0.00735187285735
0.00739093158284
0.00745285144273
0.0075936227077
0.00799806914966
0.00926183677905
0.0133964671428
0.0274443717935
0.0715551871905
0.171603430825
0.00622779427519
0.00643273070204
0.00697161900582
0.00714182692325
0.00719615655414
0.00722054413228
0.00723993247121
0.00726051991022
0.00728365987279
0.00730975826526
0.00733978619297
0.00737817921291
0.0074429867642
0.00759793763997
0.00804671351482
0.00943007385035
0.0138253095856
0.0277739987544
0.0693547762271
0.169168370492
0.00623043029998
0.00643460665382
0.00697046514603
0.00713778047351
0.00719028183832
0.00721348900183
0.00723187969787
0.00725142566416
0.00727341349919
0.00729826373935
0.00732716226505
0.00736542513594
0.00743401236199
0.00760435253724
0.00809687439241
0.00958548227874
0.0141847293603
0.0279494713461
0.0641421919764
0.149374915311
0.00623069959837
0.00643396119431
0.00696683797915
0.00713164127995
0.00718263585432
0.00720488722125
0.00722246347095
0.00724114799103
0.00726218294041
0.00728603819796
0.00731415150995
0.00735279910375
0.00742591404126
0.00761219491812
0.0081454902743
0.00971813229753
0.0144697032539
0.028107993153
0.0596151776151
0.115166169906
0.00622961008524
0.00643103004357
0.0069609564069
0.0071236077812
0.00717339400866
0.00719489226706
0.0072118234937
0.0072298298284
0.00725011711036
0.00727322001317
0.00730087287496
0.00734041045124
0.00741886892744
0.00762193495484
0.00819596518552
0.00984805625167
0.0147538064662
0.028694517841
0.0589491842349
0.116649177395
0.0062273903243
0.00642602076667
0.00695303531212
0.00711387897967
0.00716272648206
0.00718365480124
0.00720009006299
0.00721757464531
0.00723730983513
0.00725989732809
0.0072873964593
0.00732827822466
0.0074127792526
0.00763385597824
0.00824950324207
0.00998200654135
0.0150755889244
0.0300467731981
0.0676301761826
0.165027994394
0.00622305641737
0.0064190160959
0.00694337743822
0.00710269077344
0.00715079740014
0.00717130398199
0.00718738817966
0.00720450676498
0.00722384561332
0.0072461154042
0.00727371700299
0.00731628727281
0.00740726418043
0.00764651979396
0.00830138332079
0.0100993654818
0.0153175130774
0.030919428287
0.0714072565531
0.17006901393
0.0062164917792
0.00641035234564
0.00693225026752
0.00709022024949
0.00713772031936
0.00715791638091
0.00717376009211
0.00719065939674
0.00720978449698
0.00723192669392
0.00725984409674
0.00730434140656
0.00740199421594
0.00765900803986
0.00834928535221
0.0101888796777
0.0154176468094
0.0311717200619
0.0728024840815
0.171264551212
0.00620803701298
0.00640013387883
0.00691980019424
0.00707659836357
0.00712361777463
0.00714361881413
0.007159348031
0.00717612382275
0.00719517010059
0.00721736564588
0.00724580476843
0.00729243563385
0.00739684695645
0.00767119626735
0.00839401246215
0.0102584830138
0.0154032964218
0.0308945033713
0.0726774760648
0.171477454211
0.00619775145771
0.00638858223482
0.00690616422214
0.00706192609751
0.00710854845524
0.00712843504633
0.00714415799503
0.00716096853964
0.00718007216345
0.00720243429932
0.00723155070443
0.00728047018149
0.00739179573966
0.00768320749323
0.00843703590434
0.0103199714014
0.0153203960919
0.0302458008468
0.0715265475832
0.171207141839
0.00618562592619
0.00637568911847
0.00689134658706
0.00704621392921
0.00709255205335
0.00711241794083
0.00712821359574
0.00714515465257
0.00716445232157
0.00718715073989
0.0072170820897
0.00726846315272
0.00738682253195
0.00769560672421
0.00848148063055
0.0103818305123
0.0152030460652
0.0293124506147
0.0694090746823
0.170457756869
0.00617181761781
0.0063615956772
0.00687541751757
0.0070294934698
0.00707565662067
0.0070956039868
0.00711157388571
0.00712873884823
0.00714831585278
0.00717147176805
0.00720236731318
0.00725635559015
0.00738194954213
0.00770887172243
0.00852970377085
0.0104555282526
0.0150768861229
0.0280685283206
0.0659364363807
0.168587753977
0.00615649066504
0.00634630098684
0.006858465483
0.00701186565423
0.00705790781218
0.00707800798834
0.00709424371086
0.0071117342685
0.00713170534897
0.00715541233435
0.00718738071591
0.00724407902696
0.00737707908318
0.00772294431952
0.00858429740931
0.0105515597405
0.014947446661
0.0262491957522
0.0593281970373
0.159326649079
0.00614012933967
0.00632969168666
0.00684036734514
0.00699326721627
0.00703930290535
0.00705964289076
0.00707623534087
0.00709414014237
0.00711459377694
0.00713893681427
0.00717205448752
0.00723147791064
0.0073717644082
0.00773627610157
0.00863837038157
0.0106450472743
0.0147093548179
0.0230637020485
0.0414566388407
0.0708258409899
0.00612257442372
0.00631176283947
0.0068211038101
0.00697367196418
0.00701985018107
0.0070405420558
0.00705757231409
0.0070759684995
0.00709697796694
0.00712203392387
0.00715630724143
0.00721834749928
0.00736509862052
0.00774446557589
0.00867266338881
0.0106839351389
0.0144864340815
0.0211579933022
0.0328895972632
0.0497505395493
0.006104093456
0.00629262243428
0.00680078641712
0.00695313563577
0.00699958896208
0.00702073144248
0.00703828860256
0.00705727137217
0.00707893282219
0.00710476947416
0.0071402990877
0.0072049328381
0.00735745894862
0.0077484804832
0.00869480531831
0.0107091839804
0.0144565162114
0.0211973595047
0.0379927120495
0.138627839625
0.00608460962153
0.00627239148477
0.00677945811911
0.00693175203388
0.00697859723787
0.00700028820742
0.00701847239043
0.00703813381248
0.00706053694813
0.00708726878533
0.00712425541351
0.00719212195649
0.00735255184746
0.00776101100471
0.00873877961389
0.0108114588425
0.0147171481721
0.0221476243336
0.0444787964185
0.151595442985
0.00606404573234
0.00625112389875
0.00675724015017
0.00690957211404
0.00695692205629
0.00697927262066
0.00699818700463
0.00701861907145
0.00704184382766
0.00706958272371
0.00710821621105
0.00717982684462
0.00734976705273
0.00778045214795
0.00880266825985
0.0109562688148
0.0150252891772
0.0227459387766
0.040840278178
0.082066357122
0.00604237843305
0.00622898196697
0.00673414620303
0.00688667159261
0.00693464453186
0.00695776983241
0.00697752074452
0.00699883496216
0.00702297352626
0.00705180526166
0.00709223381406
0.00716789490051
0.00734810309724
0.00780284203449
0.00887314855058
0.0111109363148
0.0153136325239
0.0232340467385
0.0416379644018
0.0941728193237
0.00601961165089
0.00620607458993
0.0067103171845
0.00686314949459
0.00691186855347
0.00693588380508
0.00695658214412
0.00697887338585
0.00700403911532