/*--------------------------------*- C++ -*----------------------------------*\
| =========                 |                                                 |
| \\      /  F ield         | OpenFOAM: The Open Source CFD Toolbox           |
|  \\    /   O peration     | Version:  v2012                                 |
|   \\  /    A nd           | Website:  www.openfoam.com                      |
|    \\/     M anipulation  |                                                 |
\*---------------------------------------------------------------------------*/
FoamFile
{
    version     2.0;
    format      ascii;
    class       volScalarField;
    location    "1.9";
    object      p_rgh;
}
// * * * * * * * * * * * * * * * * * * * * * * * * * * * * * * * * * * * * * //

dimensions      [1 -1 -2 0 0 0 0];


internalField   nonuniform List<scalar> 
1984
(
8535.84223352
8535.54441776
8534.87465641
8533.8435143
8532.45435873
8530.70136445
8528.56744802
8526.03429816
8523.07744902
8519.66648385
8515.76221834
8511.31651124
8506.26991289
8500.56410573
8494.16313226
8487.01197202
8330.50135855
2977.01106014
1.62087867199
2.08004909495
8536.0932312
8535.79826903
8535.1312006
8534.10008219
8532.71425102
8530.9673518
8528.84268627
8526.3227381
8523.38335535
8519.99591253
8516.1219061
8511.71287554
8506.70383982
8501.01865254
8494.59493508
8487.39501497
8296.24659754
2995.78552153
0.438268426776
0.527896510494
8536.68440471
8536.39154984
8535.73030597
8534.7083953
8533.33605034
8531.60749056
8529.50784283
8527.02070196
8524.12538189
8520.79375376
8516.9914727
8512.67260008
8507.77656426
8502.23852716
8496.00737551
8489.0852649
8305.9607004
3027.92787602
-0.404970762477
-0.134599985524
8537.59834567
8537.31223568
8536.65970314
8535.65206481
8534.3003657
8532.60001522
8530.53781497
8528.10088847
8525.2694773
8522.02223398
8518.32806641
8514.14725928
8509.42678554
8504.11398604
8498.1536996
8491.55264904
8317.90573484
3065.45283189
-0.37340602647
-0.0636175452802
8538.82061487
8538.53938353
8537.89767914
8536.90739245
8535.58111596
8533.91588026
8531.90083995
8529.52580056
8526.77697611
8523.63473894
8520.07679094
8516.07301259
8511.57704182
8506.54902287
8500.93189736
8494.73867748
8339.36797571
3115.59157406
0.146558925353
-0.184305320289
8540.34706383
8540.0699519
8539.44020378
8538.46958789
8537.17192714
8535.54590055
8533.58403302
8531.27949454
8528.62343288
8525.60407925
8522.20354752
8518.40372742
8514.16949261
8509.47532697
8504.26660383
8498.57020936
8365.41483818
3181.33926727
0.365929820412
-0.0938995557047
8542.1740137
8541.90056865
8541.28299742
8540.33288597
8539.06491581
8537.47965687
8535.57295888
8533.34243266
8530.78448954
8527.89456447
8524.66381792
8521.08528816
8517.13649562
8512.81121281
8508.0597673
8502.9317728
8394.20295344
3260.99492781
0.332942894137
-0.064441046508
8544.29776118
8544.02725188
8543.42127948
8542.49071624
8541.25126745
8539.70527939
8537.85197356
8535.69368424
8533.23239534
8530.47071282
8527.40996052
8524.05610515
8520.4021715
8516.45937891
8512.19434137
8507.68740257
8424.42728173
3350.95243129
0.250611651272
-0.0460587459877
8546.7149602
8546.44629076
8545.85037769
8544.9368801
8543.72246703
8542.21128843
8540.40587255
8538.3125003
8535.93875298
8533.29481851
8530.39208128
8527.25024471
8523.88007783
8520.31219871
8516.53683045
8512.66701688
8454.68365887
3446.78234676
0.178037650641
-0.0323847078018
8549.42307459
8549.15474613
8548.56677171
8547.66625813
8546.47159773
8544.98800436
8543.22075646
8541.17955876
8538.87703391
8536.33052426
8533.56110419
8530.60079037
8527.48071603
8524.25148309
8520.93474992
8517.67728027
8483.02554297
3547.06023952
0.380373685607
-0.033739512589
8552.42068338
8552.15100073
8551.56779813
8550.67572427
8549.49374952
8548.02796334
8546.28558135
8544.27895359
8542.02456771
8539.54567788
8536.8716489
8534.04601338
8531.11684582
8528.15660109
8525.22432826
8522.50267945
8507.36827237
3647.07436129
0.860731882889
0.0442001901704
8555.70740433
8555.43474173
8554.85265329
8553.96355231
8552.78639455
8551.32696066
8549.59352849
8547.59997691
8545.36571136
8542.91704691
8540.28839624
8537.53311217
8534.71240686
8531.9176336
8529.24901861
8526.91255519
8524.92308355
3741.57782247
2.12099092227
-0.0399451862863
8559.284111
8559.0063939
8558.42204796
8557.53075121
8556.35013221
8554.88496852
8553.14367198
8551.14021933
8548.89410365
8546.43229455
8543.79148502
8541.02851489
8538.21109502
8535.44447476
8532.85287152
8530.65572267
8529.07270639
3829.2346006
4.2776833613
-0.0320199987125
8563.15373003
8562.86889444
8562.27995374
8561.38108707
8560.18898386
8558.70664545
8556.94112689
8554.90446096
8552.61376672
8550.094216
8547.37983214
8544.52314668
8541.59184845
8538.68663153
8535.94016696
8533.56562652
8523.92164867
3897.90093389
6.20400230304
-0.0132180667137
8567.32118762
8567.02807919
8566.43151978
8565.52117226
8564.31072041
8562.80113135
8560.9970485
8558.9061896
8556.54122514
8553.92209496
8551.07547064
8548.04326722
8544.87930333
8541.67036326
8538.52244727
8535.52244159
8492.86606438
3951.11836518
4.49281490745
0.00332555614292
8571.79150564
8571.48875818
8570.8838923
8569.95899433
8568.72610236
8567.18206913
8565.32813773
8563.16772796
8560.70565926
8557.95103788
8554.92494444
8551.64990555
8548.15207967
8544.51742024
8540.82715881
8536.83295243
8458.63107279
3972.00840064
0.00942178312929
0.00644846199436
8576.56835994
8576.25532616
8575.64335542
8574.70354612
8573.44695411
8571.86577612
8569.95723764
8567.71905322
8565.14514183
8562.23040842
8558.99196336
8555.43739919
8551.5084814
8547.34184741
8542.90349768
8538.06670265
8457.71992325
3952.73599092
-0.00701105067492
0.00846707178464
8581.65716674
8581.33179688
8580.71771489
8579.76280169
8578.48769735
8576.87117747
8574.90877835
8572.59235547
8569.91233165
8566.81407235
8563.34502109
8559.46359638
8555.13494706
8550.37154061
8545.1382282
8539.32156102
8464.38919322
3927.77815294
-0.00401079787979
0.00613502850923
8587.06920908
8586.719603
8586.11634744
8585.14377959
8583.8637705
8582.2136755
8580.20654857
8577.81899067
8575.0257304
8571.79198798
8568.09864206
8563.90076629
8559.15017337
8553.79781845
8547.76908351
8540.92886045
8473.49152991
3907.08687302
0.00564720681292
0.00977977323071
8592.82116083
8592.39859465
8591.85431926
8590.86590712
8589.56966355
8587.91263295
8585.87875709
8583.4420065
8580.56813166
8577.21496948
8573.33525424
8568.86604192
8563.73067824
8557.83680089
8551.06337613
8543.20104996
8476.01356523
3899.86672582
0.00700048748916
0.0165997986501
8598.8431938
8598.46561894
8597.88581339
8596.92497261
8595.63435452
8593.98432458
8591.9488159
8589.49453742
8586.57916246
8583.15139946
8579.14450414
8574.47548291
8569.03992283
8562.70742138
8555.30292422
8546.52346698
8477.92349747
3905.7352815
0.0127587794447
0.019773467511
8605.18407052
8604.83376069
8604.25040894
8603.31972084
8602.05688753
8600.43768543
8598.43173917
8596.00114753
8593.09650493
8589.65618392
8585.60228032
8580.83455701
8575.22528321
8568.61213445
8560.77408836
8551.31812309
8482.97575529
3935.1496302
0.0204794940737
0.0199169632078
8611.83229238
8611.50280094
8610.93660167
8610.04699575
8608.83450423
8607.27504931
8605.33624847
8602.97636661
8600.14246087
8596.76683345
8592.76390806
8588.02319507
8582.40276811
8575.71964788
8567.72738736
8557.98094576
8493.42983774
4000.79051707
0.0291404504355
0.017504715309
8618.77045412
8618.46262324
8617.92874582
8617.09591395
8615.9575535
8614.48936381
8612.6580781
8610.42089421
8607.72413717
8604.49855967
8600.6562664
8596.08442624
8590.63805811
8584.13126913
8576.31908492
8566.7415518
8510.33511845
4115.80932621
0.036036155343
0.0132136036664
8625.97827586
8625.69786288
8625.20679566
8624.44817971
8623.40844836
8622.06382972
8620.38202034
8618.32164992
8615.83017361
8612.84181505
8609.27303449
8605.01691947
8599.9372268
8593.86200802
8586.57562397
8577.64355358
8533.51250507
4293.34950219
0.0378138653027
0.00749135688046
8633.4309191
8633.18137834
8632.74687868
8632.07884175
8631.16152704
8629.97230203
8628.48100256
8626.6494544
8624.42986033
8621.76169751
8618.57339351
8614.77191215
8610.24172914
8604.8428228
8598.40672371
8590.5773777
8561.18317461
4544.09135302
0.0257874362094
0.00313473910233
8641.09629898
8640.88314743
8640.5160609
8639.95490878
8639.18253256
8638.17826218
8636.91510187
8635.35970264
8633.47139973
8631.19872083
8628.48460322
8625.25704024
8621.43122295
8616.91203165
8611.59864725
8605.27768661
8589.78049697
4870.73380641
-0.00906091348495
-0.00133599244678
8648.9386888
8648.76611245
8648.47747887
8648.03840381
8647.43176148
8646.6393732
8645.63816935
8644.4000596
8642.89222956
8641.07516468
8638.90741921
8636.3418773
8633.32811238
8629.81696309
8625.79071467
8621.1838005
8615.25109775
5251.09462664
0.0222022244202
-0.0207932736602
8656.91623134
8656.78928654
8656.58825332
8656.28490972
8655.86237515
8655.30507492
8654.59397302
8653.70662376
8652.61782178
8651.30033433
8649.72767972
8647.8761701
8645.72807256
8643.27852728
8640.56539935
8637.60667029
8634.35585182
5619.82046444
17.2197172525
-0.0154608502094
8664.9863244
8664.90649833
8664.80169096
8664.64557841
8664.42241591
8664.11926842
8663.72075901
8663.20975982
8662.56767179
8661.77711912
8660.82464659
8659.70639655
8658.43360063
8657.04167428
8655.61329419
8654.24230259
8652.90914913
5940.42177879
93.8271678197
-0.00771907614256
8673.09748192
8673.0699951
8673.06655864
8673.06698025
8673.05558619
8673.02182583
8672.95375297
8672.83781074
8672.66038589
8672.40984591
8672.081809
8671.68698611
8671.25784746
8670.86689048
8670.65815902
8670.84061141
8671.74088935
6288.83373315
167.982421729
-0.0120181891976
8681.19856192
8681.22488473
8681.32874012
8681.49292975
8681.70284886
8681.95046414
8682.22590312
8682.51835384
8682.8164682
8683.11036942
8683.39785638
8683.69110497
8684.03092581
8684.5141831
8685.33905618
8686.85852183
8689.95071395
6664.67291658
236.787024564
-0.0283258748991
8689.23409449
8689.3161562
8689.53106345
8689.86456836
8690.30335073
8690.8412516
8691.47014872
8692.1810377
8692.96220412
8693.80214689
8694.69063964
8695.62564522
8696.6337997
8697.79952217
8699.28727667
8701.48215253
8705.50835014
7015.9593832
275.149183269
-0.0423427036374
8697.14777
8697.28637185
8697.61471331
8698.12138414
8698.79404968
8699.62832146
8700.61953504
8701.75886797
8703.03259567
8704.42286319
8705.90070957
8707.43137781
8708.98039315
8710.55170883
8712.24652809
8714.3663578
8718.35781475
7368.64189637
252.46320991
-0.0146873727111
8704.88139723
8705.0771419
8705.51969144
8706.20078291
8707.10985872
8708.24559149
8709.60637697
8711.18439682
8712.96557752
8714.92578296
8717.0185826
8719.15983733
8721.21207162
8722.91929815
8723.95747578
8723.85632936
8723.94341155
7240.81916047
178.095241964
-0.0312847383062
8712.37635431
8712.629241
8713.18520391
8714.04025097
8715.18584574
8716.62449734
8718.35887837
8720.38490746
8722.69443192
8725.26501054
8728.04862965
8730.93645397
8733.72900949
8735.88342435
8736.35385879
8732.39230667
8713.92018293
5847.40562585
282.945184678
-0.142565916524
8719.57574793
8719.88460053
8720.55168118
8721.57723109
8722.9553399
8724.69418693
8726.79966559
8729.27711878
8732.12879655
8735.34478288
8738.89998586
8742.71885182
8746.69216237
8750.46860441
8753.65559296
8755.41463354
8753.55095643
7308.38393283
634.147397145
-0.457576674392
8726.42472333
8726.78725162
8727.56033692
8728.74964124
8730.35205554
8732.38004043
8734.8476383
8737.77028742
8741.16479606
8745.04599986
8749.4295717
8754.32010431
8759.76490453
8765.71119963
8772.60982593
8781.57750506
8791.99498124
8496.33215749
924.788776227
-1.39012231312
8732.8694571
8733.28267984
8734.15520516
8735.49801858
8737.31017292
8739.61076697
8742.4211307
8745.7675277
8749.68008755
8754.19926759
8759.38294203
8765.29777312
8772.08900701
8779.78721393
8788.52525058
8796.93265666
8812.95076172
8444.02710055
1219.78916133
-2.61683866387
8738.85984208
8739.32001633
8740.28264878
8741.76504652
8743.76803734
8746.3171491
8749.44158433
8753.17332204
8757.55393367
8762.64027058
8768.52733125
8775.35630154
8783.45064669
8793.40329537
8806.75121994
8826.4027428
8854.9629206
8813.73483063
4060.92179558
49.5716181534
8744.35348135
8744.85429195
8745.89488907
8747.49773057
8749.66858837
8752.43631447
8755.83561577
8759.90606748
8764.68798107
8770.23618849
8776.64677136
8783.97703929
8792.4052094
8802.1296869
8813.28969076
8825.39138386
8836.3359664
8318.16136316
1258.36260625
-2.72026445086
8749.31310081
8749.84762286
8750.94994657
8752.6534092
8754.9603309
8757.9121193
8761.54580205
8765.90465071
8771.02940174
8776.97389325
8783.75044059
8791.39299117
8799.90255122
8809.2198208
8819.10974974
8829.21791187
8838.45904237
8638.79662244
1227.48512872
-1.7052351806
8753.70863807
8754.26820402
8755.41546388
8757.18966525
8759.60245023
8762.69669957
8766.51995884
8771.12053637
8776.52944265
8782.81013797
8789.92727371
8797.86294877
8806.52186439
8815.61049565
8824.74294571
8833.33638212
8839.97836601
8416.95335511
1275.63819114
-1.1034495761
8757.51829952
8758.09244626
8759.2638383
8761.07954968
8763.55418806
8766.74484433
8770.71108229
8775.50984588
8781.1381831
8787.77860122
8795.24838352
8803.54171505
8812.64329407
8821.78255313
8830.72689905
8839.11352547
8844.71938414
8444.34550518
1323.78925363
-1.43752829255
8760.73095568
8761.3081509
8762.47975169
8764.30034477
8766.78781753
8770.01882768
8774.07292705
8779.07123161
8785.13879736
8791.98907991
8799.739588
8808.40324054
8818.64199945
8827.94180502
8837.09566154
8847.23651353
8852.41276689
8829.56782613
1358.1522237
-3.64837782588
8763.34669015
8763.9126043
8765.05763198
8766.83946779
8769.27593878
8772.4567042
8776.48798096
8781.55671348
8787.8715122
8795.07397689
8803.23860324
8811.81618443
8825.33255268
8834.07351297
8843.84794601
8854.94434946
8860.57342143
8881.37701413
1548.66863799
-10.4062564767
8765.37916419
8765.92165878
8767.01451039
8768.7125978
8771.02095213
8774.02517079
8777.78155131
8782.64469818
8789.76249276
8797.31808069
8805.97071317
8815.29107692
8830.86063329
8839.1699395
8849.64153286
8863.36797235
8868.37863737
8919.66024208
7033.45581893
665.062804752
8766.85236838
8767.36139233
8768.38169922
8769.96403933
8772.10648665
8774.93998541
8778.56813331
8783.32993455
8790.66431317
8798.69395042
8808.01995007
8818.50916356
8835.83211968
8842.88850729
8853.46665476
8866.06215012
8868.99934424
8591.31878229
2037.82812517
-16.6139185985
8767.80240125
8768.27224704
8769.20005462
8770.5918626
8772.30391793
8774.29296307
8776.19870844
8777.63885725
8846.24243308
8850.29336766
8857.33559197
8867.22929216
8870.44462672
8875.81618672
1429.63021125
-22.4095968932
8768.26877765
8768.71671206
8769.60203049
8770.92057264
8772.54496777
8774.40287166
8776.11040429
8777.45481849
8851.04953571
8853.86679577
8862.05850076
8875.90523106
8881.19858662
8921.84824694
7491.52572686
938.94259608
8768.26880216
8768.71673883
8769.60204653
8770.92053807
8772.54486527
8774.40280012
8776.11033966
8777.45518346
8851.05377057
8853.86946091
8862.06450508
8875.91412502
8881.20616484
8921.8485026
7491.67012184
939.017732879
8767.80231211
8768.2721648
8769.1999611
8770.5917333
8772.30377181
8774.29282416
8776.1987263
8777.64001686
8846.25136601
8850.30396559
8857.34640483
8867.24154519
8870.4433733
8875.81498896
1429.67096201
-22.4111702098
8766.85190262
8767.36105748
8768.38149952
8769.96386315
8772.10625553
8774.93955255
8778.56805686
8783.33051665
8790.66673222
8798.69803
8808.02640923
8818.51832072
8835.84284146
8842.90045548
8853.47731266
8866.07503283
8868.99829481
8591.36631191
2037.68666032
-16.6155256329
8765.37753481
8765.9202605
8767.01352868
8768.71197482
8771.02117648
8774.02625086
8777.78356077
8782.64769959
8789.76639062
8797.32329751
8805.97838764
8815.30218195
8830.87073311
8839.18026903
8849.64957316
8863.37529056
8868.38421365
8919.65821755
7033.45487941
665.098388729
8763.34379418
8763.90996798
8765.05554173
8766.83815596
8769.27593343
8772.45793984
8776.49031868
8781.5599653
8787.87603251
8795.08022932
8803.24711226
8811.82756942
8825.34363604
8834.08491934
8843.85672057
8854.95270672
8860.57727552
8881.37731489
1548.6589066
-10.4064956436
8760.7268275
8761.30430733
8762.47642198
8764.298187
8766.78762111
8770.01983869
8774.07519562
8779.074956
8785.14360169
8791.9960136
8799.74856938
8808.41397297
8818.65312703
8827.95377785
8837.1040424
8847.24869566
8852.41960179
8829.54621049
1358.15268738
-3.64820547603
8757.51310031
8758.08771245
8759.26030693
8761.07811539
8763.55415009
8766.74703835
8770.71408288
8775.51460012
8781.14453857
8787.78571046
8795.25679231
8803.55153468
8812.65415195
8821.79457146
8830.73399123
8839.12950723
8844.7275516
8444.34438007
1323.79612361
-1.4374384165
8753.70300898
8754.2633443
8755.41164103
8757.18806762
8759.60186547
8762.69925374
8766.5241647
8771.12549064
8776.5351237
8782.8161242
8789.93414932
8797.87139948
8806.53249945
8815.62381123
8824.75499653
8833.35701364
8839.98718754
8416.95843759
1275.64411105
-1.10341695181
8749.30743239
8749.8427742
8750.94674721
8752.6517182
8754.96197823
8757.91504277
8761.54981987
8765.90941616
8771.03487561
8776.98055404
8783.7576188
8791.4029889
8799.91664873
8809.23934261
8819.12959939
8829.23975887
8838.46690339
8638.80150411
1227.483868
-1.70518300174
8744.34806534
8744.84965584
8745.89168872
8747.49684225
8749.66942698
8752.43948179
8755.84091288
8759.91189881
8764.69455717
8770.24253273
8776.65597343
8783.98817087
8792.42112861
8802.15137018
8813.31054682
8825.40636103
8836.34280424
8318.18795357
1258.34608041
-2.72009031699
8738.85502798
8739.31598282
8740.27997152
8741.76400825
8743.76916951
8746.32069688
8749.44730854
8753.18093475
8757.56210519
8762.6498558
8768.53857302
8775.37139187
8783.47137038
8793.42831752
8806.77514474
8826.41934165
8854.97161169
8813.76771748
4061.07190323
49.6264953357
8732.86547863
8733.27943641
8734.15331834
8735.49753441
8737.31185901
8739.61496048
8742.42844802
8745.77661354
8749.6904884
8754.2111141
8759.39707396
8765.31655343
8772.11277583
8779.81427223
8788.54953426
8796.95025097
8812.9574544
8444.04473703
1219.74615515
-2.61667222939
8726.42156579
8726.78472242
8727.55905566
8728.75026039
8730.35459045
8732.38543771
8734.85574189
8737.78075314
8741.1771031
8745.06006117
8749.44637354
8754.34123383
8759.78989449
8765.73830257
8772.63364702
8781.59228194
8792.00016108
8496.33345492
924.758159319
-1.39009231288
8719.57352656
8719.88294142
8720.55130087
8721.57880026
8722.9593364
8724.70029338
8726.80799951
8729.28787023
8732.14183928
8735.36034862
8738.9178832
8742.740717
8746.71695922
8750.49415482
8753.67619081
8755.42786429
8753.5549836
7308.37434046
634.128196204
-0.457574495268
8712.37541008
8712.62872828
8713.18582211
8714.04250702
8715.19031431
8716.63128838
8718.36734506
8720.39602379
8722.70683346
8725.27896573
8728.06421268
8730.95526572
8733.75121432
8735.90627772
8736.37359251
8732.40543107
8713.92628192
5847.40301689
282.942211498
-0.142560313225
8704.88183859
8705.07786379
8705.52095662
8706.20328918
8707.1144219
8708.25199046
8709.61480606
8711.19497793
8712.97819268
8714.94008813
8717.03406041
8719.17478981
8721.22719585
8722.93521831
8723.97166653
8723.8656824
8723.94657057
7240.83031739
178.093355625
-0.0312747543992
8697.14957025
8697.28834506
8697.61711356
8698.12450009
8698.7982631
8699.63450217
8700.6279269
8701.76873784
8703.04417565
8704.43578524
8705.91463463
8707.44547773
8708.99396178
8710.56200775
8712.25609897
8714.37241272
8718.35865797
7368.64387316
252.460835804
-0.0146820976678
8689.23728308
8689.31945937
8689.53461943
8689.86861565
8690.30814169
8690.84748742
8691.47806185
8692.1903217
8692.97276261
8693.81364315
8694.70268722
8695.63724794
8696.64450565
8697.8091145
8699.29395676
8701.48602415
8705.50823589
7015.96893602
275.145930149
-0.0423412254489
8681.2030588
8681.22943617
8681.33343858
8681.49789504
8681.70844991
8681.95713756
8682.2334555
8682.52708919
8682.82611662
8683.12056964
8683.40822497
8683.70072581
8684.03941881
8684.52159698
8685.34350786
8686.86061441
8689.94973002
6664.68995125
236.78535752
-0.0283241720801
8673.10316157
8673.07574018
8673.07239068
8673.0730195
8673.06201677
8673.02881734
8672.96138004
8672.84602499
8672.66916858
8672.41884544
8672.09074665
8671.69516718
8671.26486426
8670.87296768
8670.66124811
8670.84208053
8671.73946985
6288.85322359
167.980449782
-0.0120174476209
8664.9929018
8664.91310516
8664.80833068
8664.65229602
8664.42928843
8664.12626363
8663.7282991
8663.21750379
8662.57555601
8661.78498231
8660.83239207
8659.71352013
8658.43968456
8657.04697625
8655.61591357
8654.24415294
8652.90822057
5940.44082812
93.8236725699
-0.00772049385183
8656.92331738
8656.79636035
8656.59530541
8656.29194882
8655.86931914
8655.31187466
8654.60093887
8653.71383462
8652.62473927
8651.3071513
8649.73447953
8647.88253217
8645.73386159
8643.28371875
8640.56859999
8637.6086923
8634.35532198
5619.8386191
17.2132981331
-0.0154676749897
8648.94595328
8648.77332324
8648.4846162
8648.04540647
8647.43849164
8646.64591275
8645.64462695
8644.40658646
8642.89794382
8641.08119173
8638.9135222
8636.34776143
8633.33353439
8629.82177241
8625.79354861
8621.18761699
8615.24899698
5251.10113187
0.0221800678189
-0.0207946689775
8641.10338667
8640.89016595
8640.52296047
8639.96163968
8639.18915642
8638.18468836
8636.92124895
8635.36540819
8633.4762457
8631.20415599
8628.48992337
8625.26210327
8621.43592487
8616.91632599
8611.60302224
8605.28098877
8589.78028796
4870.74101855
-0.0090678383258
-0.00133710432406
8633.4374297
8633.18779199
8632.75313667
8632.08493024
8631.16743787
8629.97788973
8628.48614505
8626.65407124
8624.43387028
8621.76653842
8618.57847868
8614.77718611
8610.24707146
8604.84781911
8598.41090231
8590.580128
8561.18440952
4544.09622608
0.0257824749335
0.00313322521407
8625.98415142
8625.70372999
8625.2126213
8624.45394965
8623.41410824
8622.06931373
8620.38713749
8618.32641757
8615.83462375
8612.8461644
8609.27706782
8605.02055717
8599.94040948
8593.86464259
8586.57825875
8577.64612446
8533.53491679
4293.34463404
0.0378109696818
0.00749054378481
8618.7749873
8618.46712514
8617.9331599
8617.10022553
8615.96172433
8614.49336286
8612.66189303
8610.42454918
8607.72778983
8604.50226886
8600.66001296
8596.08812886
8590.64150986
8584.13408863
8576.32132399
8566.74315721
8510.33793205
4115.81165438
0.036053848579
0.0132191754375
8611.8353766
8611.50585568
8610.93956344
8610.04988459
8608.83730098
8607.27777044
8605.33891185
8602.97902721
8600.14520059
8596.76970197
8592.76689442
8588.02617319
8582.4054745
8575.72147084
8567.72879544
8557.9820381
8493.43057543
4000.7933692
0.0291574428069
0.0175108942489
8605.18555698
8604.83518068
8604.25170535
8603.32097713
8602.0581048
8600.43893573
8598.43304687
8596.00256968
8593.09813065
8589.6580929
8585.60446249
8580.83680073
8575.22714371
8568.61273142
8560.77462608
8551.318697
8482.97767294
3935.14790429
0.020486254969
0.0199208029314
8598.84293444
8598.46516034
8597.88521408
8596.92433323
8595.63369725
8593.98383245
8591.94851273
8589.4944714
8586.57945625
8583.1522046
8579.14586348
8574.47707251
8569.04103696
8562.70712905
8555.3027001
8546.52341091
8477.9252084
3905.72879155
0.0127563746143
0.0197738028538
8592.81910309
8592.39596287
8591.85152916
8590.86305997
8589.56690564
8587.91020321
8585.87669992
8583.4403319
8580.56697886
8577.21457441
8573.3357406
8568.86698027
8563.73097247
8557.83566502
8551.06260272
8543.20051931
8476.0135032
3899.85467605
0.00698820208575
0.0165960655614
8587.06483628
8586.71501579
8586.11167696
8585.13903087
8583.85833298
8582.20895955
8580.20249954
8577.81542528
8575.02295667
8571.79011463
8568.09821612
8563.90079283
8559.14916109
8553.79563738
8547.76749612
8540.92796942
8473.49051412
3907.06947072
0.00562709118708
0.00977304569445
8581.65075118
8581.32535933
8580.71088612
8579.75603418
8578.48033833
8576.86340767
8574.90206462
8572.58654911
8569.9077653
8566.81060894
8563.34334953
8559.46291316
8555.13288661
8550.37042895
8545.13622523
8539.32114936
8464.38589691
3927.75484414
-0.0040270816811
0.00612872223513
8576.55966359
8576.24657274
8575.63435976
8574.69456999
8573.43774103
8571.85657505
8569.94859214
8567.71046212
8565.1389658
8562.22582361
8558.99036555
8555.43709997
8551.50830756
8547.34158495
8542.90166602
8538.06555987
8457.74465664
3952.70072192
-0.00701256682012
0.00846473816728
8571.78008835
8571.47759622
8570.87219692
8569.94685874
8568.71366001
8567.1697912
8565.3165482
8563.15698512
8560.69668711
8557.94473907
8554.92108196
8551.64806261
8548.15050678
8544.51662882
8540.82437794
8536.83080266
8458.61772194
3971.98149978
0.00943136537295
0.00644969854621
8567.30643939
8567.01356149
8566.41645422
8565.50597134
8564.29560907
8562.78631657
8560.98275401
8558.89323781
8556.53054155
8553.91375123
8551.07010839
8548.0393919
8544.87478081
8541.66809664
8538.51857241
8535.51964533
8492.84973133
3951.09626748
4.49354298195
0.00332941241862
8563.13576483
8562.85084312
8562.26168274
8561.3628064
8560.17090463
8558.68905164
8556.92437818
8554.88926407
8552.60105778
8550.0840747
8547.37273784
8544.51615937
8541.58443616
8538.68010334
8535.93469894
8533.5621934
8523.91041478
3897.88039586
6.20425694412
-0.0132147963037
8559.26289333
8558.98509853
8558.40069491
8557.50943776
8556.32905234
8554.8644203
8553.12410749
8551.12257728
8548.87934655
8546.42011967
8543.78243225
8541.01950068
8538.20308683
8535.4369937
8532.84714152
8530.65157821
8529.0717947
3829.20433607
4.27766437189
-0.0320177366086
8555.68321535
8555.41049
8554.82835174
8553.93927579
8552.76232707
8551.30340989
8549.57103575
8547.57971011
8545.34839885
8542.9022456
8540.27739391
8537.52195139
8534.70243604
8531.90954093
8529.24038985
8526.90757955
8524.91314522
3741.5581367
2.12092287639
-0.039943398842
8552.39374618
8552.12398786
8551.54069163
8550.64857924
8549.46672389
8548.00136363
8546.26003007
8544.25559137
8542.00390508
8539.52798257
8536.85672806
8534.03209729
8531.10406062
8528.14639179
8525.21533453
8522.49675142
8507.35751791
3647.0562733
0.860706404176
0.0442029035248
8549.39361364
8549.12517764
8548.53703846
8547.63637346
8546.44167465
8544.95832127
8543.19190416
8541.15248711
8538.85236973
8536.30856927
8533.54182258
8530.58295016
8527.46471101
8524.23878528
8520.92357522
8517.67029668
8483.01504327
3547.04297349
0.38036592101
-0.0337635530445
8546.68322396
8546.4144067
8545.81823351
8544.90442664
8543.68975155
8542.1785073
8540.37348744
8538.28124187
8535.90959891
8533.26748561
8530.36828339
8527.2275496
8523.86054535
8520.29679874
8516.52281276
8512.65886872
8454.67285162
3446.76596487
0.178011064438
-0.0323880745863
8544.26402716
8543.99332136
8543.38697249
8542.45590532
8541.21590986
8539.6694575
8537.81600896
8535.65826792
8533.1981835
8530.43830094
8527.38060863
8524.02851651
8520.37898953
8516.44067078
8512.17805325
8507.67800487
8424.41665231
3350.93683306
0.250586649868
-0.0460623842241
8542.13857421
8541.86487691
8541.24679714
8540.2959617
8539.02712628
8537.44095153
8535.53347721
8533.30275358
8530.7452486
8527.85667368
8524.62897175
8521.05284919
8517.10967884
8512.78877907
8508.04132696
8502.92108107
8394.19231435
3260.98038512
0.332900449976
-0.064456319453
8540.31020783
8540.03278363
8539.40238687
8538.43081432
8537.13195052
8535.50454841
8533.54130729
8531.23592519
8528.57970503
8525.56115363
8522.16376857
8518.36687587
8514.13824166
8509.44955603
8504.2461452
8498.55824442
8365.40441849
3181.32539321
0.36588378641
-0.0939421444571
8538.78261202
8538.50100768
8537.85851669
8536.86704587
8535.53922807
8533.8721674
8531.85527684
8529.47883407
8526.72904623
8523.58868282
8520.03297681
8516.03209103
8511.54224371
8506.52021057
8500.90954944
8494.725547
8339.35786837
3115.57893048
0.146490649493
-0.184354342363
8537.55943837
8537.27289785
8536.61945705
8535.61042951
8534.25688616
8532.5543377
8530.49000432
8528.05079943
8525.21925489
8521.97264828
8518.27975708
8514.10311499
8509.38921104
8504.08280456
8498.12974192
8491.53855511
8317.89603845
3065.4420909
-0.373492566862
-0.0636853104096
8536.64481683
8536.35147925
8535.68922496
8534.66576431
8533.29134053
8531.5603587
8529.45812044
8526.96909474
8524.07270865
8520.74071738
8516.94132131
8512.62643906
8507.73684724
8502.20560349
8495.98238616
8489.07059652
8305.95155652
3027.91896974
-0.405022478166
-0.134648766948
8536.05314154
8535.75767107
8535.08952897
8534.05675437
8532.66869306
8530.91918569
8528.79194105
8526.26953122
8523.32938899
8519.94203441
8516.07052964
8511.66553201
8506.66299807
8500.98477815
8494.56937201
8487.37999474
8296.23806556
2995.77688652
0.438244797745
0.527870587364
8535.8017421
8535.50331047
8534.83232986
8533.79938182
8532.40785186
8530.65215147
8528.51550445
8525.97991616
8523.02231395
8519.61143319
8515.70989018
8511.26857217
8506.2284824
8500.53024017
8494.13738854
8486.99681731
8330.49207778
2977.00219481
1.6208413569
2.07999463096
)
;

boundaryField
{
    back
    {
        type            fixedFluxPressure;
        gradient        uniform 0;
        value           nonuniform List<scalar> 
1984
(
8535.84223352
8535.54441776
8534.87465641
8533.8435143
8532.45435873
8530.70136445
8528.56744802
8526.03429816
8523.07744902
8519.66648385
8515.76221834
8511.31651124
8506.26991289
8500.56410573
8494.16313226
8487.01197202
8330.50135855
2977.01106014
1.62087867199
2.08004909495
8536.0932312
8535.79826903
8535.1312006
8534.10008219
8532.71425102
8530.9673518
8528.84268627
8526.3227381
8523.38335535
8519.99591253
8516.1219061
8511.71287554
8506.70383982
8501.01865254
8494.59493508
8487.39501497
8296.24659754
2995.78552153
0.438268426776
0.527896510494
8536.68440471
8536.39154984
8535.73030597
8534.7083953
8533.33605034
8531.60749056
8529.50784283
8527.02070196
8524.12538189
8520.79375376
8516.9914727
8512.67260008
8507.77656426
8502.23852716
8496.00737551
8489.0852649
8305.9607004
3027.92787602
-0.404970762477
-0.134599985524
8537.59834567
8537.31223568
8536.65970314
8535.65206481
8534.3003657
8532.60001522
8530.53781497
8528.10088847
8525.2694773
8522.02223398
8518.32806641
8514.14725928
8509.42678554
8504.11398604
8498.1536996
8491.55264904
8317.90573484
3065.45283189
-0.37340602647
-0.0636175452802