/*--------------------------------*- C++ -*----------------------------------*\
| =========                 |                                                 |
| \\      /  F ield         | OpenFOAM: The Open Source CFD Toolbox           |
|  \\    /   O peration     | Version:  v2012                                 |
|   \\  /    A nd           | Website:  www.openfoam.com                      |
|    \\/     M anipulation  |                                                 |
\*---------------------------------------------------------------------------*/
FoamFile
{
    version     2.0;
    format      ascii;
    class       surfaceVectorField;
    location    "1.8";
    object      ddtCorrDdt0(Uf);
}
// * * * * * * * * * * * * * * * * * * * * * * * * * * * * * * * * * * * * * //

dimensions      [0 1 -2 0 0 0 0];


internalField   nonuniform List<vector> 
296
(
(-0.116306514241 -0.115942933265 1.16571316132e-22)
(-0.105851209452 -0.110199877933 2.60009667183e-22)
(-0.120111144831 -0.13197331771 9.39846142841e-23)
(-0.109717279013 -0.128072362777 1.72149886138e-22)
(-0.123716484937 -0.148812295097 4.06805252688e-22)
(-0.113242971287 -0.146319018615 2.66454353948e-22)
(-0.126297019627 -0.167450388099 -5.67229883112e-22)
(-0.11578384609 -0.163945405895 4.05518441064e-22)
(-0.126223549218 -0.188088842992 -5.50939164557e-22)
(-0.116714470695 -0.178521587908 -7.08761694819e-22)
(-0.122784417165 -0.202097483975 8.2458066024e-22)
(-0.118400992832 -0.193103297579 5.36473572215e-22)
(-0.105588788479 -0.213032980886 5.23037983304e-21)
(-0.115200819649 -0.20248681235 -1.84226068605e-21)
(-0.100745295021 -0.230287557203 1.70003730044e-20)
(-0.0849132777527 -0.223189614788 3.52382274982e-21)
(-0.0750924787813 -0.200368401047 8.87815588061e-21)
(-0.128921054157 -0.209321361982 1.80343112383e-20)
(-0.0641667452574 -0.192764066038 -1.47760159331e-20)
(-0.046181745883 -0.171445774775 6.89779518382e-21)
(-0.130312928985 -0.217414724329 -3.99547447829e-19)
(-0.0775312176565 -0.121371222345 -3.11726849483e-20)
(0.178675159946 0.0394104978873 6.4940966417e-19)
(-0.160273636795 -0.147121355064 -3.01830804194e-19)
(-0.124527562824 0.0196882785202 1.21774726463e-18)
(-0.0918415056886 -0.0122446575656 8.22971211907e-22)
(-0.0840788058156 -0.00785101936637 -9.13592122622e-22)
(-0.0911036540024 -0.022703041341 1.00795365455e-21)
(-0.0875872926985 -0.0163790704586 1.69390650662e-21)
(-0.0897544366569 -0.0382947333763 4.56573002134e-23)
(-0.0807769317098 -0.0313744514168 4.00509328315e-22)
(-0.0819486274315 -0.048552321285 3.80996974204e-23)
(-0.0938556147089 -0.0859466793491 1.04561758146e-23)
(-0.0844572293983 -0.0784712741727 1.09850027102e-22)
(-0.0961565772196 -0.102908922682 1.4265746319e-22)
(-0.0857145235218 -0.0954069626106 1.02001131775e-21)
(-0.0993886418108 -0.120720686206 3.1558823719e-22)
(-0.088000816712 -0.113453902253 2.6403320977e-21)
(-0.103102925163 -0.138796890481 3.44619625802e-22)
(-0.0915884648885 -0.131819873243 3.80885887341e-21)
(-0.106586207278 -0.156286889942 2.65167542325e-22)
(-0.0956891035758 -0.149832626913 4.68957260154e-21)
(-0.109445719208 -0.172132560887 2.63986629357e-22)
(-0.0998613711732 -0.166817552873 2.60779620363e-21)
(-0.112402720193 -0.184572246896 3.78651041954e-22)
(-0.104189496796 -0.181439492597 1.40788250612e-21)
(-0.113328997704 -0.193216622013 -2.13036777407e-21)
(-0.109662753088 -0.193965534586 -1.9659948098e-22)
(-0.108781367453 -0.198089379625 -3.54881776927e-21)
(-0.110232890411 -0.197617897017 -1.97446676588e-21)
(-0.105584887682 -0.158557493719 4.55776098371e-21)
(-0.124350242823 -0.219598943564 2.63257415961e-22)
(-0.0986753572141 -0.206097615058 1.60539505415e-20)
(-0.08129740114 -0.196424895478 -6.25935887535e-21)
(-0.100543060305 -0.127615645557 -9.49887383136e-21)
(-0.124607656521 -0.155160012799 -7.19321361818e-22)
(-0.138262824383 -0.066487477317 6.65439586864e-20)
(-0.138640925069 -0.0920815415333 -5.22701002235e-20)
(-0.172932323563 -0.0167738629732 2.66506796261e-19)
(-0.209962596632 -0.104847520988 1.32188675557e-19)
(-0.11686477031 -0.0627137899556 -1.49596333606e-19)
(-0.0786325942539 -0.0142979428571 -4.26568279098e-23)
(-0.0697867751263 -0.00861680195585 -2.31971148192e-21)
(-0.0776336895148 -0.0294515536377 1.08646218038e-21)
(-0.0724364217785 -0.0145827573268 2.14764918974e-21)
(-0.0751172491253 -0.0413270536381 3.92951725522e-22)
(-0.0688968576701 -0.0289917609673 2.29313009133e-22)
(-0.0757117357516 -0.0552941132802 5.07959438328e-23)
(-0.0679757521305 -0.0492501517427 -1.37355231498e-21)
(-0.0764530327988 -0.0709195190192 8.33128078912e-23)
(-0.0680697229088 -0.0630946495083 -2.61564356229e-22)
(-0.0771224162635 -0.087456038214 1.11940516904e-21)
(-0.0678976236544 -0.0791382399273 1.33388807079e-21)
(-0.0786015685662 -0.105323798596 3.51768595226e-21)
(-0.0678123527156 -0.0968908244911 8.34190887994e-21)
(-0.0815343471664 -0.124432978239 6.13360273392e-21)
(-0.0688436744907 -0.116551681579 2.94780985573e-20)
(-0.0855959003883 -0.142917355515 8.15381184915e-21)
(-0.0730390091295 -0.136110317914 5.60717830158e-20)
(-0.0901439889655 -0.160323883706 7.03220126285e-21)
(-0.0781993177675 -0.154658083543 7.76041472614e-20)
(-0.0952301442733 -0.176098541903 3.75169208039e-21)
(-0.0839854323684 -0.172134474566 5.66524674394e-20)
(-0.101556295925 -0.189324101952 8.32631983187e-22)
(-0.090846600399 -0.187921076915 3.84983736633e-20)
(-0.106553826192 -0.198647745005 -4.06984727833e-23)
(-0.100209281398 -0.198969353371 1.3633392292e-20)
(-0.113657263798 -0.203326514615 1.83760841935e-21)
(-0.10541739689 -0.204527929357 -1.58595239552e-20)
(-0.108063080208 -0.214188249308 -1.05538624431e-20)
(-0.113353634772 -0.214774474773 -1.54092639142e-20)
(-0.119775167323 -0.183657874666 -2.30326307787e-20)
(-0.111708121759 -0.203888090798 -2.96243840136e-21)
(-0.152977801283 -0.148509273252 -4.3490547754e-20)
(-0.159677322099 -0.200669808162 3.06554917716e-20)
(-0.182462217449 -0.093110310898 1.33746166475e-20)
(-0.194013546859 -0.13357539249 -5.03742176269e-20)
(-0.133686224583 -0.129396784499 -2.8391445431e-19)
(-0.173645635466 -0.162525840263 7.48588902329e-20)
(-0.228804217205 -0.062989386625 1.51696128376e-18)
(-0.063692581321 -0.0143235146833 -1.29405464275e-22)
(-0.05547731218 -0.00892469161034 -2.6840632358e-21)
(-0.0637400548994 -0.0299528550717 1.29050001849e-21)
(-0.0568213942135 -0.0139427547726 2.03940973702e-21)
(-0.0620942612884 -0.0423113451485 -1.53719103137e-21)
(-0.056546583025 -0.0274544955708 -6.66877231906e-22)
(-0.0609567081289 -0.0556370347971 -1.68591261504e-21)
(-0.054651503528 -0.0482098348834 -6.64443732865e-22)
(-0.0600927494147 -0.0711406783997 9.89010906674e-22)
(-0.0525579877312 -0.0623024315234 1.83523439753e-21)
(-0.0592248789429 -0.0881954271798 8.55639178169e-21)
(-0.0508225784188 -0.0782593271058 1.28926888983e-20)
(-0.0589568088449 -0.107361371604 3.43023214849e-20)
(-0.0486103304522 -0.0968741368811 6.47279362481e-20)
(-0.0615619004121 -0.128951076845 7.94162788391e-20)
(-0.0471993760303 -0.119924494629 1.94586424409e-19)
(-0.0668868935191 -0.147999530217 1.25522118428e-19)
(-0.053913588971 -0.1422758812 4.83741972031e-19)
(-0.0731105708032 -0.166226601322 1.27224413438e-19)
(-0.0598713770262 -0.161744463284 7.8023315197e-19)
(-0.080306109905 -0.182782734881 9.13991490222e-20)
(-0.0673032070621 -0.179982728099 6.27432408378e-19)
(-0.0905574950372 -0.197871899663 5.1299133972e-20)
(-0.0756092088917 -0.198910970806 6.00748577944e-19)
(-0.0996375426761 -0.204705664082 -2.18543319042e-21)
(-0.093208245326 -0.208547501425 2.86058256158e-19)
(-0.106002040181 -0.210269154152 -3.31063962887e-20)
(-0.099675901731 -0.211168621217 1.54495663202e-19)
(-0.111981174315 -0.216586131097 -7.81783987248e-21)
(-0.106859709887 -0.220855695368 6.91950888444e-20)
(-0.134378289053 -0.210894966792 5.07256841489e-20)
(-0.117242053011 -0.223022113811 -9.26420111371e-21)
(-0.179548474809 -0.224437003096 2.37718218986e-20)
(-0.146031253772 -0.266378398868 3.29594446388e-20)
(-0.171664549328 -0.190298234968 1.11100559585e-20)
(-0.22811380438 -0.206228930373 5.05216203921e-20)
(-0.416899128989 -0.245354130497 1.8757346283e-18)
(-0.118579231214 -0.211181589064 2.44612020439e-19)
(-0.679794001671 0.281895967123 2.1366280158e-18)
(-0.049434730419 -0.0128494349099 -5.15248034503e-22)
(-0.0426501874241 -0.00872069392518 -1.56679811819e-21)
(-0.0496100703621 -0.0264630815939 8.20324866257e-23)
(-0.0432311507255 -0.0135279697558 8.57702569626e-22)
(-0.0487426814422 -0.0406210644993 2.05870066595e-22)
(-0.0424071391608 -0.0266639383858 -1.67406640707e-22)
(-0.0465277160838 -0.0537420182298 2.8567032797e-21)
(-0.0415408755752 -0.0460838209331 2.7334115645e-21)
(-0.0436592076951 -0.0695884862859 1.37389123892e-20)
(-0.0367103903917 -0.0595319244928 1.36891800294e-20)
(-0.0393685002318 -0.0868532963613 6.90642333648e-20)
(-0.0335417318259 -0.0740076440363 7.70905261605e-20)
(-0.0340235624764 -0.108055986583 2.25012039172e-19)
(-0.0273729018068 -0.0926854351253 3.29999025796e-19)
(-0.0365781990566 -0.135603702477 5.98912117601e-19)
(-0.0195944424755 -0.12451833236 7.96039937689e-19)
(-0.0453047899815 -0.155822319525 1.13845300557e-18)
(-0.0336086204535 -0.151144991951 2.91959125209e-18)
(-0.0534644390769 -0.174854836227 1.28044114691e-18)
(-0.0407215653752 -0.170046632911 2.27779667712e-18)
(-0.0618231012344 -0.192606137949 1.1367818373e-18)
(-0.0494035428151 -0.188590987902 1.22316946308e-18)
(-0.0789944737192 -0.212639880352 8.3550770013e-19)
(-0.0553983166986 -0.216462755354 1.86736000019e-18)
(-0.0943087062451 -0.211612261738 4.4273935255e-19)
(-0.0940115409916 -0.224845472075 3.10626139999e-18)
(-0.0981857505224 -0.217276342756 2.56797148335e-19)
(-0.0937593864353 -0.217712889857 9.98925412656e-19)
(-0.10742327953 -0.230131509092 6.77487276031e-20)
(-0.0937469638875 -0.231804307777 5.83012389166e-19)
(-0.131261992208 -0.24060322259 -2.70304406239e-20)
(-0.106534385584 -0.249229018754 2.0794939648e-19)
(-0.216131335845 -0.267022815221 5.97092431322e-20)
(-0.119437698995 -0.364548397942 8.72565495309e-20)
(-0.300700554282 -0.214587528534 2.84023584872e-19)
(-0.280474238883 -0.481882098599 1.6714550329e-19)
(-0.766950233182 0.0273105323152 5.05505407935e-19)
(-0.360014248091 -0.518517272349 3.21157884679e-18)
(-1.31193745546 -0.234541909786 1.81660828927e-18)
(-0.0346650423129 -0.0142168315903 -1.93847514059e-22)
(-0.0284634139879 -0.00739109550292 -1.31393059805e-21)
(-0.0348294598544 -0.0275532098472 6.08263442293e-22)
(-0.0299257007419 -0.0131875257475 1.02412997681e-21)
(-0.0356486809684 -0.0392970463365 2.3601348572e-21)
(-0.0306896862012 -0.0275370577613 1.97085986256e-21)
(-0.0336095390979 -0.0500626632763 1.35658883142e-20)
(-0.0307931662188 -0.0441800453822 1.15159236705e-20)
(-0.0297881391815 -0.0662486805578 7.70407938007e-20)
(-0.0205301154738 -0.0559955363138 5.66304515978e-20)
(-0.0259879670973 -0.0813681005831 3.38025318591e-19)
(-0.0184121418693 -0.0706785695524 2.90236041403e-19)
(-0.0179128396095 -0.105381046593 9.01026924313e-19)
(-0.00332973139003 -0.0864006787032 9.58013883812e-19)
(-0.0211800083108 -0.143029746546 3.11671907217e-18)
(0.0181151827144 -0.122532927269 2.9912976621e-18)
(-0.0327569304655 -0.164203057077 4.05893492363e-18)
(-0.0123395617115 -0.154250937535 8.73540001164e-18)
(-0.0388048187635 -0.183446734277 2.22052499329e-18)
(-0.021347100662 -0.170733394649 4.00059109638e-18)
(-0.039994178392 -0.200716929024 1.95374762597e-18)
(-0.031967508745 -0.184464712775 3.7447670437e-19)
(-0.0642756757672 -0.235555358779 4.13811370004e-18)
(-0.0203091842091 -0.232143695661 3.74411935303e-18)
(-0.0883444440632 -0.217982860135 3.66244746009e-18)
(-0.11126463315 -0.240504582431 -1.26232627594e-18)
(-0.0826663946191 -0.223028255156 1.32514065349e-18)
(-0.088350673631 -0.211967357917 1.4369925741e-18)
(-0.0709592706812 -0.252105037437 7.23213058043e-19)
(-0.0642965585518 -0.22460279974 6.18116738815e-19)
(-0.0348886069896 -0.335413338603 3.22236386635e-19)
(-0.0228756547724 -0.223410422339 3.16453541512e-19)
(0.010055451366 -0.526172895343 1.94692809689e-19)
(0.0715687631567 -0.320456308865 -1.88668066175e-19)
(0.0393294014579 -1.04638768152 3.09470076521e-18)
(0.239834360737 -0.312661990178 -8.20571462098e-22)
(0.0433215475177 -2.76202876709 4.52268172813e-18)
(1.35560714512 -0.441439658482 3.55317042257e-18)
(-0.698890612906 0.676021344762 2.63443034052e-18)
(-0.0223349133036 -0.0102112720024 -9.59531071735e-23)
(-0.0182878326898 -0.00599585916072 -3.28676418694e-22)
(-0.0228778129286 -0.0212841327434 2.38672639708e-21)
(-0.0188890558226 -0.0132972486605 2.12803724846e-21)
(-0.0223086990509 -0.0289900596063 1.11266486759e-20)
(-0.023015636808 -0.0269851729678 5.52527619583e-21)
(-0.0159852648764 -0.0482731273863 5.45804869541e-20)
(-0.0115339351782 -0.0379933681348 3.52527597785e-20)
(-0.00834963371074 -0.0608405272996 2.698256992e-19)
(-0.00797501294718 -0.048616219321 1.67381942303e-19)
(0.00580773626669 -0.0823980115572 9.10224606623e-19)
(0.00314842096349 -0.0567166096235 6.52310780979e-19)
(0.0257078072764 -0.118842837864 3.0482846216e-18)
(0.0331427222459 -0.0618403029385 1.64164542313e-18)
(0.0202726141872 -0.144955697771 8.60997860157e-18)
(0.0442792496609 -0.0786089691622 2.52776203799e-18)
(-0.000714182959917 -0.157236173438 8.67705618439e-18)
(-0.0124547061217 -0.178505664214 2.15454280746e-18)
(-0.0195596769861 -0.210348170481 2.16484843143e-18)
(-0.0746107314191 -0.230488383704 -1.65632062295e-18)
(-0.113494880039 -0.219436667936 -3.48778116193e-18)
(-0.0810831287774 -0.213596401221 7.29968659424e-19)
(-0.0441692185171 -0.221374991685 2.11357222284e-19)
(0.0189086567425 -0.191703134611 -1.94450911298e-19)
(0.151715493427 -0.0746725563889 -3.84181447326e-19)
(-0.0816103710726 0.173900270875 4.57649085901e-19)
(-0.688969225808 2.01008279161 1.66491903497e-18)
(-0.013753791573 -0.00898736486926 1.89531393694e-21)
(-0.00933886124849 -0.00565539719591 -1.42754450114e-22)
(-0.0142088400848 -0.0185036888984 5.26658704721e-21)
(-0.00941152053011 -0.0134480586434 2.39214049533e-21)
(-0.0120132445954 -0.0313784853712 2.96513872985e-20)
(-0.0101758947796 -0.0247974422872 1.06344194722e-20)
(-0.00659647237795 -0.0355257351448 1.48054215127e-19)
(-0.0074148943721 -0.0328119359893 7.04622601506e-20)
(0.00126253518997 -0.0371091199376 5.49867024082e-19)
(-0.00640988442661 -0.0415475207815 3.0897083648e-19)
(0.0142450409286 -0.0361024107725 1.38373159748e-18)
(0.0021378688504 -0.0436356375863 1.26913200736e-18)
(0.0331321573921 -0.0187035306437 1.12112283952e-18)
(0.0157518665591 -0.0368466175621 3.62498072638e-18)
(0.0255774882701 -0.0279319004237 1.03454666814e-18)
(-0.00469156044849 -0.00946368321555 3.54072108278e-22)
(8.03379658057e-05 -0.00559477834611 -1.33808390952e-21)
(-0.00485553187201 -0.0189982901457 7.75997292031e-21)
(7.88770579642e-05 -0.0135073937237 2.27633291614e-21)
(-0.00440798852806 -0.0292910077841 5.14452923243e-20)
(7.51940888003e-05 -0.0243396070666 1.3423898332e-20)
(-0.0046639885872 -0.0368100730923 2.31378881503e-19)
(6.77484543094e-05 -0.0331166253049 9.02068194021e-20)
(-0.00309361491862 -0.0433076621756 1.02823581975e-18)
(5.93812944517e-05 -0.0402101891467 3.73004462524e-19)
(-0.00387965226767 -0.0412363136778 3.51038113625e-18)
(4.98706523501e-05 -0.0444576945936 1.68395803781e-18)
(-0.00246615116307 -0.0255470792418 3.538404555e-18)
(5.71234256483e-05 -0.0337595066717 5.33811676666e-18)
(3.24510817404e-05 -0.0163863517446 1.73466385451e-18)
(0.0048472859611 -0.00946484595592 5.84176898347e-22)
(0.00949316634817 -0.00565681784108 -6.52182261595e-22)
(0.00500569405077 -0.0190021654555 7.94025832788e-21)
(0.00956283188603 -0.0134537020569 3.58129203059e-22)
(0.00454695879808 -0.0292984032491 5.21854254099e-20)
(0.0103192996614 -0.0248087900682 1.03319361367e-20)
(0.00478638292402 -0.0368212465601 2.31832400423e-19)
(0.00754296741954 -0.0328280424265 7.03164080526e-20)
(0.00319250343686 -0.0433174842758 1.02872668058e-18)
(0.00651705122497 -0.041569903481 3.09039317235e-19)
(0.00395119438217 -0.0412277394381 3.51169366822e-18)
(-0.00206420404639 -0.0436612379837 1.27060345204e-18)
(0.00251769385704 -0.0255712269817 3.53437606618e-18)
(-0.0156030185997 -0.0368650882139 3.62768411903e-18)
(-0.0255390901245 -0.0279385049701 1.02857236151e-18)
(0.0139023058794 -0.00899244604366 -8.78229956883e-22)
(0.0143491471516 -0.0185162318387 2.74980701189e-21)
(0.0121406555406 -0.0313987631375 2.84629187795e-20)
(0.00671050317103 -0.0355601513778 1.47523324865e-19)
(-0.00117025777572 -0.0371583021548 5.509160887e-19)
(-0.0141897800897 -0.0361740754823 1.38659390286e-18)
(-0.0331133015941 -0.0187594855835 1.12188041437e-18)
)
;

boundaryField
{
    back
    {
        type            calculated;
        value           uniform (0 0 0);
    }
    sides
    {
        type            calculated;
        value           nonuniform List<vector> 0();
    }
    bottom
    {
        type            calculated;
        value           uniform (0 0 0);
    }
    front
    {
        type            calculated;
        value           uniform (0 0 0);
    }
    atmosphere
    {
        type            calculated;
        value           nonuniform List<vector> 7((0 -0.0876581322683 0) (-4.63846951235e-32 -0.0244162666403 5.50144473738e-53) (1.45280527287e-22 -0.0174157566775 -6.0162303837e-43) (-7.62585786062e-17 0.205702226103 -8.44474566054e-37) (1.45069916058e-10 0.659470756712 -1.17684907995e-29) (0.035937714577 -3.37496714239 3.05343375468e-18) (1.31536498673e-25 0.501958133997 -4.09848123359e-44));
    }
    floatingObject
    {
        type            calculated;
        value           nonuniform List<vector> 8((0 6.69309825953e-15 -8.36637282442e-16) (0 0 -8.36637282442e-16) (0 0 0) (0 1.33861965191e-14 -8.36637282442e-16) (-1.67327456488e-15 0 0) (0 0 -8.36637282442e-16) (0 0 -8.36637282442e-16) (0 0 0));
    }
    procBoundary3to4
    {
        type            processor;
        value           nonuniform List<vector> 
13
(
(-0.122137399041 -0.106719253421 1.43180960111e-22)
(-0.125816283302 -0.12426512079 2.68345082023e-23)
(-0.13014419468 -0.14271155806 1.10542900671e-22)
(-0.0963269649796 -0.00731771042348 -1.42295506183e-21)
(-0.0980588769962 -0.0180280548894 1.75634131217e-21)
(-0.0963730758026 -0.0325694107034 7.67722812906e-24)
(-0.0986891735623 -0.0470756884152 -3.78304625367e-22)
(-0.100492581613 -0.076883807455 8.4032419394e-24)
(-0.112826741496 -0.0997124230131 1.55756231821e-22)
(-0.10272154246 -0.0931159403515 3.84040278273e-23)
(-0.0911210491223 -0.0549789181765 -3.2241686152e-23)
(-0.0922781250753 -0.0699882746664 6.99177947169e-24)
(-0.0837420175371 -0.0623009055056 -1.95454397396e-23)
)
;
    }
    procBoundary3to5
    {
        type            processor;
        value           nonuniform List<vector> 10((-0.134508932065 -0.161358101374 3.2045745578e-22) (-0.137433083864 -0.178595841005 -9.69667538283e-22) (-0.132495903908 -0.196427399214 5.0238441651e-21) (-0.126210578994 -0.219717545245 1.00807568453e-22) (-0.102245125409 -0.231139196515 6.74439465389e-21) (-0.0990595781972 -0.252582255162 4.48734734969e-20) (-0.0386214622711 -0.198781151426 5.88084385857e-21) (-0.102197348915 -0.161029164281 4.72627432697e-20) (0.0965448622534 -0.11209979197 -5.82839248184e-19) (-0.251636374347 0.136945831442 1.43450630264e-18));
    }
    procBoundary3to6
    {
        type            processor;
        value           nonuniform List<vector> 8((-0.121932752505 -0.178976915075 -7.57821567431e-18) (-0.0937646135373 -0.158590762639 4.14004983266e-19) (-0.0560798951512 -0.18075135436 -9.80715512542e-20) (-0.0521594750563 -0.15544509656 -9.38515806224e-19) (-0.0452021383479 -0.169761230479 -8.48342139655e-19) (-0.00865302268247 0.055998458481 -3.73063430018e-19) (-0.479775972699 0.115766478132 7.42430992528e-19) (0.809580614989 1.10314139954 1.26903123731e-18));
    }
    procBoundary3to8
    {
        type            processor;
        value           nonuniform List<vector> 8((0.0184316976364 -0.00599791229025 3.11209202409e-23) (0.0190293749562 -0.0133114492405 -1.29071339331e-22) (0.0231445912403 -0.0270099052752 5.09065057985e-21) (0.0116517590493 -0.0380227885185 3.34909642945e-20) (0.0080730520743 -0.0486595936087 1.69776692134e-19) (-0.00307227059941 -0.0567779447257 6.56714938054e-19) (-0.0330255036786 -0.0618943351573 1.64415967105e-18) (-0.0442925685061 -0.0786609455823 2.52882194854e-18));
    }
}


// ************************************************************************* //
