/*--------------------------------*- C++ -*----------------------------------*\
| =========                 |                                                 |
| \\      /  F ield         | OpenFOAM: The Open Source CFD Toolbox           |
|  \\    /   O peration     | Version:  v2012                                 |
|   \\  /    A nd           | Website:  www.openfoam.com                      |
|    \\/     M anipulation  |                                                 |
\*---------------------------------------------------------------------------*/
FoamFile
{
    version     2.0;
    format      ascii;
    class       volScalarField;
    location    "1.8";
    object      p_rgh;
}
// * * * * * * * * * * * * * * * * * * * * * * * * * * * * * * * * * * * * * //

dimensions      [1 -1 -2 0 0 0 0];


internalField   nonuniform List<scalar> 
164
(
8804.5082968
8810.25723349
8816.8570227
8824.32168398
8832.65342559
8841.75263572
8851.71309673
8861.67541128
8872.72184014
8882.08537775
8867.53334129
1900.00835161
-2.92110520155
8790.29859563
8791.00555832
8792.30805886
8794.37484297
8800.48990121
8804.70233062
8809.79457792
8815.72731311
8822.52467149
8830.16972839
8838.61881535
8847.70986143
8857.87406833
8866.06856083
8877.28702296
8885.0487214
8710.17715339
1975.36846051
-1.72476800405
8794.4007727
8795.12617379
8796.39267498
8798.58776685
8801.25818291
8804.72097847
8809.00309099
8814.20095212
8820.3222405
8827.33463216
8835.20413108
8843.87598295
8853.2111839
8862.8998708
8872.18797877
8882.34255458
8890.03076298
8735.75541174
2041.72439574
-2.03572153534
8797.85155158
8798.57472406
8799.71200606
8802.11079902
8804.70599621
8808.1388488
8812.43023724
8817.7248396
8824.05798591
8831.29264644
8839.43623277
8848.44798209
8858.24582225
8868.05842013
8877.80839475
8887.84627899
8896.96232649
8907.42015226
2136.08266765
-4.73605005321
8800.67781232
8801.41587266
8802.4388254
8804.80211046
8807.30614574
8810.64067424
8814.82818445
8820.05389392
8826.63377333
8834.21818007
8842.74230839
8852.2353218
8863.0116715
8873.00195208
8883.00145478
8893.52066022
8903.60447558
8921.38534466
2469.97759583
-14.4227661898
8802.84606975
8803.52697518
8804.60933386
8806.89824412
8809.12552655
8812.30044215
8815.8365627
8821.02581925
8828.62117713
8836.3044593
8845.05204198
8854.80493319
8867.74529704
8877.4089206
8887.36973995
8898.82016534
8908.19733139
8942.40965875
7904.30124299
1036.28356936
8804.43566743
8805.05672425
8806.12249619
8808.07233886
8810.0656629
8813.20754324
8817.00166025
8821.50866871
8829.17787792
8837.46778088
8846.90917445
8856.10760233
8873.30440416
8881.10013655
8890.66569149
8902.17052682
8909.96923084
8788.56560764
3030.29692134
-22.3139775313
8805.46497805
8806.02656468
8806.97687739
8808.58171542
8810.22979871
8812.58178924
8814.11949653
8816.84125062
8805.97702117
8806.50572955
8807.43551902
8808.91784444
8810.63588969
8812.6645445
8814.55908121
8816.13598009
8805.97873865
8806.50741246
8807.4370998
8808.9190606
8810.6366473
8812.66478472
8814.55904874
8816.13547117
8805.46993613
8806.03140334
8806.98146392
8808.58516938
8810.23183202
8812.58226495
8814.1184463
8816.83968341
)
;

boundaryField
{
    back
    {
        type            fixedFluxPressure;
        gradient        uniform 0;
        value           nonuniform List<scalar> 
164
(
8804.5082968
8810.25723349
8816.8570227
8824.32168398
8832.65342559
8841.75263572
8851.71309673
8861.67541128
8872.72184014
8882.08537775
8867.53334129
1900.00835161
-2.92110520155
8790.29859563
8791.00555832
8792.30805886
8794.37484297
8800.48990121
8804.70233062
8809.79457792
8815.72731311
8822.52467149
8830.16972839
8838.61881535
8847.70986143
8857.87406833
8866.06856083
8877.28702296
8885.0487214
8710.17715339
1975.36846051
-1.72476800405
8794.4007727
8795.12617379
8796.39267498
8798.58776685
8801.25818291
8804.72097847
8809.00309099
8814.20095212
8820.3222405
8827.33463216
8835.20413108
8843.87598295
8853.2111839
8862.8998708
8872.18797877
8882.34255458
8890.03076298
8735.75541174
2041.72439574
-2.03572153534
8797.85155158
8798.57472406
8799.71200606
8802.11079902
8804.70599621
8808.1388488
8812.43023724
8817.7248396
8824.05798591
8831.29264644
8839.43623277
8848.44798209
8858.24582225
8868.05842013
8877.80839475
8887.84627899
8896.96232649
8907.42015226
2136.08266765
-4.73605005321
8800.67781232
8801.41587266
8802.4388254
8804.80211046
8807.30614574
8810.64067424
8814.82818445
8820.05389392
8826.63377333
8834.21818007
8842.74230839
8852.2353218
8863.0116715
8873.00195208
8883.00145478
8893.52066022
8903.60447558
8921.38534466
2469.97759583
-14.4227661898
8802.84606975
8803.52697518
8804.60933386
8806.89824412
8809.12552655
8812.30044215
8815.8365627
8821.02581925
8828.62117713
8836.3044593
8845.05204198
8854.80493319
8867.74529704
8877.4089206
8887.36973995
8898.82016534
8908.19733139
8942.40965875
7904.30124299
1036.28356936
8804.43566743
8805.05672425
8806.12249619
8808.07233886
8810.0656629
8813.20754324
8817.00166025
8821.50866871
8829.17787792
8837.46778088
8846.90917445
8856.10760233
8873.30440416
8881.10013655
8890.66569149
8902.17052682
8909.96923084
8788.56560764
3030.29692134
-22.3139775313
8805.46497805
8806.02656468
8806.97687739
8808.58171542
8810.22979871
8812.58178924
8814.11949653
8816.84125062
8805.97702117
8806.50572955
8807.43551902
8808.91784444
8810.63588969
8812.6645445
8814.55908121
8816.13598009
8805.97873865
8806.50741246
8807.4370998
8808.9190606
8810.6366473
8812.66478472
8814.55904874
8816.13547117
8805.46993613
8806.03140334
8806.98146392
8808.58516938
8810.23183202
8812.58226495
8814.1184463
8816.83968341
)
;
    }
    sides
    {
        type            fixedFluxPressure;
        gradient        nonuniform List<scalar> 0();
        value           nonuniform List<scalar> 0();
    }
    bottom
    {
        type            fixedFluxPressure;
        gradient        uniform 0;
        value           nonuniform List<scalar> 10(8790.29859563 8794.4007727 8797.85155158 8800.67781232 8802.84606975 8804.43566743 8805.46497805 8805.97702117 8805.97873865 8805.46993613);
    }
    front
    {
        type            fixedFluxPressure;
        gradient        uniform 0;
        value           nonuniform List<scalar> 
164
(
8804.5082968
8810.25723349
8816.8570227
8824.32168398
8832.65342559
8841.75263572
8851.71309673
8861.67541128
8872.72184014
8882.08537775
8867.53334129
1900.00835161
-2.92110520155
8790.29859563
8791.00555832
8792.30805886
8794.37484297
8800.48990121
8804.70233062
8809.79457792
8815.72731311
8822.52467149
8830.16972839
8838.61881535
8847.70986143
8857.87406833
8866.06856083
8877.28702296
8885.0487214
8710.17715339
1975.36846051
-1.72476800405
8794.4007727
8795.12617379
8796.39267498
8798.58776685
8801.25818291
8804.72097847
8809.00309099
8814.20095212
8820.3222405
8827.33463216
8835.20413108
8843.87598295
8853.2111839
8862.8998708
8872.18797877
8882.34255458
8890.03076298
8735.75541174
2041.72439574
-2.03572153534
8797.85155158
8798.57472406
8799.71200606
8802.11079902
8804.70599621
8808.1388488
8812.43023724
8817.7248396
8824.05798591
8831.29264644
8839.43623277
8848.44798209
8858.24582225
8868.05842013
8877.80839475
8887.84627899
8896.96232649
8907.42015226
2136.08266765
-4.73605005321
8800.67781232
8801.41587266
8802.4388254
8804.80211046
8807.30614574
8810.64067424
8814.82818445
8820.05389392
8826.63377333
8834.21818007
8842.74230839
8852.2353218
8863.0116715
8873.00195208
8883.00145478
8893.52066022
8903.60447558
8921.38534466
2469.97759583
-14.4227661898
8802.84606975
8803.52697518
8804.60933386
8806.89824412
8809.12552655
8812.30044215
8815.8365627
8821.02581925
8828.62117713
8836.3044593
8845.05204198
8854.80493319
8867.74529704
8877.4089206
8887.36973995
8898.82016534
8908.19733139
8942.40965875
7904.30124299
1036.28356936
8804.43566743
8805.05672425
8806.12249619
8808.07233886
8810.0656629
8813.20754324
8817.00166025
8821.50866871
8829.17787792
8837.46778088
8846.90917445
8856.10760233
8873.30440416
8881.10013655
8890.66569149
8902.17052682
8909.96923084
8788.56560764
3030.29692134
-22.3139775313
8805.46497805
8806.02656468
8806.97687739
8808.58171542
8810.22979871
8812.58178924
8814.11949653
8816.84125062
8805.97702117
8806.50572955
8807.43551902
8808.91784444
8810.63588969
8812.6645445
8814.55908121
8816.13598009
8805.97873865
8806.50741246
8807.4370998
8808.9190606
8810.6366473
8812.66478472
8814.55904874
8816.13547117
8805.46993613
8806.03140334
8806.98146392
8808.58516938
8810.23183202
8812.58226495
8814.1184463
8816.83968341
)
;
    }
    atmosphere
    {
        type            totalPressure;
        rho             rho;
        psi             none;
        gamma           1;
        p0              uniform 0;
        value           nonuniform List<scalar> 7(-0.120626845307 -0.0644595265305 -0.066954653094 -0.150093934325 -0.261433888209 0 -0.633772290524);
    }
    floatingObject
    {
        type            fixedFluxPressure;
        gradient        uniform 0;
        value           nonuniform List<scalar> 8(8829.17787792 8837.46778088 8846.90917445 8856.10760233 8816.84125062 8816.13598009 8816.13547117 8816.83968341);
    }
    procBoundary3to4
    {
        type            processor;
        value           nonuniform List<scalar> 
13
(
8798.39332024
8803.92850664
8810.30717146
8785.53926349
8786.21605453
8787.51252631
8789.49277999
8795.47723982
8799.587426
8799.587426
8797.06285783
8797.06285783
8797.06285783
)
;
    }
    procBoundary3to5
    {
        type            processor;
        value           nonuniform List<scalar> 10(8817.5748114 8825.78379346 8834.96296242 8845.31799519 8856.59772973 8869.40855184 8881.19370767 8675.6262807 1900.29289995 -6.17597795078);
    }
    procBoundary3to6
    {
        type            processor;
        value           nonuniform List<scalar> 8(8881.67327368 8885.66595636 8892.8750411 8902.32034871 8905.3121392 8904.22126171 1979.00982405 -27.875053957);
    }
    procBoundary3to8
    {
        type            processor;
        value           nonuniform List<scalar> 8(8804.44351495 8805.06432118 8806.12919603 8808.0776878 8810.06906516 8813.2080849 8816.99948572 8821.50305091);
    }
}


// ************************************************************************* //
