/*--------------------------------*- C++ -*----------------------------------*\
| =========                 |                                                 |
| \\      /  F ield         | OpenFOAM: The Open Source CFD Toolbox           |
|  \\    /   O peration     | Version:  v2012                                 |
|   \\  /    A nd           | Website:  www.openfoam.com                      |
|    \\/     M anipulation  |                                                 |
\*---------------------------------------------------------------------------*/
FoamFile
{
    version     2.0;
    format      ascii;
    class       volScalarField;
    location    "5.9";
    object      epsilon_0;
}
// * * * * * * * * * * * * * * * * * * * * * * * * * * * * * * * * * * * * * //

dimensions      [0 2 -3 0 0 0 0];


internalField   nonuniform List<scalar> 
164
(
0.000470363775892
0.000474926124715
0.000480145370495
0.000486865854798
0.000497750828199
0.000520789566993
0.00057925589369
0.000741418887928
0.0011864100939
0.00231883002273
0.00571488121413
0.0248365699948
0.142132603473
0.000369753867574
0.00038697340588
0.000427433297238
0.000444932605018
0.000458989855472
0.000463492473085
0.000467988922389
0.000472880008278
0.000478411973792
0.000485272915446
0.000495964148052
0.00051824944391
0.000575390137467
0.000735728559166
0.00117652147951
0.00229271987809
0.00551070415714
0.0205409174299
0.124886573549
0.000366314925047
0.00038381259747
0.000424091207016
0.000441586232512
0.000450296926371
0.000455840179813
0.00046047810902
0.000465176459782
0.000470401147449
0.000476335455483
0.000483519932875
0.000494499849176
0.000517245870123
0.000574653613367
0.000734890526504
0.00117524393973
0.00231329481544
0.00590615318872
0.022833713185
0.121636284246
0.000362830284078
0.000380688092429
0.00042077187359
0.000438185846687
0.000446828935965
0.00045221912535
0.000456596027463
0.000461076083184
0.000466436170232
0.000472831544981
0.00048049401438
0.000492263310332
0.000517358451838
0.00057774099046
0.000740217479721
0.00118142399509
0.00231738368006
0.00600305360456
0.0240101962279
0.110631985764
0.000359423824171
0.000377725422457
0.000417571965936
0.000434763276152
0.000443003121824
0.000447546241632
0.000450422291703
0.000453009485294
0.000457510386684
0.000464146098183
0.0004722311324
0.000485330202874
0.000516585383573
0.000585754652882
0.000756927402446
0.00120427145996
0.0023020616059
0.00567021979961
0.022601476405
0.0926157247146
0.000356187568687
0.00037501645971
0.000414568853754
0.000431291156879
0.000438498917102
0.000440645816596
0.000438535602423
0.000432143857923
0.000432193856147
0.000437843058648
0.000446061006623
0.000461250427125
0.000507665693145
0.000598828848674
0.00079304252826
0.00125990799062
0.00232603271108
0.00542109927965
0.0227624514751
0.116686298437
0.000353243775154
0.000372687724401
0.000411886673563
0.000427883467479
0.000433317262695
0.000430962615986
0.000417222093021
0.000383184830109
0.000457430265691
0.000454237252142
0.000463264818653
0.000495830197181
0.000480747784803
0.00062499069396
0.000866342982883
0.00136555827273
0.00242118385957
0.00541025148361
0.023565628673
0.145153214483
0.000350664786305
0.000370687271356
0.00040962049094
0.000424921639492
0.00042868462564
0.000422170213671
0.000396872139682
0.000410381545314
0.000348984962271
0.000369566503057
0.000408379143333
0.000423271664012
0.000426085143135
0.000417482276695
0.000387302561979
0.000382831703717
0.000348956450622
0.000369553882005
0.000408374639497
0.000423272334313
0.000426089227533
0.000417488013568
0.000387304306017
0.000382863030332
0.000350625379892
0.000370659257882
0.000409610390349
0.000424918453402
0.000428678515651
0.000422152934692
0.000396828181304
0.000410339652471
)
;

boundaryField
{
    back
    {
        lowReCorrection 0;
        blending        stepwise;
        n               2;
        type            epsilonWallFunction;
        value           nonuniform List<scalar> 
164
(
0.000470363775892
0.000474926124715
0.000480145370495
0.000486865854798
0.000497750828199
0.000520789566993
0.00057925589369
0.000741418887928
0.0011864100939
0.00231883002273
0.00571488121413
0.0248365699948
0.142132603473
0.000369753867574
0.00038697340588
0.000427433297238
0.000444932605018
0.000458989855472
0.000463492473085
0.000467988922389
0.000472880008278
0.000478411973792
0.000485272915446
0.000495964148052
0.00051824944391
0.000575390137467
0.000735728559166
0.00117652147951
0.00229271987809
0.00551070415714
0.0205409174299
0.124886573549
0.000366314925047
0.00038381259747
0.000424091207016
0.000441586232512
0.000450296926371
0.000455840179813
0.00046047810902
0.000465176459782
0.000470401147449
0.000476335455483
0.000483519932875
0.000494499849176
0.000517245870123
0.000574653613367
0.000734890526504
0.00117524393973
0.00231329481544
0.00590615318872
0.022833713185
0.121636284246
0.000362830284078
0.000380688092429
0.00042077187359
0.000438185846687
0.000446828935965
0.00045221912535
0.000456596027463
0.000461076083184
0.000466436170232
0.000472831544981
0.00048049401438
0.000492263310332
0.000517358451838
0.00057774099046
0.000740217479721
0.00118142399509
0.00231738368006
0.00600305360456
0.0240101962279
0.110631985764
0.000359423824171
0.000377725422457
0.000417571965936
0.000434763276152
0.000443003121824
0.000447546241632
0.000450422291703
0.000453009485294
0.000457510386684
0.000464146098183
0.0004722311324
0.000485330202874
0.000516585383573
0.000585754652882
0.000756927402446
0.00120427145996
0.0023020616059
0.00567021979961
0.022601476405
0.0926157247146
0.000356187568687
0.00037501645971
0.000414568853754
0.000431291156879
0.000438498917102
0.000440645816596
0.000438535602423
0.000432143857923
0.000432193856147
0.000437843058648
0.000446061006623
0.000461250427125
0.000507665693145
0.000598828848674
0.00079304252826
0.00125990799062
0.00232603271108
0.00542109927965
0.0227624514751
0.116686298437
0.000353243775154
0.000372687724401
0.000411886673563
0.000427883467479
0.000433317262695
0.000430962615986
0.000417222093021
0.000383184830109
0.000457430265691
0.000454237252142
0.000463264818653
0.000495830197181
0.000480747784803
0.00062499069396
0.000866342982883
0.00136555827273
0.00242118385957
0.00541025148361
0.023565628673
0.145153214483
0.000350664786305
0.000370687271356
0.00040962049094
0.000424921639492
0.00042868462564
0.000422170213671
0.000396872139682
0.000410381545314
0.000348984962271
0.000369566503057
0.000408379143333
0.000423271664012
0.000426085143135
0.000417482276695
0.000387302561979
0.000382831703717
0.000348956450622
0.000369553882005
0.000408374639497
0.000423272334313
0.000426089227533
0.000417488013568
0.000387304306017
0.000382863030332
0.000350625379892
0.000370659257882
0.000409610390349
0.000424918453402
0.000428678515651
0.000422152934692
0.000396828181304
0.000410339652471
)
;
    }
    sides
    {
        lowReCorrection 0;
        blending        stepwise;
        n               2;
        type            epsilonWallFunction;
        value           nonuniform List<scalar> 0();
    }
    bottom
    {
        lowReCorrection 0;
        blending        stepwise;
        n               2;
        type            epsilonWallFunction;
        value           nonuniform List<scalar> 10(0.000369753867574 0.000366314925047 0.000362830284078 0.000359423824171 0.000356187568687 0.000353243775154 0.000350664786305 0.000348984962271 0.000348956450622 0.000350625379892);
    }
    front
    {
        lowReCorrection 0;
        blending        stepwise;
        n               2;
        type            epsilonWallFunction;
        value           nonuniform List<scalar> 
164
(
0.000470363775892
0.000474926124715
0.000480145370495
0.000486865854798
0.000497750828199
0.000520789566993
0.00057925589369
0.000741418887928
0.0011864100939
0.00231883002273
0.00571488121413
0.0248365699948
0.142132603473
0.000369753867574
0.00038697340588
0.000427433297238
0.000444932605018
0.000458989855472
0.000463492473085
0.000467988922389
0.000472880008278
0.000478411973792
0.000485272915446
0.000495964148052
0.00051824944391
0.000575390137467
0.000735728559166
0.00117652147951
0.00229271987809
0.00551070415714
0.0205409174299
0.124886573549
0.000366314925047
0.00038381259747
0.000424091207016
0.000441586232512
0.000450296926371
0.000455840179813
0.00046047810902
0.000465176459782
0.000470401147449
0.000476335455483
0.000483519932875
0.000494499849176
0.000517245870123
0.000574653613367
0.000734890526504
0.00117524393973
0.00231329481544
0.00590615318872
0.022833713185
0.121636284246
0.000362830284078
0.000380688092429
0.00042077187359
0.000438185846687
0.000446828935965
0.00045221912535
0.000456596027463
0.000461076083184
0.000466436170232
0.000472831544981
0.00048049401438
0.000492263310332
0.000517358451838
0.00057774099046
0.000740217479721
0.00118142399509
0.00231738368006
0.00600305360456
0.0240101962279
0.110631985764
0.000359423824171
0.000377725422457
0.000417571965936
0.000434763276152
0.000443003121824
0.000447546241632
0.000450422291703
0.000453009485294
0.000457510386684
0.000464146098183
0.0004722311324
0.000485330202874
0.000516585383573
0.000585754652882
0.000756927402446
0.00120427145996
0.0023020616059
0.00567021979961
0.022601476405
0.0926157247146
0.000356187568687
0.00037501645971
0.000414568853754
0.000431291156879
0.000438498917102
0.000440645816596
0.000438535602423
0.000432143857923
0.000432193856147
0.000437843058648
0.000446061006623
0.000461250427125
0.000507665693145
0.000598828848674
0.00079304252826
0.00125990799062
0.00232603271108
0.00542109927965
0.0227624514751
0.116686298437
0.000353243775154
0.000372687724401
0.000411886673563
0.000427883467479
0.000433317262695
0.000430962615986
0.000417222093021
0.000383184830109
0.000457430265691
0.000454237252142
0.000463264818653
0.000495830197181
0.000480747784803
0.00062499069396
0.000866342982883
0.00136555827273
0.00242118385957
0.00541025148361
0.023565628673
0.145153214483
0.000350664786305
0.000370687271356
0.00040962049094
0.000424921639492
0.00042868462564
0.000422170213671
0.000396872139682
0.000410381545314
0.000348984962271
0.000369566503057
0.000408379143333
0.000423271664012
0.000426085143135
0.000417482276695
0.000387302561979
0.000382831703717
0.000348956450622
0.000369553882005
0.000408374639497
0.000423272334313
0.000426089227533
0.000417488013568
0.000387304306017
0.000382863030332
0.000350625379892
0.000370659257882
0.000409610390349
0.000424918453402
0.000428678515651
0.000422152934692
0.000396828181304
0.000410339652471
)
;
    }
    atmosphere
    {
        type            inletOutlet;
        inletValue      uniform 0.1;
        value           nonuniform List<scalar> 7(0.1 0.1 0.1 0.1 0.0926157247146 0.1 0.1);
    }
    floatingObject
    {
        lowReCorrection 0;
        blending        stepwise;
        n               2;
        type            epsilonWallFunction;
        value           nonuniform List<scalar> 8(0.000457430265691 0.000454237252142 0.000463264818653 0.000495830197181 0.000410381545314 0.000382831703717 0.000382863030332 0.000410339652471);
    }
    procBoundary3to4
    {
        type            processor;
        value           nonuniform List<scalar> 
13
(
0.000472553151395
0.000476810401174
0.000481800735959
0.000373068874342
0.000390090036906
0.000430723876216
0.000448189115399
0.000461900888185
0.000466157654627
0.000466157654627
0.000453564634978
0.000453564634978
0.000453564634978
)
;
    }
    procBoundary3to5
    {
        type            processor;
        value           nonuniform List<scalar> 10(0.000488490424507 0.000499844789205 0.000524296622099 0.000585473489922 0.000751582942125 0.00120599880418 0.00238715566238 0.00613815188027 0.0272557210592 0.149260188305);
    }
    procBoundary3to6
    {
        type            processor;
        value           nonuniform List<scalar> 8(0.000674364578596 0.000743144058853 0.0010177735157 0.00152953286269 0.00256328676515 0.00555406620681 0.0237039633742 0.150833788868);
    }
    procBoundary3to8
    {
        type            processor;
        value           nonuniform List<scalar> 8(0.000353214451453 0.000372668734533 0.000411881030034 0.000427882442171 0.000433300417862 0.000430899767815 0.000417069536194 0.000383026696688);
    }
}


// ************************************************************************* //
