/*--------------------------------*- C++ -*----------------------------------*\
| =========                 |                                                 |
| \\      /  F ield         | OpenFOAM: The Open Source CFD Toolbox           |
|  \\    /   O peration     | Version:  v2012                                 |
|   \\  /    A nd           | Website:  www.openfoam.com                      |
|    \\/     M anipulation  |                                                 |
\*---------------------------------------------------------------------------*/
FoamFile
{
    version     2.0;
    format      ascii;
    class       surfaceVectorField;
    location    "5.9";
    object      Uf_0;
}
// * * * * * * * * * * * * * * * * * * * * * * * * * * * * * * * * * * * * * //

dimensions      [0 1 -1 0 0 0 0];


internalField   nonuniform List<vector> 
296
(
(-0.00770934595016 -0.00789804771897 9.33524272286e-21)
(-0.00729565095547 -0.00750004182016 2.43307185712e-20)
(-0.00775400074819 -0.00874984985408 1.15779782331e-20)
(-0.00732938505244 -0.00837046565723 3.40744188004e-20)
(-0.00787113064499 -0.00954432354502 1.26658472002e-20)
(-0.00739119452438 -0.00930149690604 3.84371069404e-20)
(-0.00808770974913 -0.0100578239374 1.39172058971e-20)
(-0.00773977084637 -0.0100937330849 4.24355763262e-20)
(-0.0082217069657 -0.0100591797535 1.4956218439e-20)
(-0.00829759983981 -0.0103449597274 5.0370874194e-20)
(-0.0080174848675 -0.00956284718525 1.41366137016e-20)
(-0.00862939184179 -0.00978672527601 5.26308287779e-20)
(-0.00748146175374 -0.00902559939072 1.07352013716e-20)
(-0.00820870644303 -0.00874806112079 4.45520581767e-20)
(-0.00639277173206 -0.00892230772031 5.56852769412e-21)
(-0.00724697064583 -0.00814870631753 2.49480758233e-20)
(-0.00444560706189 -0.00953906375891 2.84921127484e-21)
(-0.00529816334121 -0.00736178802447 1.13126680575e-20)
(0.00106567569358 -0.00982058046954 5.16224496555e-21)
(-0.00308105909773 -0.0100963147804 7.57409755107e-21)
(-0.00290615642462 -0.0111972172748 9.48144043288e-21)
(0.00598774451151 -0.0025616337815 1.20824514938e-20)
(-0.0086609003248 -0.0174664713075 1.10057762318e-20)
(-0.0088848999513 -0.0126881822896 2.81520850304e-20)
(-0.0033026459014 -0.0194398563771 2.51058109807e-20)
(-0.00834155724143 -0.00115416032333 9.36756717426e-22)
(-0.00818199097969 -0.000573465803126 1.32635300372e-21)
(-0.00758205068035 -0.00223277908465 5.60265411749e-22)
(-0.0073890624781 -0.0017118823908 8.34144715528e-22)
(-0.00701271991054 -0.00326477503209 7.51410189345e-22)
(-0.00672563759202 -0.00279159452243 9.32877914992e-22)
(-0.00629708611027 -0.00379898161622 2.66197708592e-21)
(-0.00665386444293 -0.00618596367548 1.54910410054e-20)
(-0.00615294042338 -0.00577811073814 2.52791186337e-20)
(-0.00676116667624 -0.00710355695415 3.13510256504e-20)
(-0.00627432020279 -0.0067369754602 6.09411615862e-20)
(-0.0068348354339 -0.0079726478517 4.90698946487e-20)
(-0.00642653965462 -0.00762641765914 1.1457814451e-19)
(-0.00689244023102 -0.00893206741033 6.09335475077e-20)
(-0.00637031137963 -0.00859018347209 1.58930012667e-19)
(-0.00719649751258 -0.00991972085693 6.82068360664e-20)
(-0.00640429257709 -0.00981066811524 1.77381657499e-19)
(-0.00790354844969 -0.0105122390717 7.88892446231e-20)
(-0.0071483857822 -0.0109524299037 2.02895728709e-19)
(-0.00868945201224 -0.0102439285955 8.80454845329e-20)
(-0.00856728098187 -0.0112694548969 2.57470740175e-19)
(-0.00883766065584 -0.00907493836363 8.30462732529e-20)
(-0.00979975968258 -0.0101287466183 2.7451722329e-19)
(-0.00805254047721 -0.00787105999453 5.87649326284e-20)
(-0.0094137162337 -0.00824039493022 2.24701690116e-19)
(-0.00647982240074 -0.00733867511769 3.06922161867e-20)
(-0.00778008025761 -0.00716628188652 1.21231463306e-19)
(-0.00460705398683 -0.00696289969669 1.60375543338e-20)
(-0.00567425602996 -0.00667230586306 5.17079394671e-20)
(0.00111156612516 -0.00573624605288 1.44943040794e-20)
(-0.00430776103282 -0.0100218639787 2.79766507634e-20)
(9.98358212522e-06 -0.00576909359869 3.07530960914e-20)
(0.00602061411911 -0.00171255042223 2.83925493216e-20)
(-0.00381003794418 -0.0116190902093 4.22521197794e-20)
(-0.00303440408373 -0.0104313668768 3.93821620127e-20)
(-0.000640750090528 -0.0170884360076 3.52608448186e-20)
(-0.00722700190444 -0.00116172886785 1.22374100182e-21)
(-0.00701990581478 -0.000571691577758 1.60908407843e-21)
(-0.00652740429284 -0.00224836339131 1.20675721877e-21)
(-0.00630199662239 -0.0017188463242 1.42250860226e-21)
(-0.0059989255626 -0.00328807731941 2.84344481157e-21)
(-0.00568541226739 -0.0028071741573 2.93893643273e-21)
(-0.00570958534216 -0.00429967421888 9.20366646973e-21)
(-0.00528498126959 -0.00382802912804 1.00433906983e-20)
(-0.00563699144306 -0.00529999983347 2.77582953367e-20)
(-0.00513013824219 -0.0048556072694 3.39042795095e-20)
(-0.00570536498524 -0.00629777121587 7.07292392145e-20)
(-0.0051548028007 -0.00590998515031 1.00881539882e-19)
(-0.00584398904841 -0.00727298933368 1.44168280446e-19)
(-0.00529889601923 -0.00699474760514 2.45480306858e-19)
(-0.00586432543387 -0.00821840378112 2.24438262528e-19)
(-0.00548114548735 -0.00796942324035 4.62388566542e-19)
(-0.00580000593998 -0.00945446041441 2.75378122658e-19)
(-0.00513456915685 -0.0091294627124 6.28016516549e-19)
(-0.00630182264072 -0.0109469205978 3.12070550141e-19)
(-0.00491245374185 -0.010910590999 6.89439706792e-19)
(-0.00778938645249 -0.0118826547491 3.8147722426e-19)
(-0.00621352011687 -0.0127246687126 7.94854103154e-19)
(-0.00969119000181 -0.0113898474507 4.43942478932e-19)
(-0.0090610467333 -0.0133719030395 1.03084633077e-18)
(-0.0103704471141 -0.00935354833246 4.16172640154e-19)
(-0.0118369102724 -0.0114097596868 1.08502631945e-18)
(-0.00901503146793 -0.00756332112751 2.87168220794e-19)
(-0.0112045093405 -0.00841168229709 8.71692071946e-19)
(-0.00658497516784 -0.00717233120749 1.42247186586e-19)
(-0.00817128755364 -0.00712214332639 4.82120142808e-19)
(-0.00454161548042 -0.00805898111802 6.36470358967e-20)
(-0.00478754721107 -0.00721459849226 2.0428473814e-19)
(0.00110486838957 -0.0089475504436 4.18748960056e-20)
(-0.00341904512609 -0.0130454492204 9.83533356516e-20)
(0.00213695122069 -0.00860000134059 3.70216152429e-20)
(0.00567313204865 -0.00394444008915 7.2439224102e-20)
(-0.000441741740591 -0.0135891230508 3.23908870519e-20)
(0.00195515638315 -0.0105876290466 3.73254478971e-20)
(0.00145842490215 -0.0155655799718 3.5029671308e-20)
(-0.00610695289283 -0.00115867149591 1.80785167887e-21)
(-0.00586092708542 -0.000569691479491 1.89961114155e-21)
(-0.00546713467507 -0.00225089407496 3.15468781622e-21)
(-0.00520943750188 -0.00171910301772 2.85456652713e-21)
(-0.00497466258799 -0.00329976811469 1.01388823195e-20)
(-0.00463615590558 -0.00281132414768 8.8339991151e-21)
(-0.00469992810254 -0.00433855729006 3.47440037381e-20)
(-0.00424579954361 -0.00385115562972 3.26724901448e-20)
(-0.00462127698875 -0.00540163770667 1.07027524055e-19)
(-0.00406669620091 -0.00493172647283 1.1237666774e-19)
(-0.00465250484748 -0.00652545660381 2.75632607526e-19)
(-0.00403070449668 -0.00610795920776 3.39364139821e-19)
(-0.00474465364457 -0.00771135490712 5.63700592954e-19)
(-0.00411285980651 -0.00748874961926 8.31249464342e-19)
(-0.00453771244486 -0.00881830088962 8.65966820562e-19)
(-0.00437426047779 -0.00867335574257 1.54427886262e-18)
(-0.00404539277896 -0.0105279003627 1.04207810068e-18)
(-0.0034252658947 -0.010127915718 2.03504808774e-18)
(-0.00461742040099 -0.0128722506606 1.17222325981e-18)
(-0.00256861504666 -0.0125012119905 2.21521955748e-18)
(-0.00726019564286 -0.0144369506717 1.44422320966e-18)
(-0.00464944468278 -0.015050344682 2.37735437698e-18)
(-0.011127244771 -0.0137694063331 1.67193017129e-18)
(-0.00972916245518 -0.0162779146913 2.88436774596e-18)
(-0.0127136805881 -0.010381959571 1.54054575124e-18)
(-0.015224693789 -0.0132530366318 2.96378961788e-18)
(-0.0102364763512 -0.00788718323442 1.06664399396e-18)
(-0.0136992682152 -0.00907307281174 2.38379558762e-18)
(-0.00598272656659 -0.00774379141161 5.44157694362e-19)
(-0.0083143419118 -0.00783659072709 1.36426204897e-18)
(-0.00296744552275 -0.00978729034464 2.38991037895e-19)
(-0.0027435506384 -0.00859470549897 6.00099416773e-19)
(0.00142063512033 -0.0120520354889 1.28917663748e-19)
(-0.00115390417041 -0.0150529907599 2.83565789313e-19)
(0.00302098726365 -0.00983588749269 7.27430567562e-20)
(0.00345711422754 -0.00491036618066 1.96679912678e-19)
(0.00287230070717 -0.00650085667864 3.99642321532e-20)
(-0.00137758857742 -0.00865875028039 1.33115409049e-19)
(0.00984116055816 -0.0113807793618 1.24768174968e-19)
(-0.00498559454968 -0.001158149923 2.94632598982e-21)
(-0.00470252046737 -0.000574804281605 2.33429748495e-21)
(-0.00439705773865 -0.00224668990925 8.53387782602e-21)
(-0.00412063203907 -0.00171025833069 6.19595673791e-21)
(-0.00391557336539 -0.0033067862856 3.13676069404e-20)
(-0.00357577699999 -0.00279152072456 2.31917650678e-20)
(-0.0036190783809 -0.00439102327833 1.10305154147e-19)
(-0.00316127778816 -0.00385937090311 8.75175921023e-20)
(-0.00351744555849 -0.00555019780223 3.44713283506e-19)
(-0.00290726476361 -0.00504456541161 3.01576579933e-19)
(-0.0036071245353 -0.00691096066734 8.94980996637e-19)
(-0.00266975717448 -0.00648519945225 9.18413524875e-19)
(-0.00386678384318 -0.00843580049171 1.811827734e-18)
(-0.0025879613538 -0.00842095527092 2.25084721737e-18)
(-0.00345433423095 -0.00993015895179 2.71336012979e-18)
(-0.00288000956164 -0.00990412971302 4.16124146558e-18)
(-0.00215563539917 -0.0120361332292 3.20818954453e-18)
(-0.00131958598618 -0.0113107961496 5.4854565484e-18)
(-0.00261790888324 -0.0147301057514 3.42035067465e-18)
(0.000124957207452 -0.0135155901146 5.69715414595e-18)
(-0.00697472778093 -0.0169984423296 3.81749891327e-18)
(-0.00238148077088 -0.0161605733372 5.37803265586e-18)
(-0.0138286496188 -0.0166633872953 4.17622719255e-18)
(-0.0100643821171 -0.0179176560056 6.18421629457e-18)
(-0.0161963012012 -0.0115470021865 3.80703945426e-18)
(-0.0203405847858 -0.013929622213 5.61136896338e-18)
(-0.0115535435763 -0.00873897356876 2.68141364263e-18)
(-0.0165062247507 -0.00954166806057 4.37566736645e-18)
(-0.00505796048385 -0.00902860066231 1.42020377138e-18)
(-0.00802328939146 -0.0100494309806 2.55661484191e-18)
(-0.00109125824323 -0.0108454227491 6.44674168191e-19)
(-0.000925275817202 -0.0115256834329 1.16128556759e-18)
(0.00121377604223 -0.0122150257862 3.51328038243e-19)
(0.000216739678932 -0.0173612789233 5.85704618992e-19)
(0.000341438759784 -0.00990488155543 2.5705226497e-19)
(0.00114733920861 -0.00668408641272 4.25926476004e-19)
(0.00090278184338 -0.0107112026726 2.17919351863e-19)
(-0.000573434597763 -0.00932389166728 3.42433377553e-19)
(-0.00450248607076 -0.012671152523 3.27718111268e-19)
(-0.00388246688385 -0.00115348503975 5.58392823304e-21)
(-0.00354884878346 -0.000590079657212 3.37296871749e-21)
(-0.00334768407739 -0.00222190993421 2.08538439797e-20)
(-0.00305202393381 -0.0016936096182 1.27682997251e-20)
(-0.00284066446386 -0.00327247956605 7.93417502296e-20)
(-0.00252502340466 -0.00271739537591 5.03057697798e-20)
(-0.00236435908166 -0.00444414064434 2.78789017888e-19)
(-0.00198944330898 -0.00370746961117 1.86886722305e-19)
(-0.00191578440358 -0.00585559469335 8.75276821302e-19)
(-0.00149567144865 -0.0048236453965 6.30159850945e-19)
(-0.00164941859583 -0.00765572975459 2.2742797456e-18)
(-0.000869554959866 -0.00625900321148 1.869606968e-18)
(-0.00164488132107 -0.00956437131129 4.60026094894e-18)
(-0.000679360215797 -0.00843520521758 4.4619984475e-18)
(-0.000627174760579 -0.0116649512714 6.93333788419e-18)
(-0.000779633020342 -0.0111845998916 8.45638580736e-18)
(0.00119178992407 -0.0126972842479 7.97442114982e-18)
(-0.000287527861833 -0.0131349559111 1.28161947985e-17)
(0.000459505359191 -0.0148538284878 7.65483612717e-18)
(0.00228123026284 -0.0135936239701 1.37531986929e-17)
(-0.00520969833708 -0.0168791444892 7.74475003716e-18)
(-0.000356280893097 -0.0127380958866 1.05496920473e-17)
(-0.0172074660708 -0.0174387863134 7.6193580654e-18)
(-0.00950388867959 -0.0179178984027 1.17152595222e-17)
(-0.0217111996713 -0.0105342312707 6.17999687557e-18)
(-0.0272432812319 -0.0158419204253 8.36686457436e-18)
(-0.013277156733 -0.0105949584995 4.25086856573e-18)
(-0.0164428206198 -0.0099533736124 5.62877933573e-18)
(-0.00401177931863 -0.0126222831086 2.29769663812e-18)
(-0.0059929751779 -0.0141283997969 3.1906053516e-18)
(0.000624915942021 -0.0147605164778 1.10231601839e-18)
(0.00121566581987 -0.0162053581785 1.61275417318e-18)
(0.000540429236305 -0.0160970809779 6.60303056753e-19)
(0.00155492672419 -0.0217285609624 9.44717977968e-19)
(-0.00418796949949 -0.0134229942768 5.11307588586e-19)
(-0.00152626046468 -0.0116956663745 7.26436313082e-19)
(-0.00290153135368 -0.00631106159614 4.52232136957e-19)
(-0.00768429120357 -0.0155911569783 6.21411272378e-19)
(0.00414896369579 -0.0241361968189 5.79056073267e-19)
(-0.00277115028495 -0.00114880775445 1.05573402096e-20)
(-0.00239993965174 -0.000595496913865 5.41279736401e-21)
(-0.0023070837228 -0.00217552346766 4.22202255252e-20)
(-0.00202522334838 -0.00164620662276 2.27850730306e-20)
(-0.00179689559226 -0.00309913464031 1.57850741856e-19)
(-0.00160134130591 -0.00256873460635 8.83058840078e-20)
(-0.00117798695678 -0.0039988184851 5.38257555362e-19)
(-0.00108971468448 -0.00336535876295 3.13386491649e-19)
(-0.000354895348431 -0.00510382675145 1.62448999765e-18)
(-0.000390665586823 -0.00406001859927 1.00424523513e-18)
(0.000466427944624 -0.00681150388254 4.0573256699e-18)
(0.000838050554081 -0.00470848219621 2.84058849459e-18)
(0.00122982738407 -0.00939928639947 8.31812330592e-18)
(0.00190822969209 -0.00561158208777 6.39946514512e-18)
(0.000154785648351 -0.013687918567 1.43392427217e-17)
(0.00350875620329 -0.00632838486726 1.1742296838e-17)
(0.000922621339191 -0.0139755689804 1.85949723416e-17)
(0.00212890634524 -0.0116944028343 1.66480546129e-17)
(-0.00375114038728 -0.0120502474768 1.45202015323e-17)
(-0.0208264534217 -0.0215530840841 1.24627660312e-17)
(-0.0245233451626 -0.0127853386838 7.81564703452e-18)
(-0.00981480165681 -0.013911342906 4.5685161216e-18)
(-0.000265541552859 -0.0176275934284 2.50566288666e-18)
(0.00308662042778 -0.019974792584 1.45515613275e-18)
(0.000406483312692 -0.0220824769347 1.0108512343e-18)
(-0.00447886333016 -0.0214808999224 8.36539996874e-19)
(-0.00235596496987 -0.026296031029 7.48235208688e-19)
(-0.0017063220374 -0.00110395336257 1.7640530185e-20)
(-0.00129597917075 -0.000592202994619 8.25487560343e-21)
(-0.00137222655814 -0.00205630541151 6.88707315132e-20)
(-0.00107289706483 -0.00158614435576 3.41562571154e-20)
(-0.000956830812581 -0.00284646708101 2.43841633801e-19)
(-0.000811238123124 -0.0023953623741 1.2977934347e-19)
(-0.000412628215347 -0.0034524344221 7.79374171415e-19)
(-0.000483851826023 -0.00299608747665 4.41285406793e-19)
(0.000361246100122 -0.00380560339641 2.22034373207e-18)
(-3.7658320612e-05 -0.00321928346997 1.33933799921e-18)
(0.0011915925931 -0.00353688948354 5.18272796981e-18)
(0.000569099111632 -0.0030252197967 3.77221793395e-18)
(0.00193223293512 -0.00254017161652 9.82363867717e-18)
(0.000911220503928 -0.00254565221987 8.72553260365e-18)
(0.000968417029696 -0.000443771109498 1.79828215364e-17)
(-0.000705182911843 -0.00109816148717 2.47706025338e-20)
(-0.000197973752999 -0.000592374077843 1.00428624623e-20)
(-0.000581976534822 -0.00197327970497 9.50648690721e-20)
(-0.000197982843322 -0.00156020936423 3.99193187617e-20)
(-0.000408811592802 -0.0025953069455 3.27223116461e-19)
(-0.000189483749519 -0.00231466906251 1.50456110452e-19)
(-0.000152775449138 -0.00289245804037 1.00124923459e-18)
(-0.000187054324714 -0.00282317782347 5.04052856006e-19)
(0.000247111138423 -0.00275222121018 2.89121220109e-18)
(-0.000178322077027 -0.00285342218269 1.49902604765e-18)
(0.000648859551196 -0.00203172359054 7.31502256778e-18)
(-0.000151865520761 -0.00239719746161 4.28469009161e-18)
(0.000718626147172 -0.00102404996769 1.68847154628e-17)
(-9.6888101343e-05 -0.00169165367557 1.034694531e-17)
(-5.57647179973e-05 7.40112176615e-05 2.34322313669e-17)
(0.000306665168643 -0.00109092204926 2.51915786901e-20)
(0.000892586352903 -0.000583298878997 9.07223231072e-21)
(0.000187740773504 -0.00196238919552 9.53105601419e-20)
(0.000673019981399 -0.00157014190847 3.45603331218e-20)
(3.28492729372e-05 -0.00260193815469 3.27285849997e-19)
(0.000449479205331 -0.00237797871803 1.29952418421e-19)
(-0.000193794636292 -0.00290201321614 1.00182966907e-18)
(0.000112320910732 -0.00298432016659 4.41374048876e-19)
(-0.000555589948678 -0.00274868590986 2.89250393817e-18)
(-0.000332398258728 -0.00321737780818 1.34103470157e-18)
(-0.000899266935569 -0.00201399869109 7.31661283385e-18)
(-0.000887240385998 -0.00302126343365 3.7748207884e-18)
(-0.000879923382875 -0.00103057500777 1.6894461214e-17)
(-0.00108070060935 -0.00252312188285 8.73007615938e-18)
(-0.00108652618595 -0.00043933744276 1.79966965948e-17)
(0.00129822455954 -0.00108594010147 1.84409867424e-20)
(0.000974134299373 -0.00203486156354 6.92021914006e-20)
(0.000584202156949 -0.00280638690845 2.440406173e-19)
(8.05087219448e-05 -0.00343220161966 7.80579081377e-19)
(-0.000641531319965 -0.00379999708236 2.22335155179e-18)
(-0.00141542487606 -0.00356096793239 5.18828411393e-18)
(-0.00207013059114 -0.00249836515515 9.83231154011e-18)
)
;

boundaryField
{
    back
    {
        type            calculated;
        value           uniform (0 0 0);
    }
    sides
    {
        type            calculated;
        value           nonuniform List<vector> 0();
    }
    bottom
    {
        type            calculated;
        value           uniform (0 0 0);
    }
    front
    {
        type            calculated;
        value           uniform (0 0 0);
    }
    atmosphere
    {
        type            calculated;
        value           nonuniform List<vector> 7((0 -0.0231629630707 0) (0 -0.0142809738535 0) (0 -0.0156884584762 0) (0 -0.0148853674811 0) (0.00384118308777 0.00363501868261 2.10251285561e-19) (0 -0.0149625082025 0) (0 -0.0263057978857 0));
    }
    floatingObject
    {
        type            calculated;
        value           nonuniform List<vector> 8((0 -1.66533453694e-15 2.08166817117e-16) (0 0 2.08166817117e-16) (0 0 0) (0 -3.33066907388e-15 2.08166817117e-16) (4.16333634234e-16 0 0) (0 0 2.08166817117e-16) (0 0 2.08166817117e-16) (0 0 0));
    }
    procBoundary3to4
    {
        type            processor;
        value           nonuniform List<vector> 
13
(
(-0.008155616763 -0.00746242224636 4.60153598458e-21)
(-0.00818053621164 -0.00831658852092 6.42621991909e-21)
(-0.00818428012997 -0.00915087591724 7.21925827936e-21)
(-0.00933682238641 -0.000569622476334 1.19156251216e-21)
(-0.0084685235946 -0.0016982560492 5.6975886357e-22)
(-0.00775841283716 -0.00276648877675 3.02704067885e-22)
(-0.00729616849765 -0.00376425228434 6.46634973833e-22)
(-0.00710245502256 -0.00570393090947 5.49846145127e-21)
(-0.00764803656711 -0.00703842225307 6.00615771817e-21)
(-0.00719239382907 -0.00662954489827 1.30264647973e-20)
(-0.00669763093364 -0.00426259943313 2.14196441006e-21)
(-0.00660711912841 -0.00523782030058 6.2044770909e-21)
(-0.00613150281133 -0.00479421154752 8.68365379387e-21)
)
;
    }
    procBoundary3to5
    {
        type            processor;
        value           nonuniform List<vector> 10((-0.00825102374156 -0.00985336143351 7.70898027771e-21) (-0.00829613749096 -0.0102218305628 8.68410750913e-21) (-0.00812992317377 -0.0101676513352 9.02640577109e-21) (-0.00766856983212 -0.00985655847382 8.20289007992e-21) (-0.00714145922325 -0.00990437711718 6.15394252413e-21) (-0.00591359761361 -0.00920093946518 3.30957496138e-21) (-0.00336205789617 -0.013391439696 4.06805206334e-21) (0.00461117599656 -0.00612755431453 7.3196826109e-21) (-0.0151570064324 -0.017299672492 1.38709221695e-20) (-0.00899982777501 -0.0272190839292 1.21086201681e-20));
    }
    procBoundary3to6
    {
        type            processor;
        value           nonuniform List<vector> 8((-0.0360078817962 -0.0139461362 7.19245304122e-18) (-0.0153128868586 -0.0155112274935 4.87670122125e-18) (-0.00227264709649 -0.0212777789985 2.92940362493e-18) (0.0035663258504 -0.0222596247749 1.81435528309e-18) (0.00366467015256 -0.0248078888229 1.24815744613e-18) (-0.00212719408922 -0.0162907265679 1.02611318527e-18) (-0.00286839226624 -0.0221440888704 9.21364000098e-19) (0.00415919725719 -0.0305161439151 8.42880624446e-19));
    }
    procBoundary3to8
    {
        type            processor;
        value           nonuniform List<vector> 8((0.00197802003622 -0.00058134183897 6.32786827997e-21) (0.00162128649097 -0.00162137314158 2.31958358617e-20) (0.00122019622909 -0.00253550342112 8.83955646183e-20) (0.000737216659875 -0.0033335391795 3.13514603745e-19) (3.44667113226e-05 -0.00404014170458 1.00606059888e-18) (-0.00112699021492 -0.00470142454063 2.84689111896e-18) (-0.00214380599826 -0.00557573487393 6.41623121163e-18) (-0.00358491923746 -0.00623854124885 1.17603491903e-17));
    }
}


// ************************************************************************* //
