/*--------------------------------*- C++ -*----------------------------------*\
| =========                 |                                                 |
| \\      /  F ield         | OpenFOAM: The Open Source CFD Toolbox           |
|  \\    /   O peration     | Version:  v2012                                 |
|   \\  /    A nd           | Website:  www.openfoam.com                      |
|    \\/     M anipulation  |                                                 |
\*---------------------------------------------------------------------------*/
FoamFile
{
    version     2.0;
    format      ascii;
    class       surfaceVectorField;
    location    "3";
    object      ddtCorrDdt0(Uf);
}
// * * * * * * * * * * * * * * * * * * * * * * * * * * * * * * * * * * * * * //

dimensions      [0 1 -2 0 0 0 0];


internalField   nonuniform List<vector> 
300
(
(-0.101766988411 -0.00532902342314 2.26126032865e-23)
(-0.0986889065565 -0.00283976846777 1.26699665685e-22)
(-0.102201683818 -0.0107372789102 3.16638651651e-23)
(-0.0994138135747 -0.00811699220699 -2.20627263508e-23)
(-0.10252077063 -0.0163758038858 1.88801098438e-23)
(-0.0993691327795 -0.013647877301 7.39640116627e-23)
(-0.103162271792 -0.0223633583692 -3.17150045255e-23)
(-0.099749917238 -0.0195537406409 -8.58093220491e-23)
(-0.103908306284 -0.0288238499325 2.21935393175e-23)
(-0.100229495638 -0.0257960797472 -2.10576408338e-23)
(-0.104674857633 -0.0358923455334 3.26884681987e-23)
(-0.100692332729 -0.0325413893948 -8.4818012501e-24)
(-0.105393375064 -0.0437282266556 1.90209756947e-23)
(-0.10106747956 -0.0399330857377 -1.60418301578e-24)
(-0.105961052147 -0.0525078374274 4.16609829057e-24)
(-0.101267444275 -0.0481166979049 2.73832009214e-23)
(-0.106241950767 -0.0624278376279 1.12006270905e-23)
(-0.101172744968 -0.0572728503 -1.06563463899e-23)
(-0.106077519784 -0.0736987142533 1.81311308652e-23)
(-0.100617399377 -0.06759739793 9.60846727863e-24)
(-0.105268753427 -0.0865469165233 3.0890027219e-23)
(-0.0994259663293 -0.0792878300782 -2.81335555069e-23)
(-0.103579696763 -0.1011983793 -1.02668260625e-22)
(-0.0973514150282 -0.0925662323824 5.79462741635e-23)
(-0.100806692051 -0.117923515801 -6.57872000722e-22)
(-0.0941808472937 -0.107694132402 -2.39354374244e-22)
(-0.0969912605504 -0.13680492457 -1.0508949074e-21)
(-0.0897264905679 -0.124897197806 -1.06694365591e-21)
(-0.0927115708455 -0.158105739456 8.37650317271e-22)
(-0.0842259990712 -0.144436650713 -1.28260448631e-21)
(-0.0886267900554 -0.182428620672 -1.94339529777e-21)
(-0.0784116962533 -0.165351829684 5.05976537277e-22)
(-0.0875038632036 -0.204915413552 -1.64286899639e-21)
(-0.0755138118414 -0.191025737622 -3.76135766468e-21)
(0.0310623292215 -0.221143645713 -7.8703613065e-20)
(-0.0808240332619 -0.169715788109 -1.34521579825e-21)
(0.373771511294 -0.280184519089 -1.49717064526e-19)
(0.169578195101 -0.215234300423 -9.07476455967e-20)
(0.395217301122 -0.304192147359 -8.39636558624e-20)
(-0.096339978505 -0.0054334626755 8.20243360476e-23)
(-0.093260765402 -0.0029124991421 1.76513359817e-22)
(-0.0966132734979 -0.0109985482075 2.02374201468e-23)
(-0.0938521061645 -0.00824557060961 -5.30481742505e-23)
(-0.0966540550698 -0.0167505441612 -3.07254202302e-23)
(-0.0936158288996 -0.0138366058769 -1.03484521078e-23)
(-0.0969023912806 -0.0227997085101 -7.51519583574e-23)
(-0.0936929324722 -0.0197814323065 -7.37324571291e-23)
(-0.0971341563271 -0.0292646389411 -5.17329814014e-23)
(-0.0937497521292 -0.0259999059086 -2.84030069445e-23)
(-0.0972490549648 -0.0362609203278 -4.27744524646e-23)
(-0.0936753937004 -0.0326453228699 -6.42451287129e-23)
(-0.0971643721715 -0.0439302668441 6.75804221092e-24)
(-0.0933747089885 -0.0398446611132 -1.64707174344e-23)
(-0.0967718586575 -0.052399734659 1.2560756241e-23)
(-0.0927766888549 -0.0477210141432 2.231341527e-23)
(-0.0959152215559 -0.0618578062268 -1.22485062018e-23)
(-0.0917017890241 -0.0564131116322 -7.7631790893e-25)
(-0.094409791619 -0.0724830361791 -3.66562190934e-23)
(-0.089994215626 -0.066088775229 -8.72959401785e-24)
(-0.0920450643668 -0.0844879495414 -1.07730856236e-24)
(-0.0874432561469 -0.0769250429368 -3.09651641599e-23)
(-0.0885731366348 -0.0980935640231 -7.87398394561e-23)
(-0.083790127221 -0.0891151756758 9.16255519591e-24)
(-0.0837365024132 -0.113591516444 -6.48426029435e-22)
(-0.0787461475055 -0.102936144662 -2.77111240715e-22)
(-0.0774601971612 -0.131365812782 -1.29865323482e-21)
(-0.0720260451617 -0.118748704647 -9.89731919974e-22)
(-0.0700346127576 -0.152065988853 -1.6142782663e-21)
(-0.0635993474299 -0.136813515603 -1.55261785607e-21)
(-0.0621887178111 -0.177120809777 -1.31198582964e-21)
(-0.0534124381637 -0.158726700768 -1.1729766588e-21)
(-0.0607881973937 -0.211560700519 -3.46370446655e-21)
(-0.0410975869863 -0.186777706186 8.21722308447e-21)
(0.0680161023498 -0.24568659557 -1.338924833e-20)
(-0.046710154227 -0.171038752107 -9.13615472747e-21)
(0.280470095639 -0.315839901987 -2.4994236933e-20)
(0.240088313251 -0.229800476695 -1.78200060366e-20)
(0.291206923063 -0.355343266011 -2.40687515134e-20)
(-0.0908227010197 -0.00548111403594 4.14408495185e-23)
(-0.0877864650444 -0.00293084899211 1.61359127235e-22)
(-0.0909440631715 -0.0110716021397 -8.36340465051e-23)
(-0.0882668753869 -0.00822895702226 -1.17094492656e-22)
(-0.0907597826629 -0.0168163700009 -5.33554890068e-23)
(-0.0878722342265 -0.013800698293 -8.49037919867e-23)
(-0.0906703000136 -0.0228205073781 -2.69835057162e-23)
(-0.0876842971858 -0.0196774330403 -3.06013371909e-23)
(-0.0904554426938 -0.0291739857804 -4.09151542561e-23)
(-0.0873857734754 -0.0257618708701 -1.55883793273e-23)
(-0.090019553961 -0.0359561449541 -3.79413936827e-23)
(-0.0868778117314 -0.0322001156863 -3.22679924665e-23)
(-0.0892628582985 -0.0433074324013 -9.15344375298e-25)
(-0.0860057005256 -0.0390857632057 -1.35750352442e-24)
(-0.088057320967 -0.0513317081655 8.97634112008e-24)
(-0.0847364121477 -0.0465149374241 7.73314187561e-24)
(-0.0862405733063 -0.0601580834671 2.74259427498e-24)
(-0.0828660382484 -0.0545953501748 1.33463594143e-24)
(-0.0836025244152 -0.0699372630318 -3.03853908432e-24)
(-0.0802172280876 -0.063449115822 -1.47890797695e-23)
(-0.0798937326757 -0.0808509955554 -2.07253004016e-23)
(-0.0765469616741 -0.0732184059324 -4.98914044018e-24)
(-0.0748127262533 -0.0931172506682 -1.89208846063e-22)
(-0.0715577325191 -0.0840615248805 -7.55992651402e-23)
(-0.0679998217833 -0.107026337035 -6.18417131254e-22)
(-0.0648845462456 -0.0962175641577 -4.10982426345e-22)
(-0.0591380556269 -0.1230316876 -1.24369654123e-21)
(-0.0560752648189 -0.110114435391 -1.17180274265e-21)
(-0.047895674701 -0.142112807393 -1.11131624856e-21)
(-0.0445709186795 -0.125811862019 -2.09689162463e-21)
(-0.0342687216827 -0.166019549672 8.35623225531e-21)
(-0.0295449919263 -0.146628873118 2.53480342218e-21)
(-0.0294969922467 -0.194540246239 2.54477282354e-21)
(-0.0125943799903 -0.171878466577 1.10094424528e-20)
(0.114013343063 -0.225169839338 -1.35669124341e-20)
(-0.0160873188239 -0.166648090099 -8.17147515353e-21)
(0.269843759367 -0.275244584612 -1.6894520617e-20)
(0.290499548832 -0.226835388507 -2.00990323455e-20)
(0.27674630906 -0.270110481147 -5.9468617807e-21)
(-0.0853120120459 -0.00546386282454 2.82378505962e-24)
(-0.0823309310739 -0.00291101744171 1.2020986464e-22)
(-0.0853176497388 -0.0109787837809 -1.18364238138e-22)
(-0.0827590108573 -0.0081012056096 -1.36697037414e-22)
(-0.0849398389636 -0.0166301322517 -6.21496401709e-23)
(-0.082224356898 -0.0135717586821 -2.33765559697e-23)
(-0.0845722683708 -0.0224872947727 -1.9206210802e-23)
(-0.0818256252291 -0.019300162514 -3.70390614251e-24)
(-0.0839969417366 -0.0286215139922 -6.94121753777e-24)
(-0.0812448395392 -0.025167166057 -3.32312573441e-24)
(-0.0831154836385 -0.0351236029041 4.31589769177e-24)
(-0.0803648234662 -0.0313110025052 -3.79867203361e-24)
(-0.0818233730891 -0.0420342305693 7.29098272649e-24)
(-0.0790822031402 -0.0377904496877 2.57752130223e-25)
(-0.0799741554586 -0.0494693815858 9.14366969525e-26)
(-0.0772897852899 -0.0446638941989 1.76227012494e-23)
(-0.0773911920302 -0.0575203911816 -1.61970381031e-23)
(-0.0748087906111 -0.0520106792924 -1.66667330716e-23)
(-0.0738541266367 -0.0662785770127 -1.67396811254e-23)
(-0.0714618897186 -0.0599098312278 -3.03831334375e-23)
(-0.0690696980406 -0.0758801739578 -5.98631051787e-23)
(-0.0669598475203 -0.0684366453248 9.62958280347e-24)
(-0.0626791358137 -0.0864916680868 -2.97372845422e-22)
(-0.0609730435981 -0.077702626338 -9.9842387093e-23)
(-0.0542068811086 -0.0983738686674 -9.64368037745e-22)
(-0.0530390302208 -0.0878472758016 -4.92251048438e-22)
(-0.0430129426033 -0.111953967824 -2.02499782606e-21)
(-0.0425367432044 -0.0992825043993 -1.52759332936e-21)
(-0.0278877213875 -0.128188328088 1.54922804611e-21)
(-0.0283758278474 -0.111415472073 -1.61896376793e-21)
(-0.00952638843378 -0.149403496089 5.18801361965e-21)
(-0.00835887242777 -0.130076264422 7.63821820397e-21)
(0.000173406193236 -0.175507181347 2.93194475704e-22)
(0.0134966470077 -0.148377876954 2.36109626764e-20)
(0.167768734156 -0.208508631297 -1.47035950649e-20)
(0.0169108001998 -0.152335743312 3.06522317388e-21)
(0.302280822939 -0.289743276792 -9.15137350921e-21)
(0.371814403854 -0.193269648535 -1.22771169954e-20)
(0.261938830969 -0.207272143627 5.69638168742e-21)
(-0.0798920431705 -0.00532679274847 -1.93109578336e-23)
(-0.077013991696 -0.00286222318109 1.66798923132e-22)
(-0.0798065978397 -0.0107425502402 -4.17093552451e-23)
(-0.0773520909379 -0.0078863153771 -4.00572521827e-23)
(-0.0792800305467 -0.0162358861069 3.50691780587e-23)
(-0.0767367554723 -0.013193030762 2.03331873558e-22)
(-0.0786983386124 -0.0218838111912 1.21791789251e-23)
(-0.0761791131767 -0.0187132098414 3.55174854256e-23)
(-0.077852696234 -0.0277353159618 -1.80580230259e-25)
(-0.0753903010863 -0.0243048700914 2.98227611445e-23)
(-0.076635284016 -0.0338413342229 -7.85681759516e-24)
(-0.0742522058725 -0.0300876917067 -9.15348294562e-24)
(-0.0749369577426 -0.040244208334 1.05894706531e-23)
(-0.0726709642126 -0.0360915229439 -7.3009264064e-24)
(-0.0726189790703 -0.0470030176775 8.64531480792e-25)
(-0.0705235461302 -0.042345748632 1.58155550759e-23)
(-0.0694968535021 -0.0541610447573 -3.08528284061e-23)
(-0.0676472867382 -0.048887730405 -4.46788887643e-23)
(-0.0653245841292 -0.0617853888492 -4.01386950864e-24)
(-0.0638410203853 -0.0557369806563 -3.29480202781e-23)
(-0.0598032001703 -0.0698992916505 -3.03496991107e-23)
(-0.0588582420442 -0.0629219185075 -1.59594808945e-23)
(-0.0525351798957 -0.0786497056109 -2.94720590109e-22)
(-0.0522441619429 -0.070470007733 -5.02788996657e-23)
(-0.0429574635226 -0.0881034531794 -1.05547634006e-21)
(-0.0436139918407 -0.0783785555854 -3.05975675557e-22)
(-0.0300768308003 -0.0984516116579 -1.12155927123e-21)
(-0.0322207648876 -0.0869580547987 -1.23051796018e-21)
(-0.0122076109635 -0.110216753373 4.47002638993e-21)
(-0.0166404699109 -0.0947298533175 3.80191120386e-23)
(0.0101594038955 -0.123522066593 2.60611672607e-20)
(0.00492468057557 -0.109822722689 3.10907429876e-21)
(0.0237928136988 -0.140452830387 2.63829913746e-20)
(0.0304186121886 -0.118146485342 1.74939145944e-20)
(0.202571146486 -0.157030255363 5.49170124342e-21)
(0.0334870945173 -0.127103945924 7.90545956705e-21)
(0.322072154845 -0.15442647266 2.57063820122e-21)
(0.369079076119 -0.131988961352 -1.48648118202e-21)
(0.242768379751 -0.0733987296473 -9.47306300993e-21)
(-0.0746064877458 -0.00518831501719 1.46052628783e-22)
(-0.0718368175262 -0.00279146793866 2.33762055809e-22)
(-0.0744481825621 -0.0103890229889 2.0498397662e-22)
(-0.0721616036974 -0.0076045625314 7.80158199834e-23)
(-0.0738239410647 -0.0156827585761 2.03780180925e-22)
(-0.0714505388382 -0.0127121832884 2.43508164312e-22)
(-0.0730954664002 -0.021074578209 5.31610676451e-23)
(-0.0707928995344 -0.0179826783617 3.51168720145e-23)
(-0.0720615518383 -0.0265921534574 2.08498584292e-23)
(-0.0698745392557 -0.0232589132393 3.52295041197e-23)
(-0.0706204069159 -0.0322631034713 -8.59759175687e-24)
(-0.0685799753115 -0.0286437796877 -3.07700859614e-23)
(-0.0686677677288 -0.0381044721309 -2.0748419836e-24)
(-0.0668259118258 -0.0341387030173 -1.75845922027e-23)
(-0.066065620461 -0.0441360303392 -2.97278651692e-23)
(-0.0644886208084 -0.0397433863844 1.58408646672e-23)
(-0.0626293383033 -0.0503611706084 -4.67740806363e-23)
(-0.0614207284897 -0.0454509065927 -1.67692048577e-23)
(-0.0581249019871 -0.0567541265455 -4.48936316639e-23)
(-0.0574516428072 -0.0512341314205 2.87508623007e-24)
(-0.0522616369755 -0.0633770338864 -3.58886814494e-23)
(-0.0522437395928 -0.0570674443286 -2.82418737496e-23)
(-0.0446239747607 -0.070115966372 -6.15339851143e-23)
(-0.0455245163476 -0.0628661427401 -8.81744413807e-24)
(-0.0346091070754 -0.0769467228547 -4.8101729568e-22)
(-0.0368084852215 -0.0685180344338 -1.15172161869e-22)
(-0.0210710493093 -0.0838277404391 -7.09395769121e-23)
(-0.0253672028683 -0.074115191521 -8.46491509486e-22)
(-0.00255238957538 -0.090778890057 -1.32293297914e-21)
(-0.00971371248541 -0.0777175068892 -6.44809325087e-23)
(0.0208821868578 -0.0973015859479 -5.4581783676e-21)
(0.0114301599535 -0.0878581526988 -7.30888762977e-25)
(0.0338187043551 -0.103311847353 -9.83617213149e-22)
(0.0364220242526 -0.085065806031 -4.01368055197e-21)
(0.191783608302 -0.103357390422 9.27277141613e-22)
(0.0335329723 -0.0989981757208 2.11515454808e-21)
(0.290891282227 -0.0503398055372 -1.35301823932e-20)
(0.315963368177 -0.0708160771452 8.0131634832e-21)
(0.212723921754 0.0246075675823 3.18533429292e-22)
(-0.0695163941174 -0.00497680038478 1.6572524701e-22)
(-0.0668716547362 -0.00270748091239 1.91256228892e-22)
(-0.069316064856 -0.0100107481636 1.16540007675e-22)
(-0.0671398221586 -0.00728615041937 2.40967600635e-23)
(-0.0686266971476 -0.0150519337086 7.48448554016e-23)
(-0.066424928586 -0.012163417239 5.05596892487e-23)
(-0.0678084747806 -0.0201440238201 1.71853084892e-23)
(-0.06571150483 -0.0171646426824 -9.12458117363e-24)
(-0.0666724970446 -0.0252982196683 -1.63904402708e-23)
(-0.0647281296226 -0.0221114719514 5.50407018034e-25)
(-0.0651222131662 -0.0305106323184 -3.97570864072e-23)
(-0.0633703399854 -0.0270898180805 -3.16715337345e-23)
(-0.0630551190797 -0.0357744216824 3.31114448071e-25)
(-0.0615635610905 -0.0320723716793 -2.53517839512e-23)
(-0.0603457230915 -0.0410702549915 2.87995249786e-23)
(-0.0591910765433 -0.0370361637189 1.13449164702e-23)
(-0.0568315268059 -0.0463571690639 3.28799620087e-23)
(-0.0561343471464 -0.0419379193641 1.95964216852e-23)
(-0.0523081394875 -0.0516029637128 1.95268441444e-23)
(-0.0522048783114 -0.0467122140005 2.0430166531e-23)
(-0.0464862203673 -0.0566873926651 -1.17063643822e-24)
(-0.0471762897471 -0.0512533576216 4.30347339923e-24)
(-0.0389731935206 -0.0614760571878 -6.24556208927e-23)
(-0.0407512433538 -0.0553937746943 2.42068031617e-23)
(-0.0292052277639 -0.0657858574549 -4.80646375674e-22)
(-0.0325226470209 -0.0589674947114 -1.56882121841e-22)
(-0.0161390920699 -0.0693613959646 -8.40032865082e-22)
(-0.021814284152 -0.0616979762389 -6.02976478021e-22)
(0.00154514583799 -0.0716822597787 1.25772115787e-21)
(-0.0074152677743 -0.0616788409853 -2.3201565542e-21)
(0.0230015733282 -0.0720765768569 1.44376692686e-21)
(0.0118125992242 -0.0663728870555 2.61341620949e-22)
(0.0312539222299 -0.0674833983228 -9.14908790745e-22)
(0.0318228757439 -0.0540928111984 5.24446783683e-21)
(0.154500213562 -0.0559848474434 9.20104088966e-21)
(0.0220331936628 -0.0718354589316 -3.28134557775e-21)
(0.238037246452 0.0169428195193 2.18618793057e-20)
(0.243163501558 -0.0213585207721 5.93400068361e-21)
(0.175410792609 0.0981710853321 1.56877625126e-20)
(-0.0646476480535 -0.00475725332449 4.96277419454e-23)
(-0.062131806924 -0.00261107587595 1.28299516939e-22)
(-0.0644249082908 -0.0095632178611 -4.18835583627e-23)
(-0.0623547859154 -0.00695207580187 -1.6084044851e-22)
(-0.0637136879461 -0.0143475605934 -3.34097473265e-23)
(-0.0616564844094 -0.0115869895071 -7.31582731536e-23)
(-0.0628601406644 -0.0191442961339 -2.57594826448e-23)
(-0.0616936229328 -0.0239325596866 -1.47306864457e-23)
(-0.0601244859913 -0.0287043637721 -1.72662312785e-23)
(-0.0580748108616 -0.0334051491226 -1.4337981929e-23)
(-0.0554366785956 -0.0380155594994 2.14181317675e-24)
(-0.0520684464866 -0.0424449821613 7.14662620746e-24)
(-0.0477834103483 -0.0465967440394 5.20679578577e-24)
(-0.0423367135688 -0.0502926560015 2.96809129991e-23)
(-0.0354329742087 -0.0533504641033 -7.02196977866e-23)
(-0.0265664262383 -0.0553848034118 -2.79212224187e-22)
(-0.0149582478953 -0.0559727509727 -2.08310016713e-21)
(0.00021073666749 -0.0540428569236 -3.31653609111e-21)
(0.017216647118 -0.0475999309749 4.06204253092e-21)
(0.0185887429248 -0.0358522456944 2.87803104982e-21)
(0.10248898761 -0.0141550111917 -6.5483857838e-21)
(0.17394408544 0.0831607467762 -2.40116109423e-22)
(-0.0599910364025 -0.00455173510602 -8.21686735166e-23)
(-0.057599185331 -0.00251594070998 8.52401016564e-23)
(-0.0597648802094 -0.00910905997779 -1.92115163301e-22)
(-0.0532889425594 -0.00242769145633 1.01378397223e-22)
(-0.049165513259 -0.00234435554712 1.47353996421e-22)
)
;

boundaryField
{
    back
    {
        type            calculated;
        value           uniform (0 0 0);
    }
    sides
    {
        type            calculated;
        value           nonuniform List<vector> 0();
    }
    bottom
    {
        type            calculated;
        value           uniform (0 0 0);
    }
    front
    {
        type            calculated;
        value           uniform (0 0 0);
    }
    atmosphere
    {
        type            calculated;
        value           nonuniform List<vector> 8((-1.1416934301 0.369283092312 -5.69091754717e-20) (-0.164065937583 -0.211958138622 -1.84405206103e-21) (-0.166592544938 -0.260961372644 -3.35449589842e-20) (-0.122956608709 -0.275025888707 -3.68613593637e-20) (-3.3053232062e-05 -0.135143314385 -7.22950104367e-24) (9.34184471647e-05 -0.020198783996 -1.37311699748e-23) (-0.000730291316937 0.0541631307871 1.23995992566e-22) (0.00122514317863 0.119792455803 -2.03499006103e-22));
    }
    floatingObject
    {
        type            calculated;
        value           nonuniform List<vector> 0();
    }
    procBoundary9to6
    {
        type            processor;
        value           nonuniform List<vector> 4((-0.0979136647449 -0.189930628224 1.51280679687e-20) (-0.0970384224728 -0.163718153425 1.34982568606e-20) (0.110436470953 -0.195232069089 -3.70062701813e-19) (1.04507144832 -0.0104645831862 -3.34033409871e-19));
    }
    procBoundary9to7
    {
        type            processor;
        value           nonuniform List<vector> 
16
(
(-0.104014483042 -0.00272068288235 7.68952988883e-23)
(-0.10482228451 -0.00783216644899 -8.30735193773e-23)
(-0.105016122685 -0.0131855270005 7.1369580597e-23)
(-0.105757544618 -0.0189386324055 -3.99026597292e-23)
(-0.106722858946 -0.0250811458905 3.4745123922e-24)
(-0.107804859566 -0.0317885349678 1.48216843076e-23)
(-0.108953113118 -0.0392191778985 4.35221728114e-25)
(-0.110093318056 -0.0475499782955 2.46952704991e-23)
(-0.111122870084 -0.0569930414821 -8.20503162462e-24)
(-0.111888519513 -0.0677640482977 1.9807855177e-23)
(-0.112232456427 -0.0800975070378 9.16683652715e-24)
(-0.111913176578 -0.094240059163 6.52418518009e-23)
(-0.110771323725 -0.110400605858 -1.20703410247e-22)
(-0.108440865396 -0.128654995432 -7.40135764845e-22)
(-0.10534012033 -0.149060912372 -7.6672418763e-22)
(-0.102578365709 -0.168737260865 2.01224928311e-21)
)
;
    }
    procBoundary9to10
    {
        type            processor;
        value           nonuniform List<vector> 
15
(
(-0.0609314251311 -0.016312215945 -6.48462309585e-23)
(-0.059949776704 -0.020934808227 -3.65866410549e-24)
(-0.0586060480848 -0.0255186709341 -3.82607507538e-24)
(-0.0568648308057 -0.0300242836757 -1.26923413034e-23)
(-0.0545827441925 -0.0344002944417 -2.58636545982e-25)
(-0.0517029174178 -0.0385715268276 -5.16206881518e-24)
(-0.0480661237768 -0.0424331952788 -3.13627266774e-25)
(-0.0434814271726 -0.0458198379809 -1.80590600364e-24)
(-0.0578143268891 -0.00662218552715 -2.56479281746e-22)
(-0.0590712426578 -0.01364144483 -1.04594756786e-22)
(-0.0571435868568 -0.0110209468493 -2.65041069705e-23)
(-0.0555592838038 -0.00432514668505 -8.90705065728e-23)
(-0.0513335220233 -0.00412972947456 6.5630300145e-23)
(-0.0472929266096 -0.0039653877464 7.03527461495e-23)
(-0.0452062909789 -0.00226906028529 7.69893350876e-23)
)
;
    }
    procBoundary9to11
    {
        type            processor;
        value           nonuniform List<vector> 9((-0.0377203574977 -0.0485375390353 2.6687958028e-23) (-0.0305072472318 -0.0503354238008 -2.74949738438e-22) (-0.0212496536654 -0.0505667264936 -9.6740779805e-22) (-0.0093597708388 -0.0477630328587 -2.59234848593e-21) (0.00535793500362 -0.0474489545317 -3.95014469512e-21) (0.0200710753738 -0.029720885731 1.53239984832e-20) (0.00033646081381 -0.0465491275778 -5.5786331159e-21) (0.145889182333 0.0103421794539 -2.26600771948e-20) (0.138753600386 0.11834509714 9.51386597588e-21));
    }
}


// ************************************************************************* //
