/*--------------------------------*- C++ -*----------------------------------*\
| =========                 |                                                 |
| \\      /  F ield         | OpenFOAM: The Open Source CFD Toolbox           |
|  \\    /   O peration     | Version:  v2012                                 |
|   \\  /    A nd           | Website:  www.openfoam.com                      |
|    \\/     M anipulation  |                                                 |
\*---------------------------------------------------------------------------*/
FoamFile
{
    version     2.0;
    format      ascii;
    class       volScalarField;
    location    "3";
    object      epsilon_0;
}
// * * * * * * * * * * * * * * * * * * * * * * * * * * * * * * * * * * * * * //

dimensions      [0 2 -3 0 0 0 0];


internalField   nonuniform List<scalar> 
166
(
0.00217774885524
0.00226839506212
0.00247783951234
0.00255112291399
0.00257675804033
0.0025878519211
0.00259550962367
0.00260306721295
0.00261149519157
0.00262131803654
0.00263372059658
0.00265248711667
0.00268894977559
0.0027742875388
0.00299014750489
0.00354679110448
0.00502708016999
0.00960899036048
0.0279515078308
0.126878385933
0.00217462391114
0.00226465735617
0.00247368380678
0.00254684034474
0.00257240578747
0.00258342070918
0.00259097891705
0.00259841931339
0.00260671948943
0.0026164524975
0.00262891924289
0.00264820365334
0.00268624829054
0.00277496764741
0.00299584077521
0.00355720642231
0.00504847008734
0.00988316805178
0.0324537008857
0.151624912642
0.00217081015444
0.0022603179538
0.00246891162315
0.00254196570741
0.00256749216312
0.00257846478421
0.0025859576639
0.00259332092304
0.00260155146988
0.00261126217062
0.00262387957551
0.00264380891898
0.00268361152131
0.00277595380162
0.0030021973501
0.00356863363412
0.00507110282089
0.0101407876624
0.0352919588284
0.15549853949
0.00216630511708
0.00225543314925
0.002463580601
0.00253654315388
0.0025620491204
0.00257300122346
0.00258046435933
0.00258779140137
0.00259599867977
0.00260573871435
0.00261857319683
0.00263925184244
0.00268102415899
0.0027774568072
0.00300966851524
0.00358175404479
0.00510840506535
0.0104779653938
0.0375785268919
0.157088405284
0.00216124091116
0.00225000535878
0.00245771243686
0.00253059500295
0.00255610177396
0.00256705864558
0.00257452527811
0.00258185579188
0.00259007984771
0.00259989810178
0.00261301428304
0.0026345246903
0.00267845252909
0.00277941421621
0.00301881449659
0.0036005591333
0.00516583248807
0.0110026434799
0.0412749196028
0.161696941824
0.00215547698574
0.0022440979752
0.00245135247905
0.00252415553816
0.00254968118998
0.00256067040956
0.00256816545034
0.00257552902505
0.00258380589644
0.00259374722347
0.00260718716517
0.00262963555728
0.00267597269758
0.00278212613544
0.00303013852608
0.00362356137707
0.00524539556308
0.011583359149
0.0438192808552
0.162925676205
0.00214924895689
0.00223772377765
0.00244451101823
0.00251724613906
0.0025428086067
0.00255385292827
0.00256140504686
0.00256883257031
0.00257719451447
0.00258728673248
0.00260110587794
0.00262457254607
0.00267348656996
0.00278517202918
0.00304169647029
0.00364217583183
0.00530413655442
0.0120149954568
0.0453601275005
0.163238531597
0.00214246524145
0.00223094452656
0.0024372182617
0.00250988660289
0.00253550388809
0.00254663001447
0.00255427096718
0.00256178848098
0.00257026456734
0.00258054874747
0.00259478184974
0.00261928621477
0.00267072084967
0.00278749753489
0.00305015897401
0.00364832183166
0.0053140066449
0.0122926524406
0.0465928344095
0.163594389246
0.00213512848994
0.00222369824722
0.00242946486317
0.00212740983898
0.00211919222997
0.00211047783189
)
;

boundaryField
{
    back
    {
        lowReCorrection 0;
        blending        stepwise;
        n               2;
        type            epsilonWallFunction;
        value           nonuniform List<scalar> 
166
(
0.00217774885524
0.00226839506212
0.00247783951234
0.00255112291399
0.00257675804033
0.0025878519211
0.00259550962367
0.00260306721295
0.00261149519157
0.00262131803654
0.00263372059658
0.00265248711667
0.00268894977559
0.0027742875388
0.00299014750489
0.00354679110448
0.00502708016999
0.00960899036048
0.0279515078308
0.126878385933
0.00217462391114
0.00226465735617
0.00247368380678
0.00254684034474
0.00257240578747
0.00258342070918
0.00259097891705
0.00259841931339
0.00260671948943
0.0026164524975
0.00262891924289
0.00264820365334
0.00268624829054
0.00277496764741
0.00299584077521
0.00355720642231
0.00504847008734
0.00988316805178
0.0324537008857
0.151624912642
0.00217081015444
0.0022603179538
0.00246891162315
0.00254196570741
0.00256749216312
0.00257846478421
0.0025859576639
0.00259332092304
0.00260155146988
0.00261126217062
0.00262387957551
0.00264380891898
0.00268361152131
0.00277595380162
0.0030021973501
0.00356863363412
0.00507110282089
0.0101407876624
0.0352919588284
0.15549853949
0.00216630511708
0.00225543314925
0.002463580601
0.00253654315388
0.0025620491204
0.00257300122346
0.00258046435933
0.00258779140137
0.00259599867977
0.00260573871435
0.00261857319683
0.00263925184244
0.00268102415899
0.0027774568072
0.00300966851524
0.00358175404479
0.00510840506535
0.0104779653938
0.0375785268919
0.157088405284
0.00216124091116
0.00225000535878
0.00245771243686
0.00253059500295
0.00255610177396
0.00256705864558
0.00257452527811
0.00258185579188
0.00259007984771
0.00259989810178
0.00261301428304
0.0026345246903
0.00267845252909
0.00277941421621
0.00301881449659
0.0036005591333
0.00516583248807
0.0110026434799
0.0412749196028
0.161696941824
0.00215547698574
0.0022440979752
0.00245135247905
0.00252415553816
0.00254968118998
0.00256067040956
0.00256816545034
0.00257552902505
0.00258380589644
0.00259374722347
0.00260718716517
0.00262963555728
0.00267597269758
0.00278212613544
0.00303013852608
0.00362356137707
0.00524539556308
0.011583359149
0.0438192808552
0.162925676205
0.00214924895689
0.00223772377765
0.00244451101823
0.00251724613906
0.0025428086067
0.00255385292827
0.00256140504686
0.00256883257031
0.00257719451447
0.00258728673248
0.00260110587794
0.00262457254607
0.00267348656996
0.00278517202918
0.00304169647029
0.00364217583183
0.00530413655442
0.0120149954568
0.0453601275005
0.163238531597
0.00214246524145
0.00223094452656
0.0024372182617
0.00250988660289
0.00253550388809
0.00254663001447
0.00255427096718
0.00256178848098
0.00257026456734
0.00258054874747
0.00259478184974
0.00261928621477
0.00267072084967
0.00278749753489
0.00305015897401
0.00364832183166
0.0053140066449
0.0122926524406
0.0465928344095
0.163594389246
0.00213512848994
0.00222369824722
0.00242946486317
0.00212740983898
0.00211919222997
0.00211047783189
)
;
    }
    sides
    {
        lowReCorrection 0;
        blending        stepwise;
        n               2;
        type            epsilonWallFunction;
        value           nonuniform List<scalar> 0();
    }
    bottom
    {
        lowReCorrection 0;
        blending        stepwise;
        n               2;
        type            epsilonWallFunction;
        value           nonuniform List<scalar> 
12
(
0.00217774885524
0.00217462391114
0.00217081015444
0.00216630511708
0.00216124091116
0.00215547698574
0.00214924895689
0.00214246524145
0.00213512848994
0.00212740983898
0.00211919222997
0.00211047783189
)
;
    }
    front
    {
        lowReCorrection 0;
        blending        stepwise;
        n               2;
        type            epsilonWallFunction;
        value           nonuniform List<scalar> 
166
(
0.00217774885524
0.00226839506212
0.00247783951234
0.00255112291399
0.00257675804033
0.0025878519211
0.00259550962367
0.00260306721295
0.00261149519157
0.00262131803654
0.00263372059658
0.00265248711667
0.00268894977559
0.0027742875388
0.00299014750489
0.00354679110448
0.00502708016999
0.00960899036048
0.0279515078308
0.126878385933
0.00217462391114
0.00226465735617
0.00247368380678
0.00254684034474
0.00257240578747
0.00258342070918
0.00259097891705
0.00259841931339
0.00260671948943
0.0026164524975
0.00262891924289
0.00264820365334
0.00268624829054
0.00277496764741
0.00299584077521
0.00355720642231
0.00504847008734
0.00988316805178
0.0324537008857
0.151624912642
0.00217081015444
0.0022603179538
0.00246891162315
0.00254196570741
0.00256749216312
0.00257846478421
0.0025859576639
0.00259332092304
0.00260155146988
0.00261126217062
0.00262387957551
0.00264380891898
0.00268361152131
0.00277595380162
0.0030021973501
0.00356863363412
0.00507110282089
0.0101407876624
0.0352919588284
0.15549853949
0.00216630511708
0.00225543314925
0.002463580601
0.00253654315388
0.0025620491204
0.00257300122346
0.00258046435933
0.00258779140137
0.00259599867977
0.00260573871435
0.00261857319683
0.00263925184244
0.00268102415899
0.0027774568072
0.00300966851524
0.00358175404479
0.00510840506535
0.0104779653938
0.0375785268919
0.157088405284
0.00216124091116
0.00225000535878
0.00245771243686
0.00253059500295
0.00255610177396
0.00256705864558
0.00257452527811
0.00258185579188
0.00259007984771
0.00259989810178
0.00261301428304
0.0026345246903
0.00267845252909
0.00277941421621
0.00301881449659
0.0036005591333
0.00516583248807
0.0110026434799
0.0412749196028
0.161696941824
0.00215547698574
0.0022440979752
0.00245135247905
0.00252415553816
0.00254968118998
0.00256067040956
0.00256816545034
0.00257552902505
0.00258380589644
0.00259374722347
0.00260718716517
0.00262963555728
0.00267597269758
0.00278212613544
0.00303013852608
0.00362356137707
0.00524539556308
0.011583359149
0.0438192808552
0.162925676205
0.00214924895689
0.00223772377765
0.00244451101823
0.00251724613906
0.0025428086067
0.00255385292827
0.00256140504686
0.00256883257031
0.00257719451447
0.00258728673248
0.00260110587794
0.00262457254607
0.00267348656996
0.00278517202918
0.00304169647029
0.00364217583183
0.00530413655442
0.0120149954568
0.0453601275005
0.163238531597
0.00214246524145
0.00223094452656
0.0024372182617
0.00250988660289
0.00253550388809
0.00254663001447
0.00255427096718
0.00256178848098
0.00257026456734
0.00258054874747
0.00259478184974
0.00261928621477
0.00267072084967
0.00278749753489
0.00305015897401
0.00364832183166
0.0053140066449
0.0122926524406
0.0465928344095
0.163594389246
0.00213512848994
0.00222369824722
0.00242946486317
0.00212740983898
0.00211919222997
0.00211047783189
)
;
    }
    atmosphere
    {
        type            inletOutlet;
        inletValue      uniform 0.1;
        value           uniform 0.1;
    }
    floatingObject
    {
        lowReCorrection 0;
        blending        stepwise;
        n               2;
        type            epsilonWallFunction;
        value           nonuniform List<scalar> 0();
    }
    procBoundary9to6
    {
        type            processor;
        value           nonuniform List<scalar> 4(0.00498980106861 0.00922158608642 0.0250762664261 0.113648951961);
    }
    procBoundary9to7
    {
        type            processor;
        value           nonuniform List<scalar> 
16
(
0.00218028706303
0.00227147235884
0.0024813235392
0.00255476998613
0.00258051517262
0.00259172609718
0.00259952141856
0.00260723764091
0.00261583480965
0.00262580161771
0.00263821556329
0.00265658928117
0.00269169779323
0.00277414659605
0.0029865759267
0.00354120458536
)
;
    }
    procBoundary9to10
    {
        type            processor;
        value           nonuniform List<scalar> 
15
(
0.00250208078815
0.00252778461407
0.00253902040634
0.0025467743226
0.00255441548597
0.00256304291686
0.00257354495963
0.00258821368509
0.00221600049276
0.00250208078815
0.00242126635143
0.00221600049276
0.00220792244149
0.00219947925073
0.00210136090412
)
;
    }
    procBoundary9to11
    {
        type            processor;
        value           nonuniform List<scalar> 9(0.00261368488808 0.00266731146755 0.00278781547061 0.00305238116849 0.00363963588951 0.00530725876276 0.0125508882445 0.0474432285524 0.164162868371);
    }
}


// ************************************************************************* //
