/*--------------------------------*- C++ -*----------------------------------*\
| =========                 |                                                 |
| \\      /  F ield         | OpenFOAM: The Open Source CFD Toolbox           |
|  \\    /   O peration     | Version:  v2012                                 |
|   \\  /    A nd           | Website:  www.openfoam.com                      |
|    \\/     M anipulation  |                                                 |
\*---------------------------------------------------------------------------*/
FoamFile
{
    version     2.0;
    format      ascii;
    class       volScalarField;
    location    "3";
    object      k;
}
// * * * * * * * * * * * * * * * * * * * * * * * * * * * * * * * * * * * * * //

dimensions      [0 2 -2 0 0 0 0];


internalField   nonuniform List<scalar> 
166
(
0.00338217154286
0.00421059278904
0.00446651277841
0.00455453527814
0.00458520718719
0.00459846699853
0.00460759874727
0.00461659144088
0.00462660854074
0.00463828583921
0.0046530635001
0.00467551448429
0.00471918184731
0.00482068400651
0.0050724415225
0.00569508328315
0.00722766629274
0.0113569259725
0.0244958830814
0.0682116477981
0.00337894435185
0.0042059619164
0.00446147322908
0.00454937129122
0.00457997110605
0.00459314684356
0.00460217245428
0.00461104200125
0.0046209289243
0.0046325292227
0.00464742992519
0.00467057706091
0.00471626452058
0.00482199613899
0.00508002732874
0.00570929315384
0.00726281084997
0.011660513281
0.0266748436937
0.0722295126615
0.00337498060001
0.0042005773614
0.00445568540746
0.00454349500041
0.00457406170128
0.00458719769241
0.00459615784325
0.00460495180696
0.00461477679003
0.0046263802013
0.00464150889847
0.00466551198826
0.0047134545378
0.004823779587
0.00508864083086
0.00572549803773
0.00730456063743
0.0119754381306
0.0284399491341
0.073301412376
0.00337028702046
0.00419450314433
0.00444921416211
0.00453695580552
0.0045675137144
0.00458063610786
0.00458957349353
0.00459834068
0.00460815937015
0.00461982928948
0.00463526932848
0.00466026251232
0.00471073477071
0.00482623745453
0.00509884461354
0.00574529588815
0.00736743564718
0.0123455874322
0.0297654739786
0.073776435567
0.00336501373365
0.00418774857366
0.00444208658835
0.00452977985463
0.0045603558962
0.00457349573795
0.00458245037956
0.00459123750595
0.0046010974197
0.00461289238012
0.00462872286058
0.00465481403251
0.00470806749008
0.00482935106232
0.00511131757128
0.00577282577387
0.00745713577956
0.0128382100103
0.0312432467996
0.0745248070616
0.00335899122265
0.00418038657155
0.00443435430684
0.00452200710163
0.00455262490145
0.00456581518501
0.00457481637049
0.00458365858044
0.00459360242513
0.00460557524442
0.00462184679243
0.00464917125951
0.00470552896442
0.00483339261204
0.00512629168729
0.00580512858939
0.00756683531286
0.0133210805611
0.0321526934198
0.0747097843374
0.00335248502323
0.00417242714315
0.00442602812831
0.00451366135833
0.00454434438309
0.00455761291951
0.00456669463435
0.00457562778448
0.00458569244947
0.004597874424
0.00461465374199
0.00464331290785
0.00470297547048
0.00483775968409
0.00514118478514
0.00583207538161
0.00765378445285
0.0136857768184
0.0327466486709
0.0747526251293
0.00334538112432
0.00416394771696
0.00441714445404
0.00450476526265
0.00453553775475
0.00454891673843
0.00455811614057
0.00456716984045
0.0045773883947
0.00458982632373
0.00460715510816
0.00463716310986
0.00470003879986
0.00484110206586
0.00515204425065
0.00584519185365
0.00769640149173
0.013954365334
0.0332964974097
0.0748449839895
0.00333767894292
0.00415487408054
0.0044076918785
0.00332956647828
0.00332091058342
0.00331171553507
)
;

boundaryField
{
    back
    {
        type            kqRWallFunction;
        value           nonuniform List<scalar> 
166
(
0.00338217154286
0.00421059278904
0.00446651277841
0.00455453527814
0.00458520718719
0.00459846699853
0.00460759874727
0.00461659144088
0.00462660854074
0.00463828583921
0.0046530635001
0.00467551448429
0.00471918184731
0.00482068400651
0.0050724415225
0.00569508328315
0.00722766629274
0.0113569259725
0.0244958830814
0.0682116477981
0.00337894435185
0.0042059619164
0.00446147322908
0.00454937129122
0.00457997110605
0.00459314684356
0.00460217245428
0.00461104200125
0.0046209289243
0.0046325292227
0.00464742992519
0.00467057706091
0.00471626452058
0.00482199613899
0.00508002732874
0.00570929315384
0.00726281084997
0.011660513281
0.0266748436937
0.0722295126615
0.00337498060001
0.0042005773614
0.00445568540746
0.00454349500041
0.00457406170128
0.00458719769241
0.00459615784325
0.00460495180696
0.00461477679003
0.0046263802013
0.00464150889847
0.00466551198826
0.0047134545378
0.004823779587
0.00508864083086
0.00572549803773
0.00730456063743
0.0119754381306
0.0284399491341
0.073301412376
0.00337028702046
0.00419450314433
0.00444921416211
0.00453695580552
0.0045675137144
0.00458063610786
0.00458957349353
0.00459834068
0.00460815937015
0.00461982928948
0.00463526932848
0.00466026251232
0.00471073477071
0.00482623745453
0.00509884461354
0.00574529588815
0.00736743564718
0.0123455874322
0.0297654739786
0.073776435567
0.00336501373365
0.00418774857366
0.00444208658835
0.00452977985463
0.0045603558962
0.00457349573795
0.00458245037956
0.00459123750595
0.0046010974197
0.00461289238012
0.00462872286058
0.00465481403251
0.00470806749008
0.00482935106232
0.00511131757128
0.00577282577387
0.00745713577956
0.0128382100103
0.0312432467996
0.0745248070616
0.00335899122265
0.00418038657155
0.00443435430684
0.00452200710163
0.00455262490145
0.00456581518501
0.00457481637049
0.00458365858044
0.00459360242513
0.00460557524442
0.00462184679243
0.00464917125951
0.00470552896442
0.00483339261204
0.00512629168729
0.00580512858939
0.00756683531286
0.0133210805611
0.0321526934198
0.0747097843374
0.00335248502323
0.00417242714315
0.00442602812831
0.00451366135833
0.00454434438309
0.00455761291951
0.00456669463435
0.00457562778448
0.00458569244947
0.004597874424
0.00461465374199
0.00464331290785
0.00470297547048
0.00483775968409
0.00514118478514
0.00583207538161
0.00765378445285
0.0136857768184
0.0327466486709
0.0747526251293
0.00334538112432
0.00416394771696
0.00441714445404
0.00450476526265
0.00453553775475
0.00454891673843
0.00455811614057
0.00456716984045
0.0045773883947
0.00458982632373
0.00460715510816
0.00463716310986
0.00470003879986
0.00484110206586
0.00515204425065
0.00584519185365
0.00769640149173
0.013954365334
0.0332964974097
0.0748449839895
0.00333767894292
0.00415487408054
0.0044076918785
0.00332956647828
0.00332091058342
0.00331171553507
)
;
    }
    sides
    {
        type            kqRWallFunction;
        value           nonuniform List<scalar> 0();
    }
    bottom
    {
        type            kqRWallFunction;
        value           nonuniform List<scalar> 
12
(
0.00338217154286
0.00337894435185
0.00337498060001
0.00337028702046
0.00336501373365
0.00335899122265
0.00335248502323
0.00334538112432
0.00333767894292
0.00332956647828
0.00332091058342
0.00331171553507
)
;
    }
    front
    {
        type            kqRWallFunction;
        value           nonuniform List<scalar> 
166
(
0.00338217154286
0.00421059278904
0.00446651277841
0.00455453527814
0.00458520718719
0.00459846699853
0.00460759874727
0.00461659144088
0.00462660854074
0.00463828583921
0.0046530635001
0.00467551448429
0.00471918184731
0.00482068400651
0.0050724415225
0.00569508328315
0.00722766629274
0.0113569259725
0.0244958830814
0.0682116477981
0.00337894435185
0.0042059619164
0.00446147322908
0.00454937129122
0.00457997110605
0.00459314684356
0.00460217245428
0.00461104200125
0.0046209289243
0.0046325292227
0.00464742992519
0.00467057706091
0.00471626452058
0.00482199613899
0.00508002732874
0.00570929315384
0.00726281084997
0.011660513281
0.0266748436937
0.0722295126615
0.00337498060001
0.0042005773614
0.00445568540746
0.00454349500041
0.00457406170128
0.00458719769241
0.00459615784325
0.00460495180696
0.00461477679003
0.0046263802013
0.00464150889847
0.00466551198826
0.0047134545378
0.004823779587
0.00508864083086
0.00572549803773
0.00730456063743
0.0119754381306
0.0284399491341
0.073301412376
0.00337028702046
0.00419450314433
0.00444921416211
0.00453695580552
0.0045675137144
0.00458063610786
0.00458957349353
0.00459834068
0.00460815937015
0.00461982928948
0.00463526932848
0.00466026251232
0.00471073477071
0.00482623745453
0.00509884461354
0.00574529588815
0.00736743564718
0.0123455874322
0.0297654739786
0.073776435567
0.00336501373365
0.00418774857366
0.00444208658835
0.00452977985463
0.0045603558962
0.00457349573795
0.00458245037956
0.00459123750595
0.0046010974197
0.00461289238012
0.00462872286058
0.00465481403251
0.00470806749008
0.00482935106232
0.00511131757128
0.00577282577387
0.00745713577956
0.0128382100103
0.0312432467996
0.0745248070616
0.00335899122265
0.00418038657155
0.00443435430684
0.00452200710163
0.00455262490145
0.00456581518501
0.00457481637049
0.00458365858044
0.00459360242513
0.00460557524442
0.00462184679243
0.00464917125951
0.00470552896442
0.00483339261204
0.00512629168729
0.00580512858939
0.00756683531286
0.0133210805611
0.0321526934198
0.0747097843374
0.00335248502323
0.00417242714315
0.00442602812831
0.00451366135833
0.00454434438309
0.00455761291951
0.00456669463435
0.00457562778448
0.00458569244947
0.004597874424
0.00461465374199
0.00464331290785
0.00470297547048
0.00483775968409
0.00514118478514
0.00583207538161
0.00765378445285
0.0136857768184
0.0327466486709
0.0747526251293
0.00334538112432
0.00416394771696
0.00441714445404
0.00450476526265
0.00453553775475
0.00454891673843
0.00455811614057
0.00456716984045
0.0045773883947
0.00458982632373
0.00460715510816
0.00463716310986
0.00470003879986
0.00484110206586
0.00515204425065
0.00584519185365
0.00769640149173
0.013954365334
0.0332964974097
0.0748449839895
0.00333767894292
0.00415487408054
0.0044076918785
0.00332956647828
0.00332091058342
0.00331171553507
)
;
    }
    atmosphere
    {
        type            inletOutlet;
        inletValue      uniform 0.1;
        value           uniform 0.1;
    }
    floatingObject
    {
        type            kqRWallFunction;
        value           nonuniform List<scalar> 0();
    }
    procBoundary9to6
    {
        type            processor;
        value           nonuniform List<scalar> 4(0.00717834768416 0.010988987111 0.0228631615375 0.0650946826935);
    }
    procBoundary9to7
    {
        type            processor;
        value           nonuniform List<scalar> 
16
(
0.00338478636192
0.00421440375728
0.00447073930241
0.00455893541192
0.00458972904493
0.00460311902225
0.00461240290221
0.00462156946443
0.00463176874776
0.00464359006333
0.00465834013914
0.00468025382035
0.00472219516468
0.00482009115681
0.0050674296855
0.00568615733954
)
;
    }
    procBoundary9to10
    {
        type            processor;
        value           nonuniform List<scalar> 
15
(
0.00449532534693
0.00452622598135
0.0045397486768
0.00454909325172
0.00455830700612
0.00456872223717
0.00458144733165
0.00459934318246
0.00414522545234
0.00449532534693
0.00439768960525
0.00414522545234
0.00413508532954
0.00412447383125
0.00330208387033
)
;
    }
    procBoundary9to11
    {
        type            processor;
        value           nonuniform List<scalar> 9(0.00463060837979 0.00469625562274 0.00484185179479 0.00515533490559 0.00584213398738 0.00772390830621 0.0142170715876 0.0338068577757 0.075051936543);
    }
}


// ************************************************************************* //
