/*--------------------------------*- C++ -*----------------------------------*\
| =========                 |                                                 |
| \\      /  F ield         | OpenFOAM: The Open Source CFD Toolbox           |
|  \\    /   O peration     | Version:  v2012                                 |
|   \\  /    A nd           | Website:  www.openfoam.com                      |
|    \\/     M anipulation  |                                                 |
\*---------------------------------------------------------------------------*/
FoamFile
{
    version     2.0;
    format      ascii;
    class       volScalarField;
    location    "1.5";
    object      alpha.water;
}
// * * * * * * * * * * * * * * * * * * * * * * * * * * * * * * * * * * * * * //

dimensions      [0 0 0 0 0 0 0];


internalField   nonuniform List<scalar> 
166
(
0.999999967053
0.999999974591
0.999999981893
0.99999999689
1.00000001266
1.00000004384
1.0000000811
1.00000015202
1.00000027851
1.00000042643
1.00000057396
1.00000068754
1.00000070672
1.00000051803
0.999999953382
0.999999965636
0.999999932802
0.83258928108
0.115479743343
-2.36534238548e-28
1.00000002385
1.00000002896
1.00000002665
1.00000003312
1.00000004801
1.00000007355
1.00000012456
1.00000021005
1.00000031955
1.00000044341
1.00000056124
1.00000063732
1.00000060943
1.00000037469
0.999999915834
0.999999931015
0.999999902901
0.807014701403
0.0981806373351
0
1.00000005558
1.00000006523
1.00000006776
1.00000007355
1.00000008836
1.00000012407
1.00000018422
1.00000027031
1.00000037711
1.00000049544
1.00000060271
1.00000065415
1.00000058078
1.00000028525
0.999999884839
0.999999891334
0.999999874278
0.776860816831
0.0791534310255
-4.54073586124e-32
1.00000008655
1.00000010245
1.0000001103
1.00000012295
1.0000001407
1.00000018013
1.00000024281
1.00000032898
1.00000043457
1.00000055218
1.00000065643
1.00000068415
1.00000055829
1.00000020478
0.999999894397
0.99999989466
0.999999885835
0.742490593184
0.0601538088507
-1.38158804581e-33
1.00000012147
1.00000014702
1.00000015968
1.00000018118
1.00000020015
1.00000024299
1.00000030814
1.00000039341
1.00000050002
1.00000062326
1.00000073513
1.00000073735
1.00000054565
1.00000012431
0.999999904209
0.999999904251
0.999999898003
0.704253427284
0.0422069350622
-3.62876282236e-35
1.00000016699
1.00000020881
1.0000002243
1.00000025834
1.00000027714
1.00000032434
1.00000039245
1.00000047372
1.00000058142
1.00000071458
1.00000084337
1.0000008061
1.00000052614
1.00000002732
0.999999902061
0.999999903813
0.999999897599
0.663025152376
0.0261228916037
-9.32445936904e-37
1.00000023241
1.00000030071
1.00000030718
1.00000034882
1.00000036112
1.00000040885
1.00000047634
1.00000054795
1.00000065503
1.00000080959
1.00000094213
1.00000086223
1.00000046681
0.999999934324
0.999999904328
0.99999990431
0.99999989866
0.619880333548
0.0124977106927
0
1.00000032043
1.00000042061
1.00000034643
1.0000004248
1.00000041592
1.0000004717
1.00000052547
1.00000059719
1.00000070823
1.00000087234
1.00000099979
1.00000091008
1.00000040012
0.999999893533
0.999999890448
0.999999902412
0.999585315159
0.575756953416
0.000328673485544
-2.25067222452e-25
1.00000039874
1.00000050783
1.00000040597
1.00000049361
1.00000057668
1.00000060805
)
;

boundaryField
{
    back
    {
        type            zeroGradient;
    }
    sides
    {
        type            zeroGradient;
    }
    bottom
    {
        type            zeroGradient;
    }
    front
    {
        type            zeroGradient;
    }
    atmosphere
    {
        type            inletOutlet;
        inletValue      uniform 0;
        value           nonuniform List<scalar> 8(0 0 0 0 0 0 0 -2.25067222452e-25);
    }
    floatingObject
    {
        type            zeroGradient;
    }
    procBoundary9to6
    {
        type            processor;
        value           nonuniform List<scalar> 4(0.999999963201 0.853141471799 0.129400841334 0);
    }
    procBoundary9to7
    {
        type            processor;
        value           nonuniform List<scalar> 
16
(
0.999999931097
0.999999930504
0.999999916986
0.99999992104
0.999999951399
0.999999971976
1.00000001942
1.00000008088
1.000000221
1.00000039719
1.000000584
1.0000007475
1.00000083075
1.00000072074
0.999999995341
0.999999995649
)
;
    }
    procBoundary9to10
    {
        type            processor;
        value           nonuniform List<scalar> 
15
(
1.00000042758
1.00000045131
1.00000049451
1.00000055766
1.00000060704
1.00000072466
1.00000085362
1.00000103856
1.00000062146
1.00000042758
1.0000003986
1.00000062146
1.00000062149
1.00000055108
1.00000055976
)
;
    }
    procBoundary9to11
    {
        type            processor;
        value           nonuniform List<scalar> 9(1.00000078831 1.00000027522 0.99999987606 0.999999870693 0.999999928954 0.997170898305 0.517371549087 0 -1.17118227618e-39);
    }
}


// ************************************************************************* //
