/*--------------------------------*- C++ -*----------------------------------*\
| =========                 |                                                 |
| \\      /  F ield         | OpenFOAM: The Open Source CFD Toolbox           |
|  \\    /   O peration     | Version:  v2012                                 |
|   \\  /    A nd           | Website:  www.openfoam.com                      |
|    \\/     M anipulation  |                                                 |
\*---------------------------------------------------------------------------*/
FoamFile
{
    version     2.0;
    format      ascii;
    class       volVectorField;
    location    "1.5";
    object      ddtCorrDdt0(U);
}
// * * * * * * * * * * * * * * * * * * * * * * * * * * * * * * * * * * * * * //

dimensions      [0 1 -2 0 0 0 0];


internalField   nonuniform List<vector> 
166
(
(0.264436781872 -0.00145463831001 3.83343091357e-22)
(0.267104812114 -0.00483631606431 -1.54659024661e-22)
(0.268145319479 -0.00786507718075 3.92499369639e-23)
(0.270515594935 -0.0114396784223 4.8537709718e-23)
(0.273922384965 -0.015259732853 2.53346093721e-23)
(0.278202584554 -0.0195179820131 6.39009005938e-23)
(0.283280619828 -0.0243652423599 2.44509300329e-23)
(0.289102867915 -0.0299838996156 1.56288212751e-23)
(0.295608147886 -0.0366055088149 -3.53723019904e-23)
(0.302720859282 -0.0445321677789 1.72187386411e-23)
(0.310350505306 -0.0541661089936 2.59429061371e-22)
(0.318395473127 -0.0660699849088 1.69747337726e-22)
(0.326770281621 -0.0809946598269 2.6452687563e-22)
(0.335523328358 -0.0996685928534 1.92249504663e-22)
(0.345069768036 -0.12493643117 -1.35505036042e-21)
(0.355840970661 -0.154811163866 -4.78802918368e-21)
(0.36194796542 -0.213060871522 -2.65907429105e-20)
(0.401395955386 -0.202321889044 -4.26707984373e-21)
(0.333688226493 -0.349754886183 -1.24625232611e-20)
(0.279748375724 -0.494804523011 4.41413406835e-20)
(0.267088454435 -0.000901171938902 3.94715394774e-22)
(0.269817767939 -0.00347513837469 -3.16736695866e-22)
(0.271033389472 -0.00560575984271 -8.15814328217e-23)
(0.273674950761 -0.00822387221691 8.96663765055e-24)
(0.277476376281 -0.0111513955928 -1.97236357493e-23)
(0.282280776245 -0.0145331168544 -4.49476126587e-23)
(0.288045325527 -0.0185249565293 -6.59924470973e-23)
(0.294759347175 -0.0233155946317 7.13802642545e-23)
(0.302419526764 -0.0291409435852 -1.38049445046e-22)
(0.311031582976 -0.0363033246789 -1.1566762596e-22)
(0.320618028632 -0.0451988061064 1.21628784277e-22)
(0.331237543282 -0.0563569019232 -8.77957567502e-23)
(0.343025921474 -0.0704472056548 -7.39996730186e-24)
(0.356348731231 -0.0882514242612 -1.19551933448e-21)
(0.372130102417 -0.111519042762 -6.75872100698e-21)
(0.39102937704 -0.139240748018 -6.95569621349e-21)
(0.408423659977 -0.189421822646 3.50842452279e-21)
(0.466048270092 -0.169519056071 4.04454729285e-21)
(0.469227115388 -0.3090866981 -1.04997478774e-20)
(0.346637343827 -0.473207317922 -3.28487663102e-20)
(0.268770835454 -0.00029835023298 3.35589919154e-22)
(0.271555153527 -0.00197407406507 -2.30488231902e-22)
(0.272952615691 -0.00312673364461 -2.89130658112e-23)
(0.275875088886 -0.00467900374896 4.55899901593e-24)
(0.280071135485 -0.00658195808564 -5.51564618162e-24)
(0.285401912174 -0.00893504106388 -2.11845366079e-23)
(0.291854927259 -0.0118842117679 3.75200959684e-23)
(0.299458945701 -0.0156107305398 -8.64355893838e-23)
(0.308263891478 -0.0203367769273 9.2291834976e-23)
(0.318345572872 -0.0263404622415 7.55059275115e-23)
(0.329821533066 -0.0339754146862 -1.61237793949e-23)
(0.3428780842 -0.0436912774207 2.41646857287e-24)
(0.357821934031 -0.0560278160507 -5.77334472593e-23)
(0.375244414839 -0.0716522539505 -1.10698954763e-21)
(0.396368795538 -0.0915644061517 -4.86796725441e-21)
(0.422055311239 -0.116169427901 -9.67683278374e-21)
(0.448342100418 -0.15381508716 2.57367078392e-20)
(0.518414587306 -0.126861884918 6.50895802035e-21)
(0.593327446966 -0.25304177499 -3.48387630398e-20)
(0.412369927552 -0.392869996187 -2.44785045153e-20)
(0.269403214158 0.000348723514098 -2.69414550691e-22)
(0.272229954557 -0.000339190647124 -2.28695250384e-22)
(0.273803837338 -0.000425299967989 6.64642374669e-23)
(0.276999868809 -0.000806311211634 1.91825431331e-22)
(0.281571831675 -0.00156125869641 -2.27680979428e-23)
(0.287403028681 -0.0027389716314 4.43721498505e-23)
(0.294507809272 -0.00446681443996 3.25463560129e-23)
(0.302948729827 -0.00690792429213 3.56930739538e-23)
(0.312818847638 -0.0102575685455 4.76528099726e-23)
(0.324248427493 -0.0147529035593 1.94479003424e-23)
(0.337422951485 -0.0206834136075 2.10756548326e-23)
(0.352613100372 -0.0283933745757 2.12812007452e-22)
(0.370226455982 -0.0382562626233 -1.35915457873e-22)
(0.390976108761 -0.050729619172 -7.90146626298e-22)
(0.416155766373 -0.0663864471258 -2.78009048371e-21)
(0.447148926585 -0.0867941406537 -1.41172184575e-20)
(0.481392301576 -0.111441085241 2.3535529215e-20)
(0.559800440849 -0.0809070679221 4.47021972841e-21)
(0.693822322402 -0.194076244228 -5.10437133561e-20)
(0.466983709882 -0.305455304232 -5.06414314655e-20)
(0.268900402947 0.00103547206979 4.20599081889e-22)
(0.27175661582 0.00141963638755 -1.02090753744e-21)
(0.273493906831 0.00248470106538 5.82837914253e-22)
(0.276940079014 0.00337291225714 1.15867177719e-22)
(0.281851402731 0.00387796049514 5.3697202538e-24)
(0.288132223931 0.0040085288207 1.48734138394e-23)
(0.295819148381 0.0036614790501 -3.11674463702e-23)
(0.305001279098 0.0026991213602 2.29934382068e-23)
(0.315803663867 0.000960943885534 6.76423347062e-23)
(0.328393545621 -0.00174164962698 1.01395652323e-22)
(0.34299629356 -0.00562796455242 -1.94350842826e-23)
(0.359920517835 -0.0109358814763 -6.88594859749e-23)
(0.379597768214 -0.0178773763666 -3.62198382614e-22)
(0.402742614646 -0.0266355435287 -7.01215189298e-22)
(0.430420879975 -0.0374815128568 9.82256089536e-22)
(0.464363873025 -0.0526883841701 -9.81024522424e-21)
(0.502603637272 -0.0654799623381 9.90537853088e-21)
(0.591394375497 -0.0341724447472 6.10174819384e-21)
(0.771711829014 -0.130235544716 3.97651881464e-20)
(0.508143355227 -0.187476261032 -3.86284885243e-21)
(0.267187109014 0.00175571482756 3.36276488355e-22)
(0.270056675654 0.00328765926424 2.24200795247e-22)
(0.271938169735 0.00557859173589 2.80235212874e-23)
(0.275599063783 0.00782114437583 1.85872881124e-22)
(0.280797836944 0.00968255442007 -3.95596857839e-23)
(0.287457152871 0.0112345155886 1.46250984591e-24)
(0.29563076382 0.0124015936846 -1.10654297597e-23)
(0.305427055722 0.0130759112842 -1.0581235066e-24)
(0.316992629161 0.01313508834 4.19837140782e-23)
(0.330517279726 0.0124395761703 5.3676497554e-23)
(0.346245120701 0.0108338503082 -1.19854969265e-22)
(0.364491262452 0.00815920260003 9.33618468509e-23)
(0.38565290997 0.00431843174862 -2.64835179819e-22)
(0.410330827626 -0.000852647419656 6.36052877423e-23)
(0.439168479561 -0.00734915051366 -7.31570808544e-22)
(0.47350635389 -0.0190396230911 -1.89904288599e-20)
(0.511780172482 -0.0204222868945 -1.91543837582e-20)
(0.610900205805 0.011979791612 4.19307110558e-21)
(0.816135762146 -0.0594315987213 2.13272715446e-20)
(0.523391113059 -0.0815694023337 -1.60612291704e-19)
(0.264199590796 0.00250170994848 -5.97792719504e-23)
(0.267063564801 0.00524564167092 -4.28141143921e-22)
(0.269065196842 0.00882372186797 -2.87039847281e-22)
(0.272896229163 0.0124887070819 1.88945442154e-22)
(0.278318686533 0.0157834918321 4.21188482934e-23)
(0.285270097986 0.0188460781355 5.0475084741e-24)
(0.293816562073 0.0216305391255 9.3339122444e-23)
(0.304078830903 0.0240609809173 -5.79671615794e-24)
(0.316216909294 0.0260540359091 6.52978010106e-23)
(0.330432985401 0.0275169837226 -3.00403726152e-23)
(0.34698151477 0.0283503289765 2.89258567661e-23)
(0.36617421058 0.0284566170942 2.81396337647e-22)
(0.388408536958 0.0277300442882 -7.32913197545e-23)
(0.414090617786 0.0261178550244 -1.88755159371e-22)
(0.443962764994 0.0229436636937 -2.0297207212e-21)
(0.478036479585 0.0124809646617 -2.06932195423e-20)
(0.516893622929 0.0189804435266 1.03836864725e-20)
(0.618232914275 0.0441554013652 4.73283808672e-21)
(0.805929755076 0.0112553886679 1.27337967109e-19)
(0.612903036522 -0.0974791122883 1.30244183741e-20)
(0.259888624113 0.00326465133625 7.10961854381e-22)
(0.262725998529 0.00727115033963 5.09147363679e-22)
(0.264819477319 0.0121815135083 2.50417002747e-22)
(0.268769701428 0.0173169206912 2.77853146408e-22)
(0.274343834838 0.0221002853378 -2.2000526543e-23)
(0.28149090067 0.026736452237 6.39165552618e-23)
(0.290284486258 0.0312095235158 5.57394978865e-23)
(0.300852034437 0.0354765218346 2.10332780066e-22)
(0.313359783642 0.0394929375624 1.81246067464e-22)
(0.328016694548 0.0432120270636 2.03601347347e-22)
(0.345083878772 0.046584138124 2.30670190474e-23)
(0.3648855712 0.0495647717139 2.47048336498e-22)
(0.38781934669 0.0520414442612 5.53440351146e-23)
(0.414541476448 0.0538022013595 -9.69692488712e-22)
(0.44546153404 0.0537094017983 -1.90589194862e-21)
(0.48154701609 0.0455442877495 2.78093861557e-21)
(0.523709021974 0.0544652345374 -5.88770479418e-21)
(0.585483343178 0.0673153186923 -6.30395487079e-21)
(0.575140531768 0.0636893059348 7.08541681683e-20)
(0.395132728872 1.25705379451 -3.75575033834e-21)
(0.2542207358 0.00403502234083 -2.38955402343e-22)
(0.257008814992 0.00933853466074 -1.28398226841e-21)
(0.259163509639 0.0156087258745 1.60300087891e-22)
(0.247179241064 0.00480248912944 -5.33485203469e-22)
(0.238763797503 0.00555808161348 -1.96707352155e-22)
(0.228992723016 0.00629309687553 5.21363773783e-22)
)
;

boundaryField
{
    back
    {
        type            calculated;
        value           uniform (0 0 0);
    }
    sides
    {
        type            calculated;
        value           nonuniform List<vector> 0();
    }
    bottom
    {
        type            calculated;
        value           uniform (0 0 0);
    }
    front
    {
        type            calculated;
        value           uniform (0 0 0);
    }
    atmosphere
    {
        type            calculated;
        value           nonuniform List<vector> 8((0 -0.494804523011 0) (0 -0.473207317922 0) (0 -0.392869996187 0) (0 -0.305455304232 0) (0 -0.187476261032 0) (0 -0.0815694023337 0) (0 -0.0974791122883 0) (0.395314039958 1.25705379451 -3.2305375078e-21));
    }
    floatingObject
    {
        type            calculated;
        value           nonuniform List<vector> 0();
    }
    procBoundary9to6
    {
        type            processor;
        value           nonuniform List<vector> 4((0.310887818285 -0.218856784498 6.16447707831e-20) (0.329113207238 -0.218223035907 1.52594821571e-21) (0.21235360423 -0.360728111626 -6.58368131807e-20) (0.224627293799 -0.465368712653 -3.22244102223e-20));
    }
    procBoundary9to7
    {
        type            processor;
        value           nonuniform List<vector> 
16
(
(0.260948380737 -0.0019708576162 1.22465028388e-22)
(0.263516201388 -0.0060745074324 -3.02836833806e-22)
(0.264387714309 -0.0099272031231 -1.05833537849e-22)
(0.266511612811 -0.0143401461494 5.66933139003e-23)
(0.269542415184 -0.0189183736063 7.84175978308e-24)
(0.273330764567 -0.0239077891101 -1.04212067477e-22)
(0.277765006363 -0.0294282913392 -9.14641274282e-23)
(0.282753788201 -0.0356417414326 1.04372850193e-22)
(0.288172368232 -0.0427550023475 -1.72211580083e-22)
(0.293869469508 -0.0510398242458 -2.51586474401e-22)
(0.299631956094 -0.0608598568467 2.06639349718e-22)
(0.305180501016 -0.0727442137196 -3.66060166062e-22)
(0.310167844595 -0.0874699841178 1.02618013401e-21)
(0.314313220648 -0.105466681535 -1.72724848826e-22)
(0.317316147299 -0.130640866802 9.75659487812e-22)
(0.318994844727 -0.160513855501 4.01654448841e-21)
)
;
    }
    procBoundary9to10
    {
        type            processor;
        value           nonuniform List<vector> 
15
(
(0.263179299211 0.0222414109219 2.33241451951e-22)
(0.268828209661 0.0285453939932 6.31539696143e-23)
(0.276068954745 0.0347905213885 1.15964626133e-23)
(0.28497810998 0.0409908765423 -1.76037600578e-24)
(0.29568418833 0.0471361475632 -3.23107770667e-23)
(0.308353198798 0.0532210358832 1.97819329508e-22)
(0.323193671503 0.0592445111678 -8.6241379227e-24)
(0.340468310542 0.0652153219803 -1.79225633652e-23)
(0.24989578203 0.0114210856302 -4.22562094348e-22)
(0.263179299211 0.0222414109219 2.33241451951e-22)
(0.252079276431 0.019061574653 -4.99894583812e-22)
(0.24989578203 0.0114210856302 -4.22562094348e-22)
(0.241387749764 0.0134913992262 5.39832547192e-22)
(0.231503123207 0.0155237902951 -5.76254964894e-22)
(0.217901873114 0.00699869962201 -1.23258488695e-22)
)
;
    }
    procBoundary9to11
    {
        type            processor;
        value           nonuniform List<vector> 9((0.360511764231 0.0711610978499 4.47739741225e-23) (0.383749718059 0.0770512018407 4.32887725388e-23) (0.410921987418 0.0827676271176 -1.41334042908e-21) (0.442954035827 0.0874434840748 -2.61971305686e-21) (0.481049698353 0.0891600961032 -1.53415352556e-20) (0.520776770633 0.11339111816 -2.2785635122e-20) (0.547601229337 0.144018981485 -1.00430777689e-20) (0.347756542394 0.148563268963 -2.15037097391e-20) (-0.139716693001 -0.0346480542926 -5.10030875371e-20));
    }
}


// ************************************************************************* //
