/*--------------------------------*- C++ -*----------------------------------*\
| =========                 |                                                 |
| \\      /  F ield         | OpenFOAM: The Open Source CFD Toolbox           |
|  \\    /   O peration     | Version:  v2012                                 |
|   \\  /    A nd           | Website:  www.openfoam.com                      |
|    \\/     M anipulation  |                                                 |
\*---------------------------------------------------------------------------*/
FoamFile
{
    version     2.0;
    format      ascii;
    class       volScalarField;
    location    "1.5";
    object      k;
}
// * * * * * * * * * * * * * * * * * * * * * * * * * * * * * * * * * * * * * //

dimensions      [0 2 -2 0 0 0 0];


internalField   nonuniform List<scalar> 
166
(
0.00958795273252
0.0117694952681
0.0123606375126
0.0125263456863
0.0125731912279
0.0125934726771
0.0126103622096
0.012628721544
0.0126494115026
0.0126727108466
0.0126996966727
0.0127355733622
0.0128011304648
0.0129653670991
0.0134157855206
0.0145607454442
0.0171160500059
0.0226619043815
0.0374069944708
0.0754167997661
0.0095806247816
0.0117571470807
0.0123447731866
0.0125087278665
0.012554901858
0.0125749014963
0.0125915976015
0.0126097647741
0.0126302570036
0.0126534091731
0.0126805579033
0.0127179073621
0.0127894827257
0.0129728346612
0.0134729412249
0.0147204866358
0.0174332151483
0.0230936367833
0.037481273786
0.0751990039594
0.00957123819046
0.0117429039117
0.0123272075046
0.0124895720686
0.0125352009777
0.0125550446943
0.0125716882609
0.0125898241905
0.0126103025347
0.0126335230775
0.0126611166626
0.0127004037326
0.0127789886604
0.0129837929059
0.013538639979
0.0148982306243
0.0177893160356
0.0236223024116
0.0378168200437
0.0750106102023
0.00955992424079
0.0117269199239
0.0123080722225
0.0124689900774
0.012514189908
0.0125339939589
0.0125507148753
0.0125689670023
0.0125895983142
0.0126130822325
0.0126413800139
0.0126830553317
0.0127696596969
0.0129983228568
0.0136130142707
0.015094243369
0.0181807319984
0.024232536821
0.0384104228224
0.0749216950445
0.00954681788464
0.0117093303906
0.0122874904888
0.0124470931474
0.0124919722999
0.0125118459534
0.0125287652489
0.0125472691744
0.012568205065
0.0125921284798
0.0126213694864
0.0126658693095
0.0127615098095
0.0130164777142
0.0136961753025
0.0153083623431
0.018604876128
0.0249081349315
0.0391896085507
0.07493509535
0.00953204495002
0.0116902556577
0.0122655731536
0.0124239849361
0.0124686458953
0.0124886933954
0.0125059252797
0.0125248068404
0.0125461857887
0.0125707084475
0.012601113881
0.0126488596805
0.0127545471322
0.0130382653816
0.0137880252913
0.0155396176953
0.019056852083
0.0256198854865
0.0400300843322
0.0750275095796
0.00951571672815
0.0116698029179
0.0122424188061
0.0123997591002
0.0124443001552
0.0124646228855
0.0124822766496
0.0125016543672
0.0125236041015
0.0125488722279
0.0125806459868
0.0126320445478
0.0127487604186
0.0130635911797
0.0138882237371
0.0157871041156
0.0195322749499
0.0262856833587
0.0403145160556
0.074066835647
0.00949792896855
0.0116480658106
0.0122181131065
0.0123744827217
0.0124190072934
0.0124397065141
0.0124578893806
0.0124778764123
0.0125005171786
0.0125266624049
0.0125599990295
0.0126154241362
0.0127440913988
0.0130921526442
0.013995717036
0.0160475829548
0.0200138006531
0.0266890167634
0.0380363282407
0.0539805207528
0.00947876363991
0.0116251133842
0.0121927170526
0.0094582882166
0.00943657367976
0.00941369080159
)
;

boundaryField
{
    back
    {
        type            kqRWallFunction;
        value           nonuniform List<scalar> 
166
(
0.00958795273252
0.0117694952681
0.0123606375126
0.0125263456863
0.0125731912279
0.0125934726771
0.0126103622096
0.012628721544
0.0126494115026
0.0126727108466
0.0126996966727
0.0127355733622
0.0128011304648
0.0129653670991
0.0134157855206
0.0145607454442
0.0171160500059
0.0226619043815
0.0374069944708
0.0754167997661
0.0095806247816
0.0117571470807
0.0123447731866
0.0125087278665
0.012554901858
0.0125749014963
0.0125915976015
0.0126097647741
0.0126302570036
0.0126534091731
0.0126805579033
0.0127179073621
0.0127894827257
0.0129728346612
0.0134729412249
0.0147204866358
0.0174332151483
0.0230936367833
0.037481273786
0.0751990039594
0.00957123819046
0.0117429039117
0.0123272075046
0.0124895720686
0.0125352009777
0.0125550446943
0.0125716882609
0.0125898241905
0.0126103025347
0.0126335230775
0.0126611166626
0.0127004037326
0.0127789886604
0.0129837929059
0.013538639979
0.0148982306243
0.0177893160356
0.0236223024116
0.0378168200437
0.0750106102023
0.00955992424079
0.0117269199239
0.0123080722225
0.0124689900774
0.012514189908
0.0125339939589
0.0125507148753
0.0125689670023
0.0125895983142
0.0126130822325
0.0126413800139
0.0126830553317
0.0127696596969
0.0129983228568
0.0136130142707
0.015094243369
0.0181807319984
0.024232536821
0.0384104228224
0.0749216950445
0.00954681788464
0.0117093303906
0.0122874904888
0.0124470931474
0.0124919722999
0.0125118459534
0.0125287652489
0.0125472691744
0.012568205065
0.0125921284798
0.0126213694864
0.0126658693095
0.0127615098095
0.0130164777142
0.0136961753025
0.0153083623431
0.018604876128
0.0249081349315
0.0391896085507
0.07493509535
0.00953204495002
0.0116902556577
0.0122655731536
0.0124239849361
0.0124686458953
0.0124886933954
0.0125059252797
0.0125248068404
0.0125461857887
0.0125707084475
0.012601113881
0.0126488596805
0.0127545471322
0.0130382653816
0.0137880252913
0.0155396176953
0.019056852083
0.0256198854865
0.0400300843322
0.0750275095796
0.00951571672815
0.0116698029179
0.0122424188061
0.0123997591002
0.0124443001552
0.0124646228855
0.0124822766496
0.0125016543672
0.0125236041015
0.0125488722279
0.0125806459868
0.0126320445478
0.0127487604186
0.0130635911797
0.0138882237371
0.0157871041156
0.0195322749499
0.0262856833587
0.0403145160556
0.074066835647
0.00949792896855
0.0116480658106
0.0122181131065
0.0123744827217
0.0124190072934
0.0124397065141
0.0124578893806
0.0124778764123
0.0125005171786
0.0125266624049
0.0125599990295
0.0126154241362
0.0127440913988
0.0130921526442
0.013995717036
0.0160475829548
0.0200138006531
0.0266890167634
0.0380363282407
0.0539805207528
0.00947876363991
0.0116251133842
0.0121927170526
0.0094582882166
0.00943657367976
0.00941369080159
)
;
    }
    sides
    {
        type            kqRWallFunction;
        value           nonuniform List<scalar> 0();
    }
    bottom
    {
        type            kqRWallFunction;
        value           nonuniform List<scalar> 
12
(
0.00958795273252
0.0095806247816
0.00957123819046
0.00955992424079
0.00954681788464
0.00953204495002
0.00951571672815
0.00949792896855
0.00947876363991
0.0094582882166
0.00943657367976
0.00941369080159
)
;
    }
    front
    {
        type            kqRWallFunction;
        value           nonuniform List<scalar> 
166
(
0.00958795273252
0.0117694952681
0.0123606375126
0.0125263456863
0.0125731912279
0.0125934726771
0.0126103622096
0.012628721544
0.0126494115026
0.0126727108466
0.0126996966727
0.0127355733622
0.0128011304648
0.0129653670991
0.0134157855206
0.0145607454442
0.0171160500059
0.0226619043815
0.0374069944708
0.0754167997661
0.0095806247816
0.0117571470807
0.0123447731866
0.0125087278665
0.012554901858
0.0125749014963
0.0125915976015
0.0126097647741
0.0126302570036
0.0126534091731
0.0126805579033
0.0127179073621
0.0127894827257
0.0129728346612
0.0134729412249
0.0147204866358
0.0174332151483
0.0230936367833
0.037481273786
0.0751990039594
0.00957123819046
0.0117429039117
0.0123272075046
0.0124895720686
0.0125352009777
0.0125550446943
0.0125716882609
0.0125898241905
0.0126103025347
0.0126335230775
0.0126611166626
0.0127004037326
0.0127789886604
0.0129837929059
0.013538639979
0.0148982306243
0.0177893160356
0.0236223024116
0.0378168200437
0.0750106102023
0.00955992424079
0.0117269199239
0.0123080722225
0.0124689900774
0.012514189908
0.0125339939589
0.0125507148753
0.0125689670023
0.0125895983142
0.0126130822325
0.0126413800139
0.0126830553317
0.0127696596969
0.0129983228568
0.0136130142707
0.015094243369
0.0181807319984
0.024232536821
0.0384104228224
0.0749216950445
0.00954681788464
0.0117093303906
0.0122874904888
0.0124470931474
0.0124919722999
0.0125118459534
0.0125287652489
0.0125472691744
0.012568205065
0.0125921284798
0.0126213694864
0.0126658693095
0.0127615098095
0.0130164777142
0.0136961753025
0.0153083623431
0.018604876128
0.0249081349315
0.0391896085507
0.07493509535
0.00953204495002
0.0116902556577
0.0122655731536
0.0124239849361
0.0124686458953
0.0124886933954
0.0125059252797
0.0125248068404
0.0125461857887
0.0125707084475
0.012601113881
0.0126488596805
0.0127545471322
0.0130382653816
0.0137880252913
0.0155396176953
0.019056852083
0.0256198854865
0.0400300843322
0.0750275095796
0.00951571672815
0.0116698029179
0.0122424188061
0.0123997591002
0.0124443001552
0.0124646228855
0.0124822766496
0.0125016543672
0.0125236041015
0.0125488722279
0.0125806459868
0.0126320445478
0.0127487604186
0.0130635911797
0.0138882237371
0.0157871041156
0.0195322749499
0.0262856833587
0.0403145160556
0.074066835647
0.00949792896855
0.0116480658106
0.0122181131065
0.0123744827217
0.0124190072934
0.0124397065141
0.0124578893806
0.0124778764123
0.0125005171786
0.0125266624049
0.0125599990295
0.0126154241362
0.0127440913988
0.0130921526442
0.013995717036
0.0160475829548
0.0200138006531
0.0266890167634
0.0380363282407
0.0539805207528
0.00947876363991
0.0116251133842
0.0121927170526
0.0094582882166
0.00943657367976
0.00941369080159
)
;
    }
    atmosphere
    {
        type            inletOutlet;
        inletValue      uniform 0.1;
        value           nonuniform List<scalar> 8(0.1 0.1 0.1 0.1 0.1 0.1 0.1 0.0539805207528);
    }
    floatingObject
    {
        type            kqRWallFunction;
        value           nonuniform List<scalar> 0();
    }
    procBoundary9to6
    {
        type            processor;
        value           nonuniform List<scalar> 4(0.0168417147795 0.0222765041425 0.0371836765414 0.0753800886921);
    }
    procBoundary9to7
    {
        type            processor;
        value           nonuniform List<scalar> 
16
(
0.00959305190341
0.0117796614616
0.0123745751462
0.0125422383307
0.0125898989872
0.0126105991909
0.0126278330908
0.0126465584865
0.0126676460665
0.0126913286608
0.0127184575469
0.0127533416466
0.0128138429846
0.0129612242753
0.0133673899752
0.0144206986013
)
;
    }
    procBoundary9to10
    {
        type            processor;
        value           nonuniform List<scalar> 
15
(
0.0123482310267
0.0123928446889
0.0124140229555
0.0124328409747
0.0124535481494
0.0124769921227
0.0125041424565
0.0125392014633
0.0116010142689
0.0123482310267
0.0121663188801
0.0116010142689
0.0115758446576
0.0115497098477
0.0093896986359
)
;
    }
    procBoundary9to11
    {
        type            processor;
        value           nonuniform List<scalar> 9(0.0125990051039 0.0127404336652 0.0131233711027 0.0141079170443 0.0163109259645 0.0204782777991 0.0272049764376 0.0369907122723 0.0501069886248);
    }
}


// ************************************************************************* //
