/*--------------------------------*- C++ -*----------------------------------*\
| =========                 |                                                 |
| \\      /  F ield         | OpenFOAM: The Open Source CFD Toolbox           |
|  \\    /   O peration     | Version:  v2012                                 |
|   \\  /    A nd           | Website:  www.openfoam.com                      |
|    \\/     M anipulation  |                                                 |
\*---------------------------------------------------------------------------*/
FoamFile
{
    version     2.0;
    format      ascii;
    class       surfaceScalarField;
    location    "3.7";
    object      alphaPhi0.water;
}
// * * * * * * * * * * * * * * * * * * * * * * * * * * * * * * * * * * * * * //

dimensions      [0 3 -1 0 0 0 0];
oriented        oriented;


internalField   nonuniform List<scalar> 
3840
(
-1.89395740443e-06
1.89392725834e-06
-5.69145294088e-06
3.79746142361e-06
-1.0193251663e-05
4.50177500566e-06
-1.48141414622e-05
4.62090414765e-06
-1.93943248548e-05
4.58026979812e-06
-2.39798504829e-05
4.58617935455e-06
-2.86293385361e-05
4.65078480965e-06
-3.33368787439e-05
4.70940845773e-06
-3.80770099082e-05
4.74279781949e-06
-4.27748521855e-05
4.70004419309e-06
-4.72435877299e-05
4.47139634526e-06
-5.12346312128e-05
3.99400141416e-06
-5.41952129834e-05
2.96337844597e-06
-5.54642034501e-05
1.27174441451e-06
-5.49942817218e-05
-4.6720628913e-07
-5.60067635725e-05
1.01532378866e-06
-4.18385959718e-05
6.08950741216e-06
-1.06418858328e-06
8.3919213862e-06
-1.07075089143e-06
-5.13504753193e-10
9.96861977523e-10
-3.85983477824e-06
5.75371958727e-06
-7.95341447879e-06
7.89099692159e-06
-1.23931683199e-05
8.94150669576e-06
-1.71331874971e-05
9.36094795604e-06
-2.20610162383e-05
9.50821189648e-06
-2.71449025607e-05
9.6707221255e-06
-3.23496225562e-05
9.85701943354e-06
-3.76815615539e-05
1.00428971949e-05
-4.30982852084e-05
1.01632044101e-05
-4.85268114324e-05
1.01311900178e-05
-5.38866899756e-05
9.83418925437e-06
-5.90123262157e-05
9.12282382604e-06
-6.36701009832e-05
7.62436048133e-06
-6.74751481389e-05
5.0796621209e-06
-7.00191376968e-05
2.07911601042e-06
-7.20150911729e-05
3.01405651971e-06
-5.39835738527e-05
1.24299487533e-05
-4.39027843995e-08
4.8534745383e-06
-5.26364946918e-08
-5.11959445233e-10
1.56389458677e-14
-4.55296653139e-06
1.03066246041e-05
-8.96437886936e-06
1.23023491323e-05
-1.35726123868e-05
1.35497030024e-05
-1.84439001614e-05
1.42322529684e-05
-2.35718251328e-05
1.46362428051e-05
-2.89113350427e-05
1.50108987136e-05
-3.44287251369e-05
1.53752711437e-05
-4.014721844e-05
1.57642624493e-05
-4.60463838601e-05
1.60651284813e-05
-5.20854780948e-05
1.61742373254e-05
-5.8211548421e-05
1.59635096397e-05
-6.43447048434e-05
1.52594683137e-05
-7.04366496593e-05
1.37195141086e-05
-7.62408895669e-05
1.08869362876e-05
-8.09066677625e-05
6.74717752521e-06
-8.25874957831e-05
4.69786069849e-06
-5.85915673819e-05
1.33807518227e-05
-2.60403401562e-08
3.69985109846e-06
-3.1035259203e-08
-3.36526531522e-09
7.26598757048e-11
-4.58335207243e-06
1.48898969855e-05
-9.16458699468e-06
1.68835059519e-05
-1.38952010442e-05
1.82802620872e-05
-1.88496691776e-05
1.91867180932e-05
-2.40730345845e-05
1.98596821887e-05
-2.95171726392e-05
2.04554116644e-05
-3.52341209916e-05
2.10934614131e-05
-4.11914175467e-05
2.17230792122e-05
-4.74002927798e-05
2.22800136624e-05
-5.39359078872e-05
2.27143578447e-05
-6.0761050487e-05
2.27928274675e-05
-6.7828672669e-05
2.23311056391e-05
-7.52147281117e-05
2.11088939064e-05
-8.26529004583e-05
1.83279235703e-05
-8.94309659179e-05
1.35276828573e-05
-9.32431517692e-05
8.51304926416e-06
-6.78413095683e-05
1.41686989682e-05
-9.49578496978e-08
3.21623329587e-06
-1.0182324676e-07
-1.72143630006e-09
2.6522109004e-14
-4.34554818438e-06
1.92353534061e-05
-8.91146580952e-06
2.14493342012e-05
-1.36551494302e-05
2.30238806262e-05
-1.86039528942e-05
2.41355104593e-05
-2.37960803146e-05
2.50518759031e-05
-2.92684825034e-05
2.59280588946e-05
-3.5028310053e-05
2.68540535443e-05
-4.11073759165e-05
2.78042194755e-05
-4.76016974889e-05
2.87778884859e-05
-5.44981325729e-05
2.96179946116e-05
-6.18764489598e-05
3.01783471707e-05
-6.97781316252e-05
3.02367026445e-05
-7.81564687779e-05
2.94907536594e-05
-8.70371446849e-05
2.72115845536e-05
-9.61805983964e-05
2.26737899488e-05
-0.000103738716542
1.60743665141e-05
-8.0341242985e-05
1.8422410356e-05
-2.15812764157e-08
3.60521765276e-06
-1.74351937209e-08
-3.55234142007e-09
3.55759932752e-09
-4.04840927057e-06
2.3283666941e-05
-8.41115403859e-06
2.58119869377e-05
-1.30352071128e-05
2.76478680431e-05
-1.79162419517e-05
2.90165368899e-05
-2.30244723084e-05
3.01601982138e-05
-2.84450484335e-05
3.13488887855e-05
-3.41872099962e-05
3.25968427134e-05
-4.03532070936e-05
3.39722019031e-05
-4.69613376772e-05
3.53897446384e-05
-5.41261199229e-05
3.67880577996e-05
-6.18948867551e-05
3.79543318398e-05
-7.04501612226e-05
3.87964206794e-05
-7.97395102906e-05
3.87838592102e-05
-8.9962449784e-05
3.7437690673e-05
-0.000101082149168
3.37965899765e-05
-0.000112579355806
2.75749748209e-05
-9.30267514038e-05
2.75607692294e-05
-3.80717295509e-08
6.02914119128e-06
-4.09621514378e-08
5.707699647e-11
6.32317478173e-11
-3.72289590728e-06
2.70064702142e-05
-7.87566896254e-06
2.996467268e-05
-1.22741866978e-05
3.20463256683e-05
-1.69500277487e-05
3.36923752066e-05
-2.19027603216e-05
3.51130379032e-05
-2.71566216966e-05
3.66030578646e-05
-3.28269940628e-05
3.82678730354e-05
-3.89659745291e-05
4.01131786446e-05
-4.56215649667e-05
4.20491186651e-05
-5.29712225421e-05
4.41429959326e-05
-6.11260467276e-05
4.61167776405e-05
-7.01646717388e-05
4.78395132693e-05
-8.02589570709e-05
4.88821636294e-05
-9.13979010035e-05
4.8580030217e-05
-0.000104442771702
4.6844517754e-05
-0.000119159803955
4.22955749908e-05
-0.00010408406286
4.14702718337e-05
5.05650149788e-10
1.04494437007e-05
-1.55800551137e-10
-6.14482697732e-11
-4.70308376715e-12
-3.38260025431e-06
3.03889848837e-05
-7.19594489798e-06
3.37779372914e-05
-1.13271209121e-05
3.61774477603e-05
-1.57364402188e-05
3.81016924336e-05
-2.04503874495e-05
3.98270910673e-05
-2.54799867406e-05
4.16329568961e-05
-3.0972874032e-05
4.37614677995e-05
-3.69676267806e-05
4.61099179313e-05
-4.36378458558e-05
4.8723227954e-05
-5.10447736856e-05
5.15550762093e-05
-5.93472142048e-05
5.44267584598e-05
-6.87311954459e-05
5.7228118874e-05
-7.93694122896e-05
5.95245280461e-05
-9.1713878633e-05
6.0928044841e-05
-0.000106162593108
6.1296360569e-05
-0.000123420296774
5.95566262765e-05
-0.000111900795348
5.82655842775e-05
-4.88044634306e-10
1.65949024113e-05
-2.06311988776e-10
-1.6779400279e-11
-3.38267151414e-11
-2.99265794159e-06
3.33815625364e-05
-6.4189981317e-06
3.72041997155e-05
-1.01904608686e-05
3.99488543312e-05
-1.42568790309e-05
4.21680967873e-05
-1.86264461321e-05
4.41967357793e-05
-2.33989233489e-05
4.64057098031e-05
-2.85813289077e-05
4.89445607822e-05
-3.43807207119e-05
5.19112519052e-05
-4.08271801682e-05
5.51733408441e-05
-4.81366460432e-05
5.8869503376e-05
-5.64874373998e-05
6.27848915841e-05
-6.60540734735e-05
6.67992101131e-05
-7.70645992636e-05
7.05392455592e-05
-8.98654364263e-05
7.37324508972e-05
-0.000105192746438
7.66262011523e-05
-0.000124097139218
7.84637859318e-05
-0.000116795824715
7.7910132545e-05
-2.58216649596e-10
2.42225377237e-05
-3.65902722649e-10
-4.70980904403e-11
-1.06147131194e-10
-2.54738062889e-06
3.59288584431e-05
-5.55731796008e-06
4.02140460735e-05
-8.87862271652e-06
4.3270079504e-05
-1.25117382554e-05
4.58011590732e-05
-1.64724086792e-05
4.81574192677e-05
-2.08195459082e-05
5.07530280915e-05
-2.56617758873e-05
5.37874155541e-05
-3.10598192001e-05
5.73110511719e-05
-3.72416366208e-05
6.13588259107e-05
-4.42544410102e-05
6.58871818439e-05
-5.23904628353e-05
7.09279444244e-05
-6.18224371287e-05
7.62357838109e-05
-7.28279268532e-05
8.15490532717e-05
-8.57259153514e-05
8.66342903914e-05
-0.000101324008249
9.22263600109e-05
-0.000120991676223
9.81333381177e-05
-0.000118038470577
9.9869893375e-05
-1.07832097716e-09
3.35387619829e-05
-1.01731451914e-09
-3.43593378189e-12
-8.37763826214e-12
-2.04274621188e-06
3.79714957243e-05
-4.51971093902e-06
4.26908798182e-05
-7.35353691475e-06
4.61037687379e-05
-1.04922648049e-05
4.89397510958e-05
-1.3944513538e-05
5.16095773494e-05
-1.77862500309e-05
5.45948692761e-05
-2.21155971952e-05
5.81172161175e-05
-2.7065835161e-05
6.22629375648e-05
-3.27161747732e-05
6.70125672451e-05
-3.93382582583e-05
7.25139544872e-05
-4.70296021684e-05
7.86262279274e-05
-5.61050277307e-05
8.53157198445e-05
-6.6855612639e-05
9.2303977173e-05
-7.96492135884e-05
9.9431189147e-05
-9.52214950068e-05
0.000107801140837
-0.000114732850893
0.000117645351737
-0.00011487500123
0.000122355745902
-3.65762432271e-10
4.40846289358e-05
-2.35230663449e-10
-5.5975002043e-11
-3.26628709254e-11
-1.48249295257e-06
3.94538271673e-05
-3.3751576989e-06
4.45833390702e-05
-5.61802233977e-06
4.834639497e-05
-8.17130211968e-06
5.14927701283e-05
-1.10351718036e-05
5.44732195458e-05
-1.42728702751e-05
5.78324853545e-05
-1.79780412638e-05
6.18226952226e-05
-2.22749140276e-05
6.65612558906e-05
-2.73328246102e-05
7.20737016887e-05
-3.32719331636e-05
7.84574481903e-05
-4.03422608886e-05
8.57032310661e-05
-4.88013414729e-05
9.37792282993e-05
-5.90335037808e-05
0.000102540435093
-7.15528137051e-05
0.000111954509098
-8.66450421987e-05
0.000122893433291
-0.000104500157135
0.000135500526877
-0.000106004900644
0.000143103270513
-3.35943717829e-08
5.53768769344e-05
-3.36035301187e-08
-1.10954154427e-11
1.99290453234e-09
-8.44263377566e-07
4.02978436803e-05
-2.10900440589e-06
4.58477694163e-05
-3.69983571992e-06
4.99368609552e-05
-5.58484731122e-06
5.33773754512e-05
-7.76168382756e-06
5.66496621005e-05
-1.02890506081e-05
6.03596878861e-05
-1.32646877454e-05
6.4798503859e-05
-1.67702401161e-05
7.00681339681e-05
-2.09995237442e-05
7.63060131717e-05
-2.6078613578e-05
8.35407770524e-05
-3.2232148775e-05
9.18631581156e-05
-3.97374996642e-05
0.000101288943013
-4.8931856553e-05
0.000111739102994
-6.01772949326e-05
0.000123203940362
-7.33324811887e-05
0.000136048773077
-8.80331824263e-05
0.000150201303525
-9.01762722406e-05
0.000160805725605
-1.54341818183e-07
6.69374078122e-05
-1.53993888617e-07
-4.12953682893e-10
9.43701610313e-08
-1.49448160349e-07
4.04469363167e-05
-7.47698653822e-07
4.64455778668e-05
-1.61151453707e-06
5.08001768951e-05
-2.74136588859e-06
5.45067136121e-05
-4.14917148339e-06
5.80569741968e-05
-5.86427477108e-06
6.20744876942e-05
-7.97202087497e-06
6.69063825579e-05
-1.05781723878e-05
7.26756602252e-05
-1.37915398758e-05
7.95226469327e-05
-1.77823441996e-05
8.75363167178e-05
-2.2756303472e-05
9.684387472e-05
-2.89486595987e-05
0.000107486444343
-3.66258009029e-05
0.000119421397311
-4.59175817866e-05
0.000132500544785
-5.628795783e-05
0.000146419307216
-6.69999504488e-05
0.000160913369089
-6.89723546177e-05
0.000174378140887
-2.463455094e-07
7.80938421239e-05
-2.45982843689e-07
-8.94529000904e-10
-3.34426357321e-08
5.78897529395e-07
3.98675775516e-05
7.65317201708e-07
4.62586154089e-05
6.53133984012e-07
5.0911775265e-05
3.29106583799e-07
5.48301424946e-05
-2.40380485291e-07
5.86259515101e-05
-1.06109093348e-06
6.28949108979e-05
-2.18065535955e-06
6.80265361672e-05
-3.72595513867e-06
7.42228843918e-05
-5.79161400184e-06
8.1592769826e-05
-8.51224100324e-06
9.02619020493e-05
-1.20558099509e-05
0.000100396836867
-1.65858552312e-05
0.000112023214455
-2.22430989951e-05
0.000125085701647
-2.88870168457e-05
0.000139150424413
-3.58387112662e-05
0.000153371404027
-4.29638137948e-05
0.000168038544023
-4.52892773479e-05
0.000184389135122
-2.05767680567e-07
8.71368862535e-05
-2.06755978194e-07
-4.40226806539e-11
4.15803778073e-08
1.34789624596e-06
3.85190434868e-05
2.35062311344e-06
4.52551959307e-05
3.05714731405e-06
5.02046057088e-05
3.56315056143e-06
5.43235282348e-05
3.93512165615e-06
5.82535928171e-05
4.11760212906e-06
6.27127004578e-05
4.05249670239e-06
6.8092423682e-05
3.68205386538e-06
7.45959213874e-05
2.89845887432e-06
8.23798868263e-05
1.57436349519e-06
9.15926050498e-05
-3.62401455715e-07
0.00010234280888
-3.10774769767e-06
0.000114776495423
-6.78029238651e-06
0.000128765660307
-1.12406732618e-05
0.000143617828245
-1.58158140073e-05
0.000157947939952
-1.99729095835e-05
0.000172196011655
-2.19161052281e-05
0.000190621572262
-1.07482565273e-08
9.27174252417e-05
-1.08448886264e-08
-1.41120829993e-10
3.07247148678e-08
2.08461661193e-06
3.64336035932e-05
3.93336137578e-06
4.34056517991e-05
5.53290158124e-06
4.86042941186e-05
6.97086761076e-06
5.28850267687e-05
8.3107368621e-06
5.69135246685e-05
9.54468824929e-06
6.14786036899e-05
1.06458416792e-05
6.69926122272e-05
1.15265357174e-05
7.37180189882e-05
1.21279017116e-05
8.17845362502e-05
1.23656073576e-05
9.13626674141e-05
1.20925630347e-05
0.000102626550736
1.1142511193e-05
0.000115737678302
9.29433654936e-06
0.000130625310782
6.40493749348e-06
0.000146517081312
2.81005355108e-06
0.000161549380713
8.12068725267e-07
0.000174197128623
-2.10107543291e-06
0.000194764785903
-6.11600585503e-08
9.50899667447e-05
-6.15675438804e-08
-1.68798737541e-11
1.43321830785e-09
2.95008604791e-06
3.34825473425e-05
5.58894303254e-06
4.07657940477e-05
8.04434642306e-06
4.61480082116e-05
1.04167780567e-05
5.05119477217e-05
1.27682670636e-05
5.45618216587e-05
1.51107091697e-05
5.91378171052e-05
1.74051067759e-05
6.46995344679e-05
1.96466441118e-05
7.14789676016e-05
2.1808236849e-05
7.96269109444e-05
2.38051664836e-05
8.93710068796e-05
2.54854536958e-05
0.000100952733649
2.66875871789e-05
0.000114542541004
2.70842607277e-05
0.000130235637958
2.63892505525e-05
0.000147218238701
2.479583095e-05
0.000163145591279
2.37012542287e-05
0.000175295254901
1.45823137892e-05
0.000196837515959
1.70621679219e-07
9.50866029844e-05
9.73728945184e-10
1.69308355517e-07
2.37516393566e-11
3.74739316221e-06
2.97337597122e-05
7.21149857794e-06
3.73002001755e-05
1.05328482745e-05
4.2825174173e-05
1.38298000899e-05
4.72143824577e-05
1.71938188599e-05
5.11971966971e-05
2.06258915649e-05
5.57063202759e-05
2.41769681615e-05
6.11505343648e-05
2.78714747818e-05
6.77873850197e-05
3.16692299219e-05
7.58333333444e-05
3.55998282289e-05
8.54459947858e-05
3.94770783036e-05
9.7082058347e-05
4.32013578256e-05
0.00011082527467
4.66282355682e-05
0.000126815577395
4.93372066937e-05
0.000144515271937
5.10665979773e-05
0.000161419654301
5.27758542567e-05
0.000173588688896
4.04560680009e-05
0.000195829493326
-1.29278247275e-07
9.52060225602e-05
2.60634810241e-09
2.94453323237e-08
1.75882675372e-10
4.52141419429e-06
2.52114490748e-05
8.75917444684e-06
3.30614393406e-05
1.29177503341e-05
3.86651759283e-05
1.71235817081e-05
4.30076325844e-05
2.14257816097e-05
4.6895171617e-05
2.59753162224e-05
5.11577649325e-05
3.08117668609e-05
5.63162097142e-05
3.59715296738e-05
6.26308329377e-05
4.14895942372e-05
7.03199043317e-05
4.73293585826e-05
7.96120349278e-05
5.3602233812e-05
9.08161155028e-05
6.01996537735e-05
0.000104235168883
6.70520784185e-05
0.000119970220686
7.4038754339e-05
0.000137534743835
8.09777668091e-05
0.000154485020365
8.59595636671e-05
0.000168608321918
6.71791536951e-05
0.000192918967469
-4.41310233474e-08
9.59998098556e-05
1.09679069692e-08
-7.75874368834e-08
1.6148601664e-09
5.2294122843e-06
1.99811038806e-05
1.02196213987e-05
2.80702569945e-05
1.51449075638e-05
3.37390489734e-05
2.01681246542e-05
3.79839469851e-05
2.54454965682e-05
4.16178524522e-05
3.10836962499e-05
4.55203911846e-05
3.71426500062e-05
5.02592341321e-05
4.37199209818e-05
5.60570131009e-05
5.0881294152e-05
6.31632609282e-05
5.87169312775e-05
7.1782317311e-05
6.73036934269e-05
8.22362832593e-05
7.67363981199e-05
9.48097860754e-05
8.70479268249e-05
0.000109665760053
9.81283135421e-05
0.000126460515648
0.000109516498692
0.000143099701828
0.000118053140795
0.000160073039873
9.58719219902e-05
0.000186765057317
2.03662264888e-07
9.57189265066e-05
6.06800084576e-08
-9.47131225863e-08
9.38689573258e-09
5.83965351892e-06
1.41404634981e-05
1.15201768297e-05
2.23887451976e-05
1.71711635981e-05
2.80872129608e-05
2.29836581598e-05
3.21708852905e-05
2.91281509666e-05
3.54732924106e-05
3.57747827692e-05
3.88744631045e-05
4.29605687053e-05
4.30752753387e-05
5.08616263955e-05
4.81588372698e-05
5.9602962415e-05
5.442647513e-05
6.93079770426e-05
6.20828022359e-05
8.01511348453e-05
7.13995014352e-05
9.2286223371e-05
8.26812911244e-05
0.000105917826408
9.60408856127e-05
0.00012119933494
0.000111184560235
0.000136357277724
0.000127946400938
0.000150855147181
0.000145577314359
0.000126412253351
0.000175885142945
8.94154438988e-07
9.41733920769e-05
1.73669752081e-07
3.35561537184e-08
2.08915359353e-08
6.39303918978e-06
7.74638770939e-06
1.26530719724e-05
1.61276929293e-05
1.89354719548e-05
2.18038795686e-05
2.54411196971e-05
2.56645157351e-05
3.23699677137e-05
2.85440906156e-05
3.98312320733e-05
3.14134650229e-05
4.80599250301e-05
3.48477075477e-05
5.71599872619e-05
3.90611117685e-05
6.73193324702e-05
4.427074543e-05
7.87264958286e-05
5.06803945552e-05
9.16113942476e-05
5.85201431796e-05
0.000106257759776
6.80409952819e-05
0.000122859464238
7.94449878438e-05
0.000141413389983
9.26360289603e-05
0.0001616269046
0.000107736087287
0.000180859793754
0.000126346743493
0.000179338964914
0.000156883625809
3.57159606108e-06
8.81589090148e-05
1.20932848585e-07
2.03798915548e-07
3.11630248788e-08
6.86258661285e-06
8.82756206378e-07
1.35749756128e-05
9.41422096454e-06
2.03672947145e-05
1.50104472747e-05
2.74417085054e-05
1.8589035007e-05
3.50006890138e-05
2.09842564749e-05
4.32173943723e-05
2.31963365413e-05
5.23003663798e-05
2.57649662036e-05
6.24154674159e-05
2.89470805097e-05
7.37926637856e-05
3.28958284042e-05
8.66801214613e-05
3.77967138438e-05
0.000101385223358
4.3819994099e-05
0.000118192031919
5.12397722217e-05
0.000137485356988
6.01575329117e-05
0.000159534372788
7.05924811014e-05
0.000184234781832
8.30390456939e-05
0.000208779445205
0.000101803192054
0.000254304984416
0.000131072977855
9.21124038117e-06
7.64329354994e-05
-2.75852869708e-07
7.5513285216e-08
6.87966144472e-08
7.17238778509e-06
-6.29057770777e-06
1.42441406244e-05
2.34145571274e-06
2.14183038694e-05
7.83514580245e-06
2.89188545767e-05
1.10872599065e-05
3.69638000995e-05
1.29381170562e-05
4.57574401419e-05
1.44017557239e-05
5.55014376174e-05
1.60204104069e-05
6.64218384179e-05
1.80266321113e-05
7.87721921092e-05
2.05463226231e-05
9.2842014707e-05
2.37290872958e-05
0.0001089651064
2.77008007463e-05
0.00012753322344
3.2676387281e-05
0.000149047713816
3.86481851074e-05
0.00017377802535
4.58670332463e-05
0.000201349070828
5.54717893868e-05
0.000231757768768
7.13958548707e-05
0.000265568073123
9.62726194275e-05
1.74100136907e-05
5.87892547077e-05
9.213881445e-08
-2.41819849043e-07
1.77198980387e-07
7.36334729264e-06
-1.36550456848e-05
1.46489870152e-05
-4.94538357402e-06
2.20619105989e-05
4.20823771752e-07
2.9830671146e-05
3.31689588655e-06
3.8187829772e-05
4.57928921609e-06
4.73508160842e-05
5.23720348782e-06
5.75422293855e-05
5.82757938554e-06
6.9017949265e-05
6.54976270353e-06
8.20382906868e-05
7.52508847772e-06
9.69490276439e-05
8.81970280992e-06
0.000114108416367
1.05455169476e-05
0.000133991284599
1.2798655484e-05
0.000157017764564
1.56273812414e-05
0.000183740904441
1.91495701162e-05
0.0002144754819
2.4740371547e-05
0.000249398304032
3.64763966728e-05
0.000287814244915
5.61508979348e-05
2.91732063446e-05
3.63727888661e-05
6.17390140199e-07
-1.69765274453e-06
7.25729522193e-07
7.425731705e-06
-2.10809404337e-05
1.4782009455e-05
-1.23018067092e-05
2.2271384273e-05
-7.06881060858e-06
3.01377468433e-05
-4.54988869921e-06
3.86155329712e-05
-3.89906234873e-06
4.79327482995e-05
-4.08084414478e-06
5.83259091827e-05
-4.56668406708e-06
7.0045006956e-05
-5.17088287411e-06
8.34096311795e-05
-5.84259158355e-06
9.87655523202e-05
-6.53836568677e-06
0.000116529954522
-7.21976980903e-06
0.000137184077233
-7.8559394923e-06
0.000161240516778
-8.42971935555e-06
0.000189306447279
-8.91703547059e-06
0.000221925155428
-7.87974517537e-06
0.000259271383835
-8.72195115642e-07
0.000301223850713
1.35911577259e-05
4.27390190613e-05
1.14097719247e-05
-1.16480417714e-07
-6.08549309441e-06
-2.88452500386e-07
7.30512627482e-06
-2.83857635706e-05
1.45759387861e-05
-1.95722456649e-05
2.19887356757e-05
-1.44813174478e-05
2.97806568452e-05
-1.23416771946e-05
3.81860326237e-05
-1.23044963696e-05
4.74340017524e-05
-1.33291375548e-05
5.77662245084e-05
-1.48997040839e-05
6.94602701167e-05
-1.68666002924e-05
8.28235652846e-05
-1.92107942609e-05
9.82235421166e-05
-2.1943302966e-05
0.00011610097972
-2.51021571161e-05
0.000136972212999
-2.87314946503e-05
0.000161403550722
-3.28641531853e-05
0.000189917615387
-3.74361054782e-05
0.000223051173751
-4.10185788133e-05
0.000261058548314
-3.88850453709e-05
0.000304102029306
-2.88087622723e-05
5.56840012434e-05
-9.57216056213e-06
-2.66382916158e-06
-9.83051827482e-06
1.27367751939e-06
7.02530476377e-06
-3.54102834195e-05
1.4042369821e-05
-2.65884082553e-05
2.12142758205e-05
-2.16523709104e-05
2.87522041861e-05
-1.98788962988e-05
3.68864753767e-05
-2.04382823389e-05
4.58374317463e-05
-2.22799596711e-05
5.58572551371e-05
-2.49199746566e-05
6.71964617659e-05
-2.82079275811e-05
8.01902643619e-05
-3.22094210212e-05
9.52068714403e-05
-3.69666374597e-05
0.000112703715231
-4.26075760351e-05
0.000133262716637
-4.9296971364e-05
0.000157461038883
-5.70712460422e-05
0.000185770686389
-6.57545101735e-05
0.00021831041539
-7.35671212074e-05
0.000255743143907
-7.63255833972e-05
0.000296541709904
-6.95841347449e-05
6.87708483878e-05
-3.13463611877e-05
-1.19952446211e-06
-1.61605195787e-05
3.90256164447e-07
6.61956157837e-06
-4.20285844561e-05
1.32121675823e-05
-3.31795948108e-05
1.99489334526e-05
-2.83877248261e-05
2.70654721664e-05
-2.69941369257e-05
3.47331881312e-05
-2.81049388624e-05
4.31578096382e-05
-3.07039629337e-05
5.25701464204e-05
-3.43324504727e-05
6.3259557723e-05
-3.88997285985e-05
7.55034192155e-05
-4.44593299021e-05
8.96919322084e-05
-5.11638931061e-05
0.00010629265205
-5.92198381455e-05
0.000125862832542
-6.88767072394e-05
0.000149144516916
-8.03649711435e-05
0.000176772810609
-9.33953326129e-05
0.000208567381248
-0.000105373886502
0.00024278161636
-0.000110550029936
0.000280275493511
-0.000107117511712
7.98697386625e-05
-5.61760288607e-05
-2.89210788472e-07
-2.40745345997e-05
9.36411508907e-08
6.03555866047e-06
-4.80624560548e-05
1.20750539387e-05
-3.92172095256e-05
1.82474955895e-05
-3.45582429954e-05
2.47408239822e-05
-3.34856091277e-05
3.17451834236e-05
-3.51076710183e-05
3.94480426513e-05
-3.8405696029e-05
4.80330134944e-05
-4.29172106649e-05
5.77490597372e-05
-4.86183416872e-05
6.88439739263e-05
-5.55611790541e-05
8.17168120695e-05
-6.40473123795e-05
9.68076270828e-05
-7.43245711775e-05
0.000114685820047
-8.67670893037e-05
0.000136121921969
-0.0001018162611
0.000161726626506
-0.000119015700584
0.000190808728101
-0.000134470863235
0.00022032763191
-0.00014008059626
0.000250483877701
-0.000137289568737
8.67457318462e-05
-8.81837121053e-05
1.11605353898e-06
-3.52286135647e-05
1.16788645298e-06
5.29285883551e-06
-5.33532951839e-05
1.06520904849e-05
-4.45742020856e-05
1.61581454807e-05
-4.00619593419e-05
2.19255731031e-05
-3.92507017746e-05
2.81137330404e-05
-4.12936843928e-05
3.48764568788e-05
-4.51667826794e-05
4.23829832043e-05
-5.04231117383e-05
5.07973623371e-05
-5.70351825599e-05
6.03872107602e-05
-6.5158121916e-05
7.13929038271e-05
-7.50629573969e-05
8.4311870114e-05
-8.72614582651e-05
9.96391191861e-05
-0.000102106832328
0.000117935801319
-0.000120130022881
0.00013988656064
-0.00014098303591
0.000164231275147
-0.000158831223249
0.000187299787195
-0.000163161216736
0.000208692433681
-0.000158689704198
8.74011728185e-05
-0.000123904526492
9.68394201686e-06
-5.92978614587e-05
2.60086532388e-06
4.47598188646e-06
-5.78270518388e-05
9.03009819894e-06
-4.91258577061e-05
1.37216405208e-05
-4.47508828606e-05
1.86302768583e-05
-4.41566463016e-05
2.38595125509e-05
-4.65203439426e-05
2.95372584922e-05
-5.08424115604e-05
3.57753723527e-05
-5.66601115776e-05
4.27152219592e-05
-6.3977002424e-05
5.04678044327e-05
-7.29170403289e-05
5.9305277501e-05
-8.39102236193e-05
6.93651816427e-05
-9.73372404003e-05
8.11150776471e-05
-0.00011386999073
9.5002390834e-05
-0.000134034858708
0.000111043035832
-0.0001570390941
0.00012874900656
-0.00017655259267
0.000147117044404
-0.000181540698705
0.000169317834046
-0.000180896302985
8.90087047759e-05
-0.000172719716554
2.86468135797e-06
-9.97806090687e-05
-1.21090798196e-06
3.60479142417e-06
-6.14295579464e-05
7.24603290117e-06
-5.27645725015e-05
1.10163722494e-05
-4.85184811467e-05
1.49553362688e-05
-4.80927137125e-05
1.91396296763e-05
-5.07017621884e-05
2.36352859251e-05
-5.53355504577e-05
2.83997687679e-05
-6.14229604422e-05
3.36965218175e-05
-6.92748816087e-05
3.95009645946e-05
-7.87262630261e-05
4.58177765716e-05
-9.02349471126e-05
5.27066762611e-05
-0.00010424038628
6.02095022735e-05
-0.000121386673988
6.831058199e-05
-0.000142149307298
7.68994759155e-05
-0.000165644019498
8.62968022726e-05
-0.000185963640895
9.97305947059e-05
-0.000194984557477
0.000120223441613
-0.000201393684489
6.56098607133e-05
-0.000198067224855
2.50536354204e-06
-0.000119197902958
-3.58306909313e-07
2.61459474395e-06
-6.40419537858e-05
5.33998846159e-06
-5.54875314383e-05
8.13387811286e-06
-5.13096755465e-05
1.1044607665e-05
-5.10005178485e-05
1.40992744192e-05
-5.3753425008e-05
1.72251985294e-05
-5.84586920412e-05
2.07188648073e-05
-6.49145335914e-05
2.42723129529e-05
-7.28284193932e-05
2.79412078104e-05
-8.23979851121e-05
3.16359680995e-05
-9.39351109171e-05
3.51670379742e-05
-0.000107781761033
3.8270615042e-05
-0.000124498820174
4.0517464602e-05
-0.000144407941685
4.1355557176e-05
-0.000166494047874
4.25675828398e-05
-0.000187187563389
5.03290201682e-05
-0.000202754039073
7.08232222399e-05
-0.000221891468965
4.60164274428e-05
-0.000217919029001
1.17128202382e-06
-0.000128999800265
6.70806276425e-07
1.56696297726e-06
-6.56069373362e-05
3.31447403244e-06
-5.72328428869e-05
5.14195604224e-06
-5.3134673641e-05
6.94604590307e-06
-5.28018373853e-05
8.84699103353e-06
-5.56514306689e-05
1.08603037837e-05
-6.04691476061e-05
1.28137208684e-05
-6.68655729064e-05
1.4699780097e-05
-7.47135888017e-05
1.64159022235e-05
-8.41150861179e-05
1.76477358032e-05
-9.51699246607e-05
1.81080606635e-05
-0.000108248688416
1.75089509074e-05
-0.000123907792639
1.49330300111e-05
-0.000141842060253
9.41544644518e-06
-0.000160986713749
4.32086449754e-06
-0.000182101638415
5.60181206847e-06
-0.000204040798552
1.87418006425e-05
-0.000235034867742
1.53427838663e-05
-0.000224469752407
3.73759019311e-07
-0.000129360113597
5.08209153397e-08
5.11181682045e-07
-6.61164726947e-05
1.22655301587e-06
-5.79463711814e-05
2.0273039779e-06
-5.39332946094e-05
2.88869113796e-06
-5.36607810554e-05
3.67371333932e-06
-5.64337800009e-05
4.39956395624e-06
-6.11922961495e-05
4.987559165e-06
-6.74511596032e-05
5.3532178989e-06
-7.50777677237e-05
5.3678977231e-06
-8.41293833927e-05
4.37305148987e-06
-9.41763356385e-05
2.89556471005e-06
-0.000106775200029
-3.80550855994e-07
-0.000120637478441
-6.15781668003e-06
-0.000136071960353
-1.42280286503e-05
-0.000152923713896
-2.34402644637e-05
-0.000172895083315
-2.80292097982e-05
-0.000199453786325
-2.1375892212e-05
-0.000241691768136
-2.54015102814e-05
-0.000215268650697
-2.3283628065e-07
-0.000111466949359
-9.89086772412e-09
-5.66121363479e-07
-6.55491094383e-05
-8.19890611411e-07
-5.76911986034e-05
-9.98338714944e-07
-5.37531740373e-05
-1.17991789169e-06
-5.34772243499e-05
-1.46843616942e-06
-5.61430350678e-05
-1.9039554438e-06
-6.07544624094e-05
-2.58881876332e-06
-6.67641548831e-05
-3.63299518931e-06
-7.40319499927e-05
-5.33291471156e-06
-8.24285422019e-05
-7.37102267209e-06
-9.2138508947e-05
-1.08021523857e-05
-0.000103345624193
-1.57466155595e-05
-0.00011569668174
-2.31296523231e-05
-0.000128693788059
-3.25793818263e-05
-0.000143478913428
-4.45463550223e-05
-0.000160932332745
-5.54590380124e-05
-0.000188538036792
-7.11890557846e-05
-0.000225951991387
-6.32637354682e-05
-0.000186439316122
-2.07216845782e-07
-9.03112961032e-05
-1.80233609434e-08
-1.51709451746e-06
-6.40312062914e-05
-2.83309830397e-06
-5.63742630104e-05
-3.97869778059e-06
-5.26064121119e-05
-5.14202666256e-06
-5.23124579808e-05
-6.44044993248e-06
-5.48429433993e-05
-7.95527616034e-06
-5.9237860102e-05
-9.75513800775e-06
-6.49626194344e-05
-1.20402346658e-05
-7.17455632971e-05
-1.48624562466e-05
-7.96056513741e-05
-1.83943124669e-05
-8.86067915682e-05
-2.31607194671e-05
-9.85800901326e-05
-2.95125833314e-05
-0.000109347445717
-3.80934745215e-05
-0.000120115704621
-4.91511133474e-05
-0.000132424264216
-6.31789302448e-05
-0.000146907426975
-8.05596148103e-05
-0.000171152570169
-0.000104686397882
-0.00020180524924
-8.42337393817e-05
-0.000152742686438
-1.80981267365e-07
-7.47303430692e-05
3.16043770201e-09
-2.62191021164e-06
-6.14090132725e-05
-4.77281819875e-06
-5.42229773704e-05
-6.84354483625e-06
-5.05351342589e-05
-8.92722599545e-06
-5.02280696547e-05
-1.11794280547e-05
-5.2589701937e-05
-1.36549473847e-05
-5.67613251738e-05
-1.64426242567e-05
-6.21741386408e-05
-1.98408226187e-05
-6.83468203751e-05
-2.34738815074e-05
-7.59725785182e-05
-2.80334523914e-05
-8.40477546021e-05
-3.36931293698e-05
-9.29220230754e-05
-4.08323860648e-05
-0.00010221001962
-4.95418153741e-05
-0.0001114082993
-6.14156986505e-05
-0.000120551305636
-7.56401240542e-05
-0.000132684135247
-9.06822645008e-05
-0.000156099559256
-0.000117118124262
-0.000175347703774
-8.67858456679e-05
-0.000123994607868
-3.97225860411e-07
-6.52874838929e-05
4.44671473715e-09
-3.43030521446e-06
-5.79789614287e-05
-6.59896356379e-06
-5.10545412663e-05
-9.51441768237e-06
-4.76199098255e-05
-1.24863129562e-05
-4.7255869387e-05
-1.56404722231e-05
-4.94357887211e-05
-1.90168938139e-05
-5.33847725733e-05
-2.29201180931e-05
-5.82709086539e-05
-2.66698024636e-05
-6.45972875115e-05
-3.11950390765e-05
-7.14478301546e-05
-3.64262248994e-05
-7.88178274455e-05
-4.2266966123e-05
-8.70834783796e-05
-4.88582267202e-05
-9.562062029e-05
-5.58194100193e-05
-0.00010444790122
-6.55452598754e-05