/*--------------------------------*- C++ -*----------------------------------*\
| =========                 |                                                 |
| \\      /  F ield         | OpenFOAM: The Open Source CFD Toolbox           |
|  \\    /   O peration     | Version:  v2012                                 |
|   \\  /    A nd           | Website:  www.openfoam.com                      |
|    \\/     M anipulation  |                                                 |
\*---------------------------------------------------------------------------*/
FoamFile
{
    version     2.0;
    format      ascii;
    class       volScalarField;
    location    "3.7";
    object      epsilon;
}
// * * * * * * * * * * * * * * * * * * * * * * * * * * * * * * * * * * * * * //

dimensions      [0 2 -3 0 0 0 0];


internalField   nonuniform List<scalar> 
1984
(
0.000942260829791
0.00105759254864
0.00113227475931
0.00116150158935
0.00117603744093
0.00118619293318
0.00119526195885
0.00120433007053
0.00121398431258
0.001225325737
0.00124142672337
0.00126990848042
0.00132768849154
0.0014539469796
0.00178136471039
0.00292513748168
0.00772087882136
0.025865534592
0.0782750433388
0.213187563434
0.00106203856418
0.00108673834935
0.00118060298145
0.0012163297886
0.00123240429742
0.00124227442506
0.0012504071043
0.00125834896684
0.00126689758417
0.00127750175062
0.0012939193149
0.00132497626389
0.00139032169038
0.00153683681328
0.00191693861564
0.00314776582041
0.00764129566212
0.0220861877814
0.059137576152
0.163559083004
0.00114257411643
0.00118911016935
0.00129873062168
0.00134019010982
0.00135813875908
0.00136865257608
0.00137717963795
0.00138552148432
0.00139466280163
0.00140629065773
0.00142470922076
0.00145992606273
0.00153396268992
0.00169973049814
0.00212356488084
0.0034324255383
0.00796528817126
0.0225975181306
0.0613286666745
0.165303140986
0.00117531867337
0.00123035958053
0.00134663848476
0.00139046759268
0.00140899512744
0.0014195449677
0.00142802653698
0.00143639969025
0.00144568240576
0.00145767801313
0.00147677663368
0.00151324675017
0.00158948088571
0.00175942330798
0.00219203783431
0.00350668548028
0.00791539871547
0.0219548569143
0.0604603416868
0.165307392758
0.00119105422788
0.00124900489975
0.0013680209535
0.00141268215368
0.00143120925089
0.00144151711773
0.00144974511681
0.00145793346628
0.00146713038284
0.00147906465223
0.00149810084702
0.0015342701116
0.00160936629503
0.00177636515751
0.00220399067649
0.00350865604837
0.00778802783841
0.0209660612508
0.0578920844446
0.164010887537
0.00120087256592
0.00125948906894
0.00137966954344
0.0014245258462
0.00144281744862
0.00145276742276
0.00146065084074
0.00146854687939
0.0014774923842
0.00148916864745
0.00150774233224
0.00154290450466
0.00161557074475
0.00177694160929
0.00219366854928
0.00348394475091
0.00769536486386
0.0203325303003
0.0560293578971
0.163135083942
0.00120863131395
0.00126714225624
0.00138788590127
0.00143270263683
0.00145068718758
0.00146025199533
0.00146776401827
0.00147531815773
0.00148393986554
0.00149524152785
0.00151321948575
0.00154717958129
0.00161725537642
0.00177277125079
0.00217659946333
0.00343843244274
0.00755740446458
0.0197326886047
0.0544339781211
0.162580175211
0.00121570807552
0.00127378827405
0.00139492089
0.00143964873957
0.00145733361463
0.00146653360256
0.00147367602496
0.00148088305313
0.00148916111879
0.00150004684228
0.00151736333919
0.00155010041652
0.00161783104304
0.00176864345187
0.00216090010794
0.00338806090003
0.00737370085446
0.0190381279809
0.0526948732158
0.161957251799
0.00122245399191
0.0012800678619
0.00140154857232
0.00144619937325
0.00146361732579
0.00147249255819
0.00147929706424
0.00148617016962
0.00149410007984
0.00150456070529
0.00152122102143
0.00155276115697
0.00161824339271
0.00176455164384
0.00214551979328
0.00333551451425
0.00717779928648
0.0183201779979
0.0510009182852
0.161322724551
0.00122899116938
0.00128618096579
0.00140800787659
0.0014526122693
0.00146980323259
0.0014783879253
0.00148489301079
0.0014914599449
0.00149906489782
0.00150911149596
0.00152511328523
0.00155548022397
0.00161878035406
0.0017605278755
0.00212870953305
0.00327317395559
0.00695115975011
0.0175852338385
0.0494487195971
0.160754323485
0.00123536086329
0.00129213837768
0.00141434509776
0.00145894058327
0.0014759473453
0.00148428123589
0.00149051743511
0.00149680988702
0.00150411213211
0.00151376985943
0.00152914651143
0.00155841520753
0.00161983177811
0.0017580924342
0.00211627492305
0.00322043172724
0.00677015048202
0.0172181012772
0.0491172164638
0.160775155816
0.00124154034201
0.0012979529093
0.00142055881763
0.00146517568618
0.00148203537404
0.00149015760219
0.00149615818013
0.00150220319269
0.00150923138159
0.00151852190187
0.00153330845391
0.00156157292673
0.00162158078736
0.0017588665024
0.00211796808585
0.00322007790813
0.00676121840889
0.0173918445575
0.0498562467436
0.161092284928
0.00124743925511
0.00130360062686
0.00142663033705
0.00147129539127
0.00148803746316
0.00149598113663
0.00150178092619
0.00150760762454
0.00151438421675
0.00152333101699
0.00153754427421
0.00156479212679
0.00162324282097
0.00175887586284
0.00211709696199
0.00321858595921
0.00678922950665
0.0177148475508
0.0506428248898
0.161361987764
0.00125310941152
0.00130907367204
0.00143253651091
0.00147727014639
0.00149392173829
0.00150171468269
0.00150734201145
0.00151298093162
0.00151953173006
0.0015281586001
0.0015418079243
0.0015679714909
0.00162440682801
0.00175629138107
0.00210650267796
0.00319203584324
0.0067755314554
0.0179023238411
0.0509681948955
0.161312161875
0.00125853097984
0.00131432004393
0.00143824337363
0.00148307315952
0.00149965841227
0.00150732453754
0.00151280084746
0.00151827915903
0.00152463468497
0.00153297359133
0.00154607151291
0.00157110479413
0.00162506709394
0.00175098817356
0.00208570081988
0.003140230452
0.00670647826325
0.0178292253209
0.0505651005311
0.160842816618
0.00126364728055
0.00131932805068
0.00144372393571
0.00148867423029
0.00150521394054
0.00151277780026
0.00151813539626
0.00152347397654
0.00152966917573
0.00153774292302
0.00155035433304
0.00157437141316
0.00162630311333
0.00174803622385
0.00207377850373
0.00311223398246
0.00665310500356
0.0176189973359
0.0497166162388
0.159991636873
0.00126846148901
0.00132408642321
0.00144895091534
0.00149403283404
0.00151056198072
0.00151805369282
0.00152331107915
0.00152853911115
0.00153459101355
0.00154244610096
0.00155461637037
0.00157777244768
0.00162827210138
0.00174834230923
0.00207349979475
0.00311202409659
0.00663493335066
0.017483097003
0.0490288988828
0.158909968753
0.00127302863122
0.00132853901856
0.0014538931072
0.00149914262528
0.00151567551597
0.00152311496866
0.00152830812446
0.00153345543977
0.00153939132912
0.00154703891492
0.00155878642555
0.00158104904735
0.00162997727326
0.00174787065136
0.00207005585437
0.0031014859622
0.00661439092403
0.0174916110825
0.0486789235398
0.145577684373
0.0012772232607
0.00133268301621
0.00145854235397
0.0015039730504
0.00152054149037
0.00152795921504
0.00153310308812
0.00153818493023
0.00154402592272
0.00155148870423
0.00156280401153
0.00158406342653
0.00163086899071
0.00174454371449
0.00205709094315
0.00306745327346
0.00657652237637
0.017602825836
0.0484387616868
0.129718510311
0.00128106406713
0.00133651466742
0.00146287840925
0.00150851275843
0.00152513825845
0.00153255104816
0.00153766454291
0.00154270125125
0.00154846925526
0.00155577649683
0.00156667116466
0.0015868530546
0.00163116469441
0.00173935162928
0.00203882130919
0.00302095931751
0.00652599109499
0.0177371441397
0.0488084903352
0.128854390013
0.00128457285781
0.00134000690254
0.00146687966214
0.00151273706352
0.00152943880055
0.00153686569609
0.00154197066052
0.00154698584847
0.00155270564359
0.00155988070848
0.00157039333023
0.00158953092087
0.00163133306539
0.00173395088828
0.00202069508957
0.00297720221312
0.00647497691061
0.0178566881795
0.0491622754549
0.128529919506
0.00128762557072
0.00134315230889
0.00147053158232
0.0015166258722
0.001533423792
0.00154088721572
0.00154600401917
0.0015510225179
0.00155672274818
0.0015637982579
0.00157397247261
0.00159214868053
0.00163161069045
0.00172909067153
0.00200466526941
0.0029383881186
0.00641847544483
0.0178996082039
0.0491873186534
0.127151977825
0.0012902799678
0.00134591687121
0.00147380853612
0.00152015558035
0.00153706845541
0.00154459100977
0.00154974463074
0.00155479262159
0.00156050317511
0.00156751517417
0.00157740039166
0.00159470855948
0.00163204515524
0.00172495803714
0.00199055111318
0.00290051152753
0.00633662070558
0.0177266194652
0.0481083798198
0.11547675776
0.00129245838694
0.00134827095958
0.00147668768556
0.00152330432134
0.00154034947604
0.00154794662738
0.00155316235549
0.00155826667996
0.00156401916239
0.00157100830077
0.00158066276188
0.00159719407097
0.00163256479821
0.00172112760849
0.00197643497748
0.00285564866191
0.00618918597852
0.017322400784
0.0465449692196
0.105866478654
0.00129411580679
0.00135020442131
0.00147914000393
0.0015260440887
0.00154324267409
0.00155093632753
0.00155623508572
0.00156142163283
0.00156724795932
0.0015742569835
0.00158374665882
0.00159959548922
0.00163309922276
0.00171720132947
0.00196020542481
0.00279240091561
0.00596349228868
0.0167525236776
0.0452975469481
0.102323849246
0.00129529196414
0.00135167978574
0.00148112979313
0.00152834285915
0.00154572078523
0.00155353603145
0.00155894148304
0.00156423387691
0.00157016140336
0.00157723099851
0.00158660986375
0.00160186029669
0.00163358382704
0.0017129132544
0.0019399501947
0.00270511442936
0.00565524126717
0.0160567038757
0.0435369985226
0.0949028257481
0.00129594844576
0.00135266299031
0.00148261309264
0.00153015471423
0.00154773895547
0.00155570392269
0.00156124578758
0.00156668342136
0.00157275910309
0.00157994636399
0.0015892983986
0.00160406707644
0.00163415862804
0.00170883727468
0.00191927396364
0.00260972467749
0.00528456558363
0.0151267226221
0.0416403827915
0.091017308911
0.00129611102943
0.00135316675081
0.00148357736632
0.00153145896642
0.0015492788216
0.00155742271772
0.00156312863867
0.0015687348832
0.0015749812797
0.0015823204355
0.00159170665416
0.00160612431233
0.00163481905069
0.00170565023639
0.00190364475257
0.00253559940331
0.00494728850812
0.0140647851487
0.0395236316113
0.0896610119215
0.0012958346394
0.00135314470233
0.00148396884701
0.00153220840157
0.00155029941095
0.00155865612252
0.00156455599658
0.00157036320238
0.00157682893486
0.0015843835277
0.00159386328204
0.00160804101904
0.0016355829305
0.00170346854401
0.00189464134056
0.00249677986905
0.00471653543599
0.013078123311
0.0381497513445
0.10152837819
0.00129510751969
0.00135251454921
0.00148372598147
0.00153235522903
0.00155076114673
0.00155937037095
0.00156549802782
0.00157153947208
0.00157825639685
0.0015860668337
0.0015957275729
0.00160981145835
0.00163653163536
0.00170226758709
0.00189000348349
0.00248175265629
0.00457726772093
0.0121648591495
0.0364699380993
0.146060235732
0.00129398008331
0.00135125103175
0.00148277940983
0.00153183999004
0.00155061939106
0.00155952911509
0.00156592516861
0.00157223493476
0.00157924367546
0.00158735676506
0.00159728518736
0.00161148894357
0.00163800229028
0.00170320612641
0.0018903822372
0.00247428618039
0.0044501204473
0.0111705663556
0.0327186342338
0.162237660361
0.00129245519823
0.00134931692936
0.00148108479191
0.00153060604841
0.00154982401068
0.00155909274347
0.00156580421911
0.00157242518156
0.00157976974783
0.00158824376161
0.00159855147012
0.00161320450027
0.00164067285634
0.00170886386259
0.00190211926012
0.00247564709351
0.00427596507116
0.00980479042217
0.0241807111951
0.103905351747
0.0012903407077
0.00134665794979
0.00147861637502
0.00152863473067
0.00154834785582
0.00155803137313
0.00156510716147
0.00157208980136
0.00157981904837
0.00158872162934
0.00159954448724
0.00161508774808
0.00164517093536
0.0017217380984
0.00193289932645
0.00250518505841
0.00411640502082
0.00872544501735
0.0206799047478
0.0656698550448
0.00128756450064
0.00134325052095
0.00147535150445
0.00152589711533
0.00154615582358
0.00155630575247
0.00156379803308
0.00157119609729
0.00157937194361
0.00158878114406
0.0016002727912
0.00161715135186
0.00165138035562
0.00174116407552
0.00198162077076
0.00257157539623
0.00404071587945
0.00824251726386
0.0229950715056
0.0955442179603
0.00128403132505
0.00133908352232
0.00147125735278
0.0015223472654
0.00154320100931
0.0015538747551
0.00156184087008
0.0015697133296
0.00157839852227
0.00158838591221
0.00160066116961
0.00161909952107
0.00165787513757
0.00176139885857
0.0020334505861
0.00265727437763
0.00405875920238
0.0081193635713
0.0250692494348
0.100600279543
0.00127966786356
0.00133411810345
0.00146629012637
0.00151794044259
0.00153943892372
0.00155069832695
0.00155920171971
0.00156760712426
0.00157686061815
0.00158747859816
0.00160054180075
0.00162028525493
0.00166225059374
0.00177469126568
0.00206885276536
0.00272766046593
0.0041246653928
0.00803827410226
0.0247258214458
0.109086605635
0.00127442351769
0.00132829604418
0.00146041567543
0.00151263898208
0.00153483380909
0.00154674280515
0.00155584576732
0.00156484741144
0.00157472724951
0.00158601237772
0.00159978506094
0.00162030189711
0.00166332232825
0.00177803587845
0.0020792931831
0.002755026745
0.00414613823291
0.00785463740879
0.0255754752218
0.137805803463
0.00126828070892
0.00132163738534
0.00145362641066
0.00150642181148
0.00152935422579
0.00154197200811
0.00155174207771
0.0015614101051
0.00157198089199
0.00158398310519
0.00159848257369
0.0016196977235
0.00166339394706
0.00177876237327
0.00208037787133
0.00275374483268
0.00411113021412
0.00767948858368
0.0256037684565
0.137195230652
0.00126120406036
0.00131413114094
0.00144591974105
0.00149927585331
0.00152297727744
0.00153636161182
0.00154687290424
0.00155728626245
0.00156863374272
0.00158144450078
0.00159682150228
0.00161913210202
0.00166469324417
0.00178301790678
0.00208622955327
0.00275443958935
0.004095004915
0.00760465468595
0.0257583949205
0.137020014502
0.00125321900333
0.00130575290743
0.00143728262822
0.0014911960609
0.00151569378658
0.00152990003027
0.00154122555254
0.00155248321714
0.0015647021985
0.00157841559045
0.00159469616111
0.00161792162124
0.00166431452327
0.00178255733628
0.00208248031152
0.00274735567902
0.00411595707372
0.00775070752236
0.027509983458
0.146213716644
0.00124428797413
0.00129657391457
0.00142779124757
0.00148221922301
0.00150751737078
0.00152258736305
0.00153481651341
0.00154700276911
0.00156020454597
0.0015748752684
0.00159190911926
0.00161497784704
0.00165823641045
0.00176580419791
0.00204491965886
0.00269996942522
0.0041282454049
0.00795139678199
0.0285110352394
0.149120896859
0.00123451913142
0.00128670243919
0.00141754133815
0.00147243195253
0.00149850431995
0.00151446553883
0.0015276431531
0.00154086517199
0.00155518450292
0.00157095333119
0.00158874149
0.00161131210727
0.00164992725852
0.00174261878074
0.00199395025728
0.00263738638028
0.00416328933836
0.00850848938206
0.0316241707523
0.152944340077
0.00122397579731
0.00127632912843
0.0014066933186
0.00146194937908
0.00148872466129
0.00150552870814
0.00151969221802
0.00153402745177
0.00154957272509
0.00156658986237
0.00158536566791
0.00160799733791
0.00164388959587
0.00172690881317
0.00196049512881
0.00260315022068
0.00423011402054
0.00910057668562
0.0341929957141
0.155442368888
0.00121282065253
0.00126567675184
0.00139550195301
0.00145097824227
0.00147828816727
0.00149578047079
0.00151069160606
0.00152590921268
0.00154257538149
0.0015608979924
0.00158084417357
0.00160425153657
0.00164066337338
0.00172397921501
0.00195999588763
0.00262092587503
0.00430959288861
0.00938456118413
0.0351748359922
0.15857400564
0.00120134611812
0.00125509509666
0.00138430743654
0.00143975630366
0.00146722933686
0.00148475844081
0.00149940599491
0.00151412506903
0.00153081553007
0.00155005435926
0.00157110717058
0.00159548792145
0.00163571149407
0.00173084274969
0.00199098630849
0.00269008789076
0.00438808220947
0.00915122872196
0.0338830622762
0.159436195136
0.00118998957682
0.00124501658318
0.0013735287861
0.00142854598287
0.00145531626792
0.00147106943759
0.00148186446493
0.00149021394113
0.00150300979394
0.0015217450209
0.0015439595196
0.00156905103065
0.0016162549737
0.00173924839168
0.00205048075887
0.0028208258038
0.00454986699033
0.00912356604572
0.0340930432738
0.161177155649
0.00117916563637
0.00123596828685
0.00136362185242
0.00141753170372
0.00144181813402
0.00145115858378
0.00144697097871
0.00142526630678
0.00142145026921
0.00143692941569
0.00146151009727
0.00148679631198
0.00155025503746
0.00173013810615
0.00213196022673
0.00302680393792
0.00483104669834
0.00925391778013
0.0326839635369
0.161150900971
0.00116942805502
0.00122844602304
0.00135509414577
0.00140703534426
0.00142632842717
0.00142215724567
0.00138166534716
0.00127345346042
0.00151150094257
0.00149800267008
0.0015294813182
0.00158774845008
0.00140734027508
0.00171221478727
0.00226267333192
0.00334555313136
0.00525491529006
0.00949476448658
0.0308902758537
0.157476855996
0.00116115498392
0.0012223691476
0.00134819754751
0.00139799739155
0.00141173507901
0.0013933844763
0.00131531015052
0.00136790024291
0.00183605430672
0.00199481462089
0.00275676644045
0.00396334584669
0.00585410761834
0.00994007768901
0.0305940181734
0.159686652567
0.00115570199661
0.00121903705104
0.00134457088252
0.00139311589817
0.00140350159563
0.00137675667152
0.00127949110966
0.00126863383072
0.00209161495655
0.0024770506229
0.00345039701994
0.00469143651521
0.0064334374691
0.0100997776482
0.0259090798668
0.12327309997
0.00115568040815
0.00121901563889
0.00134455815998
0.0013931104182
0.00140350119018
0.00137675448565
0.00127950582324
0.00126869696062
0.00209261685616
0.00247842925187
0.00345058631618
0.00469187222911
0.00644859976689
0.0101174608612
0.0242233124226
0.0911426412829
0.00116112127525
0.00122233134646
0.00134817170679
0.00139798686475
0.00141173845249
0.00139340060735
0.00131535715659
0.00136809062095
0.00183635408386
0.00199605495319
0.00276026239327
0.00396887298632
0.00584358372563
0.00972744442931
0.0275548774858
0.153805045562
0.00116938739412
0.00122839897584
0.00135506292655
0.00140702851539
0.00142634630288
0.00142218558684
0.00138164593655
0.0012733339308
0.00151163934825
0.00149803494913
0.00152938484002
0.00158798924243
0.0014078801103
0.00171327260997
0.00226756131183
0.00335503595435
0.00525359689523
0.00937926252538
0.0300312777321
0.157550481054
0.00117915416087
0.00123595025829
0.00136361667064
0.00141754589166
0.00144185212139
0.0014512077026
0.00144700932737
0.00142526530978
0.00142148355551
0.00143697828766
0.0014615388171
0.00148688027107
0.00155060889042
0.00173148355967
0.00213647649836
0.00304413123683
0.00488661929006
0.00947538288893
0.0334667657457
0.16185153735
0.001189995995
0.00124500910038
0.00137353714142
0.00142857430528
0.00145536610191
0.00147113888867
0.00148194780593
0.00149028665568
0.00150308191274
0.00152180831229
0.00154401307232
0.00156916183162
0.00161658942446
0.001740392878
0.00205478838703
0.00284220827964
0.00469507485632
0.0102271525319
0.03937475883
0.163213275532
0.00120136322986
0.00125509105724
0.00138432381987
0.0014397913447
0.00146728462431
0.00148483232338
0.0014994923129
0.0015142086351
0.00153088362923
0.00155009991028
0.00157115655099
0.00159556691917
0.00163587593459
0.00173150936319
0.00199356915055
0.00270125082682
0.00446590146229
0.00988052917981
0.0390788921852
0.163262473643
0.00121283945814
0.00126567691223
0.00139552014508
0.00145102141784
0.00147835693859
0.00149585453472
0.00151077421092
0.00152598637576
0.0015426353785
0.00156093856564
0.00158086461451
0.00160428261952
0.00164072783604
0.00172417685678
0.00196032639039
0.00262017681635
0.00429663544685
0.00938791957306
0.0369639769925
0.162267082521
0.00122401379404
0.00127634127538
0.00140672633664
0.00146200682064
0.0014888042958
0.00150562466933
0.00151977727613
0.00153409813883
0.00154962368832
0.00156661719578
0.00158536863617
0.00160798324328
0.0016438460651
0.00172670415288
0.00195907861885
0.00259518543612
0.00417725860948
0.00890024415639
0.0348048906958
0.161178160961
0.00123457592444
0.00128673199101
0.00141758681635
0.00147249819708
0.00149858460516
0.00151454998622
0.00152772604184
0.0015409401294
0.00155522423125
0.00157095397508
0.0015887139816
0.00161124423207
0.00164977859582
0.00174212881064
0.00199170993103
0.00262826235097
0.00413216376045
0.00865654772594
0.0351176878822
0.161206762117
0.00124435065784
0.00129661183465
0.00142784471667
0.00148228973196
0.00150760266254
0.00152268019192
0.00153489981608
0.00154707229785
0.00156024510111
0.00157488887326
0.001591887678
0.00161492354425
0.00165805547187
0.00176522934061
0.00204282676633
0.00269456159618
0.00413549279249
0.00845994408862
0.0343285317582
0.160609251422
0.00125328505933
0.00130579489131
0.00143734193899
0.00149127289645
0.00151578356361
0.00152999707667
0.00154132409482
0.00155256383841
0.00156476030226
0.0015784473411
0.00159470890039
0.0016178993323
0.00166417713454
0.00178194181563
0.00208046304128
0.00274146668438
0.00410397871263
0.00795260862879
0.0316398983427
0.156578296369
0.00126126695662
0.0013141768675
0.00144598462148
0.00149936026032
0.0015230775229
0.00153647114407
0.00154698295503
0.00155738936764
0.00156872107606
0.00158151380531
0.00159687589286
0.00161915667506
0.00166462493913
0.0017826766481
0.00208497442865
0.00275019034346
0.00407020528263
0.00748763875526
0.0275199813449
0.143922843934
0.0012683419963
0.00132169052555
0.00145369748551
0.00150651257705
0.0015294625932
0.00154209260823
0.00155186854044
0.00156153664934
0.00157210224912
0.00158409093389
0.00159858153961
0.00161977446431
0.0016634069453
0.00177856019949
0.00207956076013
0.00275112331925
0.00408580555903
0.00740061796439
0.0246086670904
0.139731809966
0.00127448131673
0.00132835130853
0.00146048740205
0.00151273134634
0.00153494655136
0.00154687228092
0.00155598565908
0.00156499467775
0.00157488143567
0.0015861513551
0.00159992674418
0.00162041514144
0.00166338291449
0.00177796293779
0.00207888533276
0.00275416412065
0.00413769913147
0.00775845927468
0.0253577045061
0.141910757065
0.00127971611763
0.00133414821557
0.00146634065012
0.0015180141045
0.00153953455047
0.00155081406761
0.0015593366558
0.00156776272742
0.00157702751598
0.00158764414428
0.00160070233057
0.00162041420732
0.00166234287312
0.00177467587439
0.00206865757726
0.00272801801366
0.00412423034103
0.00799097625317
0.0250559037277
0.117687878709
0.00128407506972
0.00133910202989
0.00147129835533
0.00152241335717
0.00154329055327
0.00155398593407
0.00156197397437
0.00156987263731
0.00157858068363
0.00158858235409
0.00160086856977
0.00161925598986
0.0016579496686
0.00176142556126
0.00203352926274
0.00265880338001
0.00406346127767
0.0080726159669
0.0253845595885
0.127338434652
0.00128760607325
0.00134326194939
0.00147538698426
0.00152595881883
0.00154624132251
0.00155641367863
0.00156392832718
0.00157135448967
0.00157956059784
0.00158898941481
0.00160050394788
0.00161734438689
0.00165152901439
0.00174122002468
0.0019817807496
0.00257287399972
0.00404513824381
0.00824888462558
0.0236629109225
0.114952167152
0.00129038017289
0.00134667030774
0.00147865223796
0.00152869479902
0.00154842980493
0.0015581347155
0.00156523269414
0.0015722447512
0.00158000721579
0.00158893018835
0.00159977967456
0.00161528176394
0.00164532696206
0.00172184222211
0.00193279611029
0.00250384360805
0.00410588409414
0.00865178731852
0.0199990760935
0.0621397946764
0.00129249694453
0.00134933481317
0.00148112240442
0.00153066501704
0.00154990248389
0.00155919071974
0.00156592312802
0.00157257361991
0.00157995120304
0.00158844504225
0.00159877874849
0.00161338844927
0.00164082003026
0.00170894025114
0.00190160285402
0.00247023947113
0.00424022725071
0.00960576810425
0.0216721282553
0.0706199479009
0.00129402755163
0.00135127744059
0.00148282141152
0.00153189897173
0.00155069501117
0.00155962155044
0.00156603608011
0.00157237326233
0.00157941312775
0.0015875471046
0.00159750006011
0.00161166274198
0.00163814868776
0.00170330711163
0.00188980274558
0.00246699764594
0.00439916694312
0.0108338661546
0.028312491932
0.111126626112
0.00129516140791
0.00135254740818
0.0014837711495
0.00153241428112
0.00155083450537
0.00155945817511
0.00156560162949
0.00157166600063
0.00157841235855
0.00158624380322
0.00159592967367
0.00160997991785
0.00163669295485
0.00170243929789
0.00188967288206
0.00247507501965
0.00452645597895
0.0118682754174
0.0345599799321
0.16036765918
0.00129589184476
0.00135317994819
0.00148401589443
0.00153226795106
0.001550371402
0.001558740509
0.00156465358423
0.0015704800363
0.00157697356659
0.00158454988871
0.00159405589188
0.00160821139791
0.00163577942351
0.00170372941602
0.00189459510772
0.00249194796139
0.00467433645005
0.0128492782868
0.0378303880554
0.142925890442
0.00129616994702
0.00135320248902
0.00148362572196
0.00153152046944
0.00154935171923
0.00155750620396
0.00156322290553
0.00156884552062
0.00157512255867
0.001582490737
0.00159189043831
0.00160630157776
0.00163502974945
0.00170592833045
0.00190360933187
0.00253131703928
0.0049144721837
0.0139126166694
0.0391318406407
0.112579115505
0.001296006364
0.00135269871291
0.00148266425027
0.00153021967148
0.00154781459381
0.00155578891117
0.0015613400537
0.00156678895065
0.00157288390719
0.00158009051738
0.00158945534529
0.00160424002818
0.00163435839253
0.00170900785492
0.00191854807438
0.00260247156181
0.00525684564007
0.0150982183102
0.0417179656286
0.0927789358498
0.0012953477853
0.00135171481945
0.00148118098955
0.00152840703892
0.0015457944172
0.00155361856504
0.00155903387633
0.0015643403755
0.00157028961355
0.0015773842081
0.0015867884254
0.0016020676727
0.00163379560019
0.00171286390592
0.00193761897332
0.00269095284895
0.00561538044443
0.0160940444698
0.0444454238742
0.105716322589
0.00129417974518
0.00135025276927
0.00147920346749
0.00152612002552
0.00154332773882
0.0015510285815
0.0015563335863
0.00156152494651
0.00156735783907
0.0015743788968
0.00158388159551
0.00159975423594
0.00163326091001
0.00171696960243
0.00195667488551
0.0027713921169
0.00589193803999
0.0166570349954
0.0452943074489
0.103442420278
0.00129252641162
0.00134832604748
0.00147675370867
0.00152337921629
0.00154043096192
0.00154803353496
0.00155325563219
0.00155836822507
0.00156413164723
0.00157113930729
0.001580822076
0.00159739793075
0.00163282789
0.00172132433659
0.00197500530754
0.00284167051895
0.00612158221026
0.0171284736252
0.0462961679277
0.111191189484
0.00129034856157
0.00134597626231
0.00147387847914
0.00152023381279
0.00153715222371
0.00154467783962
0.00154983589198
0.00155488864927
0.00156060629683
0.00156763231906
0.00157754466775
0.00159490920393
0.0016323834433
0.00172573216618
0.00199259211823
0.00290275947009
0.00631310460832
0.0175807518076
0.0479030071339
0.121236619121
0.00128769006379
0.0013432114724
0.00147060250743
0.00151670526879
0.00153350817789
0.0015409740131
0.00154609231413
0.0015511118857
0.00155681550272
0.00156390060572
0.0015741005128
0.00159234473194
0.00163204644166
0.0017306393807
0.00201116721532
0.00295999356709
0.00644400159866
0.0177705067553
0.048864992942
0.127451963198
0.00128463039451
0.00134006470364
0.0014669508034
0.00151281770892
0.00152952399359
0.00153695144056
0.00154205380775
0.00154706586351
0.00155278403078
0.00155996342012
0.00157049977504
0.0015897151468
0.00163186353563
0.00173620057163
0.00203100989865
0.0030133844132
0.0065240486079
0.0177108271655
0.0486738347104
0.1284165073
0.00128111851462
0.00133657280124
0.00146295101467
0.00150859569908
0.00152522589987
0.00153263651178
0.00153774289931
0.00154277001228
0.00154852799471
0.00155582928012
0.00156673685992
0.00158699449988
0.00163169745581
0.00174185298341
0.00205007991759
0.00305830170306
0.00656644698415
0.0175498792684
0.0482685494324
0.128575795067
0.00127728620532
0.0013327419276
0.001458613681
0.00150405753516
0.00152063275511
0.00152804906528
0.00153318102107
0.00153824481749
0.00154406220228
0.00155150735937
0.0015628089447
0.00158412309748
0.00163124922909
0.00174650305076
0.00206521913708
0.00308992674542
0.00658890013282
0.0174630915655
0.0481369667937
0.129575713772
0.00127309011062
0.00132859886968
0.00145396646858
0.00149922326123
0.00151576674113
0.00152320969598
0.00152839148511
0.00153351031751
0.00153941313743
0.00154701455303
0.00155873927042
0.00158099539771
0.00163012728941
0.00174897277083
0.00207411144053
0.00310949732331
0.00661709355531
0.0175176255238
0.0488509635633
0.145649052565
0.00126853181551
0.00132414794891
0.00144901991883
0.00149411024753
0.00151064525895
0.00151813839025
0.00152338635805
0.00152859067152
0.00153459863078
0.00154240552038
0.0015545017489
0.00157760391655
0.00162813662624
0.00174856306215
0.00207457085313
0.00311253716063
0.00664682103778
0.0176789336707
0.0496401561225
0.159164704176
0.00126373299196
0.00131939145586
0.00144379028651
0.00148874419863
0.00150529069075
0.00151285669659
0.00151820340253
0.0015235243408
0.00152968170844
0.00153770983458
0.00155024765639
0.00157411661807
0.00162576329106
0.00174655168242
0.0020687460433
0.0030985979431
0.0066644655169
0.0179074956709
0.0505467872696
0.160413310408
0.00125862512735
0.00131438657226
0.00143831095581
0.00148314223801
0.00149972962891
0.00150739619312
0.00151286693395
0.00151832742259
0.00152465756226
0.00153294402524
0.00154597725861
0.00157079253607
0.0016240183493
0.0017468427429
0.00206979160008
0.00309592216851
0.00667412725482
0.0180852047231
0.0513695014149
0.16133440834
0.00125319639742
0.00130914334464
0.00143260398932
0.00147733948495
0.00149399276319
0.0015017855728
0.00150740606386
0.00151303350807
0.00151956386612
0.00152815593607
0.00154173717911
0.00156769070898
0.00162329863455
0.00175141828087
0.00208699400674
0.00313437591873
0.00669402257372
0.0179853130825
0.0514292132614
0.161667716879
0.0012475152901
0.00130366168668
0.00142669476872
0.00147136212667
0.00148810739628
0.00149605273248
0.00150184982125
0.00150767018406
0.0015144336431
0.0015233546752
0.00153753903693
0.00156467806131
0.00162273990912
0.0017565784288
0.00210755130198
0.00318716540496
0.00671833501248
0.0176329077865
0.0506394563033
0.161396423187