/*--------------------------------*- C++ -*----------------------------------*\
| =========                 |                                                 |
| \\      /  F ield         | OpenFOAM: The Open Source CFD Toolbox           |
|  \\    /   O peration     | Version:  v2012                                 |
|   \\  /    A nd           | Website:  www.openfoam.com                      |
|    \\/     M anipulation  |                                                 |
\*---------------------------------------------------------------------------*/
FoamFile
{
    version     2.0;
    format      ascii;
    class       volScalarField;
    location    "3.7";
    object      nut;
}
// * * * * * * * * * * * * * * * * * * * * * * * * * * * * * * * * * * * * * //

dimensions      [0 2 -1 0 0 0 0];


internalField   nonuniform List<scalar> 
1984
(
0.00031055179869
0.000377731243358
0.000386451572918
0.000389756823338
0.000391375243877
0.000392493100444
0.000393483387563
0.000394468729911
0.000395515401813
0.000396749056899
0.000398507537989
0.000401604384309
0.000407771439584
0.000420868537979
0.000452650341693
0.000540245723227
0.000747855683183
0.0010925480113
0.0015489968782
0.00225092777332
0.000378266351407
0.000559558480983
0.00057526701909
0.000581031254175
0.000583588086776
0.000585143095967
0.00058641586096
0.000587655734046
0.00058899131559
0.000590663257247
0.00059326430348
0.000598154673882
0.000608254431541
0.000630211280795
0.000682795876988
0.000815676537737
0.00109887999799
0.00152869584383
0.00208751268574
0.00303022209723
0.000387644385976
0.000576671885635
0.000593921773948
0.000600199081947
0.000602877570555
0.000604432556023
0.000605685673157
0.000606907117414
0.000608250469017
0.000609971361422
0.000612713044741
0.0006179217942
0.00062868086808
0.000652027398979
0.000706939825848
0.000839944704725
0.00111659561627
0.00154909912463
0.00212338725998
0.00304261667454
0.000391336007847
0.000583312681969
0.000601193117409
0.000607674569501
0.000610375985511
0.000611901378146
0.000613119622065
0.000614319657558
0.000615650282586
0.000617388245042
0.000620168032375
0.000625445572331
0.000636298057475
0.000659797002474
0.000714902386511
0.00084658644774
0.00111617996001
0.00154383212007
0.00213138485651
0.00305057858908
0.000393079241137
0.000586265815307
0.000604385584353
0.000610925140972
0.000613601410573
0.000615078857587
0.000616250839029
0.000617413772695
0.000618723158771
0.000620433314744
0.00062318100596
0.00062837573807
0.000639002876391
0.000662055292455
0.000716655535048
0.000847556250153
0.00111151207193
0.00152955044006
0.00212153110384
0.00305169747462
0.00039414928592
0.000587905184448
0.00060610417334
0.000612639070064
0.000615269448462
0.00061668999073
0.000617808868504
0.000618926199187
0.000620195200485
0.000621864261622
0.000624533516899
0.000629569499459
0.000639842158766
0.000662202107864
0.000715938434696
0.000846638049523
0.00110864760225
0.00152140685842
0.00211771160969
0.00305461959602
0.000394983068594
0.000589086411717
0.000607301743914
0.000613808612917
0.000616387427433
0.000617749764847
0.000618813677387
0.000619880583077
0.000621101287275
0.00062271386118
0.000625292457644
0.000630150021967
0.000640056249238
0.000661683025218
0.000714263489505
0.000843789931674
0.00110387959128
0.00151365007985
0.00211763283073
0.00305943452276
0.000395734933886
0.000590101433225
0.000608316616417
0.000614792132289
0.000617322039579
0.000618629954357
0.000619639886146
0.00062065625583
0.000621826582758
0.000623377496321
0.000625857515239
0.000630535733736
0.000640108904317
0.000661117492172
0.000712486126032
0.0008398518071
0.00109599342288
0.00150211782819
0.0021154446671
0.00306411919695
0.000396445386118
0.00059105256461
0.0006092652587
0.000615712702958
0.000618199107671
0.000619458674593
0.000620419335578
0.000621387244387
0.000622506716366
0.000623994745245
0.000626376363547
0.000630876941865
0.000640123796939
0.000660504508575
0.000710528621294
0.000835068867324
0.00108632390782
0.00148813288883
0.00211011820186
0.00306714121168
0.000397128120887
0.000591971873034
0.000610183890448
0.000616608583422
0.000619057639036
0.000620274033169
0.000621191040691
0.000622114471539
0.00062318643638
0.00062461277652
0.000626895115585
0.000631218178037
0.000640136104112
0.00065983873327
0.000708204890878
0.000828988011273
0.00107459108421
0.00147299057481
0.00210305528682
0.00306822004281
0.000397787373285
0.000592861686466
0.000611079766175
0.000617487911341
0.000619906103878
0.000621085200933
0.000621963071364
0.00062284662088
0.000623874162666
0.000625242345089
0.000627429175763
0.000631583000602
0.00064020600191
0.000659339636809
0.000706237778233
0.000823460117834
0.00106503925612
0.00146404047888
0.00209713202948
0.00306619015536
0.000398420962068
0.000593724055349
0.000611952845109
0.000618349618185
0.000620742663953
0.000621890242555
0.000622733856131
0.000623581429939
0.000624568788362
0.000625881514369
0.000627977534576
0.000631973752719
0.000640364793366
0.000659238867437
0.000705721739239
0.000821502117418
0.00106172259223
0.00146297340656
0.00209328482946
0.00306345944513
0.000399019747419
0.000594555375632
0.00061280050172
0.000619190575784
0.000621563105448
0.000622684131994
0.000623498544907
0.000624314465375
0.00062526468236
0.000626525459598
0.000628531965647
0.000632365533836
0.000640493802118
0.000658994271754
0.000704817755201
0.000819196084143
0.00105898288403
0.00146206709739
0.00208744370421
0.00306046130188
0.000399588751514
0.00059535448975
0.000613619460754
0.000620006645486
0.00062236292195
0.000623461568051
0.000624250984839
0.000625039651747
0.000625956740654
0.000627168220558
0.000629086202897
0.00063274340802
0.000640532408408
0.000658354170235
0.000702688408832
0.000814512458439
0.00105300792766
0.00145565062644
0.00207404873869
0.00305522729802
0.000400136358505
0.000596107110839
0.000614401665496
0.000620792903526
0.000623137648999
0.000624217863619
0.000624985693368
0.000625751023904
0.000626638622221
0.00062780646797
0.000629635512491
0.000633107942513
0.000640486047077
0.000657325935176
0.000699334446584
0.000807497200004
0.00104347163956
0.0014417462341
0.00205085119368
0.00304719335721
0.000400653064307
0.000596817665296
0.000615144987744
0.000621544774096
0.000623882268384
0.000624948339334
0.000625699167337
0.000626444345421
0.000627308986851
0.000628433974939
0.0006301850059
0.000633487291107
0.000640508671797
0.000656561494645
0.000696811577096
0.00080188742617
0.00103387237343
0.00142347449248
0.00202037429527
0.00303632851144
0.00040113896689
0.000597486262009
0.000615845666996
0.00062225736445
0.000624593351593
0.000625650024305
0.000626387463764
0.000627118114704
0.000627960054643
0.000629053312301
0.000630735797458
0.000633896184347
0.000640652111583
0.000656246195668
0.000695605719155
0.000798602893612
0.00102663058344
0.00140788546379
0.00198950884959
0.00300889307387
0.00040159393012
0.000598101867688
0.000616501660862
0.000622930584567
0.000625267792325
0.000626319694054
0.000627047732409
0.000627766275085
0.000628593603208
0.000629657525363
0.000631279746541
0.000634307588375
0.000640818594804
0.000656015135363
0.000694657474216
0.000796196582338
0.00102180920825
0.00139863629831
0.00193944898756
0.00249270539162
0.000402007269548
0.000598669569154
0.000617112722913
0.000623561233231
0.000625905311781
0.000626952915409
0.000627676029982
0.000628386456465
0.000629200934647
0.000630238980077
0.000631800118642
0.00063468549069
0.000640895953755
0.000655503488969
0.0006929349306
0.000792510046098
0.00101750490256
0.00139378414925
0.00190871555504
0.00241693197917
0.000402379395708
0.000599185898786
0.000617675832978
0.000624148740789
0.000626500009875
0.000627549987564
0.000628270062168
0.000628974963375
0.000629779786818
0.000630796136272
0.000632298286485
0.000635032582429
0.000640895223422
0.000654756135192
0.000690587818901
0.000787644659874
0.00101227487633
0.0013907051772
0.001904214845
0.00252721603132
0.000402713694458
0.000599651469328
0.000618188764995
0.000624689108656
0.000627053134048
0.000628106894507
0.000628827142022
0.000629529978725
0.000630328761438
0.00063132706074
0.000632775737577
0.000635363877174
0.000640876690234
0.000653975090687
0.000688219245293
0.000782892458705
0.00100691473171
0.00138716732625
0.00189790476386
0.00251660187377
0.000402999170857
0.000600065506447
0.000618652449228
0.00062518246595
0.000627561406603
0.000628622309019
0.000629345802313
0.000630050207831
0.0006308470835
0.00063183207925
0.000633233865538
0.000635688075146
0.000640875317396
0.000653267162021
0.000686081784418
0.000778523886144
0.00100101495918
0.0013811328461
0.00188303668034
0.00235488112572
0.000403240913835
0.000600423104058
0.000619063590051
0.000625625934245
0.00062802252591
0.000629093691567
0.000629824030487
0.000630533948742
0.000631333342738
0.000632310372457
0.000633672936911
0.000636007736602
0.000640901624378
0.000652665034132
0.000684191664054
0.000774227710893
0.000993851959677
0.00136935027462
0.00185113434447
0.0022858845429
0.000403433583014
0.000600722457486
0.000619420805943
0.00062601810354
0.000628434701834
0.000629518444987
0.000630259303863
0.000630978556166
0.000631784915973
0.000632759952769
0.000634091911893
0.000636321481576
0.000640948120449
0.000652121400511
0.000682327283014
0.000769345814975
0.000983790743209
0.00135251662617
0.0018158869779
0.00221655635651
0.00040358878546
0.000600967911168
0.000619723398373
0.000626357800486
0.000628796925012
0.000629895994143
0.000630649992133
0.000631381947909
0.000632199586752
0.000633178491818
0.000634487455135
0.000636625026687
0.0006410014812
0.000651580049271
0.000680260806345
0.000763126419725
0.000970386679482
0.00133305464356
0.00178776172487
0.00217739499978
0.000403716476416
0.000601159987364
0.00061996946438
0.000626642318138
0.000629106286252
0.000630223236866
0.000630993474854
0.00063174119218
0.000632574196803
0.000633561589375
0.000634856578814
0.000636915331552
0.000641056996146
0.000651013207618
0.000677803342483
0.000754979784465
0.000953167629328
0.00131009945214
0.00175515227343
0.00214253124568
0.000403795354005
0.000601299005127
0.000620159067389
0.000626871003549
0.000629362353775
0.000630500474112
0.000631289320863
0.000632056778165
0.000632910231968
0.000633911364752
0.000635199877901
0.000637191667617
0.0006411172408
0.000650469500087
0.000675288684776
0.000746000378435
0.000932767296012
0.00128360819712
0.00172565043149
0.00211116602647
0.000403825250534
0.000601381336957
0.00062028832179
0.000627038444728
0.000629558960394
0.000630720230544
0.000631530706955
0.000632321089927
0.000633199187341
0.000634221994447
0.000635515621978
0.000637455641625
0.000641202303418
0.000650066003692
0.000673388780226
0.000738694766517
0.000913210829724
0.00125503362005
0.00170497892049
0.00212221327937
0.000403818061884
0.000601397192791
0.000620349689006
0.000627139421011
0.000629692029076
0.000630879780347
0.000631714831712
0.000632530749626
0.000633434257544
0.000634482712384
0.000635791946598
0.000637701856296
0.000641307988573
0.00064982154393
0.000672349775057
0.000734733190494
0.000899171909571
0.00123018347434
0.00170259842785
0.002195740312
0.000403774854588
0.000601334761074
0.000620332797852
0.000627166838822
0.000629756283898
0.000630974754988
0.000631838137038
0.000632683145217
0.000633617667822
0.000634698245338
0.000636030208406
0.000637931214399
0.000641445328689
0.000649735041554
0.000671931260968
0.000733138047747
0.000890114335797
0.00120844091524
0.00175121473757
0.00294025865138
0.000403689929027
0.000601192367359
0.00062022755064
0.00062711145057
0.000629744839241
0.000630999635137
0.000631896071663
0.000632774091274
0.000633744107571
0.000634862415745
0.000636227978107
0.000638150523278
0.000641659426948
0.000649950878042
0.000672211720163
0.000732592444664
0.000881830566003
0.00117830889402
0.00171718554496
0.00302628148628
0.000403560389323
0.000600960746931
0.000620026902149
0.000626964661507
0.00062965008508
0.000630948423028
0.00063188358412
0.000632799882837
0.000633811093206
0.000634974768102
0.00063638869623
0.00063837821609
0.000642038076906
0.000650782615622
0.000673869477791
0.000733189022605
0.000870985277098
0.0011282084349
0.0015613527462
0.00250940918534
0.000403367660987
0.000600625778231
0.000619724403204
0.000626722539029
0.000629467446508
0.000630816482447
0.000631796728034
0.000632757764615
0.000633816691551
0.000635034444631
0.000636514919072
0.000638630592777
0.000642656084884
0.000652501561405
0.000677655462328
0.00073663017023
0.000862471746399
0.00109394529514
0.0015175829953
0.00297352017165
0.000403103453413
0.00060018122368
0.000619313946179
0.000626379205218
0.000629190968175
0.000630597788732
0.000631630343959
0.000632643186509
0.000633758195413
0.000635040134952
0.000636606887546
0.000638905033105
0.000643482768395
0.000654967155304
0.000683286650544
0.000743488694236
0.000860713651468
0.00108953231875
0.00158681337533
0.00250886550151
0.000402757787164
0.000599625163773
0.00061878876244
0.000625926642558
0.000628813144372
0.000630285961785
0.000631378593364
0.00063245151814
0.000633630983911
0.000634986684147
0.000636653706343
0.000639157183726
0.00064432099631
0.000657465461274
0.000689117943905
0.000751926659126
0.000865004284427
0.00109457247194
0.00160378371335
0.00248148494789
0.000402322837899
0.000598948944866
0.000618141494795
0.000625357429397
0.000628326746715
0.000629874466863
0.000631036013198
0.000632177780114
0.000633430291519
0.000634866437816
0.000636633852255
0.000639305111253
0.000644878923975
0.000659125230668
0.00069317756491
0.000758806189333
0.000871010985023
0.00109834123383
0.00169017184491
0.00307260568477
0.000401792817425
0.000598142435722
0.000617365565149
0.000624664998625
0.000627725648178
0.000629357814831
0.000630598077952
0.00063181795449
0.000633152256089
0.000634674990603
0.000636532537908
0.000639306661236
0.000645070642209
0.000659815055731
0.000695101878213
0.000762526606195
0.000874417728211
0.00111206909262
0.00188354405773
0.00311089615069
0.000401174866863
0.000597201234409
0.000616455222266
0.000623843685201
0.000627004682264
0.000628731380733
0.000630060575028
0.000631369236652
0.000632795678673
0.000634413265376
0.000636369220008
0.000639255647562
0.000645177792231
0.000660231701193
0.000696041201726
0.000764043024128
0.000877965752237
0.00113480206366
0.00194579009538
0.00314873946139
0.000400462185598
0.000596125383246
0.000615409315526
0.000622890850568
0.000626159777115
0.000627991016295
0.000629420591887
0.000630829999644
0.000632360617078
0.000634085161645
0.00063616127988
0.000639205916652
0.000645421379152
0.000660951589842
0.000697162828546
0.00076548176241
0.000881541693166
0.00115030350975
0.00196036475246
0.00316317786634
0.000399658994065
0.000594908421579
0.000614225810489
0.000621805694661
0.000625189587515
0.000627134872562
0.000628676615646
0.000630201946973
0.00063184966078
0.000633694666694
0.000635890564893
0.000639055596033
0.00064537744584
0.00066090753278
0.000696864272803
0.000765390405187
0.00088535344931
0.00116566681615
0.00195782057846
0.00311545485685
0.000398745646412
0.000593564709769
0.000612915662961
0.000620592996357
0.000624095557233
0.000626162901344
0.000627830767485
0.000629482937253
0.000631263704344
0.000633236650977
0.00063553073704
0.000638669638271
0.000644578078652
0.000658844223376
0.000692954121365
0.000761948512081
0.000887272211963
0.00117857366407
0.001995319442
0.00311227955758
0.000397742492318
0.00059210835581
0.000611491728856
0.000619263979294
0.00062288412124
0.000625079674594
0.000626879922189
0.00062867524751
0.000630608215842
0.000632728439774
0.000635122654219
0.000638190770314
0.000643499973735
0.000656018621661
0.000687647850906
0.000757798538926
0.000894562805683
0.00121177003221
0.00201090698109
0.0030997396437
0.000396647433623
0.000590563594514
0.000609974668702
0.000617832136651
0.000621564489034
0.000623882394471
0.000625821143916
0.000627769916468
0.000629868708844
0.000632156470397
0.000634684447599
0.000637763120327
0.000642725970545
0.000654107964205
0.000684169367768
0.000755935559413
0.000903429974206
0.00123980937098
0.00201085386132
0.00309007305161
0.000395475733062
0.000588964749065
0.000608399314474
0.000616326185869
0.00062014794258
0.000622567954734
0.000624612641845
0.000626680817051
0.000628927157851
0.00063139154098
0.000634087551637
0.000637290584441
0.000642349320869
0.000653820603998
0.000684243826633
0.00075774288344
0.000908846127778
0.00124651798002
0.00199897070999
0.00307552521576
0.000394260355459
0.000587363813842
0.00060681220648
0.000614775374889
0.000618636008959
0.000621066201099
0.00062306966444
0.000625049350225
0.000627293477926
0.000629902856504
0.000632779868206
0.000636161866721
0.000641762366053
0.000654801210505
0.000687732331161
0.000762843071247
0.000908933135072
0.00123001215897
0.00200937681506
0.00307521353116
0.000393052498286
0.00058582567755
0.000605272930238
0.000613213661762
0.000616988236118
0.000619167535608
0.000620616441385
0.000621669378129
0.000623413497865
0.000626049062225
0.000629130547194
0.000632628113959
0.000639098869695
0.000656075184091
0.000694700484881
0.000773936584399
0.000915426278942
0.00121845175475
0.00199061793494
0.00306483836192
0.000391890077031
0.00058443045791
0.000603846403658
0.000611664956325
0.000615096426664
0.000616356114851
0.0006156420019
0.000612585254491
0.000611606828971
0.000614162056404
0.000617576310962
0.000620721549209
0.0006297443849
0.000655685674247
0.000704991732881
0.000792455237778
0.000931101528047
0.00120869632159
0.0019283155258
0.00305008397447
0.000390839403812
0.000583253092495
0.000602599615896
0.000610161747737
0.000612876991107
0.000612155764974
0.000605971037941
0.000589610854408
0.000424671729865
0.000423537165199
0.000426353209076
0.000434266307209
0.00061421090523
0.000658968442838
0.000722725318371
0.000820870717512
0.000957535755057
0.00121888996228
0.00192898102787
0.00306132281535
0.000389935776789
0.000582299689977
0.000601590979687
0.000608865696496
0.000610782220722
0.000608001834224
0.000596143558099
0.000411587892865
0.000459849431274
0.000695656197265
0.000772924751623
0.000868005788
0.00099217928221
0.00123661500194
0.0019070384909
0.00302197159319
0.000389337255569
0.000581770428473
0.000601053566061
0.000608158048089
0.000609591166626
0.000605592689645
0.000590727153788
0.000401112584009
0.000480989591132
0.000745173736852
0.000828463279645
0.000913871588969
0.00102235500838
0.00124364032641
0.00187821298928
0.0031445663496
0.000389335350679
0.000581767364216
0.000601051996107
0.000608157693897
0.000609591567313
0.000605594481587
0.00059073392498
0.000401135277354
0.000481074080096
0.00074537942774
0.00082876123799
0.000914451233217
0.00102569275983
0.00124743673932
0.00177016205514
0.00272051762285
0.000389933237587
0.00058229553398
0.000601589162754
0.000608866252207
0.000610784787662
0.000608006479965
0.000596148234245
0.000411650569713
0.000459883715119
0.000695760443757
0.000773283228388
0.000869040631799
0.000993520146098
0.00123958854093
0.00191098959076
0.00299908910123
0.000390836650331
0.000583249180543
0.000602598355854
0.000610164237514
0.000612883237522
0.000612160761279
0.000605960517612
0.000589575340517
0.000424694825963
0.000423557976657
0.000426372822439
0.000434340365367
0.000614366739844
0.000659228217575
0.00072361133208
0.000822579467351
0.000958842964999
0.00122218216327
0.00196049506662
0.00306272668589
0.00039189246649
0.000584431842984
0.000603849584
0.000611671179577
0.000615106037468
0.000616367961356
0.000615653605354
0.000612604672237
0.000611629040998
0.000614189371902
0.000617604811397
0.000620785996103
0.000629934020264
0.000656169788686
0.000706361499782
0.000796187859819
0.000941077768548
0.001238481198
0.00196859800091
0.00305396308289
0.000393058417138
0.000585829682939
0.000605278970437
0.000613222738814
0.000617000748933
0.000619183517355
0.000620635537817
0.000621690020954
0.000623435400626
0.000626074104288
0.000629161651793
0.000632684253429
0.000639267172777
0.000656554484617
0.000696287955222
0.000779422778548
0.000937853268688
0.00128168816182
0.00198845781119
0.00305384357351
0.000394267804176
0.000587369234253
0.000606820089303
0.000614785815519
0.000618649332932
0.000621082622149
0.000623089248145
0.000625069976273
0.000627314709481
0.000629924388229
0.000632808315516
0.000636207544623
0.000641859004191
0.000655122917373
0.000688851295864
0.000766652696809
0.000924461387481
0.00129038765025
0.00207198435863
0.00307189135464
0.000395482550358
0.000588971044892
0.000608407336684
0.000616338169193
0.000620163610056
0.000622584577354
0.000624631608035
0.000626700353624
0.000628946104169
0.000631410972246
0.000634107220812
0.000637320599259
0.000642406199397
0.000653969969214
0.000684596544187
0.000758340354937
0.000910490077514
0.00126427718358
0.00206610395645
0.00307965457069
0.000396656304257
0.000590571455095
0.000609984885875
0.000617845927374
0.000621581699515
0.000623902057913
0.000625839886722
0.000627788204196
0.000629886015887
0.000632173489003
0.000634700062561
0.000637780604684
0.000642747406777
0.000654111724405
0.000683916525768
0.000754345604754
0.000896429965172
0.00122508613864
0.00201734333573
0.00307673009293
0.000397753880451
0.000592118183992
0.000611503549211
0.000619278277168
0.000622900969514
0.00062509774233
0.000626898038758
0.000628692941072
0.000630622488413
0.000632738959618
0.000635131922546
0.000638195845173
0.00064349240952
0.000655936262874
0.000687187050045
0.000756021291197
0.000890198941812
0.001210254125
0.00200178874205
0.00307455850019
0.000398756716202
0.000593575451393
0.000612927936273
0.000620607693624
0.000624112345432
0.000626181121657
0.000627848138477
0.00062949913411
0.00063127709506
0.000633247360172
0.000635538295694
0.000638670825907
0.000644557023867
0.000658741698726
0.000692622158993
0.000761522099497
0.0008912487093
0.00121036475853
0.00199288401989
0.0030751965438
0.000399669511116
0.000594918708972
0.000614238109825
0.000621820523479
0.000625206628438
0.000627153488237
0.000628695951324
0.000630219199242
0.00063186486948
0.000633707322577
0.000635901544218
0.000639059160257
0.000645354482803
0.00066080067279
0.000696530958947
0.000764720416864
0.000886154483783
0.00119379551489
0.00202995337766
0.00309226590084
0.000400471425684
0.000596135140169
0.000615421600296
0.000622906071202
0.000626177650005
0.000628010760808
0.000629441071439
0.000630850637414
0.000632380031951
0.000634102481867
0.000636177582326
0.000639215326306
0.000645408111753
0.000660874624447
0.000696925789636
0.000764768606888
0.000879399940276
0.00115827236022
0.00200766840219
0.00314520239301
0.00040118362176
0.000597211253767
0.000616467565815
0.000623859069179
0.000627022977567
0.000628751929537
0.000630082174857
0.000631392072143
0.000632818874892
0.000634434639861
0.0006363925041
0.00063927207001
0.000645179302069
0.000660172858654
0.000695851474997
0.000763520153836
0.000874868998883
0.0011264060058
0.00198344280097
0.00315167671064
0.000401801063213
0.000598152045405
0.000617377331161
0.000624679967629
0.000627744049469
0.000629378824358
0.000630620855996
0.000631842215412
0.000633178192806
0.000634701405355
0.000636560945028
0.000639329124435
0.000645077553438
0.0006597904678
0.000695005406502
0.000762357772172
0.000873636837373
0.00111114860879
0.00191059118872
0.00311248772551
0.000402329617678
0.000598953124209
0.000618148955059
0.000625368666369
0.000628341736979
0.000629892850499
0.000631057700009
0.000632203482908
0.000633457891904
0.000634894076114
0.000636665117381
0.000639332283868
0.000644903769687
0.000659132166415
0.000693138671977
0.000758765023654
0.000870699290682
0.00109731921273
0.00170584424798
0.0030634097177
0.000402763648619
0.000599626489322
0.000618793784147
0.000625936055406
0.0006288265846
0.000630303181619
0.000631399907872
0.000632477796276
0.000633662806019
0.000635022608209
0.000636695269526
0.000639191185084
0.000644354067837
0.000657487191425
0.000689126689701
0.000751989612004
0.000864931908282
0.00109430336212
0.00165251041155
0.00259474134826
0.000403108612328
0.00060018041403
0.000619317419724
0.000626387342885
0.000629203344482
0.000630614264798
0.000631651022
0.000632669210155
0.000633790971166
0.000635078451734
0.000636652032529
0.000638949775809
0.000643528328381
0.000655006667829
0.000683313363395
0.000743527112475
0.000860688115288
0.00109058607262
0.00162745844733
0.00261190611717
0.000403372178831
0.000600624358957
0.00061972735495
0.000626729980722
0.000629478937565
0.000630831894881
0.000631816281978
0.000632782832614
0.000633848833069
0.000635072626334
0.000636559719912
0.000638677534389
0.000642706568411
0.000652543484916
0.000677655929996
0.000736403105578
0.000861328378767
0.0010894140472
0.00150803929598
0.00222367757309
0.000403564739433
0.0006009598411
0.000620029791052
0.000626971664578
0.000629660808705
0.000630962754502
0.000631901840786
0.000632823130923
0.000633840848673
0.000635010415168
0.000636429788954
0.000638423594362
0.000642087688788
0.00065082056441
0.000673817074577
0.00073255388983
0.00086809129331
0.0011150202213
0.00148199424561
0.00216146263017
0.000403694511524
0.000601192665412
0.000620230985421
0.000627118369704
0.000629755016749
0.000631012929645
0.000631912721418
0.000632794718216
0.000633769955667
0.000634893636641
0.000636262977745
0.000638191764491
0.000641705464859
0.000649987028756
0.000672143620782
0.00073175998939
0.000877904759957
0.00115961260842
0.00160830483849
0.00250145364569
0.000403779825486
0.000601336227288
0.000620336870599
0.000627173924356
0.000629766202262
0.000630987275569
0.000631853279174
0.000632700876968
0.000633638998232
0.000634723959743
0.000636058177741
0.000637967028676
0.000641487396452
0.000649775105337
0.000671888333276
0.000732363369474
0.000886460959405
0.00119786699185
0.00176093815499
0.00294228665256
0.000403823257541
0.000601399454981
0.000620354488378
0.000627146985261
0.000629702065986
0.000630891923981
0.000631728871993
0.000632546125029
0.000633451658934
0.000634503609502
0.000635813780962
0.000637732719168
0.000641345962603
0.000649865539713
0.000672337971126
0.000734138508583
0.000896266335512
0.00122521887587
0.00175674842482
0.00255984866174
0.000403830808147
0.000601384300738
0.000620293949699
0.000627046824554
0.000629569499608
0.000630732347188
0.000631543917082
0.000632334617389
0.000633211905409
0.000634236797845
0.00063553305092
0.000637481287932
0.000641235126545
0.000650106157865
0.000673379786787
0.000738202263949
0.000911096832783
0.00125152037732
0.0017423925764
0.0025132124361
0.000403801065135
0.000601302657697
0.000620165775503
0.000626880334607
0.00062937350014
0.000630512491847
0.000631301768829
0.000632069152409
0.000632922219789
0.00063392587821
0.000635217764306
0.000637214102756
0.000641144965275
0.000650491269431
0.000675187019806
0.000745291713098
0.000931189604148
0.00128260467588
0.00172993557734
0.00216137973123
0.000403722542489
0.000601165071536
0.000619977873179
0.000626653351724
0.000629119064424
0.000630237072269
0.000631007257106
0.000631754973045
0.000632588212025
0.000633576957709
0.00063487432772
0.000636935907509
0.000641076964071
0.000650995532137
0.000677516433479
0.000753721671322
0.000951208935279
0.00131145764009
0.00177066591499
0.00216924568554
0.000403595455533
0.000600975128067
0.000619732950532
0.000626369193349
0.000628809458091
0.00062990905282
0.000630663056862
0.000631394538445
0.00063221210221
0.000633191638819
0.000634503479772
0.00063664545398
0.000641023685738
0.000651553556832
0.000679876605235
0.000761430675317
0.000967140170463
0.00133108159442
0.00179222371127
0.00221388595909
0.000403442172685
0.000600732264272
0.000619432055167
0.00062603065563
0.000628448163887
0.000629532444241
0.000630273580723
0.000630993023135
0.000631799840807
0.000632776124809
0.000634110630049
0.000636345283883
0.000640979702016
0.000652147041729
0.000682188382113
0.000768304952036
0.000981045079887
0.001349544759
0.00182678870254
0.00236876136626
0.000403249663673
0.000600433912956
0.000619075410923
0.000625638697425
0.000628035912055
0.000629107332604
0.000629837970493
0.000630548065314
0.000631347873815
0.00063232620733
0.000633691865868
0.000636034017478
0.000640947772857
0.000652775703906
0.000684475569008
0.000774594113589
0.000993210472078
0.00136760462048
0.00187147066675
0.00287073298728
0.000403007465866
0.000600076440237
0.000618664387869
0.000625195185256
0.000627574537108
0.000628635521338
0.000629358975795
0.000630063304082
0.000630860391167
0.000631846427941
0.000633251456759
0.000635715091317
0.00064093727393
0.000653483626562
0.000686884709896
0.000780466130373
0.00100243569545
0.00137932756163
0.00188183165019
0.0023651800777
0.000402721271465
0.00059966218243
0.000618200672497
0.000624701826551
0.000627066104032
0.000628119671914
0.000628839349534
0.000629541580266
0.000630339978708
0.000631338692198
0.000632790395875
0.000635389406078
0.000640951302342
0.000654278832867
0.000689415274736
0.000785868704622
0.00100909760004
0.00138443115234
0.00189035085186
0.00237408097934
0.000402386531122
0.000599196477496
0.000617686887949
0.000624160887819
0.000626513114806
0.000627562527829
0.000628281399658
0.000628984785445
0.000629788037866
0.000630803366844
0.00063230704725
0.000635051723698
0.000640968374289
0.000655081270119
0.000691834565605
0.000790545264604
0.00101396160064
0.0013874646056
0.00189597742926
0.00238583090441
0.000402014341724
0.000598679417308
0.000617123599591
0.000623573924951
0.000625917395818
0.000626965867054
0.000627687156359
0.00062839474217
0.000629205765902
0.000630240947123
0.000631799715875
0.000634692350114
0.000640946536761
0.000655751203645
0.00069380683054
0.000794196106661
0.00101810221507
0.00139192344133
0.0019068264142
0.00241178020168
0.000401601118348
0.000598112700293
0.000616513229569
0.000622942793546
0.000625280758358
0.000626331638699
0.000627058803798
0.000627773663313
0.000628596283836
0.000629653103392
0.000631271860465
0.000634298408039
0.000640836355046
0.000656147589743
0.000695081625187
0.000796836009334
0.00102231167236
0.00140033094413
0.00194213237763
0.00249343325637