/*--------------------------------*- C++ -*----------------------------------*\
| =========                 |                                                 |
| \\      /  F ield         | OpenFOAM: The Open Source CFD Toolbox           |
|  \\    /   O peration     | Version:  v2012                                 |
|   \\  /    A nd           | Website:  www.openfoam.com                      |
|    \\/     M anipulation  |                                                 |
\*---------------------------------------------------------------------------*/
FoamFile
{
    version     2.0;
    format      ascii;
    class       volScalarField;
    location    "3.7";
    object      p_rgh;
}
// * * * * * * * * * * * * * * * * * * * * * * * * * * * * * * * * * * * * * //

dimensions      [1 -1 -2 0 0 0 0];


internalField   nonuniform List<scalar> 
1984
(
8515.48150189
8515.04127005
8514.17995363
8512.88446153
8511.14644736
8508.95395036
8506.29209503
8503.14104834
8499.47383923
8495.2581355
8490.44698332
8484.98234662
8478.79036727
8471.7818074
8463.82688181
8454.64426944
8106.48202606
2525.6903578
0.0254528985747
0.0106788526974
8515.92284598
8515.4845265
8514.63012783
8513.34414187
8511.61803037
8509.44123536
8506.7994417
8503.67507413
8500.04112789
8495.87092262
8491.11721185
8485.72379077
8479.62633656
8472.73636135
8464.91927995
8455.81776717
8096.68655699
2567.19447213
0.0389713606851
0.0041917676711
8516.77729633
8516.34138828
8515.49630066
8514.22544575
8512.52077841
8510.37289092
8507.77002664
8504.69389552
8501.12479605
8497.04019204
8492.40428501
8487.16107622
8481.25628166
8474.61975662
8467.15123178
8458.51201708
8120.49222491
2625.90927233
0.0271025740781
0.00468471925496
8518.04932593
8517.61797837
8516.78580202
8515.53582986
8513.86104588
8511.75422666
8509.205027
8506.20248774
8502.71709306
8498.7515191
8494.27877353
8489.2483388
8483.62558634
8477.36457717
8470.37818199
8462.43109646
8149.10395876
2710.72863091
0.0230034544938
0.00308798714516
8519.73302119
8519.30901476
8518.49302223
8517.26869856
8515.63056547
8513.57377477
8511.09181453
8508.17584875
8504.80836686
8500.98187969
8496.69536014
8491.92317393
8486.64578002
8480.81944309
8474.4157393
8467.2713633
8181.96329371
2812.43222208
0.01592403764
0.00253716643406
8521.82101005
8521.4061169
8520.60841243
8519.41303681
8517.8161586
8515.81537331
8513.4080673
8510.58878145
8507.35129396
8503.69184389
8499.60851964
8495.11640341
8490.19435428
8484.83803969
8479.04835563
8472.73357901
8218.83407971
2919.34309495
0.00897079839466
0.00269845030204
8524.30486342
8523.89965502
8523.12153686
8521.95664483
8520.40306823
8518.46087794
8516.13089188
8513.41173591
8510.30677124
8506.81922019
8502.94751632
8498.73499568
8494.16434343
8489.26705964
8484.07027134
8478.53907571
8255.80181639
3025.32699047
0.00433038111911
0.00320310583621
8527.17527399
8526.78007518
8526.02142729
8524.88688006
8523.37619326
8521.49174295
8519.23699686
8516.61667209
8513.63898865
8510.3135072
8506.65265976
8502.69198127
8498.44768907
8493.96992201
8489.31116941
8484.48483367
8290.89645558
3129.95340283
0.00127921464183
0.00379998266107
8530.42323687
8530.03743508
8529.2973911
8528.19150924
8526.7210087
8524.89025105
8522.70508905
8520.17470752
8517.31052855
8514.12871118
8510.64837496
8506.91296246
8502.9547411
8498.83336096
8494.62640972
8490.38537125
8321.0378992
3232.55840325
-0.0016964505766
0.00439986006143
8534.04003111
8533.66265219
8532.9395343
8531.8592875
8530.42456892
8528.64044257
8526.51563476
8524.06158376
8521.29313523
8518.23050001
8514.89731172
8511.3407512
8507.6075427
8503.76443838
8499.90476078
8496.11037085
8346.66432494
3331.97745711
-0.00487417047446
0.00489572625533
8538.01779479
8537.64775841
8536.93909481
8535.88075608
8534.475454
8532.72930731
8530.65325438
8528.25832932
8525.56295264
8522.58781204
8519.36101735
8515.9293207
8512.34936165
8508.69255412
8505.06402629
8501.5603688
8367.82541672
3424.74842121
-0.00730162352767
0.00519078394266
8542.3500553
8541.98560031
8541.28895244
8540.24807484
8538.86573988
8537.14802457
8535.10682501
8532.7523938
8530.1035888
8527.18152403
8524.01468015
8520.64855797
8517.14403807
8513.57355784
8510.05213824
8506.674629
8385.16633389
3507.40662813
-0.00825626931166
0.00530789802179
8547.03173207
8546.67020635
8545.98356445
8544.95603002
8543.59049517
8541.89244838
8539.87133109
8537.53800629
8534.90929207
8532.00334622
8528.84910454
8525.48568766
8521.97624251
8518.3900655
8514.84535895
8511.43769013
8400.94275805
3577.34170579
-0.00721539441957
0.00516298767044
8552.05843734
8551.69675118
8551.01924239
8550.00163794
8548.64735314
8546.96120278
8544.94809146
8542.61685546
8539.98230625
8537.05914617
8533.87105509
8530.45028684
8526.8557298
8523.14900468
8519.45167153
8515.85073504
8413.48616462
3634.64025854
-0.00443293120573
0.00446585481966
8557.42739813
8557.06050683
8556.39411124
8555.38531187
8554.03815159
8552.35632219
8550.33985655
8547.99807645
8545.33796637
8542.36969465
8539.10552362
8535.5744696
8531.81639093
8527.89024827
8523.91362866
8519.97647606
8422.52317944
3679.47423258
-0.00112697615659
0.00233454472827
8563.12891232
8562.76160124
8562.11121419
8561.10713425
8559.7639463
8558.08296084
8556.06290437
8553.69952848
8551.00114571
8547.96367039
8544.59602709
8540.90316392
8536.91567315
8532.66971469
8528.29336413
8523.91496358
8426.89461847
3712.9420589
0.00174665141805
0.00185595027924
8569.15221637
8568.81624605
8568.16096834
8567.16390625
8565.83024165
8564.1469101
8562.12289111
8559.74077353
8556.99779333
8553.88645448
8550.39351889
8546.51081368
8542.23670237
8537.58115972
8532.6621311
8527.78278646
8428.37265045
3737.09778904
0.00241243768099
0.000482933026144
8575.515913
8575.19307793
8574.54547822
8573.56424505
8572.23993113
8570.56963932
8568.54364298
8566.15662879
8563.3736849
8560.18223235
8556.55862156
8552.47109322
8547.88827224
8542.7661947
8537.11444467
8531.52674275
8434.82296471
3752.797268
0.00478253145741
0.000857487986094
8582.20626163
8581.89512754
8581.26344166
8580.3024039
8579.00166972
8577.35665573
8575.35129867
8572.96280454
8570.15428555
8566.90184853
8563.16467773
8558.89140603
8554.02040069
8548.46894153
8542.18137926
8535.19514358
8450.27139432
3776.28319828
0.0129529981385
-0.00351728070441
8589.2141554
8588.91660827
8588.3067615
8587.37671109
8586.11842457
8584.51604216
8582.54566934
8580.17874037
8577.37826327
8574.1033264
8570.29741505
8565.89024018
8560.79257697
8554.88687101
8548.05986225
8540.19540698
8472.74620703
3813.2639373
0.0454390007226
-0.0144748524412
8596.52559951
8596.24526188
8595.66615532
8594.78047623
8593.57802109
8592.03583945
8590.12760763
8587.82260342
8585.07433259
8581.83068637
8578.02204426
8573.56111593
8568.33477991
8562.19389018
8554.98439332
8546.50672803
8499.19246251
3866.68269916
0.151559933476
-0.0191600379068
8604.12396405
8603.8649666
8603.32570856
8602.49828382
8601.36884333
8599.91436341
8598.10467038
8595.90364429
8593.26121008
8590.11574134
8586.38890783
8581.97927809
8576.75510882
8570.54307738
8563.14907688
8554.34616134
8530.32877015
3944.41643319
0.621156436832
0.0337614394004
8611.9882085
8611.75534614
8611.26586589
8610.51202054
8609.47912911
8608.14268584
8606.47044106
8604.42116817
8601.94431066
8598.97417437
8595.42618307
8591.1920793
8586.12909567
8580.04578607
8572.71329512
8563.87886209
8552.63129959
4071.5097894
3.17420971288
0.105229281437
8620.09189463
8619.8903629
8619.46124114
8618.79768037
8617.88458875
8616.69698496
8615.20197562
8613.35761567
8611.11237233
8608.40075439
8605.13955725
8601.21957157
8596.49671531
8590.77662604
8583.83117596
8575.35745718
8564.33791924
4265.00603776
9.36855020073
-0.0552717976608
8628.40326163
8628.23776328
8627.87953098
8627.32294374
8626.55307502
8625.54566742
8624.2687813
8622.68342395
8620.73932883
8618.37388801
8615.51398504
8612.05354398
8607.85823144
8602.74391741
8596.49127544
8588.86051387
8578.83507169
4512.32933807
23.5893023999
-0.00953917798787
8636.88583939
8636.7609129
8636.48380637
8636.05007535
8635.44606555
8634.64931247
8633.63090224
8632.35481333
8630.7764056
8628.84240321
8626.48728245
8623.62256655
8620.12864648
8615.84992393
8610.59982871
8604.24242256
8595.91748641
4813.33240804
52.5548246235
0.0259214831011
8645.49701199
8645.41661494
8645.2287911
8644.9310742
8644.51234864
8643.95388824
8643.23193874
8642.31659943
8641.1710458
8639.75407941
8638.01719734
8635.88102643
8633.24853711
8629.99455107
8625.98175571
8621.11309363
8614.92351405
5147.15925362
103.841598472
0.0640908972045
8654.19481254
8654.16300988
8654.07255129
8653.92360283
8653.70801194
8653.4115171
8653.01635401
8652.49840371
8651.82830451
8650.9789329
8649.92373371
8648.62014326
8646.95885319
8644.86312893
8642.23877792
8639.01994842
8634.9894763
5483.0373462
169.353080132
0.0502555225309
8662.93491052
8662.95192357
8662.96443621
8662.97406126
8662.97515507
8662.95817679
8662.91274055
8662.82363806
8662.67308304
8662.44673385
8662.1152835
8661.69290919
8661.08057287
8660.23015059
8659.08716243
8657.58391296
8655.56637527
5821.54901851
254.322268502
-0.0664904168345
8671.66205646
8671.73305967
8671.85103034
8672.02631412
8672.25310272
8672.5262408
8672.84498149
8673.20576151
8673.59677963
8674.02136713
8674.45691954
8674.9398975
8675.41138066
8675.85611655
8676.26313838
8676.61386322
8676.91493988
6152.6757578
361.848704886
-0.225587030326
8680.32682233
8680.45373998
8680.68573107
8681.02660602
8681.48454206
8682.06004291
8682.75042173
8683.55431475
8684.48403183
8685.55135194
8686.75380537
8688.14865228
8689.71206634
8691.46005209
8693.42289584
8695.60021587
8697.89267467
6461.7815603
491.787793832
-0.432306100952
8688.87490035
8689.05563115
8689.39707975
8689.90784054
8690.59352618
8691.45958464
8692.51276488
8693.76175326
8695.2223186
8696.91843218
8698.86707038
8701.14055481
8703.76032617
8706.77964333
8710.29709273
8714.41838108
8719.18448472
6735.59710318
698.355637759
3.09582992575
8697.25355659
8697.48706248
8697.9351679
8698.60895831
8699.51623539
8700.66577166
8702.06979851
8703.74337393
8705.70909636
8708.00017647
8710.64462823
8713.74364774
8717.3288963
8721.52346299
8726.50987108
8732.59707014
8740.25920682
6990.56259471
932.620547754
-0.550838965927
8705.41159125
8705.69619097
8706.24686085
8707.07656669
8708.19491198
8709.61342784
8711.34807085
8713.41819856
8715.85102481
8718.68504911
8721.95992062
8725.77928935
8730.20256431
8735.40777592
8741.62632187
8749.29858505
8759.27868428
7232.80960868
1158.56294366
-0.100881824075
8713.29935953
8713.6333677
8714.2807995
8715.25720999
8716.57324182
8718.24250378
8720.28285907
8722.71604708
8725.57085945
8728.88572669
8732.70540576
8737.12471753
8742.24121867
8748.20691517
8755.27331027
8763.83956863
8774.84826774
7427.20320316
1307.86401854
0.00536876962481
8720.86978205
8721.25161033
8721.98871512
8723.10102208
8724.59995732
8726.49987058
8728.81916245
8731.57918122
8734.80876468
8738.5400402
8742.82043307
8747.7361196
8753.37282042
8759.85508414
8767.36313038
8776.11384828
8786.51826845
7565.66626963
1426.74776135
-0.0460861152075
8728.07762406
8728.5073261
8729.32618979
8730.56257891
8732.2289328
8734.33904577
8736.91002269
8739.96193165
8743.52066687
8747.6141202
8752.28175669
8757.58873361
8763.60624071
8770.42167667
8778.14800097
8786.84112669
8795.91670135
7668.08935974
1505.88571299
-0.0801588086754
8734.87813005
8735.36169948
8736.25165435
8737.59998444
8739.41796902
8741.71811202
8744.51579172
8747.82889693
8751.67793307
8756.08623665
8761.07901774
8766.69730092
8772.99087304
8780.02531063
8787.89942431
8796.90844066
8805.93028282
7772.3932688
1551.52932944
-0.0946624426359
8741.23168489
8741.78054068
8742.7244461
8744.17301121
8746.12786353
8748.59976447
8751.60272053
8755.15160592
8759.26249841
8763.94830266
8769.21201286
8775.09175281
8781.58681479
8788.71098248
8796.4839521
8805.03952714
8813.97932206
7843.38962574
1578.05404993
-0.0775724972177
8747.14964857
8747.68824307
8748.70281023
8750.244577
8752.32266941
8754.94947604
8758.13872905
8761.9064181
8766.2616717
8771.20324745
8776.72137272
8782.83750477
8789.50160797
8796.66186115
8804.35110475
8812.55224648
8820.75257943
7886.11113606
1614.35696695
-0.0691897077702
8752.55157005
8753.09128523
8754.16077331
8755.78282311
8757.96771531
8760.7332994
8764.09606754
8768.07064696
8772.66342676
8777.8601379
8783.6472815
8789.97883857
8796.80910074
8804.08916233
8811.73175504
8819.70701567
8827.47099528
7931.51588959
1670.51399725
-0.0727280432027
8757.40715469
8757.96057106
8759.07072968
8760.75550398
8763.03258713
8765.91910862
8769.43867189
8773.61211046
8778.44930672
8783.9280705
8790.01485603
8796.65545201
8803.7537235
8811.21818482
8818.94323183
8826.96055327
8834.59002428
8020.50366144
1704.77892088
-0.0637508526167
8761.7033368
8762.26727512
8763.40406749
8765.13642596
8767.47993579
8770.46540376
8774.12847139
8778.49858564
8783.58283098
8789.36799552
8795.81341244
8802.84341639
8810.32912677
8818.11780718
8826.1116563
8834.40580898
8842.32277464
8123.37752834
1753.37960959
-0.0457421168627
8765.42627162
8765.99216297
8767.14164883
8768.89683252
8771.28222677
8774.33856968
8778.1110458
8782.65992307
8788.01349401
8794.14663564
8801.02213573
8808.54336338
8816.54890621
8824.81830266
8833.24843427
8841.97940059
8850.51595747
8207.60251092
1853.8947968
-0.0429697440624
8768.56887366
8769.12895715
8770.27267696
8772.0212957
8774.40778099
8777.48313562
8781.3198253
8786.01733349
8791.65747082
8798.1803448
8805.56000385
8813.72457562
8822.44172017
8831.25513423
8840.24514336
8849.58928125
8858.87884192
8271.46444402
1992.35930675
-0.0617917148498
8771.13458514
8771.68019679
8772.79574933
8774.50234162
8776.83522078
8779.85669906
8783.65342825
8788.41229029
8794.39201987
8801.32933001
8809.26447679
8818.27175606
8828.12281215
8837.45995869
8846.9775224
8856.84130741
8866.88065247
8315.72932947
2131.93859278
-0.069637925814
8773.138525
8773.65952816
8774.72550093
8776.35213337
8778.57330011
8781.44557766
8785.02065974
8789.61167487
8796.17227146
8803.46989733
8811.85207497
8821.8344998
8833.61973623
8843.52859812
8853.45557797
8863.64367502
8874.56355812
8351.44016181
2272.66433576
-0.0564854178252
8774.60318717
8775.09201284
8776.08896147
8777.59770455
8779.64219305
8782.33001653
8785.76608507
8790.36502846
8797.14876665
8804.81676341
8813.58781467
8823.18670295
8840.04292202
8850.00901979
8859.84320818
8870.39534333
8881.80002749
8385.65859824
2393.47382239
-0.0299360023062
8775.56149118
8776.01878169
8776.94177312
8778.29657327
8780.01223393
8781.93576576
8783.94962221
8785.57942897
8853.66569342
8858.09088531
8865.80728334
8875.89297666
8888.21068949
8433.83980158
2570.55125963
0.00247771749663
8776.04520622
8776.48410839
8777.36491605
8778.64219137
8780.23428357
8782.01890567
8783.6998243
8784.9487568
8859.23089213
8862.3365572
8869.62850995
8880.24972831
8894.00856416
8457.14153997
2775.08949165
-0.00124201458262
8776.07489095
8776.5145093
8777.3977542
8778.67865703
8780.27619362
8782.06438608
8783.75371745
8785.00810468
8859.42436702
8862.5697147
8870.00906741
8880.7932065
8895.16866374
8440.01319587
2909.0971684
0.0219589692841
8775.64989203
8776.11025979
8777.03984458
8778.40532774
8780.1395501
8782.10048809
8784.13092621
8785.74946223
8854.15668258
8858.58365351
8866.39376
8877.0769101
8890.55310618
8373.16607056
2805.39476997
-0.0057733289538
8774.74914866
8775.24236206
8776.2491496
8777.77478197
8779.84485874
8782.56295963
8786.05450565
8790.73208768
8797.65952124
8805.42078384
8814.25220865
8823.9509015
8840.67521554
8850.63705517
8860.61870027
8871.31480276
8883.67215458
8345.43151377
2599.42591591
-0.0480467182623
8773.34095245
8773.86860465
8774.94793456
8776.59567838
8778.84676572
8781.75928178
8785.39198254
8790.0595519
8796.72276695
8804.11112596
8812.56661247
8822.57384785
8834.31571814
8844.19729044
8854.12323001
8864.19753818
8874.82818096
8309.3160517
2305.3742389
-0.0333008403629
8771.38896565
8771.94214069
8773.07280003
8774.80379577
8777.17099853
8780.23843966
8784.09505882
8788.92500531
8794.98514334
8801.99935633
8809.99459347
8819.02603342
8828.85086863
8838.16097979
8847.51620569
8856.93143769
8865.77611289
8243.08189076
2045.67706489
-0.00277071782944
8768.8703811
8769.43835977
8770.59826842
8772.37282659
8774.79453334
8777.91720101
8781.81115904
8786.57452927
8792.28498494
8798.87959886
8806.32311586
8814.52905058
8823.25835977
8832.05763335
8840.93035906
8850.0013445
8858.49097586
8251.50894962
1923.6190382
-0.031189772918
8765.76955669
8766.34313842
8767.50952041
8769.28982377
8771.7101428
8774.81012485
8778.63797876
8783.24765609
8788.66693531
8794.8737766
8801.82461098
8809.42516909
8817.48866539
8825.80944276
8834.4231852
8843.44551432
8852.18494448
8249.79381097
1869.94475787
-0.0593524591367
8762.08287731
8762.65447283
8763.80769825
8765.56385065
8767.94151649
8770.97011708
8774.68132091
8779.10614494
8784.25812586
8790.11452911
8796.64727948
8803.7940997
8811.37226924
8819.32962148
8827.76425377
8836.83462227
8845.69954019
8175.22772533
1844.20234049
-0.0723392681555
8757.81795066
8758.37895537
8759.50345908
8761.2116826
8763.51760368
8766.44186293
8770.0068747
8774.2333036
8779.12558577
8784.670808
8790.85154709
8797.62207869
8804.84053457
8812.59978094
8820.84510499
8829.85654551
8838.66245766
8091.83443133
1775.74557845
-0.0720383988758
8752.98804843
8753.53400677
8754.61666082
8756.25771986
8758.46920928
8761.26668056
8764.66707173
8768.6856646
8773.32661782
8778.58492986
8784.47968203
8790.90991924
8797.88360062
8805.47953375
8813.6073034
8822.55695381
8831.36694329
8045.03462735
1684.92033665
-0.0621000295231
8747.60537887
8748.14871275
8749.17438819
8750.73231536
8752.83122619
8755.48395028
8758.70495109
8762.50932918
8766.90193084
8771.90885722
8777.52240046
8783.71785227
8790.45740521
8797.84195134
8805.8822114
8814.83794555
8823.6161059
7949.29902721
1630.95575104
-0.0714358447534
8741.6994076
8742.25175984
8743.20502752
8744.66665331
8746.63819697
8749.13004086
8752.15580668
8755.7330998
8759.88175968
8764.61732147
8769.94936834
8775.89252136
8782.49638099
8789.75364487
8797.61403911
8806.61116104
8815.56854726
7837.22720239
1593.29438989
-0.0850591872748
8735.3500815
8735.83693626
8736.73410375
8738.09287075
8739.92362464
8742.23814754
8745.05148692
8748.38217504
8752.25893599
8756.69857903
8761.73385199
8767.41079524
8773.76708857
8780.88060758
8788.73231229
8797.93604075
8807.00798769
7757.16145679
1582.12638507
-0.101457434404
8728.54691186
8728.97930649
8729.80389111
8731.04861311
8732.72464021
8734.84462045
8737.4241323
8740.48445507
8744.05730001
8748.16370351
8752.85217016
8758.18761688
8764.23441835
8771.05952607
8778.76432032
8787.54992597
8796.72521275
7669.20932273
1528.91683577
-0.0886113990649
8721.32952745
8721.7129583
8722.45351551
8723.57064563
8725.07507864
8726.98011551
8729.30380392
8732.06864758
8735.29996857
8739.03699793
8743.31920148
8748.20004344
8753.82072057
8760.2688905
8767.71689687
8776.44030962
8786.7538098
7569.80770702
1427.57821578
-0.0396921243714
8713.74419686
8714.07957163
8714.72946987
8715.70925648
8717.02908173
8718.70123801
8720.74324535
8723.1774341
8726.03066918
8729.34691437
8733.17316039
8737.54940907
8742.56800011
8748.4604927
8755.36744233
8763.75077324
8774.27145887
7422.91517199
1275.2887775
0.0414227883026
8705.83737654
8706.12321365
8706.67599536
8707.50852755
8708.6299409
8710.05093587
8711.78637728
8713.85569198
8716.28548676
8719.1122435
8722.38498239
8726.16531607
8730.53018389
8735.56309753
8741.60298652
8749.00866539
8758.20032922
7207.39180798
1107.52612149
0.073708388808
8697.65733259
8697.89218939
8698.34248355
8699.01921526
8699.92990116
8701.08282633
8702.48840221
8704.1615159
8706.1240903
8708.40524314
8711.04540482
8714.09349684
8717.61944722
8721.72813889
8726.57513224
8732.5341297
8739.88514863
6975.29393573
894.515106582
0.269255232035
8689.25496241
8689.43723981
8689.78126484
8690.29555596
8690.9857206
8691.85660233
8692.91331689
8694.1641815
8695.62417237
8697.31197432
8699.25279375
8701.47489364
8704.02630602
8706.98986114
8710.45770916
8714.71177555
8720.05710948
6736.94563059
727.539431536
0.385546807169
8680.68257562
8680.81121311
8681.04635378
8681.39146755
8681.85499366
8682.4369828
8683.1339186
8683.94313
8684.87645234
8685.93823982
8687.13548417
8688.47060919
8689.97017345
8691.65805629
8693.54310116
8695.73488588
8698.04059723
6440.29655152
487.546092294
0.158724001892
8671.99371115
8672.06641409
8672.18734133
8672.36753445
8672.60096961
8672.88223377
8673.20969499
8673.58072093
8673.98007649
8674.4025742
8674.84241552
8675.26461407
8675.67305207
8676.04494199
8676.31969851
8676.55892213
8676.44380301
6133.92896835
342.221499404
0.0594490134688
8663.2432972
8663.26193143
8663.27736102
8663.29181795
8663.2998999
8663.29209887
8663.25775106
8663.18233106
8663.04484818
8662.8218987
8662.48489828
8662.01487519
8661.3523805
8660.43706743
8659.16701987
8657.58153569
8655.36843948
5815.79117392
249.163037807
-0.0020837770833
8654.48155689
8654.45088673
8654.3629984
8654.21847366
8654.00960214
8653.72248747
8653.33915965
8652.83635944
8652.18440357
8651.34774749
8650.2840122
8648.94228094
8647.2475826
8645.10776441
8642.39635189
8639.15537696
8635.08243151
5488.3042616
168.284210733
-0.00217886049685
8645.76275973
8645.68320641
8645.49742453
8645.20338165
8644.79061275
8644.24081435
8643.52984811
8642.62712081
8641.49422677
8640.08452344
8638.34091577
8636.19315758
8633.54664868
8630.28099608
8626.27369026
8621.46984513
8615.40323415
5159.01083439
106.094040608
0.0118614172063
8637.13118547
8637.0063982
8636.73002622
8636.29850134
8635.69895394
8634.90907175
8633.90006171
8632.63550833
8631.06982668
8629.14664139
8626.79670833
8623.93352099
8620.44409912
8616.17720801
8610.97283617
8604.71763064
8596.66991892
4834.14236857
57.0320200536
0.0424714216581
8628.63118184
8628.46595453
8628.10861904
8627.55422711
8626.7879513
8625.78515203
8624.51362904
8622.93246148
8620.99064697
8618.62447622
8615.7560449
8612.2860862
8608.08679105
8602.9936594
8596.79040495
8589.30267466
8579.54663914
4531.30323932
24.9726391544
0.0265660023431
8620.30213749
8620.10064999
8619.67195485
8619.00916803
8618.09722525
8616.91128759
8615.4183287
8613.57599777
8611.33139143
8608.61787479
8605.35181679
8601.42615467
8596.69886098
8590.97748172
8584.04967021
8575.62284575
8564.69934408
4272.40937616
9.41182491843
-0.00705823121354
8612.18191223
8611.94903843
8611.45963956
8610.70580265
8609.67280954
8608.33607107
8606.66282002
8604.61131578
8602.1287951
8599.14926787
8595.58883167
8591.33919995
8586.25640781
8580.15262685
8572.79864877
8563.91444756
8552.59422746
4067.14330805
2.9983984836
-0.00689064902355
8604.30119161
8604.04206027
8603.5027249
8602.67490494
8601.54471959
8600.08895507
8598.27663879
8596.0685348
8593.41498296
8590.25367453
8586.50579961
8582.06948782
8576.81139823
8570.56417705
8563.0971771
8554.1723222
8526.12783921
3934.74937223
0.281568780705
-0.00131801411721
8596.68592499
8596.40537689
8595.82628874
8594.94070297
8593.7359809
8592.19119227
8590.27867459
8587.9633533
8585.20114431
8581.93707658
8578.10274979
8573.60866763
8568.3405633
8562.15602457
8554.870527
8546.26045326
8493.55439246
3857.14783812
0.22407314863
0.0210339583488
8589.35708669
8589.05938463
8588.45008557
8587.5212257
8586.26224651
8584.65524684
8582.67691582
8580.29762508
8577.48113897
8574.18290524
8570.34781091
8565.90495731
8560.76323454
8554.81282978
8547.94756412
8539.9703599
8468.29235098
3806.49306798
0.0699127440097
0.000665518565316
8582.33129473
8582.01992763
8581.38835823
8580.42883417
8579.13268359
8577.4859771
8575.46980067
8573.06223046
8570.23484578
8566.95716121
8563.18230208
8558.87511547
8553.96090713
8548.3746903
8542.10631139
8535.09440842
8447.29149033
3774.8555267
0.0216399989724
0.00189911210027
8575.62152486
8575.29801321
8574.65156014
8573.67122335
8572.35142527
8570.68176086
8568.649837
8566.23913014
8563.43385624
8560.20642766
8556.54978099
8552.41330851
8547.79473648
8542.65830879
8536.9985195
8531.65252501
8434.46277046
3754.55137972
0.00912018163511
0.00245573665991
8569.23861024
8568.90075238
8568.24722112
8567.25189591
8565.91787028
8564.23720802
8562.20221706
8559.80534171
8557.03589585
8553.89332077
8550.35132886
8546.42749789
8542.1332949
8537.49192845
8532.63703071
8527.83329551
8429.70043548
3738.99887814
0.00379687061259
0.0021701588236
8563.19880087
8562.82235135
8562.18097862
8561.17411502
8559.82958718
8558.14391245
8556.11421131
8553.73914513
8551.0187722
8547.95607913
8544.55859112
8540.83433904
8536.83222916
8532.62111886
8528.27949087
8523.95162516
8429.56706575
3714.0845285
0.00150805777852
0.0029848573173
8557.47860414
8557.11047281
8556.44428143
8555.43280916
8554.08172672
8552.39267036
8550.36777017
8548.01143732
8545.3315508
8542.33699254
8539.05370212
8535.49907721
8531.73027824
8527.82421804
8523.87897717
8519.98529747
8425.93045826
3679.71768286
-0.00177531220521
0.00419305668164
8552.0935979
8551.73177804
8551.05153951
8550.03075736
8548.67099521
8546.97570092
8544.95035914
8542.60402959
8539.94976458
8537.00555544
8533.79255802
8530.35000601
8526.74450134
8523.04951899
8519.36793442
8515.79086566
8415.88800518
3633.72622034
-0.00512255546186
0.00501088477293
8547.05173118
8546.68866429
8545.9990224
8544.9669511
8543.59468954
8541.88716036
8539.85230805
8537.50242423
8534.85420322
8531.92468993
8528.74823629
8525.35886683
8521.82632674
8518.23799009
8514.68605797
8511.26955883
8400.54216394
3575.03839293
-0.00748931818803
0.00514013020665
8542.35481812
8541.98872434
8541.28861952
8540.24224313
8538.85225753
8537.12456507
8535.06853981
8532.69858044
8530.0287751
8527.08477166
8523.88903776
8520.49027668
8516.95123563
8513.36188661
8509.80653252
8506.3864631
8382.65186488
3502.92855901
-0.00796226351821
0.00489011134541
8538.00842032
8537.6365557
8536.92414156
8535.8597099
8534.44600982
8532.68915731
8530.59910358
8528.18866581
8525.47417077
8522.47485039
8519.21561855
8515.74096579
8512.11727638
8508.42176848
8504.73695955
8501.16069706
8364.32274828
3417.92495027
-0.00684914948446
0.00470382525687
8534.01759104
8533.63831804
8532.91123338
8531.82479131
8530.38121388
8528.58611754
8526.44843506
8523.97924399
8521.19379865
8518.10551232
8514.73472339
8511.13223492
8507.34485241
8503.44488466
8499.51006785
8495.62128507
8343.54663872
3322.6498616
-0.00435496739307
0.00455353451586
8530.38891461
8530.00120867
8529.25717485
8528.14509859
8526.66608233
8524.82449678
8522.62715768
8520.0831473
8517.20233546
8513.99831232
8510.48278416
8506.69442202
8502.6755566
8498.48247447
8494.18403168
8489.825248
8318.42660092
3220.45351671
-0.000927167706543
0.00436695996087
8527.1303229
8526.73324544
8525.97073036
8524.83023462
8523.31152182
8521.41707419
8519.15108665
8516.51944663
8513.52875422
8510.18359191
8506.49250884
8502.47585178
8498.17046614
8493.61079565
8488.84951805
8483.8804229
8288.35254565
3115.15482452
0.00256483818189
0.00413384904833
8524.25053781
8523.84353247
8523.06178132
8521.89137892
8520.33053044
8518.37951115
8516.03940371
8513.31182887
8510.19685151
8506.69485041
8502.807199
8498.53825038
8493.90801663
8488.92972418
8483.63225888
8477.94859934
8253.10279482
3009.93406319
0.00586140806827
0.00382979186734
8521.75858623
8521.34200631
8520.54097874
8519.34066243
8517.73744357
8515.72920996
8513.31378671
8510.48834286
8507.24727575
8503.58288282
8499.48840392
8494.95466742
8489.98111411
8484.55739259
8478.68806527
8472.24912522
8216.63675114
2907.25465038
0.00955496728039
0.00345454102155
8519.66379352
8519.23823989
8518.4192883
8517.19069601
8515.54721121
8513.48441222
8510.99699813
8508.07787832
8504.71400028
8500.89342576
8496.59651934
8491.80364709
8486.49070067
8480.62342631
8474.18105653
8466.98126902
8180.99655239
2807.11560662
0.0147843068246
0.0031432103312
8517.97463524
8517.54187723
8516.70706916
8515.45334434
8513.77411416
8511.66321107
8509.11157632
8506.1075496
8502.63456213
8498.6728353
8494.19291454
8489.16471953
8483.54169794
8477.26665837
8470.29119917
8462.37206494
8149.54511345
2711.38806793
0.0212054740073
0.00325121039391
8516.69847028
8516.26123286
8515.41377549
8514.1396429
8512.43149007
8510.28136957
8507.67706353
8504.60457865
8501.04318316
8496.96352789
8492.33587607
8487.1128232
8481.23424778
8474.62301907
8467.20447981
8458.66985024
8120.98478877
2629.74798634
0.0255656488921
0.00427723388964
8515.84136276
8515.40184569
8514.54537919
8513.25658626
8511.52757534
8509.34947894
8506.70800584
8503.58647261
8499.96106262
8495.80092738
8491.06801144
8485.70681879
8479.64828491
8472.80232541
8465.07733873
8456.13060549
8096.28468879
2571.25936835
0.03816540975
0.00355747234872
8515.39896648
8514.95776634
8514.09471402
8512.79689552
8511.05639017
8508.86275513
8506.20123887
8503.05268915
8499.39317555
8495.18814548
8490.39893762
8484.96724459
8478.82291968
8471.87752705
8464.03612099
8455.03136122
8106.08243372
2527.90369528
0.0269515048452
0.00977560048114
)
;

boundaryField
{
    back
    {
        type            fixedFluxPressure;
        gradient        uniform 0;
        value           nonuniform List<scalar> 
1984
(
8515.48150189
8515.04127005
8514.17995363
8512.88446153
8511.14644736
8508.95395036
8506.29209503
8503.14104834
8499.47383923
8495.2581355
8490.44698332
8484.98234662
8478.79036727
8471.7818074
8463.82688181
8454.64426944
8106.48202606
2525.6903578
0.0254528985747
0.0106788526974
8515.92284598
8515.4845265
8514.63012783
8513.34414187
8511.61803037
8509.44123536
8506.7994417
8503.67507413
8500.04112789
8495.87092262
8491.11721185
8485.72379077
8479.62633656
8472.73636135
8464.91927995
8455.81776717
8096.68655699
2567.19447213
0.0389713606851
0.0041917676711
8516.77729633
8516.34138828
8515.49630066
8514.22544575
8512.52077841
8510.37289092
8507.77002664
8504.69389552
8501.12479605
8497.04019204
8492.40428501
8487.16107622
8481.25628166
8474.61975662
8467.15123178
8458.51201708
8120.49222491
2625.90927233
0.0271025740781
0.00468471925496
8518.04932593
8517.61797837
8516.78580202
8515.53582986
8513.86104588
8511.75422666
8509.205027
8506.20248774
8502.71709306
8498.7515191
8494.27877353
8489.2483388