/*--------------------------------*- C++ -*----------------------------------*\
| =========                 |                                                 |
| \\      /  F ield         | OpenFOAM: The Open Source CFD Toolbox           |
|  \\    /   O peration     | Version:  v2012                                 |
|   \\  /    A nd           | Website:  www.openfoam.com                      |
|    \\/     M anipulation  |                                                 |
\*---------------------------------------------------------------------------*/
FoamFile
{
    version     2.0;
    format      ascii;
    class       surfaceVectorField;
    location    "1.4";
    object      ddtCorrDdt0(Uf);
}
// * * * * * * * * * * * * * * * * * * * * * * * * * * * * * * * * * * * * * //

dimensions      [0 1 -2 0 0 0 0];


internalField   nonuniform List<vector> 
306
(
(-0.0114584016871 0.17413266084 -9.58817610036e-24)
(-0.0209858952107 0.163159968887 5.6741712729e-22)
(-0.011766617954 0.195733770364 -3.8368405881e-22)
(-0.021599130114 0.184393275197 7.97117148761e-22)
(-0.0122001644672 0.218013409419 4.80423638724e-22)
(-0.0222768963534 0.206217136874 -5.58549335624e-23)
(-0.0130259821616 0.241146236114 5.37966500781e-22)
(-0.0231293958862 0.228753450945 5.39291624171e-22)
(-0.0144836782876 0.265566918449 4.71717419868e-22)
(-0.0244168824902 0.251899488326 3.40943596331e-22)
(-0.0158781326825 0.291738739004 -1.56840701779e-22)
(-0.0261680891708 0.275936579799 4.34612855307e-22)
(-0.0122471854594 0.319058204816 -4.81513136285e-21)
(-0.0273163683791 0.30421380477 -3.47131993363e-21)
(0.00497103829801 0.340184635585 -1.81383349877e-20)
(-0.0211246957442 0.327196893885 -1.36126827112e-20)
(0.0443017508506 0.352858932179 -2.94111833168e-20)
(-0.0126735896918 0.296073540923 -2.588667453e-20)
(-0.107126199985 0.362265832939 -1.01661291676e-19)
(-0.00941815930055 0.376744385215 -5.35241269861e-20)
(-0.143260900667 0.506431444552 -6.38573790606e-20)
(-0.144147211224 0.387662595718 -1.34313812554e-19)
(0.00396055691 0.430599742134 8.96895692277e-20)
(-0.0322381445503 0.172974846704 1.37412245215e-21)
(-0.041824806694 0.161691834832 1.28365725026e-22)
(-0.0332054738059 0.194410136342 1.12494627401e-21)
(-0.0430317377828 0.18275724323 1.01237337487e-21)
(-0.0342678403563 0.216451480607 3.0130518841e-24)
(-0.044315039324 0.204404435067 -1.96910999282e-22)
(-0.0355297132147 0.239003177792 3.42268719721e-22)
(-0.0456773930794 0.226703373281 -2.88978731871e-23)
(-0.0371053188263 0.261732202183 3.0383903177e-22)
(-0.0471419689413 0.249393751272 3.06551020753e-22)
(-0.0386348607361 0.2843268814 -2.87986637654e-21)
(-0.0487590274209 0.272442773887 1.4581227995e-21)
(-0.0374726782743 0.306821120239 -1.22688712819e-20)
(-0.0498075918882 0.29909339725 -5.96689425045e-21)
(-0.0361851155459 0.331701439288 -2.13610222534e-20)
(-0.0460034135224 0.317717239531 -1.64101041027e-20)
(-0.0435582012566 0.360555028808 -4.99996181993e-20)
(-0.0415268249818 0.300355070282 -2.39815711476e-20)
(-0.0409510806 0.400756852455 -8.61766478646e-20)
(-0.0495554246422 0.379683640468 -1.0165178363e-19)
(-0.00250619653805 0.310699695076 1.92331357342e-20)
(-0.054148651798 0.398765696023 -1.16741077628e-19)
(-0.000122921835536 0.391135885766 6.36002993489e-20)
(-0.0526021328018 0.17105038922 -2.33383352253e-22)
(-0.0541621644129 0.192308044538 -3.09483898418e-22)
(-0.0642868355184 0.180686990702 -3.00092070779e-22)
(-0.055793869966 0.214197610889 -2.28821924353e-22)
(-0.0662012219252 0.202198755319 -8.03360126966e-23)
(-0.0574475522915 0.236697424936 -6.46155721552e-23)
(-0.0681734517298 0.224409886797 -6.30298758657e-23)
(-0.0590781566204 0.259677278726 1.46083478848e-21)
(-0.0701179477234 0.247118238198 4.16011458117e-22)
(-0.0603596143707 0.282948725654 -1.62890507442e-21)
(-0.0720268465621 0.270622530994 1.44251410355e-21)
(-0.0589012571125 0.306546119796 -1.01081270712e-20)
(-0.0734021065207 0.298670413592 -2.52776034386e-21)
(-0.0543075579672 0.331624685585 -1.90306529968e-20)
(-0.071080477274 0.318847270453 -7.32007349049e-21)
(-0.0574113897087 0.356444978548 -7.56337365781e-20)
(-0.0663469918631 0.303084946683 -1.60706097671e-20)
(-0.0662280099318 0.389427688463 -1.32216213393e-19)
(-0.0824527687492 0.386182137462 -6.75702587474e-20)
(-0.0628451402337 0.432960489192 -7.2373914013e-20)
(-0.0977601828432 0.401202328001 -7.20782233438e-20)
(-0.0357762932734 0.46190687899 -2.93407891355e-21)
(-0.0758993540308 0.190126010325 -7.09441850571e-23)
(-0.0781782566679 0.211932607098 8.54560357911e-23)
(-0.0880044187393 0.199735491702 8.78010252929e-24)
(-0.0804685641976 0.234448508505 4.17597154406e-22)
(-0.0906857087648 0.221906632485 1.43684549765e-22)
(-0.0827210103029 0.257676340927 3.97690773187e-22)
(-0.0933420886382 0.244690319729 5.03554886183e-22)
(-0.0847638408884 0.281644658273 5.43658834104e-22)
(-0.0959917507437 0.268520640868 1.24138652711e-21)
(-0.0850876088679 0.306606112594 2.60293236838e-22)
(-0.098360875965 0.29743828177 -6.0682918656e-23)
(-0.0825822318647 0.333807268321 -4.36003026078e-21)
(-0.0982802543463 0.319806071804 -4.42791175263e-21)
(-0.0930007668103 0.362856265716 -8.00713193637e-21)
(-0.0953958369205 0.305412835141 -3.07046842083e-20)
(-0.1066560939 0.405985460704 -7.43226869824e-21)
(-0.125509402592 0.38845179679 -2.84219826415e-21)
(-0.0721605581187 0.425396442312 -2.63838824432e-21)
(-0.117237109951 0.408080003498 1.07749914854e-20)
(-0.0409565294867 0.444970157269 1.03109632045e-20)
(-0.100346191729 0.209207274257 6.70086165028e-23)
(-0.109729275349 0.196678970199 -1.05924406408e-23)
(-0.103418357992 0.231745786016 2.29642281542e-22)
(-0.113220797756 0.218797678202 1.25724666064e-22)
(-0.106520261109 0.255153989961 1.3472506401e-21)
(-0.116746874938 0.24165211919 3.43822596929e-22)
(-0.10960518589 0.279555241898 6.37044774347e-22)
(-0.120389869479 0.2656866835 1.61818450577e-21)
(-0.111664526124 0.305233515383 -4.74888790813e-21)
(-0.124036704002 0.294998974277 -1.32097230997e-21)
(-0.111161449488 0.33293968865 -3.07725657002e-20)
(-0.125985196952 0.31888803673 -1.00523876174e-20)
(-0.127573480335 0.362072950227 -2.55397505361e-20)
(-0.124529030367 0.305255189298 -4.60015848239e-20)
(-0.138772975825 0.400207637575 1.53650619195e-20)
(-0.163567445675 0.386750239669 4.86995927736e-21)
(-0.0939004913829 0.429835649033 2.37243429342e-20)
(-0.146934878525 0.402175911968 1.45224229533e-20)
(-0.0510377903914 0.449796199937 2.3754337613e-20)
(-0.122435544916 0.205741860427 4.81236089205e-23)
(-0.131331881611 0.192834786589 4.20075142416e-23)
(-0.126409707561 0.228262618048 2.39904981451e-22)
(-0.135738460644 0.214837068451 5.4034124607e-23)
(-0.130521145161 0.251791576317 6.14756462598e-22)
(-0.140272754167 0.237696750583 3.81832312247e-22)
(-0.134803656349 0.276479080395 -3.39832578547e-22)
(-0.145074556351 0.261831803756 1.30590194768e-21)
(-0.138405618429 0.302569493243 -6.62447201921e-21)
(-0.150124928545 0.291256731688 -3.72668643651e-21)
(-0.139338001106 0.330395384533 -2.52814067411e-20)
(-0.153810005086 0.316396208772 -2.09927356424e-20)
(-0.159985481243 0.358982876419 -1.55918750105e-20)
(-0.153116496514 0.304193553576 -3.90289487355e-20)
(-0.172291920542 0.39350121989 4.02732031112e-21)
(-0.198011591826 0.384440427081 3.4971171887e-20)
(-0.108515973485 0.425609820233 1.4552417632e-20)
(-0.179110406325 0.395312869003 3.10332719136e-20)
(-0.05625930492 0.443872308118 4.73647813674e-21)
(-0.144414119852 0.201378014248 4.79180299281e-23)
(-0.152728596794 0.188085091225 3.55548394059e-23)
(-0.14940551857 0.223792041244 1.95961455402e-22)
(-0.158149753687 0.209873031083 6.51277290821e-23)
(-0.154663228849 0.247336812515 1.07297779733e-21)
(-0.163814801909 0.232630161457 1.9727331729e-22)
(-0.160278219071 0.272166250571 -2.08095191029e-21)
(-0.169901498466 0.256734135592 1.25757051978e-21)
(-0.165430046886 0.298492923948 -1.80949500597e-20)
(-0.176449662961 0.286042271635 -6.07373721313e-21)
(-0.167540445904 0.326514647716 -3.47402776368e-20)
(-0.181830780877 0.312334290175 -4.68497682971e-20)
(-0.191231999157 0.355229943274 1.1534098162e-20)
(-0.181831819477 0.302430560284 -5.35473022284e-20)
(-0.204829678175 0.38878492367 6.19771234895e-20)
(-0.23149356496 0.381538984683 4.6640903077e-21)
(-0.126758272202 0.419527340602 2.12173324183e-20)
(-0.209918228332 0.388335465885 2.58163092489e-20)
(-0.06245739553 0.438153387737 5.75641068287e-21)
(-0.166179215525 0.196006800243 5.27645385598e-23)
(-0.173812121582 0.182338861769 -4.85320788336e-23)
(-0.172292851529 0.218198170675 6.64395909693e-23)
(-0.180338765813 0.20379180575 4.65155971923e-23)
(-0.178812518519 0.241630250819 3.81866039742e-22)
(-0.18724451136 0.22631856983 -7.89570609596e-23)
(-0.185871222624 0.266458539069 -2.73521478307e-21)
(-0.194727597929 0.250249255005 2.38400218403e-23)
(-0.192666634872 0.292896318536 -3.48285554505e-20)
(-0.202885734132 0.279228843818 -4.39278869988e-21)
(-0.196047886401 0.321158748017 -6.56567928887e-20)
(-0.21009238177 0.306593190915 -3.4615417093e-20)
(-0.222260685764 0.350292130819 -6.04173100827e-20)
(-0.21096529116 0.299762622255 -4.19445147551e-20)
(-0.236557310829 0.383067700627 -3.14967239329e-20)
(-0.264195539074 0.377433821516 -2.91155338521e-20)
(-0.145588909134 0.412430367669 1.03553875134e-20)
(-0.239346400039 0.379725130757 -7.50233990008e-21)
(-0.0709443667775 0.430486267736 1.78981754605e-20)
(-0.187612184653 0.189534173686 -5.4781020201e-23)
(-0.194455006688 0.175516169531 -3.72808159599e-23)
(-0.194944496429 0.21136784693 -9.88810547366e-23)
(-0.202170436974 0.196492502437 -2.01669800826e-23)
(-0.202835851665 0.23454800414 -4.36983078862e-22)
(-0.21042262901 0.218642751983 -3.21322991426e-23)
(-0.211457776887 0.259244436692 -1.63373389497e-21)
(-0.219422127764 0.242248469078 5.41973736907e-22)
(-0.220044228506 0.285690396288 -4.17965034235e-21)
(-0.229330197954 0.270677953377 -2.40288637309e-21)
(-0.22484900515 0.314159386041 -1.09031389593e-20)
(-0.238560648859 0.298959892875 -8.71966174766e-21)
(-0.252773162569 0.343639676093 -1.06427385245e-20)
(-0.240445730037 0.295942987092 -1.66771966391e-20)
(-0.266950144003 0.37445732254 -5.12114981929e-21)
(-0.294939096726 0.371957436594 -4.762371783e-21)
(-0.164938457358 0.402725959516 4.04480470141e-23)
(-0.267680135641 0.368999435898 1.34733368323e-21)
(-0.0814653273071 0.418654006895 1.20916490171e-20)
(-0.208572608101 0.18187538751 -2.66677584141e-24)
(-0.214509884257 0.167547316437 -1.80656498426e-23)
(-0.217214682457 0.203194855541 4.65817755114e-23)
(-0.223488255087 0.18788210815 6.54367464487e-25)
(-0.226590490346 0.225961704868 9.46824516626e-22)
(-0.233187758269 0.209483283421 1.66495297674e-23)
(-0.236911609413 0.250366456004 -2.27178741211e-22)
(-0.243825250998 0.232586416575 1.31970097114e-21)
(-0.247484810437 0.276677587901 -6.94289777841e-21)
(-0.255640040248 0.260207470134 -1.89985628984e-21)
(-0.253941039214 0.305299831579 -1.44937194275e-20)
(-0.2671822709 0.289114881696 -1.65332831011e-21)
(-0.282565037642 0.335259823953 -1.07968298977e-20)
(-0.270405923674 0.290661728464 -5.8310483001e-21)
(-0.295485267929 0.364429751098 1.70611171952e-21)
(-0.324035119662 0.364810689685 -3.225986247e-20)
(-0.184097198788 0.390015188289 1.33985346533e-20)
(-0.293329255253 0.356589587823 -4.25146443346e-20)
(-0.0921185806929 0.401706752365 2.1945668637e-20)
(-0.228895711018 0.172955730954 -1.47445065368e-23)
(-0.233807510424 0.15837637303 -4.27731080269e-23)
(-0.238928297606 0.19357566293 -2.92778782796e-23)
(-0.244106892165 0.177878591488 -6.0683752596e-25)
(-0.249896370523 0.215732155927 3.89525984281e-22)
(-0.255342854311 0.198723285074 7.3876665663e-23)
(-0.262058410869 0.239649082262 -3.52976577493e-22)
(-0.267740829377 0.221108096482 3.74696582571e-22)
(-0.274857124076 0.265643556007 3.38971317845e-21)
(-0.281633433272 0.247623208839 -3.62296884367e-22)
(-0.283323385464 0.294266583564 7.00934281729e-21)
(-0.29580477446 0.276711165412 5.58766070718e-21)
(-0.311652249463 0.324725315998 -2.72940808724e-20)
(-0.30086490928 0.283527505364 7.08710852035e-21)
(-0.321550252554 0.351745057984 -7.64806185241e-20)
(-0.350980813212 0.355307780556 -3.46307543339e-20)
(-0.201171657592 0.374067184077 -3.39675103509e-20)
(-0.315713648255 0.342629696752 -4.6497129474e-20)
(-0.102317143804 0.387912692765 1.86906191674e-20)
(-0.248391180755 0.162716007329 -2.86354390161e-23)
(-0.252156317488 0.147967516488 -4.32728271262e-23)
(-0.259876710381 0.1824201704 1.02547706417e-22)
(-0.263810123141 0.166419368661 6.53150401555e-23)
(-0.272535234216 0.203727453079 5.90472639525e-23)
(-0.276649064175 0.18625986148 2.46856597496e-22)
(-0.286683622803 0.226903509439 3.65376275697e-22)
(-0.290915820308 0.207659158557 1.55504274324e-21)
(-0.301964301883 0.252326789064 1.83565064436e-21)
(-0.307055833248 0.232724660613 2.91608481873e-22)
(-0.312874919827 0.280719107192 5.66542641024e-21)
(-0.324196650809 0.261408991494 -1.83041615655e-20)
(-0.339835369831 0.311483995613 -2.49564941098e-22)
(-0.331630094805 0.274124386354 -2.01294510064e-20)
(-0.346675507299 0.336031978226 -4.64726528377e-21)
(-0.375453334112 0.342910920656 -1.06229129228e-20)
(-0.220811189136 0.363221504879 6.16100004428e-21)
(-0.342964173005 0.327564219373 -1.4481534025e-20)
(-0.12197170613 0.375066592281 1.33054958011e-20)
(-0.266842528654 0.151121933222 5.06776520453e-23)
(-0.2693446458 0.136313618993 -4.28594237886e-23)
(-0.279811987524 0.169661649356 2.09623931235e-22)
(-0.282349260997 0.15347388 4.90522329804e-23)
(-0.294229619226 0.189828117524 1.74285207679e-21)
(-0.296814774293 0.172019866798 6.62688723004e-23)
(-0.310491147256 0.211932785646 1.48127494942e-21)
(-0.313019678498 0.192095171394 1.64455858521e-21)
(-0.328525124719 0.236437083117 -1.9848203728e-20)
(-0.331559415401 0.215291164826 -4.2271715597e-21)
(-0.342423437363 0.264333734054 -4.40990389821e-20)
(-0.352092892741 0.242837984113 -2.36403156061e-20)
(-0.366787015251 0.295611575849 -3.05027989881e-20)
(-0.362908263739 0.261876687423 -2.8116774351e-20)
(-0.372994185333 0.316870142288 -2.0457181664e-20)
(-0.396633517632 0.32716164581 -1.732503246e-20)
(-0.246184396357 0.350478612594 -7.33703826819e-21)
(-0.376631468867 0.309297927429 -2.51813631742e-20)
(-0.138770783334 0.336120971747 9.41361361688e-21)
(-0.284009074178 0.138175685884 -4.44848428535e-23)
(-0.28514682779 0.123446772902 -7.69813548592e-23)
(-0.298442868155 0.155274218146 -9.43028259539e-23)
(-0.29944740767 0.139061810554 3.97533401142e-23)
(-0.314627981435 0.173952319335 -3.20246192755e-23)
(-0.315492259105 0.155990304686 9.31293667784e-24)
(-0.333070529205 0.194550582771 -4.06388792391e-21)
(-0.333617194773 0.174327029059 4.6858277052e-22)
(-0.354134067797 0.217599199885 -8.01928343788e-21)
(-0.354607231158 0.195096596973 -3.67883520464e-21)
(-0.371829587838 0.244473335613 -7.65805097505e-21)
(-0.378966395609 0.220517108519 -3.83756556793e-21)
(-0.391928104532 0.276243414154 -1.49390078229e-20)
(-0.394678436174 0.245862442881 -4.83219577015e-21)
(-0.403302820486 0.293180733898 -2.20492139702e-20)
(-0.413505773668 0.306254732462 -2.10643369023e-20)
(-0.27000043686 0.320951681033 -8.43071128915e-21)
(-0.404426143307 0.296191842106 -3.26611652398e-20)
(-0.119312650446 0.224772361844 -1.55136921077e-20)
(-0.299637008968 0.123931021108 7.25682810849e-24)
(-0.299337344567 0.109446491561 -1.00102022468e-22)
(-0.315444968033 0.139302971702 1.43369102746e-22)
(-0.314818964466 0.123273438355 4.73820609142e-23)
(-0.333299544302 0.15610900467 5.09920326474e-22)
(-0.332297622188 0.138267295078 -1.00780235847e-23)
(-0.35382333882 0.17464862874 8.53635489788e-22)
(-0.352155810744 0.154427669867 1.64950470605e-22)
(-0.377984218208 0.195370366551 5.02882665322e-22)
(-0.375327763398 0.17210745794 -5.27421258362e-22)
(-0.400516930917 0.219927552864 -1.01171036303e-21)
(-0.403522506998 0.194066636504 6.98312770586e-23)
(-0.414826536811 0.251770809386 -1.09575248495e-20)
(-0.426521716179 0.224857072989 1.24291048842e-21)
(-0.418352863263 0.266350620601 -3.16762881719e-20)
(-0.428005304306 0.274572375962 -2.95800984831e-21)
(-0.248970831745 0.256748108042 -3.97441460583e-20)
(-0.394836438911 0.283642720886 -1.60511742352e-20)
(-0.0162622198158 -0.00596895964182 -8.87541828708e-21)
(-0.313482911567 0.108502384879 -5.99767896622e-23)
(-0.3304999109 0.121893554802 -1.06065065416e-22)
(-0.349783503609 0.136484901191 -3.55047879454e-22)
(-0.371963396345 0.152423406641 -1.21610627755e-21)
(-0.398551188314 0.169721107053 -9.60472646625e-22)
(-0.426601339741 0.189206812343 2.3244521285e-21)
(-0.437254971707 0.217725732629 9.24242548963e-21)
(-0.282667524866 0.240015271146 1.26671040884e-20)
(0.0732989690097 0.0362164459332 1.4817553536e-20)
)
;

boundaryField
{
    back
    {
        type            calculated;
        value           uniform (0 0 0);
    }
    sides
    {
        type            calculated;
        value           uniform (0 0 0);
    }
    bottom
    {
        type            calculated;
        value           nonuniform List<vector> 0();
    }
    front
    {
        type            calculated;
        value           uniform (0 0 0);
    }
    atmosphere
    {
        type            calculated;
        value           nonuniform List<vector> 
16
(
(0 0.502472816536 0)
(0 0.314786823883 0)
(0 0.46861658101 0)
(0 0.430579362889 0)
(0 0.439919725401 0)
(0 0.430834202062 0)
(0 0.425728656491 0)
(0 0.420920841686 0)
(0 0.413250926805 0)
(0 0.400673218574 0)
(0 0.384271726954 0)
(0 0.382883814307 0)
(0 0.367289125736 0)
(0 0.301522977039 0)
(0 0.153745299465 0)
(0.351855998007 -0.184273082024 1.42345564112e-20)
)
;
    }
    floatingObject
    {
        type            calculated;
        value           nonuniform List<vector> 0();
    }
    procBoundary1to0
    {
        type            processor;
        value           nonuniform List<vector> 10((-0.311709975744 0.0944389349412 -5.51727892126e-23) (-0.32820963536 0.106275049202 8.94436447606e-23) (-0.346887998064 0.119093033673 -9.14333229046e-23) (-0.368092959685 0.132781601498 -6.7123603544e-22) (-0.392623799351 0.147027479034 -4.09403682362e-21) (-0.423006763393 0.164169656513 -1.65259693304e-21) (-0.455040266562 0.197859256266 2.13184521566e-20) (-0.450222553141 0.227967299302 4.30814132007e-21) (-0.19105588117 0.173186882369 2.00794502982e-22) (0.204274918435 0.166416085719 -1.50038352632e-19));
    }
    procBoundary1to2
    {
        type            processor;
        value           nonuniform List<vector> 
18
(
(-0.0111905023655 0.153145206077 1.14464956832e-21)
(-0.0313397000804 0.152134526696 -1.06786884411e-21)
(-0.0511445133359 0.150399778826 2.98614941355e-22)
(-0.0624727858434 0.159789114096 2.50266767821e-22)
(-0.0737129914944 0.169001107059 1.83558049295e-22)
(-0.0854072979212 0.178333866796 -6.06252083104e-23)
(-0.0973295592109 0.187477353482 1.9099079276e-23)
(-0.1185925237 0.184134953956 -3.04457531753e-23)
(-0.139654618499 0.179977556104 7.00933416765e-23)
(-0.160418957631 0.174920167493 -2.57196458343e-23)
(-0.180774432131 0.168888704668 -3.0950721757e-23)
(-0.200589127237 0.161818520335 4.3266333925e-24)
(-0.219711063634 0.153656676225 1.2937798422e-23)
(-0.237969686997 0.144366386611 -4.06335790069e-25)
(-0.255177005762 0.133933392841 -5.53260363201e-24)
(-0.271131493518 0.122373631077 1.46499104847e-23)
(-0.285626868444 0.109741058345 -3.0417800788e-23)
(-0.298465729474 0.0961298405294 6.29880689182e-23)
)
;
    }
}


// ************************************************************************* //
