/*--------------------------------*- C++ -*----------------------------------*\
| =========                 |                                                 |
| \\      /  F ield         | OpenFOAM: The Open Source CFD Toolbox           |
|  \\    /   O peration     | Version:  v2012                                 |
|   \\  /    A nd           | Website:  www.openfoam.com                      |
|    \\/     M anipulation  |                                                 |
\*---------------------------------------------------------------------------*/
FoamFile
{
    version     2.0;
    format      ascii;
    class       volVectorField;
    location    "1";
    object      ddt0(rho,U);
}
// * * * * * * * * * * * * * * * * * * * * * * * * * * * * * * * * * * * * * //

dimensions      [1 -2 -2 0 0 0 0];


internalField   nonuniform List<vector> 
164
(
(-82.9210514715 3.45952258044 -5.81891439351e-19)
(-80.627348668 7.9427733787 2.74597905331e-19)
(-80.7956038268 13.3936866297 -4.05235888918e-19)
(-82.069262758 19.6474167571 3.59175054009e-19)
(-84.0764190706 25.9414358019 -6.95795773161e-20)
(-86.673388722 32.7855124033 -2.62860760348e-19)
(-89.850282068 40.3655084947 -3.11208180088e-20)
(-93.6177943744 48.8324925457 -4.21309358528e-20)
(-87.8320928694 3.44884637052 5.19050735276e-19)
(-86.1891764113 7.16038408249 -1.02965868121e-18)
(-86.094798648 12.0694129017 2.98825030089e-19)
(-87.8264669897 17.7344089871 2.32144750821e-19)
(-90.3402487387 23.3688934297 -3.09052972587e-21)
(-93.5734282486 29.5594123381 1.74209221171e-19)
(-97.5514630607 36.4722312579 1.74605087292e-19)
(-102.185503161 44.1717137877 2.65343381524e-20)
(-92.9599056008 2.62710891588 6.74842467384e-19)
(-91.0291889219 6.19593200396 -7.02593164599e-19)
(-90.9295047044 10.7179534172 -2.54318494375e-19)
(-92.9308694624 15.2072690848 -1.37782299932e-19)
(-95.9034138104 20.2064304879 -2.84303766163e-20)
(-99.7435727491 25.6025089821 8.7532940343e-20)
(-104.494679181 31.795208683 6.9643422173e-20)
(-110.30278722 38.7619426389 1.11877719319e-20)
(-117.231608745 45.0957960299 2.62353442291e-20)
(-125.452629528 53.9882526677 1.49885219064e-19)
(-96.6212421459 2.14830522237 8.70408535985e-19)
(-94.6230924346 4.83485638003 8.4574809249e-19)
(-95.1802259322 8.70924433862 -1.23007646624e-20)
(-97.3021255967 12.4405858986 1.9342403295e-19)
(-100.634711167 16.5040890573 1.30798746363e-19)
(-104.993973979 20.9712385562 -2.12649258088e-22)
(-110.435655733 25.9135904832 -3.32979153762e-21)
(-117.238746205 31.4379022664 6.62269970695e-20)
(-125.477010419 37.4797148818 1.6103189687e-19)
(-133.925656455 44.8233833276 -3.77962593748e-20)
(-99.6611009338 1.84241841477 -4.77585343752e-19)
(-97.7050169665 3.61462621875 -2.63284278196e-18)
(-98.4043612807 6.51326857406 -2.71829548181e-19)
(-100.786894198 9.33229887948 -6.7716042773e-20)
(-104.410180882 12.4021426384 4.32025576743e-20)
(-109.160051155 15.7688299873 6.92087888876e-20)
(-115.11956278 19.5274349117 -4.83197936448e-20)
(-122.398265044 23.710790365 -7.99326888556e-20)
(-131.141823487 28.4121012234 1.12882271228e-19)
(-141.358418963 33.9724041464 4.01368247373e-19)
(-101.776026821 1.46961590784 4.20328050586e-19)
(-99.8897719882 2.27806235451 -3.65522149703e-19)
(-100.710860793 4.17975470516 5.75180246364e-19)
(-103.273118824 6.00953407046 5.99659793536e-19)
(-107.116026477 8.00603886474 1.50552069237e-19)
(-112.152436422 10.2056262484 -3.94949564358e-20)
(-118.449805537 12.6616452796 3.90521630377e-20)
(-126.151518937 15.4115885009 -1.95546102915e-19)
(-135.400974236 18.5108592428 2.37208374871e-20)
(-146.427188563 22.080755221 1.55093171279e-19)
(-102.941330919 1.01217992499 -1.31459961182e-19)
(-101.15606358 0.837167658659 -1.17342862281e-18)
(-102.024712273 1.72775657502 2.48159671219e-19)
(-104.69387213 2.53690335394 8.26293196063e-19)
(-108.68321742 3.41369069767 9.48490308326e-20)
(-113.901396409 4.39332489729 1.38054477628e-19)
(-120.412094472 5.49966317089 5.64470246619e-20)
(-128.345439502 6.74387818816 4.40422624855e-19)
(-137.879112071 8.13282596451 5.58223725501e-20)
(-149.259898028 9.65101919783 -2.79422677102e-20)
(-103.136790278 0.501190918946 8.28226626188e-19)
(-101.440288072 -0.665585655123 -8.51293133619e-19)
(-102.315288335 -0.790461344941 1.44526702171e-19)
(-105.021300114 -1.0251396993 5.08596532314e-19)
(-109.07418957 -1.28686599667 6.40139193742e-20)
(-114.367513902 -1.54758528361 -3.30785941159e-20)
(-120.954643079 -1.80001511014 1.4111727697e-19)
(-128.9556773 -2.0696400498 1.75330152863e-19)
(-138.535601724 -2.40043615781 5.84401047172e-19)
(-149.900280888 -2.86728458044 -1.55248230823e-19)
(-102.349848221 -0.0421560704708 5.23215312959e-19)
(-100.715459768 -2.18976696231 -3.16846146911e-18)
(-101.560680959 -3.3259832825 -1.44538619219e-19)
(-104.243243896 -4.60740733797 3.89748659509e-19)
(-108.279491821 -6.00524499832 6.42005518367e-20)
(-113.545945738 -7.49636649373 1.86480750335e-19)
(-120.081465108 -9.08993797972 1.74723702153e-19)
(-127.9917053 -10.836322198 -3.09622832146e-21)
(-137.415823348 -12.8100297166 3.00473833163e-20)
(-148.506192952 -15.1153840307 3.6394662043e-19)
(-100.576812384 -0.601703988581 1.36558881639e-18)
(-98.9871859861 -3.69556841028 -2.48765966886e-18)
(-99.7647582684 -5.82772736569 2.85485857145e-19)
(-102.371000001 -8.14771597296 9.74884182108e-19)
(-106.315583049 -10.6581364508 1.1042961032e-19)
(-111.461076876 -13.3465799196 2.02009347852e-19)
(-117.83122603 -16.2363054298 3.83225183272e-19)
(-125.517352712 -19.3944553189 4.23066646369e-19)
(-134.631696951 -22.9039863549 3.34573011772e-19)
(-145.283430462 -26.8743389367 1.79498459585e-19)
(-97.8279003707 -1.1667825752 3.04863980613e-18)
(-96.2727771095 -5.15437374838 3.06763290987e-19)
(-96.9545147552 -8.25156187483 8.29774937776e-19)
(-99.4344926945 -11.5850523792 5.92673624136e-19)
(-103.218623903 -15.166672819 3.69305931892e-19)
(-108.159611867 -19.0030216365 1.97542937044e-19)
(-114.267929525 -23.1279402986 2.15341149179e-19)
(-121.619229343 -27.6181386646 5.29470521376e-20)
(-130.305283983 -32.5567918742 2.7442465323e-19)
(-140.419000496 -38.041400442 1.0692447093e-20)
(-94.1364121896 -1.72860119381 5.17244247885e-19)
(-92.6080327316 -6.54294711382 -2.38984477156e-18)
(-93.1721632794 -10.5571439375 4.95113378938e-20)
(-95.4802637923 -14.8625548053 5.63906732335e-19)
(-99.0425660205 -19.4601901988 -3.33624204131e-20)
(-103.703352724 -24.3814271969 -8.79078263156e-20)
(-109.462268173 -29.6691520019 1.30262303414e-20)
(-116.381219243 -35.4068863171 -3.15281536156e-19)
(-124.545291883 -41.6814991533 1.99517296797e-20)
(-134.046504514 -48.5776279454 4.03682918898e-19)
(-89.5500314813 -2.2745910447 6.9381801504e-19)
(-88.0442052217 -7.83753752242 -1.08785483949e-18)
(-88.4743372373 -12.7072362387 -2.60110697045e-19)
(-90.5707567936 -17.9271057597 5.02559385111e-20)
(-93.8533332065 -23.4715988865 8.72212360266e-20)
(-98.1612542377 -29.4028843452 1.47158918113e-19)
(-103.487484742 -35.7721700322 -1.55544984195e-20)
(-109.886405984 -42.6721816845 5.20457963045e-19)
(-117.440274497 -50.1972423505 -8.50824437041e-20)
(-126.23832234 -58.4346625201 -2.6326035973e-19)
(-84.1371596379 -2.79165483171 2.1814727754e-18)
(-82.6509609501 -9.01451870371 -2.4507139227e-18)
(-82.9314923699 -14.6647575737 -1.71114644329e-18)
(-84.7778720543 -20.7257465772 4.73135083585e-19)
(-87.7248147935 -27.1357855039 3.52046584647e-19)
(-91.6112824645 -33.9920002592 5.19099313643e-20)
(-96.4271437707 -41.3543615984 -1.85056143403e-19)
(-102.206810734 -49.3229621614 -2.46150595356e-19)
(-109.037306597 -58.0006349252 -5.41638255189e-19)
(-116.996393321 -67.5077219874 3.00518919395e-19)
(-77.9815552938 -3.2693370665 9.90837234122e-19)
(-76.5125552526 -10.0543283697 -3.4584439462e-18)
(-76.6262126448 -16.3967017909 -1.03682773466e-18)
(-78.1845083118 -23.2103446107 9.55253900334e-19)
(-80.7402418546 -30.3923857795 2.07176154119e-19)
(-84.1342587575 -38.0774873098 1.84431364193e-19)
(-88.3324712797 -46.320757187 5.43922395804e-20)
(-93.3968854425 -55.2384409722 2.14582016103e-19)
(-99.3625898824 -64.945854986 -1.2998906162e-19)
(-106.344939662 -75.6313076208 -2.09738635913e-19)
(-71.1654640873 -3.69703209899 -1.5444762943e-19)
(-69.7185665511 -10.9392559454 -1.86210474888e-18)
(-69.6515629854 -17.8721150754 -8.47825422875e-19)
(-70.8725460072 -25.3343651857 9.68772326876e-20)
(-72.9741143248 -33.1771630338 8.93540123499e-20)
(-75.7753929522 -41.5530366493 5.0761481736e-20)
(-79.283672351 -50.5625665963 3.08603711681e-19)
(-83.5473249 -60.3017056614 4.50540441853e-20)
(-88.5702515967 -70.8986836536 1.15440348633e-19)
(-94.3936977726 -82.5628798963 3.59839028091e-19)
(-63.786067115 -4.06268684403 6.54436478444e-18)
(-62.369948648 -11.6450004923 2.72303268026e-18)
(-62.0920495357 -19.0431886906 4.88421216359e-19)
(-62.9312446802 -27.0277033972 -8.56299371287e-19)
(-64.4948869923 -35.3928563188 7.78188782263e-20)
(-66.6582602479 -44.3548590854 -1.84269684716e-19)
(-69.3976912705 -54.0322772118 5.35496790575e-20)
(-55.4316334709 -36.9998231148 1.60985187763e-19)
)
;

boundaryField
{
    back
    {
        type            calculated;
        value           uniform (0 0 0);
    }
    sides
    {
        type            calculated;
        value           nonuniform List<vector> 0();
    }
    bottom
    {
        type            calculated;
        value           uniform (0 0 0);
    }
    front
    {
        type            calculated;
        value           uniform (0 0 0);
    }
    atmosphere
    {
        type            calculated;
        value           nonuniform List<vector> 0();
    }
    floatingObject
    {
        type            calculated;
        value           nonuniform List<vector> 0();
    }
    procBoundary4to0
    {
        type            processor;
        value           nonuniform List<vector> 8((-77.3008691027 3.59989701958 -2.00820415762e-19) (-74.8425547312 8.6781177536 7.41725540955e-20) (-74.8152547654 14.5300913245 5.18092218209e-19) (-75.7564694899 21.1563426616 1.76124494369e-19) (-77.262309203 27.9361779246 1.57351066334e-19) (-79.2018384552 35.2787070056 -1.59692993956e-20) (-81.5551673005 43.374469133 7.06791652862e-20) (-84.3329946342 52.4074029103 -1.31913939357e-19));
    }
    procBoundary4to3
    {
        type            processor;
        value           nonuniform List<vector> 
13
(
(-72.7675256035 -64.4655210699 2.9752828976e-23)
(-76.8236804417 -75.7265341015 -4.59268525392e-19)
(-81.3942879901 -88.0490655356 5.80566681039e-19)
(-55.9782529107 -4.34899986237 2.1157533537e-18)
(-54.5900200882 -12.1194654597 2.46908297357e-18)
(-54.0744758709 -19.8532073941 -1.81177920412e-19)
(-54.4650919562 -28.2175898806 1.40376643654e-19)
(-56.8507866452 -46.4211636116 -2.6459931077e-20)
(-72.7675256035 -64.4655210699 2.9752828976e-23)
(-58.7665049418 -56.6075949904 -4.02272410389e-21)
(-54.4650919562 -28.2175898806 1.40376643654e-19)
(-56.8507866452 -46.4211636116 -2.6459931077e-20)
(-45.9454912936 -37.8647469416 -4.92502266484e-20)
)
;
    }
    procBoundary4to5
    {
        type            processor;
        value           nonuniform List<vector> 
18
(
(-98.1237010313 58.3893253388 5.92983339651e-20)
(-107.656099803 52.6142673589 1.24580267363e-19)
(-107.656099803 52.6142673589 1.24580267363e-19)
(-115.505007516 62.800289086 9.17046384349e-20)
(-135.215675897 65.7910980218 5.38470450563e-20)
(-145.49182862 53.8168610407 -1.074954372e-19)
(-153.889991519 40.5817709159 -2.02949313768e-19)
(-159.728941571 26.1718889183 -1.23525112744e-19)
(-162.836803874 11.2287960785 -1.91413988424e-20)
(-163.311147405 -3.62738316756 2.65207251906e-19)
(-161.440663383 -17.9358233416 -1.98815783409e-20)
(-157.577748413 -31.459830918 6.11225068771e-19)
(-152.030594665 -44.1801230458 3.13079684004e-20)
(-144.962673659 -56.1725449845 -3.42100077811e-19)
(-136.395419409 -67.4632009368 6.55932001679e-19)
(-126.266156631 -77.9609379315 1.37279269485e-19)
(-114.470512654 -87.4597265281 6.37946362172e-19)
(-101.074888908 -95.591790176 -6.26920207594e-20)
)
;
    }
}


// ************************************************************************* //
