/*--------------------------------*- C++ -*----------------------------------*\
| =========                 |                                                 |
| \\      /  F ield         | OpenFOAM: The Open Source CFD Toolbox           |
|  \\    /   O peration     | Version:  v2012                                 |
|   \\  /    A nd           | Website:  www.openfoam.com                      |
|    \\/     M anipulation  |                                                 |
\*---------------------------------------------------------------------------*/
FoamFile
{
    version     2.0;
    format      ascii;
    class       volScalarField;
    location    "1";
    object      k_0;
}
// * * * * * * * * * * * * * * * * * * * * * * * * * * * * * * * * * * * * * //

dimensions      [0 2 -2 0 0 0 0];


internalField   nonuniform List<scalar> 
164
(
0.0161006588492
0.0195097027163
0.0203313661568
0.0205267866171
0.0205755166085
0.0205984414601
0.0206200888736
0.0206445778851
0.0161105262879
0.0195269913967
0.0203535123929
0.0205512726297
0.0206011944267
0.0206250968358
0.0206478188525
0.0206735541346
0.0161173407275
0.019540532689
0.0203726591402
0.0205732471348
0.0206246074609
0.0206496746434
0.0206736646925
0.0207008683741
0.0207319227965
0.02076682238
0.0161228101909
0.0195488681583
0.0203877444343
0.0205920511667
0.020645354145
0.0206718661952
0.0206973481101
0.020726228992
0.0207591666482
0.0207962272409
0.0161261240328
0.0195519678668
0.0203983833897
0.0206073111131
0.0206630766618
0.0206913361529
0.020718565793
0.0207494005758
0.0207845361033
0.0208240644756
0.0161266163901
0.0195495203301
0.020404184589
0.0206186237854
0.0206773829426
0.0207077202663
0.0207369807508
0.0207700748687
0.0208077374482
0.0208500649276
0.0161236217375
0.0195411197458
0.0204046466103
0.0206255122393
0.0206878398617
0.0207206245032
0.0207522346499
0.0207879136476
0.020828464809
0.0208739824344
0.0161165232516
0.0195263324496
0.0203992617643
0.0206274623341
0.0206939734935
0.0207296174079
0.0207639334133
0.0208025664369
0.0208464101395
0.0208955510834
0.0161047191232
0.0195046396378
0.0203874399887
0.0206239028513
0.0206952645478
0.0207342293262
0.020771652775
0.0208136574305
0.0208612478648
0.0209145024117
0.0160875947692
0.0194755258417
0.0203685752181
0.0206142224541
0.0206911510345
0.0207339532641
0.0207749379935
0.0208207859297
0.0208726354094
0.0209305596523
0.0160645122018
0.0194384895209
0.0203420464874
0.0205977762553
0.0206810307032
0.0207282468815
0.0207733068103
0.0208235288765
0.0208802122437
0.0209434338541
0.0160348131535
0.0193930554761
0.0203072518518
0.020573900736
0.020664270282
0.0207165345053
0.0207662450578
0.0208214362427
0.0208836042863
0.0209528328149
0.0159978441368
0.0193388596439
0.0202636678511
0.020541958817
0.0206402251252
0.0206982142452
0.020753211645
0.0208140452006
0.0208824424424
0.0209584830158
0.0159530198177
0.0192757331064
0.0202109166045
0.0205013805894
0.020608267995
0.0206726809075
0.0207336609572
0.0208008981416
0.0208763749997
0.0209601503388
0.0158998790795
0.0192037455815
0.0201488289839
0.0204517270952
0.020567835762
0.0206393580941
0.0207070738998
0.0207815635767
0.0208650971241
0.0209576607111
0.0158381328209
0.0191232644122
0.0200775311013
0.0203927882646
0.0205185067458
0.0205977674508
0.0206729701738
0.0207556665703
0.0208483666776
0.020951018934
0.0157678030441
0.0190351164227
0.0199976128792
0.0203246854924
0.0204601343496
0.0205475481244
0.0206309927317
0.0203928662419
)
;

boundaryField
{
    back
    {
        type            kqRWallFunction;
        value           nonuniform List<scalar> 
164
(
0.0161006588492
0.0195097027163
0.0203313661568
0.0205267866171
0.0205755166085
0.0205984414601
0.0206200888736
0.0206445778851
0.0161105262879
0.0195269913967
0.0203535123929
0.0205512726297
0.0206011944267
0.0206250968358
0.0206478188525
0.0206735541346
0.0161173407275
0.019540532689
0.0203726591402
0.0205732471348
0.0206246074609
0.0206496746434
0.0206736646925
0.0207008683741
0.0207319227965
0.02076682238
0.0161228101909
0.0195488681583
0.0203877444343
0.0205920511667
0.020645354145
0.0206718661952
0.0206973481101
0.020726228992
0.0207591666482
0.0207962272409
0.0161261240328
0.0195519678668
0.0203983833897
0.0206073111131
0.0206630766618
0.0206913361529
0.020718565793
0.0207494005758
0.0207845361033
0.0208240644756
0.0161266163901
0.0195495203301
0.020404184589
0.0206186237854
0.0206773829426
0.0207077202663
0.0207369807508
0.0207700748687
0.0208077374482
0.0208500649276
0.0161236217375
0.0195411197458
0.0204046466103
0.0206255122393
0.0206878398617
0.0207206245032
0.0207522346499
0.0207879136476
0.020828464809
0.0208739824344
0.0161165232516
0.0195263324496
0.0203992617643
0.0206274623341
0.0206939734935
0.0207296174079
0.0207639334133
0.0208025664369
0.0208464101395
0.0208955510834
0.0161047191232
0.0195046396378
0.0203874399887
0.0206239028513
0.0206952645478
0.0207342293262
0.020771652775
0.0208136574305
0.0208612478648
0.0209145024117
0.0160875947692
0.0194755258417
0.0203685752181
0.0206142224541
0.0206911510345
0.0207339532641
0.0207749379935
0.0208207859297
0.0208726354094
0.0209305596523
0.0160645122018
0.0194384895209
0.0203420464874
0.0205977762553
0.0206810307032
0.0207282468815
0.0207733068103
0.0208235288765
0.0208802122437
0.0209434338541
0.0160348131535
0.0193930554761
0.0203072518518
0.020573900736
0.020664270282
0.0207165345053
0.0207662450578
0.0208214362427
0.0208836042863
0.0209528328149
0.0159978441368
0.0193388596439
0.0202636678511
0.020541958817
0.0206402251252
0.0206982142452
0.020753211645
0.0208140452006
0.0208824424424
0.0209584830158
0.0159530198177
0.0192757331064
0.0202109166045
0.0205013805894
0.020608267995
0.0206726809075
0.0207336609572
0.0208008981416
0.0208763749997
0.0209601503388
0.0158998790795
0.0192037455815
0.0201488289839
0.0204517270952
0.020567835762
0.0206393580941
0.0207070738998
0.0207815635767
0.0208650971241
0.0209576607111
0.0158381328209
0.0191232644122
0.0200775311013
0.0203927882646
0.0205185067458
0.0205977674508
0.0206729701738
0.0207556665703
0.0208483666776
0.020951018934
0.0157678030441
0.0190351164227
0.0199976128792
0.0203246854924
0.0204601343496
0.0205475481244
0.0206309927317
0.0203928662419
)
;
    }
    sides
    {
        type            kqRWallFunction;
        value           nonuniform List<scalar> 0();
    }
    bottom
    {
        type            kqRWallFunction;
        value           nonuniform List<scalar> 
17
(
0.0161006588492
0.0161105262879
0.0161173407275
0.0161228101909
0.0161261240328
0.0161266163901
0.0161236217375
0.0161165232516
0.0161047191232
0.0160875947692
0.0160645122018
0.0160348131535
0.0159978441368
0.0159530198177
0.0158998790795
0.0158381328209
0.0157678030441
)
;
    }
    front
    {
        type            kqRWallFunction;
        value           nonuniform List<scalar> 
164
(
0.0161006588492
0.0195097027163
0.0203313661568
0.0205267866171
0.0205755166085
0.0205984414601
0.0206200888736
0.0206445778851
0.0161105262879
0.0195269913967
0.0203535123929
0.0205512726297
0.0206011944267
0.0206250968358
0.0206478188525
0.0206735541346
0.0161173407275
0.019540532689
0.0203726591402
0.0205732471348
0.0206246074609
0.0206496746434
0.0206736646925
0.0207008683741
0.0207319227965
0.02076682238
0.0161228101909
0.0195488681583
0.0203877444343
0.0205920511667
0.020645354145
0.0206718661952
0.0206973481101
0.020726228992
0.0207591666482
0.0207962272409
0.0161261240328
0.0195519678668
0.0203983833897
0.0206073111131
0.0206630766618
0.0206913361529
0.020718565793
0.0207494005758
0.0207845361033
0.0208240644756
0.0161266163901
0.0195495203301
0.020404184589
0.0206186237854
0.0206773829426
0.0207077202663
0.0207369807508
0.0207700748687
0.0208077374482
0.0208500649276
0.0161236217375
0.0195411197458
0.0204046466103
0.0206255122393
0.0206878398617
0.0207206245032
0.0207522346499
0.0207879136476
0.020828464809
0.0208739824344
0.0161165232516
0.0195263324496
0.0203992617643
0.0206274623341
0.0206939734935
0.0207296174079
0.0207639334133
0.0208025664369
0.0208464101395
0.0208955510834
0.0161047191232
0.0195046396378
0.0203874399887
0.0206239028513
0.0206952645478
0.0207342293262
0.020771652775
0.0208136574305
0.0208612478648
0.0209145024117
0.0160875947692
0.0194755258417
0.0203685752181
0.0206142224541
0.0206911510345
0.0207339532641
0.0207749379935
0.0208207859297
0.0208726354094
0.0209305596523
0.0160645122018
0.0194384895209
0.0203420464874
0.0205977762553
0.0206810307032
0.0207282468815
0.0207733068103
0.0208235288765
0.0208802122437
0.0209434338541
0.0160348131535
0.0193930554761
0.0203072518518
0.020573900736
0.020664270282
0.0207165345053
0.0207662450578
0.0208214362427
0.0208836042863
0.0209528328149
0.0159978441368
0.0193388596439
0.0202636678511
0.020541958817
0.0206402251252
0.0206982142452
0.020753211645
0.0208140452006
0.0208824424424
0.0209584830158
0.0159530198177
0.0192757331064
0.0202109166045
0.0205013805894
0.020608267995
0.0206726809075
0.0207336609572
0.0208008981416
0.0208763749997
0.0209601503388
0.0158998790795
0.0192037455815
0.0201488289839
0.0204517270952
0.020567835762
0.0206393580941
0.0207070738998
0.0207815635767
0.0208650971241
0.0209576607111
0.0158381328209
0.0191232644122
0.0200775311013
0.0203927882646
0.0205185067458
0.0205977674508
0.0206729701738
0.0207556665703
0.0208483666776
0.020951018934
0.0157678030441
0.0190351164227
0.0199976128792
0.0203246854924
0.0204601343496
0.0205475481244
0.0206309927317
0.0203928662419
)
;
    }
    atmosphere
    {
        type            inletOutlet;
        inletValue      nonuniform List<scalar> 0();
        value           nonuniform List<scalar> 0();
    }
    floatingObject
    {
        type            kqRWallFunction;
        value           nonuniform List<scalar> 0();
    }
    procBoundary4to0
    {
        type            processor;
        value           nonuniform List<scalar> 8(0.0160872124976 0.0194895115934 0.020306731608 0.0205000708829 0.0205477734943 0.0205698747015 0.0205906173698 0.0206140477982);
    }
    procBoundary4to3
    {
        type            processor;
        value           nonuniform List<scalar> 
13
(
0.0207229754398
0.0208262168152
0.0209404531385
0.0156894275331
0.018940877964
0.0199103024625
0.0202481504341
0.0204886991879
0.0207229754398
0.020580990549
0.0202481504341
0.0204886991879
0.0203175049204
)
;
    }
    procBoundary4to5
    {
        type            processor;
        value           nonuniform List<scalar> 
18
(
0.020672501341
0.020702909591
0.020702909591
0.0207359457124
0.0208058859006
0.0208376351254
0.0208681354274
0.0208971737333
0.0209245399552
0.0209500215957
0.0209734136584
0.0209945041073
0.021013080949
0.0210289378418
0.0210418928757
0.0210518227161
0.0210587212576
0.0210627292001
)
;
    }
}


// ************************************************************************* //
