/*--------------------------------*- C++ -*----------------------------------*\
| =========                 |                                                 |
| \\      /  F ield         | OpenFOAM: The Open Source CFD Toolbox           |
|  \\    /   O peration     | Version:  v2012                                 |
|   \\  /    A nd           | Website:  www.openfoam.com                      |
|    \\/     M anipulation  |                                                 |
\*---------------------------------------------------------------------------*/
FoamFile
{
    version     2.0;
    format      ascii;
    class       surfaceScalarField;
    location    "3.4";
    object      alphaPhi0.water;
}
// * * * * * * * * * * * * * * * * * * * * * * * * * * * * * * * * * * * * * //

dimensions      [0 3 -1 0 0 0 0];
oriented        oriented;


internalField   nonuniform List<scalar> 
304
(
-2.94150790938e-05
-0.000173938857127
-3.72324576795e-05
-0.000175996876219
-4.5168827369e-05
-0.000177944538363
-5.3187225384e-05
-0.000180001455242
-6.13734441844e-05
-0.000182184136473
-6.96955494324e-05
-0.000184373073771
-7.81925751952e-05
-0.000186399925696
-0.000188023517879
-1.49780639604e-05
-0.000159187633235
-2.28828006646e-05
-0.000163190535822
-3.09377557318e-05
-0.00016588475025
-3.9038262586e-05
-0.000167897206995
-4.71933516986e-05
-0.000169790218009
-5.53788371682e-05
-0.000171816641851
-6.35853596054e-05
-0.000173978105227
-7.17780805163e-05
-0.000176180698142
-7.99089395059e-05
-0.000178269245015
-8.79032447972e-05
-0.000180029271975
-0.000181130197174
-1.57614989087e-05
-0.000151149155392
-2.40463572189e-05
-0.000154906277456
-3.24052319604e-05
-0.000157526519527
-4.0819201775e-05
-0.000159483906876
-4.92131830265e-05
-0.000161396893222
-5.75524265278e-05
-0.000163477992938
-6.58031867363e-05
-0.000165727839963
-7.38885315674e-05
-0.00016809573476
-8.17163188065e-05
-0.000170442010265
-8.91243394594e-05
-0.000172621410545
-1.65810079408e-05
-0.000142666017192
-2.51925855673e-05
-0.000146295128239
-3.39021087832e-05
-0.000148817498167
-4.26175579432e-05
-0.000150769016018
-5.12754635216e-05
-0.00015273954977
-5.98152357947e-05
-0.000154938764222
-6.81993092445e-05
-0.000157344270262
-7.62803614788e-05
-0.000160015230833
-8.39578109226e-05
-0.000162765076112
-0.000165535609642
-8.47984697394e-06
-0.000129093053714
-1.73056489305e-05
-0.000133840443658
-2.63337056038e-05
-0.000137267403519
-3.54295471517e-05
-0.000139722072936
-4.44949120218e-05
-0.000141704121557
-5.34670077055e-05
-0.000143767948889
-6.22923095208e-05
-0.000146113963601
-7.08380568398e-05
-0.000148799082471
-7.90937543669e-05
-0.000151760145762
-8.68185272683e-05
-0.000155041295076
-0.000158537644003
-8.89334013964e-06
-0.000120199837138
-1.80999692739e-05
-0.000124634017824
-2.75221774262e-05
-0.000127845483707
-3.70163183914e-05
-0.000130228291142
-4.64693952499e-05
-0.000132251457357
-5.58129697039e-05
-0.000134424815154
-6.49754578743e-05
-0.000136951972482
-7.38811778759e-05
-0.000139893939261
-8.24297236072e-05
-0.000143212810398
-9.03772486245e-05
-0.000147094338909
-9.28514064285e-06
-0.000110914837038
-1.89259824269e-05
-0.000114993378805
-2.87797666374e-05
-0.000117991966975
-3.86848809925e-05
-0.000120323502444
-4.85524133074e-05
-0.000122384294601
-5.83289134846e-05
-0.000124648724535
-6.79492599594e-05
-0.000127332106369
-7.73351221603e-05
-0.000130509036553
-8.62741753231e-05
-0.000134274570094
-9.69693261251e-06
-0.000101218065802
-1.97886404125e-05
-0.000104901879292
-3.00483545353e-05
-0.000107732508417
-4.03933200626e-05
-0.000109978837175
-5.07335921039e-05
-0.000112044361369
-6.10070492459e-05
-0.000114375651073
-7.11835415643e-05
-0.00011715617958
-8.10880609992e-05
-0.000120605404154
-0.000124635832474
-1.01302860125e-05
-9.10879547359e-05
-2.06187952235e-05
-9.44135773903e-05
-3.13385503388e-05
-9.70129934694e-05
-4.21551591348e-05
-9.91625030315e-05
-5.29881460914e-05
-0.000101211685387
-6.38396681156e-05
-0.000103524492695
-7.45569390695e-05
-0.000106439505784
-8.52188967794e-05
-0.000109944187045
-0.000114267874063
-1.05633013105e-05
-8.05248269805e-05
-2.14917591606e-05
-8.34853128695e-05
-3.26519729058e-05
-8.58529953335e-05
-4.39356419347e-05
-8.7879077774e-05
-5.53041462012e-05
-8.98434650058e-05
-6.66786781381e-05
-9.21503030343e-05
-7.81144496438e-05
-9.50042490543e-05
-8.95112819342e-05
-9.85482019125e-05
-0.000100888817505
-0.000102891368674
-0.000108349076787
-1.09820051544e-05
-6.95429773284e-05
-2.23699557803e-05
-7.20975280252e-05
-3.39277531133e-05
-7.42953793408e-05
-4.56701912383e-05
-7.61368468804e-05
-5.75446401969e-05
-7.79692692303e-05
-6.95182689459e-05
-8.01769976584e-05
-8.16459237944e-05
-8.28770611597e-05
-9.39120633648e-05
-8.62828459132e-05
-0.000106248553241
-9.05559487972e-05
-9.58975244628e-05
-1.1434777409e-05
-5.8108324181e-05
-2.31501278695e-05
-6.03823058675e-05
-3.51181328541e-05
-6.23275146816e-05
-4.7310085912e-05
-6.39450615056e-05
-5.96562730766e-05
-6.56233033704e-05
-7.22417696134e-05
-6.75918120845e-05
-8.50525028245e-05
-7.00667932798e-05
-9.81625006141e-05
-7.31736553749e-05
-0.000111569297543
-7.71503911425e-05
-8.21136988002e-05
-1.18663833453e-05
-4.62420284429e-05
-2.39558404106e-05
-4.82929375398e-05
-3.62453366781e-05
-5.00381341467e-05
-4.87480135032e-05
-5.1442532743e-05
-6.15169617698e-05
-5.28545648991e-05
-7.46147655337e-05
-5.44943153704e-05
-8.80644404197e-05
-5.66176107451e-05
-0.000101940904983
-5.92980884496e-05
-0.000116391289343
-6.27020209791e-05
-6.70541879971e-05
-1.22497138148e-05
-3.39923815061e-05
-2.45104896606e-05
-3.60322325858e-05
-3.69742389762e-05
-3.75744513702e-05
-4.9729291492e-05
-3.86875716245e-05
-6.28676931803e-05
-3.97163267081e-05
-7.63684470339e-05
-4.09939046985e-05
-9.03786481979e-05
-4.26079453602e-05
-0.00010492924261
-4.47490416722e-05
-0.000120162144837
-4.74708211202e-05
-1.23544796734e-05
-2.16379203989e-05
-2.45788632962e-05
-2.38078530503e-05
-3.70892942067e-05
-2.50640485565e-05
-4.99746345632e-05
-2.5802274817e-05
-6.32926724602e-05
-2.63984548329e-05
-7.70682634096e-05
-2.72187042518e-05
-9.13601350279e-05
-2.83168329644e-05
-0.000106343014269
-2.9767630618e-05
-3.16509099302e-05
-1.1768478544e-05
-9.86943898779e-06
-2.3769052477e-05
-1.18073009604e-05
-3.62202272908e-05
-1.2612895567e-05
-4.91209611138e-05
-1.29016254976e-05
-6.24277014505e-05
-1.30919380468e-05
-7.62099846177e-05
-1.34368767337e-05
-9.05438047422e-05
-1.39838830449e-05
-0.00010559953809
-1.47137437911e-05
-1.56683067088e-05
-9.86944224295e-06
-2.16767561282e-05
-3.42896937236e-05
-4.71914067003e-05
-6.02835110761e-05
-7.37206896024e-05
-8.77054183582e-05
-0.000102420118995
)
;

boundaryField
{
    back
    {
        type            calculated;
        value           uniform 0;
    }
    sides
    {
        type            calculated;
        value           uniform 0;
    }
    bottom
    {
        type            calculated;
        value           uniform 0;
    }
    front
    {
        type            calculated;
        value           uniform 0;
    }
    atmosphere
    {
        type            calculated;
        value           nonuniform List<scalar> 0();
    }
    floatingObject
    {
        type            calculated;
        value           nonuniform List<scalar> 0();
    }
    procBoundary10to9
    {
        type            processor;
        value           nonuniform List<scalar> 
15
(
0.000181638071362
0.000183812497925
0.000185879419629
0.000188018552945
0.000190369561962
0.000192694755704
0.00019489730301
0.000196743235852
0.000166841487603
2.17134712199e-05
0.000171093802176
7.32199887154e-06
7.72208905459e-06
8.0976047893e-06
0.000137572792435
)
;
    }
    procBoundary10to11
    {
        type            processor;
        value           nonuniform List<scalar> 
23
(
-8.6912293047e-05
0.000188874417988
-9.56476714936e-05
-9.58932748466e-05
-0.000174361609943
-9.10442448986e-05
-9.38169094333e-05
-9.75645547248e-05
-0.000151351160074
-9.47305939087e-05
-0.000138639079511
-9.07278087301e-05
-9.55881538243e-05
0.000119529542372
-0.000112070802482
-0.000118701384683
-0.000125354795926
-0.000131452420618
-0.000136309514974
-5.09091873878e-05
-0.000122165237459
-0.000121584189244
-0.000118089717929
)
;
    }
}


// ************************************************************************* //
