/*--------------------------------*- C++ -*----------------------------------*\
| =========                 |                                                 |
| \\      /  F ield         | OpenFOAM: The Open Source CFD Toolbox           |
|  \\    /   O peration     | Version:  v2012                                 |
|   \\  /    A nd           | Website:  www.openfoam.com                      |
|    \\/     M anipulation  |                                                 |
\*---------------------------------------------------------------------------*/
FoamFile
{
    version     2.0;
    format      ascii;
    class       volScalarField;
    location    "3.4";
    object      ddt0(epsilon);
}
// * * * * * * * * * * * * * * * * * * * * * * * * * * * * * * * * * * * * * //

dimensions      [0 2 -4 0 0 0 0];


internalField   nonuniform List<scalar> 
167
(
-0.000724951653326
-0.000731716680182
-0.000734585395934
-0.000736600732942
-0.000738604968816
-0.000740834264148
-0.000743151983558
-0.000745640350176
-0.000644106754861
-0.000702610208009
-0.000722707933451
-0.000729565219882
-0.000732477403052
-0.000734514503025
-0.000736555307334
-0.00073880598871
-0.000741225673965
-0.000743771973394
-0.000746916467703
-0.000641767953676
-0.000700230877367
-0.00072042578142
-0.000727337545134
-0.00073028436889
-0.000732341595207
-0.000734399207574
-0.000736658415158
-0.000739132015827
-0.000741707843199
-0.000745177091197
-0.000639343790632
-0.00069778909044
-0.000718044524955
-0.000725010421825
-0.000727986094665
-0.000730057621503
-0.000732119384294
-0.000734378120044
-0.000736808413176
-0.000739448766809
-0.000612759792508
-0.000636848949434
-0.00069525232969
-0.000715576575318
-0.000722595825998
-0.000725599543559
-0.000727677656046
-0.000729729458868
-0.00073196297368
-0.000734384512061
-0.000736885842132
-0.000610000571656
-0.000634278527937
-0.000692643096222
-0.000713036153024
-0.000720112916157
-0.000723142318013
-0.000725222058588
-0.000727257893671
-0.000729509351647
-0.00073173648597
-0.000734197798443
-0.000607086927786
-0.00063164466982
-0.000689978196921
-0.000710446320008
-0.000717581930289
-0.000720639010269
-0.000722722257058
-0.000724775957787
-0.000726885478173
-0.000729085886552
-0.000604097103463
-0.000628962984966
-0.000687275047534
-0.000707825371616
-0.000715027050194
-0.000718120599324
-0.00072022335126
-0.00072223302658
-0.000724286748131
-0.000601071445126
-0.000626238145312
-0.000684554507434
-0.000705198493976
-0.000712480058567
-0.000715623973905
-0.000717741924761
-0.000719705657529
-0.000721710886967
-0.000598000151533
-0.000623515680748
-0.000681844420093
-0.000702593961698
-0.000709971104871
-0.000713174938219
-0.00071531180762
-0.000717275839354
-0.000719167640226
-0.000720854534916
-0.000594895494034
-0.000620801584829
-0.00067914463715
-0.000700009859266
-0.000707499624632
-0.000710786605853
-0.000712971596538
-0.000714936562105
-0.000716765108063
-0.000718207979938
-0.00059178729175
-0.000617976916477
-0.000676316810234
-0.00069729783931
-0.000704920963096
-0.000708322791263
-0.00071058336274
-0.000712582761998
-0.000714384163032
-0.000715670513764
-0.000588312015074
-0.000614581819427
-0.000672723103735
-0.000693757870286
-0.000701518377885
-0.00070506652228
-0.000707450807842
-0.00070953527708
-0.000711386707426
-0.00071256261444
-0.000583209884452
-0.000608635172763
-0.000665970898712
-0.00068682913772
-0.000694685229001
-0.000698406167375
-0.000700975853652
-0.000703243771925
-0.000705201909359
-0.000706502371245
-0.000571714119028
-0.000593612472923
-0.000648397181326
-0.000668409248302
-0.000676175117529
-0.00068005738232
-0.000682878467967
-0.000685407656941
-0.000687690334214
-0.000538420571881
-0.000549646141105
-0.000597177818635
-0.000614615437086
-0.000621713408353
-0.000625614368299
-0.000628647173273
-0.00063148955618
-0.000634179345697
-0.000482466968692
-0.000535836189795
-0.000571807617764
-0.000584953572501
-0.000590559896296
-0.000593855715715
-0.000596470600553
-0.000598787597729
-0.000600807586134
)
;

boundaryField
{
    back
    {
        type            calculated;
        value           nonuniform List<scalar> 
167
(
-0.000724951653326
-0.000731716680182
-0.000734585395934
-0.000736600732942
-0.000738604968816
-0.000740834264148
-0.000743151983558
-0.000745640350176
-0.000644106754861
-0.000702610208009
-0.000722707933451
-0.000729565219882
-0.000732477403052
-0.000734514503025
-0.000736555307334
-0.00073880598871
-0.000741225673965
-0.000743771973394
-0.000746916467703
-0.000641767953676
-0.000700230877366
-0.00072042578142
-0.000727337545134
-0.00073028436889
-0.000732341595207
-0.000734399207574
-0.000736658415158
-0.000739132015827
-0.000741707843199
-0.000745177091197
-0.000639343790632
-0.00069778909044
-0.000718044524955
-0.000725010421825
-0.000727986094665
-0.000730057621503
-0.000732119384294
-0.000734378120044
-0.000736808413176
-0.000739448766809
-0.000612759792508
-0.000636848949434
-0.00069525232969
-0.000715576575318
-0.000722595825998
-0.000725599543559
-0.000727677656046
-0.000729729458868
-0.00073196297368
-0.000734384512061
-0.000736885842132
-0.000610000571656
-0.000634278527937
-0.000692643096222
-0.000713036153024
-0.000720112916157
-0.000723142318013
-0.000725222058588
-0.000727257893671
-0.000729509351647
-0.00073173648597
-0.000734197798443
-0.000607086927786
-0.00063164466982
-0.000689978196921
-0.000710446320008
-0.000717581930289
-0.000720639010269
-0.000722722257058
-0.000724775957787
-0.000726885478173
-0.000729085886552
-0.000604097103463
-0.000628962984966
-0.000687275047534
-0.000707825371616
-0.000715027050194
-0.000718120599324
-0.00072022335126
-0.00072223302658
-0.000724286748131
-0.000601071445126
-0.000626238145312
-0.000684554507434
-0.000705198493976
-0.000712480058567
-0.000715623973905
-0.000717741924761
-0.000719705657529
-0.000721710886967
-0.000598000151533
-0.000623515680748
-0.000681844420093
-0.000702593961698
-0.000709971104871
-0.000713174938219
-0.00071531180762
-0.000717275839354
-0.000719167640226
-0.000720854534916
-0.000594895494034
-0.000620801584829
-0.00067914463715
-0.000700009859266
-0.000707499624632
-0.000710786605853
-0.000712971596538
-0.000714936562105
-0.000716765108063
-0.000718207979938
-0.00059178729175
-0.000617976916477
-0.000676316810234
-0.00069729783931
-0.000704920963096
-0.000708322791263
-0.00071058336274
-0.000712582761998
-0.000714384163032
-0.000715670513764
-0.000588312015074
-0.000614581819427
-0.000672723103735
-0.000693757870286
-0.000701518377885
-0.00070506652228
-0.000707450807842
-0.00070953527708
-0.000711386707426
-0.00071256261444
-0.000583209884452
-0.000608635172763
-0.000665970898712
-0.00068682913772
-0.000694685229001
-0.000698406167375
-0.000700975853652
-0.000703243771925
-0.000705201909359
-0.000706502371245
-0.000571714119028
-0.000593612472923
-0.000648397181326
-0.000668409248302
-0.000676175117529
-0.00068005738232
-0.000682878467967
-0.000685407656941
-0.000687690334214
-0.000538420571881
-0.000549646141105
-0.000597177818635
-0.000614615437086
-0.000621713408353
-0.000625614368299
-0.000628647173273
-0.00063148955618
-0.000634179345697
-0.000482466968692
-0.000535836189795
-0.000571807617764
-0.000584953572501
-0.000590559896297
-0.000593855715715
-0.000596470600553
-0.000598787597729
-0.000600807586134
)
;
    }
    sides
    {
        type            calculated;
        value           nonuniform List<scalar> 9(-0.000482466968692 -0.000535836189795 -0.000571807617764 -0.000584953572501 -0.000590559896297 -0.000593855715715 -0.000596470600553 -0.000598787597729 -0.000600807586134);
    }
    bottom
    {
        type            calculated;
        value           nonuniform List<scalar> 
13
(
-0.000612759792508
-0.000610000571656
-0.000607086927786
-0.000604097103463
-0.000601071445126
-0.000598000151533
-0.000594895494034
-0.00059178729175
-0.000588312015074
-0.000583209884452
-0.000571714119028
-0.000538420571881
-0.000482466968692
)
;
    }
    front
    {
        type            calculated;
        value           nonuniform List<scalar> 
167
(
-0.000724951653326
-0.000731716680182
-0.000734585395934
-0.000736600732942
-0.000738604968816
-0.000740834264148
-0.000743151983558
-0.000745640350176
-0.000644106754861
-0.000702610208009
-0.000722707933451
-0.000729565219882
-0.000732477403052
-0.000734514503025
-0.000736555307334
-0.00073880598871
-0.000741225673965
-0.000743771973394
-0.000746916467703
-0.000641767953676
-0.000700230877366
-0.00072042578142
-0.000727337545134
-0.00073028436889
-0.000732341595207
-0.000734399207574
-0.000736658415158
-0.000739132015827
-0.000741707843199
-0.000745177091197
-0.000639343790632
-0.00069778909044
-0.000718044524955
-0.000725010421825
-0.000727986094665
-0.000730057621503
-0.000732119384294
-0.000734378120044
-0.000736808413176
-0.000739448766809
-0.000612759792508
-0.000636848949434
-0.00069525232969
-0.000715576575318
-0.000722595825998
-0.000725599543559
-0.000727677656046
-0.000729729458868
-0.00073196297368
-0.000734384512061
-0.000736885842132
-0.000610000571656
-0.000634278527937
-0.000692643096222
-0.000713036153024
-0.000720112916157
-0.000723142318013
-0.000725222058588
-0.000727257893671
-0.000729509351647
-0.00073173648597
-0.000734197798443
-0.000607086927786
-0.00063164466982
-0.000689978196921
-0.000710446320008
-0.000717581930289
-0.000720639010269
-0.000722722257058
-0.000724775957787
-0.000726885478173
-0.000729085886552
-0.000604097103463
-0.000628962984966
-0.000687275047534
-0.000707825371616
-0.000715027050194
-0.000718120599324
-0.00072022335126
-0.00072223302658
-0.000724286748131
-0.000601071445126
-0.000626238145312
-0.000684554507434
-0.000705198493976
-0.000712480058567
-0.000715623973905
-0.000717741924761
-0.000719705657529
-0.000721710886967
-0.000598000151533
-0.000623515680748
-0.000681844420093
-0.000702593961698
-0.000709971104871
-0.000713174938219
-0.00071531180762
-0.000717275839354
-0.000719167640226
-0.000720854534916
-0.000594895494034
-0.000620801584829
-0.00067914463715
-0.000700009859266
-0.000707499624632
-0.000710786605853
-0.000712971596538
-0.000714936562105
-0.000716765108063
-0.000718207979938
-0.00059178729175
-0.000617976916477
-0.000676316810234
-0.00069729783931
-0.000704920963096
-0.000708322791263
-0.00071058336274
-0.000712582761998
-0.000714384163032
-0.000715670513764
-0.000588312015074
-0.000614581819427
-0.000672723103735
-0.000693757870286
-0.000701518377885
-0.00070506652228
-0.000707450807842
-0.00070953527708
-0.000711386707426
-0.00071256261444
-0.000583209884452
-0.000608635172763
-0.000665970898712
-0.00068682913772
-0.000694685229001
-0.000698406167375
-0.000700975853652
-0.000703243771925
-0.000705201909359
-0.000706502371245
-0.000571714119028
-0.000593612472923
-0.000648397181326
-0.000668409248302
-0.000676175117529
-0.00068005738232
-0.000682878467967
-0.000685407656941
-0.000687690334214
-0.000538420571881
-0.000549646141105
-0.000597177818635
-0.000614615437086
-0.000621713408353
-0.000625614368299
-0.000628647173273
-0.00063148955618
-0.000634179345697
-0.000482466968692
-0.000535836189795
-0.000571807617764
-0.000584953572501
-0.000590559896297
-0.000593855715715
-0.000596470600553
-0.000598787597729
-0.000600807586134
)
;
    }
    atmosphere
    {
        type            calculated;
        value           nonuniform List<scalar> 0();
    }
    floatingObject
    {
        type            calculated;
        value           nonuniform List<scalar> 0();
    }
    procBoundary10to9
    {
        type            processor;
        value           nonuniform List<scalar> 
15
(
-0.000726927117376
-0.000733661873926
-0.000736506824192
-0.000738474269367
-0.000740459969489
-0.000742605295809
-0.000744936106158
-0.000747080893492
-0.00064621807553
-0.00070482212398
-0.00070482212398
-0.00062040688721
-0.000617978587858
-0.000615443233314
-0.000615443233314
)
;
    }
    procBoundary10to11
    {
        type            processor;
        value           nonuniform List<scalar> 
23
(
-0.000748143401711
-0.000748143401711
-0.000751896257628
-0.000751404836469
-0.000743055219221
-0.000743055219221
-0.000740531557231
-0.00073768304549
-0.000731308236595
-0.000731308236595
-0.000726357467709
-0.000726357467709
-0.00072352119714
-0.00072352119714
-0.000721952556302
-0.00071889171471
-0.000715892410072
-0.000712467338814
-0.000706293350008
-0.000689320587075
-0.000689320587075
-0.000636387657677
-0.000602097037848
)
;
    }
}


// ************************************************************************* //
