/*--------------------------------*- C++ -*----------------------------------*\
| =========                 |                                                 |
| \\      /  F ield         | OpenFOAM: The Open Source CFD Toolbox           |
|  \\    /   O peration     | Version:  v2012                                 |
|   \\  /    A nd           | Website:  www.openfoam.com                      |
|    \\/     M anipulation  |                                                 |
\*---------------------------------------------------------------------------*/
FoamFile
{
    version     2.0;
    format      ascii;
    class       volScalarField;
    location    "5.3";
    object      epsilon;
}
// * * * * * * * * * * * * * * * * * * * * * * * * * * * * * * * * * * * * * //

dimensions      [0 2 -3 0 0 0 0];


internalField   nonuniform List<scalar> 
164
(
0.000463955513012
0.000489349512042
0.000539933050028
0.000560233015903
0.000566726570093
0.000562532308361
0.000542826973734
0.00049740072296
0.000590308705638
0.000587777364021
0.000605020215499
0.000671932686172
0.000669702730297
0.00089129924456
0.000467852820056
0.000492474741777
0.000543455161414
0.000564678172393
0.000573656939331
0.000576014888396
0.000572752463908
0.000564419368257
0.000563117199478
0.000571279133387
0.000583217147387
0.000606705438927
0.000685093710231
0.000830196197989
0.000472088361863
0.000496026571602
0.000547342706265
0.00056914005501
0.000579516204276
0.000585227902771
0.000588781225901
0.000591976249649
0.000597630338762
0.000606691488208
0.000618071756355
0.000637350953007
0.000687064367679
0.000800664095299
0.000476507042499
0.000499858399357
0.000551447661916
0.000573499867553
0.000584388702704
0.000591241683495
0.00059685281215
0.000602591048562
0.000609547572824
0.000618131341186
0.000628810592293
0.000645937314514
0.000684486735644
0.000782866291304
0.000481006053034
0.000503844162129
0.00055567424462
0.0005778007368
0.000588758573217
0.000595803471733
0.000601790178958
0.000607890249441
0.000614699630976
0.000622567827069
0.000632356928022
0.000647886184949
0.00068166636551
0.000772289861993
0.0004854495021
0.000507862417872
0.000559915731451
0.00058202463117
0.000592855476628
0.000599735008438
0.00060553861642
0.000611391261181
0.000617771501677
0.000625036551565
0.000634171759104
0.000648799278065
0.000680727513603
0.000767685988349
0.00048972121335
0.000511798797119
0.000564076431743
0.000586125778945
0.000596753355686
0.000603355526599
0.000608827511073
0.000614291987477
0.00062022103218
0.0006270242064
0.000635835880158
0.000650473349977
0.000682881932593
0.000770110179743
0.000493756743838
0.00051557266363
0.000568075808817
0.000590050150633
0.000600453259569
0.000606756404987
0.000611883551307
0.000616967501823
0.000622499717592
0.000628965218901
0.000637702792465
0.000652958666584
0.000687306856125
0.000777747080994
0.000497554276544
0.000519148055356
0.000571866802019
0.000593761319748
0.000603940147573
0.000609954462104
0.00061476001351
0.000619503804659
0.000624695785402
0.000630884288725
0.000639590421479
0.000655462465312
0.000691607576185
0.00078456142702
0.000501053024967
0.000522486487474
0.000575414748819
0.000597228561401
0.000607192351327
0.000612938649586
0.000617453852336
0.000621896094899
0.000626786552111
0.000632701999237
0.000641251932749
0.000657283676432
0.000694105349517
0.000787417706853
0.000504273549704
0.000525571910506
0.000578695209361
0.000600429497473
0.000610191153753
0.000615692801553
0.000619949195112
0.000624125244593
0.00062874379563
0.000634384499651
0.000642667681407
0.000658489906088
0.000695238675832
0.000788181910546
0.000630550972046
0.00063592960506
0.000643905764324
0.000659357156575
0.000695752527574
0.000788420738745
0.000659705654382
0.00069485550636
0.000785255502115
0.000775908574629
)
;

boundaryField
{
    back
    {
        lowReCorrection 0;
        blending        stepwise;
        n               2;
        type            epsilonWallFunction;
        value           nonuniform List<scalar> 
164
(
0.000463955513012
0.000489349512042
0.000539933050028
0.000560233015903
0.000566726570093
0.000562532308361
0.000542826973734
0.00049740072296
0.000590308705638
0.000587777364021
0.000605020215499
0.000671932686172
0.000669702730297
0.00089129924456
0.000467852820056
0.000492474741777
0.000543455161414
0.000564678172393
0.000573656939331
0.000576014888396
0.000572752463908
0.000564419368257
0.000563117199478
0.000571279133387
0.000583217147387
0.000606705438927
0.000685093710231
0.000830196197989
0.000472088361863
0.000496026571602
0.000547342706265
0.00056914005501
0.000579516204276
0.000585227902771
0.000588781225901
0.000591976249649
0.000597630338762
0.000606691488208
0.000618071756355
0.000637350953007
0.000687064367679
0.000800664095299
0.000476507042499
0.000499858399357
0.000551447661916
0.000573499867553
0.000584388702704
0.000591241683495
0.00059685281215
0.000602591048562
0.000609547572824
0.000618131341186
0.000628810592293
0.000645937314514
0.000684486735644
0.000782866291304
0.000481006053034
0.000503844162129
0.00055567424462
0.0005778007368
0.000588758573217
0.000595803471733
0.000601790178958
0.000607890249441
0.000614699630976
0.000622567827069
0.000632356928022
0.000647886184949
0.00068166636551
0.000772289861993
0.0004854495021
0.000507862417872
0.000559915731451
0.00058202463117
0.000592855476628
0.000599735008438
0.00060553861642
0.000611391261181
0.000617771501677
0.000625036551565
0.000634171759104
0.000648799278065
0.000680727513603
0.000767685988349
0.00048972121335
0.000511798797119
0.000564076431743
0.000586125778945
0.000596753355686
0.000603355526599
0.000608827511073
0.000614291987477
0.00062022103218
0.0006270242064
0.000635835880158
0.000650473349977
0.000682881932593
0.000770110179743
0.000493756743838
0.00051557266363
0.000568075808817
0.000590050150633
0.000600453259569
0.000606756404987
0.000611883551307
0.000616967501823
0.000622499717592
0.000628965218901
0.000637702792465
0.000652958666584
0.000687306856125
0.000777747080994
0.000497554276544
0.000519148055356
0.000571866802019
0.000593761319748
0.000603940147573
0.000609954462104
0.00061476001351
0.000619503804659
0.000624695785402
0.000630884288725
0.000639590421479
0.000655462465312
0.000691607576185
0.00078456142702
0.000501053024967
0.000522486487474
0.000575414748819
0.000597228561401
0.000607192351327
0.000612938649586
0.000617453852336
0.000621896094899
0.000626786552111
0.000632701999237
0.000641251932749
0.000657283676432
0.000694105349517
0.000787417706853
0.000504273549704
0.000525571910506
0.000578695209361
0.000600429497473
0.000610191153753
0.000615692801553
0.000619949195112
0.000624125244593
0.00062874379563
0.000634384499651
0.000642667681407
0.000658489906088
0.000695238675832
0.000788181910546
0.000630550972046
0.00063592960506
0.000643905764324
0.000659357156575
0.000695752527574
0.000788420738745
0.000659705654382
0.00069485550636
0.000785255502115
0.000775908574629
)
;
    }
    sides
    {
        lowReCorrection 0;
        blending        stepwise;
        n               2;
        type            epsilonWallFunction;
        value           nonuniform List<scalar> 0();
    }
    bottom
    {
        lowReCorrection 0;
        blending        stepwise;
        n               2;
        type            epsilonWallFunction;
        value           nonuniform List<scalar> 
11
(
0.000463955513012
0.000467852820056
0.000472088361863
0.000476507042499
0.000481006053034
0.0004854495021
0.00048972121335
0.000493756743838
0.000497554276544
0.000501053024967
0.000504273549704
)
;
    }
    front
    {
        lowReCorrection 0;
        blending        stepwise;
        n               2;
        type            epsilonWallFunction;
        value           nonuniform List<scalar> 
164
(
0.000463955513012
0.000489349512042
0.000539933050028
0.000560233015903
0.000566726570093
0.000562532308361
0.000542826973734
0.00049740072296
0.000590308705638
0.000587777364021
0.000605020215499
0.000671932686172
0.000669702730297
0.00089129924456
0.000467852820056
0.000492474741777
0.000543455161414
0.000564678172393
0.000573656939331
0.000576014888396
0.000572752463908
0.000564419368257
0.000563117199478
0.000571279133387
0.000583217147387
0.000606705438927
0.000685093710231
0.000830196197989
0.000472088361863
0.000496026571602
0.000547342706265
0.00056914005501
0.000579516204276
0.000585227902771
0.000588781225901
0.000591976249649
0.000597630338762
0.000606691488208
0.000618071756355
0.000637350953007
0.000687064367679
0.000800664095299
0.000476507042499
0.000499858399357
0.000551447661916
0.000573499867553
0.000584388702704
0.000591241683495
0.00059685281215
0.000602591048562
0.000609547572824
0.000618131341186
0.000628810592293
0.000645937314514
0.000684486735644
0.000782866291304
0.000481006053034
0.000503844162129
0.00055567424462
0.0005778007368
0.000588758573217
0.000595803471733
0.000601790178958
0.000607890249441
0.000614699630976
0.000622567827069
0.000632356928022
0.000647886184949
0.00068166636551
0.000772289861993
0.0004854495021
0.000507862417872
0.000559915731451
0.00058202463117
0.000592855476628
0.000599735008438
0.00060553861642
0.000611391261181
0.000617771501677
0.000625036551565
0.000634171759104
0.000648799278065
0.000680727513603
0.000767685988349
0.00048972121335
0.000511798797119
0.000564076431743
0.000586125778945
0.000596753355686
0.000603355526599
0.000608827511073
0.000614291987477
0.00062022103218
0.0006270242064
0.000635835880158
0.000650473349977
0.000682881932593
0.000770110179743
0.000493756743838
0.00051557266363
0.000568075808817
0.000590050150633
0.000600453259569
0.000606756404987
0.000611883551307
0.000616967501823
0.000622499717592
0.000628965218901
0.000637702792465
0.000652958666584
0.000687306856125
0.000777747080994
0.000497554276544
0.000519148055356
0.000571866802019
0.000593761319748
0.000603940147573
0.000609954462104
0.00061476001351
0.000619503804659
0.000624695785402
0.000630884288725
0.000639590421479
0.000655462465312
0.000691607576185
0.00078456142702
0.000501053024967
0.000522486487474
0.000575414748819
0.000597228561401
0.000607192351327
0.000612938649586
0.000617453852336
0.000621896094899
0.000626786552111
0.000632701999237
0.000641251932749
0.000657283676432
0.000694105349517
0.000787417706853
0.000504273549704
0.000525571910506
0.000578695209361
0.000600429497473
0.000610191153753
0.000615692801553
0.000619949195112
0.000624125244593
0.00062874379563
0.000634384499651
0.000642667681407
0.000658489906088
0.000695238675832
0.000788181910546
0.000630550972046
0.00063592960506
0.000643905764324
0.000659357156575
0.000695752527574
0.000788420738745
0.000659705654382
0.00069485550636
0.000785255502115
0.000775908574629
)
;
    }
    atmosphere
    {
        type            inletOutlet;
        inletValue      nonuniform List<scalar> 0();
        value           nonuniform List<scalar> 0();
    }
    floatingObject
    {
        lowReCorrection 0;
        blending        stepwise;
        n               2;
        type            epsilonWallFunction;
        value           nonuniform List<scalar> 4(0.000590308705638 0.000587777364021 0.000605020215499 0.000671932686172);
    }
    procBoundary8to3
    {
        type            processor;
        value           nonuniform List<scalar> 8(0.000460543900428 0.000486666778054 0.000536926577621 0.000556301967099 0.000560650429109 0.000551433674527 0.00051769075901 0.000536970162416);
    }
    procBoundary8to6
    {
        type            processor;
        value           nonuniform List<scalar> 
16
(
0.000924120976752
0.00104149514463
0.00128314527687
0.00116710070649
0.00110557077142
0.00106957191714
0.00104672104106
0.00103257994783
0.00103048304746
0.00103864236734
0.00104409721109
0.00104268533857
0.00104021219457
0.00103901855151
0.00103094144592
0.00100904634299
)
;
    }
    procBoundary8to7
    {
        type            processor;
        value           nonuniform List<scalar> 
17
(
0.000507184108357
0.000528382529342
0.000581689685345
0.000603348876043
0.000612924132602
0.000618205834942
0.000622233232191
0.000626174651294
0.000626174651294
0.000632189375345
0.000637313918836
0.00064491957719
0.00064491957719
0.000659292633684
0.000691680135161
0.000691680135161
0.000761701903576
)
;
    }
}


// ************************************************************************* //
