/*--------------------------------*- C++ -*----------------------------------*\
| =========                 |                                                 |
| \\      /  F ield         | OpenFOAM: The Open Source CFD Toolbox           |
|  \\    /   O peration     | Version:  v2012                                 |
|   \\  /    A nd           | Website:  www.openfoam.com                      |
|    \\/     M anipulation  |                                                 |
\*---------------------------------------------------------------------------*/
FoamFile
{
    version     2.0;
    format      ascii;
    class       surfaceVectorField;
    location    "5.3";
    object      Uf_0;
}
// * * * * * * * * * * * * * * * * * * * * * * * * * * * * * * * * * * * * * //

dimensions      [0 1 -1 0 0 0 0];


internalField   nonuniform List<vector> 
300
(
(-0.0040639979044 0.00176670200691 9.16279494815e-21)
(-0.00482779403647 0.000889264415019 3.22291031044e-21)
(-0.00423064296047 0.00362951684431 3.65174852831e-20)
(-0.0051253643406 0.00286633163917 1.05899520007e-20)
(-0.0041509755554 0.00555491842396 1.4391192442e-19)
(-0.00521825176668 0.00484314302283 4.34058045621e-20)
(-0.00370979771217 0.00753578335911 5.18493950665e-19)
(-0.00499760107197 0.00695836301309 1.71539626901e-19)
(-0.00268783563543 0.00969268628931 1.65169867157e-18)
(-0.00447547726254 0.00916537485057 6.12220768842e-19)
(0.000107474779019 0.0122822600779 4.30689210343e-18)
(-0.00352708656997 0.0114861489011 1.91393094643e-18)
(0.00615808923288 0.016634934437 8.91565249031e-18)
(-0.000687028598586 0.0142640068505 4.74849396666e-18)
(0.00439719128037 0.026589814774 1.52819456182e-17)
(0.00335532658666 0.0207388360775 9.01273809732e-18)
(-0.0041022994204 0.0312432026919 1.91562126903e-17)
(-0.00465517416925 0.0277977392248 1.36324507915e-17)
(-0.00532781896702 0.0407445652349 1.64932852583e-17)
(-0.00950347899073 0.0320079665649 1.39001170441e-17)
(0.00137288889246 0.0480017114923 1.39272500243e-17)
(-0.00725937703663 0.0396444070576 1.04330144625e-17)
(0.000595431578901 0.046966459308 1.12212653582e-17)
(0.00103282781392 0.0426637633117 1.14347551403e-17)
(-0.00930367656608 0.0405211366463 6.51262488424e-18)
(-0.0010313161985 0.0416456990517 7.40503719026e-18)
(-0.0094512579746 0.0405914748608 4.90287452834e-18)
(-0.00596007581599 0.00196649765074 4.65006736301e-21)
(-0.00679444580611 0.000984249040345 2.0816756038e-21)
(-0.00619341695718 0.00403320202261 1.74782712798e-20)
(-0.0071922576928 0.00313027438085 4.88419310947e-21)
(-0.00614284774164 0.00622183983234 7.10335070428e-20)
(-0.00740714325093 0.00530542254419 1.93789688612e-20)
(-0.00574190052723 0.00848787202951 2.65266445078e-19)
(-0.00726400977395 0.00766176820026 7.89569295346e-20)
(-0.00499983556766 0.0107509083825 8.74453043693e-19)
(-0.00673906123789 0.0101418120494 2.8929500654e-19)
(-0.00384149430764 0.0131173746035 2.35553280966e-18)
(-0.00589442054274 0.0127358020792 9.24093974194e-19)
(-0.00249050454865 0.0170365737501 4.84557957368e-18)
(-0.00460750673044 0.015706782233 2.34288841988e-18)
(-0.00457953643433 0.0241267626059 7.36324327067e-18)
(-0.00373659738245 0.0208758498738 4.39759818712e-18)
(-0.00955548361805 0.0275650127211 8.37635514538e-18)
(-0.00809558797975 0.025787478236 5.85596684404e-18)
(-0.0110698333944 0.0302642799588 7.83984624837e-18)
(-0.012205211978 0.0282243868382 5.96187293832e-18)
(-0.00716068061334 0.0340108622968 7.94051957857e-18)
(-0.0110085298722 0.0303173923076 5.5189851563e-18)
(-0.00112906991333 0.0407330197458 7.6185269724e-18)
(-0.00569209073807 0.0340197780868 6.5233639091e-18)
(-0.00296371690033 0.041558991075 5.79528683436e-18)
(-0.00186035923483 0.0395218581203 5.5376140947e-18)
(-0.00959041659372 0.0431963059182 4.04040784376e-18)
(-0.00806575100644 0.00211788239448 2.31580135026e-21)
(-0.00891248900378 0.00105759547605 1.64845299638e-21)
(-0.00843099094956 0.00434693811416 6.78489069091e-21)
(-0.00942152983124 0.00333051242125 2.10443294291e-21)
(-0.00853728704209 0.00670740213425 2.7302391353e-20)
(-0.00976793073653 0.00564586543137 7.05341863803e-21)
(-0.00829517282454 0.00922194928981 1.02985490996e-19)
(-0.0097790602727 0.0081795687 2.88326076479e-20)
(-0.00772913350334 0.0119462940231 3.3893593704e-19)
(-0.0094641485322 0.0109032092176 1.06241926321e-19)
(-0.00691091236822 0.015004878624 9.11449584414e-19)
(-0.00895410761541 0.0138787771203 3.37397785878e-19)
(-0.00627276578975 0.0188094349367 1.89490703331e-18)
(-0.00841359847929 0.0172340337369 8.54822551203e-19)
(-0.00774459781743 0.0235477884081 2.89032176049e-18)
(-0.00847694784487 0.0214023986325 1.62867143839e-18)
(-0.0110124210823 0.0264206624914 3.44148463698e-18)
(-0.0109708711166 0.0251929225109 2.18504852009e-18)
(-0.012165357008 0.0279274927111 3.64101184625e-18)
(-0.0137147502305 0.0273589236596 2.38108194544e-18)
(-0.00942765049095 0.0302659778057 4.10182948684e-18)
(-0.0133498386938 0.0288709451129 2.52663147147e-18)
(-0.00600810071044 0.0347222907978 4.4424510314e-18)
(-0.0101514354693 0.0315400759922 3.15598572709e-18)
(-0.00796973399901 0.0407291275508 3.7827351041e-18)
(-0.00787054471893 0.0377079344741 3.08753918794e-18)
(-0.0130345560984 0.0436193766553 2.2558193194e-18)
(-0.0103001751666 0.00222993781091 1.43708458904e-21)
(-0.011142575219 0.00110526059004 1.44318562506e-21)
(-0.0107924677038 0.00457784034505 2.37296089003e-21)
(-0.0117696481504 0.00347002236237 1.02063855768e-21)
(-0.0110491015136 0.00707040736417 8.58363493293e-21)
(-0.0122608462139 0.00587978616062 2.20847399584e-21)
(-0.0109897749783 0.00975194843044 3.20890429726e-20)
(-0.0124611627526 0.00851331997626 8.73385608672e-21)
(-0.0106914945881 0.0126667036919 1.04703775158e-19)
(-0.0123797497418 0.0113385406202 3.18858146451e-20)
(-0.0103540865876 0.0158874891357 2.80770752666e-19)
(-0.012176120027 0.0144005321744 1.00108271739e-19)
(-0.0103339067299 0.0195293528308 5.88586956275e-19)
(-0.0120571290956 0.0177551330732 2.53172394613e-19)
(-0.0114118678753 0.023429344496 9.23398197986e-19)
(-0.0123790657388 0.0214659333562 4.87723568904e-19)
(-0.0134344354365 0.0263057837803 1.12464582855e-18)
(-0.0138498444803 0.0249103432315 6.79785778728e-19)
(-0.0145338339221 0.0281054878321 1.26670157066e-18)
(-0.0155172785969 0.0273767589981 7.53545568398e-19)
(-0.0136526484726 0.0304604574854 1.58078771172e-18)
(-0.01570771968 0.0294326268584 8.69111718626e-19)
(-0.012007353505 0.0348659427344 1.80107388363e-18)
(-0.0145599920019 0.0324342806605 1.14906260965e-18)
(-0.0132354349567 0.0407829441828 1.56062340325e-18)
(-0.013790813747 0.0377963659453 1.15055872923e-18)
(-0.0170793904291 0.0432916591028 8.57140871736e-19)
(-0.0126266418779 0.0022982464615 1.0267395937e-21)
(-0.0134409330834 0.0011308895616 1.29467746207e-21)
(-0.0132509184537 0.00471282046873 8.56151663487e-22)
(-0.0141844031328 0.0035461360534 6.6131268202e-22)
(-0.013673866998 0.0072752749812 2.35869514963e-21)
(-0.0148236199281 0.00599986002289 6.73292675851e-22)
(-0.0138266350543 0.0100073005189 8.5306277592e-21)
(-0.0151937258731 0.00865891769514 2.33679152462e-21)
(-0.0137984967287 0.0129517270318 2.72903112261e-20)
(-0.0153250110178 0.0114827996866 8.26599457178e-21)
(-0.0137659426059 0.016137533969 7.25099136865e-20)
(-0.0153631420538 0.0144996018487 2.52983569887e-20)
(-0.0139537874081 0.0195753184685 1.52309007243e-19)
(-0.0154965612432 0.0177258822062 6.34335802022e-20)
(-0.0147035742797 0.0231128562605 2.44111149646e-19)
(-0.0159186926506 0.0211363797643 1.2273866178e-19)
(-0.0159307576071 0.0261587680012 3.08685518577e-19)
(-0.0168982263704 0.0244201481234 1.75956193149e-19)
(-0.0167729696358 0.0286699476045 3.55955716361e-19)
(-0.0180311758737 0.0272421708189 2.0228040175e-19)
(-0.0167574432662 0.0315268056251 4.37386616555e-19)
(-0.0185673299035 0.0298893582359 2.33152946072e-19)
(-0.0165363660387 0.0354738174326 4.98547455248e-19)
(-0.0185098306306 0.0331727442239 2.97624940114e-19)
(-0.0178395414184 0.0404917200284 4.47076197719e-19)
(-0.0188115936005 0.0377116904464 3.0491618539e-19)
(-0.0210504989267 0.0423813095495 2.38410382292e-19)
(-0.0150021868439 0.0023270902748 9.29250550391e-22)
(-0.015768088419 0.00114163866603 1.27632002657e-21)
(-0.0157525282453 0.00477033044056 4.78453694384e-22)
(-0.0166277737293 0.00356814182139 5.76430794977e-22)
(-0.0163273497688 0.00734368389434 6.51389050844e-22)
(-0.0173972305425 0.00602529620478 2.94643904245e-22)
(-0.0166546870093 0.0100649393581 2.07215833721e-21)
(-0.0179154379699 0.008665313834 6.59890754966e-22)
(-0.0168255790808 0.0129462451726 6.27404033446e-21)
(-0.0182070497566 0.0114356055012 2.01640829612e-21)
(-0.0170015909031 0.0160113787052 1.62220235044e-20)
(-0.0184293580546 0.0143474403127 5.66344260952e-21)
(-0.0173364043828 0.0192331664602 3.38632347396e-20)
(-0.0187198265818 0.0174069277501 1.38959936324e-20)
(-0.0179851694872 0.0225175776862 5.45837052829e-20)
(-0.0192049766679 0.0205832760862 2.67518234635e-20)
(-0.0189105650337 0.025611719877 6.95510763217e-20)
(-0.0199945703277 0.0237291720613 3.86489910502e-20)
(-0.0197496766168 0.0285072323658 7.94776314607e-20)
(-0.0209290800908 0.0266992389674 4.46516867579e-20)
(-0.0202797857875 0.0316242294478 9.33912696306e-20)
(-0.0216866974974 0.0296517121626 5.0218138999e-20)
(-0.0208201469198 0.0353805057216 1.03993670256e-19)
(-0.0222684702055 0.0330018753812 6.04545408784e-20)
(-0.0221012074241 0.0397196317554 9.62503699633e-20)
(-0.0231530338761 0.0369942593105 6.16331630617e-20)
(-0.024814221655 0.0410524414667 4.8577368649e-20)
(-0.0173873352652 0.00233083149745 9.23500271154e-22)
(-0.0180989482981 0.00114270757312 1.15548426824e-21)
(-0.0182543002724 0.00476556967293 3.92621004837e-22)
(-0.0190625971493 0.00355178470777 4.4698807888e-22)
(-0.0189593574025 0.00731375227235 3.03145608367e-22)
(-0.0199456007155 0.00598344143192 1.59190840458e-22)
(-0.0194274530394 0.00998204166567 6.04140713876e-22)
(-0.0205840762792 0.00857411233651 2.74816570496e-22)
(-0.0197468972761 0.0127763860868 1.40581057118e-21)
(-0.0210019709649 0.011266145292 5.8775323503e-22)
(-0.0200656195632 0.0156944849591 3.33741273746e-21)
(-0.0213483232689 0.0140589284094 1.25011774899e-21)
(-0.0205023281352 0.0187287292126 6.78458235625e-21)
(-0.0217552646066 0.0169559829728 2.86801823223e-21)
(-0.0211403604846 0.0218197149931 1.08171092308e-20)
(-0.0222974795175 0.0199424625693 5.33162280408e-21)
(-0.0219712251727 0.0248700008851 1.37496014864e-20)
(-0.0230466338029 0.0229528672301 7.67821918625e-21)
(-0.0228493300594 0.0278861278628 1.53921942963e-20)
(-0.0239471174947 0.0259242221202 8.84859184885e-21)
(-0.0236949911067 0.0310412676906 1.72814102467e-20)
(-0.024843694255 0.0289373433768 9.48147467589e-21)
(-0.0246656105871 0.0345783561695 1.8094033684e-20)
(-0.0258073646745 0.0321904609067 1.05732369258e-20)
(-0.0259455469127 0.0384157073451 1.39601617474e-20)
(-0.0269920999691 0.0357451309066 9.01049616477e-21)
(-0.0283104811644 0.0393148022208 8.04629168485e-22)
(-0.019757506656 0.00231708601292 6.78972075966e-22)
(-0.0204160482028 0.00113558507583 6.60429629248e-22)
(-0.0207269981635 0.00471873860598 2.135579145e-22)
(-0.0214643086547 0.00350708916298 1.44521839161e-22)
(-0.0215396458103 0.00721940661047 1.30861802588e-22)
(-0.0224463980879 0.00589218141853 -3.4354704278e-23)
(-0.0221177582752 0.00981590888624 2.5842909165e-22)
(-0.023180819593 0.00841160561183 1.0118014025e-22)
(-0.0225480762665 0.0125055168864 4.32060412833e-22)
(-0.023691982783 0.0110092266833 2.65125395025e-22)
(-0.0229683902708 0.0152852650363 7.80723243765e-22)
(-0.0241286866986 0.0136815474835 3.95400731946e-22)
(-0.0234834352259 0.0181457366971 1.41505868007e-21)
(-0.0246165943899 0.0164274888477 6.8825062299e-22)
(-0.0241567051239 0.0210737623481 2.19273275952e-21)
(-0.0252266043557 0.0192421190255 1.13056693194e-21)
(-0.0249946311481 0.0240219297765 2.77720954869e-21)
(-0.0259960926955 0.0220978182654 1.61100153788e-21)
(-0.0259425944149 0.0269881278537 2.93787222849e-21)
(-0.0269146998456 0.0249636271456 1.81252666839e-21)
(-0.0269815787474 0.0300713708909 2.77330135497e-21)
(-0.0279282708618 0.0278782932082 1.67610390049e-21)
(-0.0281624205629 0.0333373378512 1.48969940659e-21)
(-0.0290746115866 0.0309260609387 1.21193723316e-21)
(-0.0293936697621 0.0366722989503 -4.14503641412e-21)
(-0.0303282512593 0.0340939477391 -1.46768710204e-21)
(-0.0314570550209 0.0372733405115 -1.14981942585e-20)
(-0.022096697593 0.00228329217814 1.25979392443e-22)
(-0.0226993981695 0.00112000444243 7.4018750745e-23)
(-0.0231503161996 0.00463644667949 -1.03390779617e-22)
(-0.023817542382 0.00343715396094 -1.48943118257e-22)
(-0.0240497688727 0.00706755098044 -6.40363666156e-23)
(-0.0248776121162 0.00575785343358 -2.06198104434e-22)
(-0.0247116775133 0.00957472263584 1.07876443626e-22)
(-0.02568815369 0.00819039090557 -4.13556655011e-24)
(-0.0252226081321 0.0121516437968 2.28465714138e-22)
(-0.0262691540029 0.0106819589619 1.73961087778e-22)
(-0.025718727052 0.014795207806 3.0292811117e-22)
(-0.026772627613 0.0132301214704 2.34416605007e-22)
(-0.0262976025972 0.01749770199 4.0375887486e-22)
(-0.0273196230333 0.0158318078791 2.73732198764e-22)
(-0.0270132894707 0.0202521031734 5.48835710302e-22)
(-0.0279817056757 0.0184813969783 3.4266330123e-22)
(-0.0278770603654 0.0230344615503 6.46318657582e-22)
(-0.0287792980819 0.0211650767935 4.41971498585e-22)
(-0.0288782648041 0.0258343027565 5.50758340391e-22)
(-0.0297154702027 0.0238663677478 4.18186260826e-22)
(-0.0300178557981 0.0287037841381 1.14739778679e-22)
(-0.0307986687841 0.0265970996675 2.34101867304e-22)
(-0.0312676904268 0.0316679374724 -1.74544927547e-21)
(-0.0320396570426 0.0293841341297 -4.270082292e-22)
(-0.0324504862682 0.0346748184193 -8.8208449464e-21)
(-0.033335964692 0.0322236573486 -3.49306890472e-21)
(-0.0344419725717 0.0351460579351 -1.46969358571e-20)
(-0.0243873250678 0.0022332843926 -2.00903759955e-22)
(-0.0249328142364 0.00109719170252 -2.02707046691e-22)
(-0.0255065832369 0.00452023597353 -2.51750443074e-22)
(-0.0261046217383 0.00334336580118 -3.21551384556e-22)
(-0.026473760195 0.00686751803143 -1.46297304369e-22)
(-0.0272250072262 0.0055853694349 -2.44114524274e-22)
(-0.0271991459932 0.00927327919075 6.19490776013e-23)
(-0.0280940200667 0.00792042402085 -1.07038461301e-23)
(-0.0277687206789 0.0117320664754 1.79911978647e-22)
(-0.0287280641311 0.010299964843 1.56820692886e-22)
(-0.0283194399383 0.0142398651598 2.05220692601e-22)
(-0.0292806014368 0.0127236032217 1.94598508394e-22)
(-0.0289444054261 0.0167916971983 2.12636625134e-22)
(-0.0298717209487 0.0151882330872 1.83923426041e-22)
(-0.0296896380024 0.0193728617577 2.35799089513e-22)
(-0.0305632939365 0.0176850660173 1.87505176391e-22)
(-0.0305722802403 0.0219776111303 2.13839101828e-22)
(-0.031384629184 0.020203955992 2.01864122907e-22)
(-0.031602266553 0.024593443678 1.01529787739e-22)
(-0.032332027811 0.0227375886612 1.39695129891e-22)
(-0.0327842190756 0.027238933244 -3.07646140574e-22)
(-0.0334449358714 0.025278460243 -6.98185773844e-23)
(-0.0340775388885 0.0299023865415 -2.17462785845e-21)
(-0.0347038131464 0.0278222904948 -7.51049750635e-22)
(-0.0353287088377 0.0326508442626 -9.36915981545e-21)
(-0.0360851101592 0.0303893326343 -3.78146851736e-21)
(-0.0373724687079 0.033101610229 -1.41876000452e-20)
(-0.0266125892699 0.0021672399633 -3.23354671293e-22)
(-0.0277805342648 0.00437510129245 -3.13915465756e-22)
(-0.0287994497097 0.00662816947665 -1.08521066035e-22)
(-0.0295740374696 0.00892637773895 8.41677691548e-23)
(-0.0301888992128 0.0112664919037 1.71507222633e-22)
(-0.0307802031781 0.0136460435695 1.73301241833e-22)
(-0.0314367357065 0.0160585116731 1.58791977298e-22)
(-0.0321992337661 0.0184936558971 1.53570209786e-22)
(-0.0330887218758 0.0209321854109 1.27720150971e-22)
(-0.0338237688024 0.0192647268373 1.23785646826e-22)
(-0.0341264876551 0.0233878093493 -3.16532352321e-23)
(-0.0347884403777 0.0216516426033 8.48296735769e-23)
(-0.0353249681518 0.0258167307874 -5.13222187445e-22)
(-0.0358747670948 0.0240235385725 -1.13607183487e-22)
(-0.0366790860068 0.0282556106463 -2.35789040954e-21)
(-0.0371435812647 0.026356974691 -7.90286348585e-22)
(-0.0381104891314 0.0307683449275 -8.59990874714e-21)
(-0.0385987661816 0.0286629479849 -3.48656996583e-21)
(-0.0401720885578 0.031073159139 -1.19053129339e-20)
(-0.035464123076 0.0199521435957 8.08951694318e-23)
(-0.0364790670998 0.0222528465853 2.87572532222e-24)
(-0.0376485070344 0.024513456784 -3.90671344628e-22)
(-0.0390166980583 0.0267052359967 -1.91896590487e-21)
(-0.0393368142351 0.025025720085 -6.43909013463e-22)
(-0.0406109448808 0.0288929879041 -6.79197415257e-21)
(-0.0407878205229 0.0270893387213 -2.65958526577e-21)
(-0.0426075534979 0.0291448537581 -8.51862633292e-21)
(-0.0410597817685 0.0253563156058 -1.38452837436e-21)
(-0.0427124473 0.0272784895802 -4.38623744613e-21)
(-0.0446661567703 0.0276806253425 -5.61578385507e-21)
)
;

boundaryField
{
    back
    {
        type            calculated;
        value           uniform (0 0 0);
    }
    sides
    {
        type            calculated;
        value           nonuniform List<vector> 0();
    }
    bottom
    {
        type            calculated;
        value           uniform (0 0 0);
    }
    front
    {
        type            calculated;
        value           uniform (0 0 0);
    }
    atmosphere
    {
        type            calculated;
        value           nonuniform List<vector> 0();
    }
    floatingObject
    {
        type            calculated;
        value           nonuniform List<vector> 4((0 -1.66533453694e-15 2.08166817117e-16) (0 -1.66533453694e-15 2.08166817117e-16) (0 0 0) (0 -3.33066907388e-15 2.08166817117e-16));
    }
    procBoundary8to3
    {
        type            processor;
        value           nonuniform List<vector> 8((-0.00306078267281 0.00080228132227 5.28895972675e-21) (-0.00326222738222 0.0026243346103 1.93224433771e-20) (-0.00329253003652 0.00441247237384 7.79625991111e-20) (-0.00301635227671 0.00624622478105 2.9071397846e-19) (-0.00231811925365 0.00807258318602 9.68042861137e-19) (-0.000936701969813 0.00960177739131 2.86649770401e-18) (0.00366670293442 0.0112964921884 6.62306977807e-18) (0.013311977904 0.0125655073133 1.20954450018e-17));
    }
    procBoundary8to6
    {
        type            processor;
        value           nonuniform List<vector> 
16
(
(-0.00747343585692 0.0215344695079 6.25429288624e-18)
(-0.0147510498585 0.0259623568979 4.24672043969e-18)
(-0.0167701975728 0.0352184411027 3.81219726036e-18)
(-0.0134137897033 0.0416952180067 3.69137103546e-18)
(-0.015507528168 0.0441701167642 2.35998232463e-18)
(-0.0182719246224 0.0448247792907 9.79972674934e-19)
(-0.0212004599609 0.0444602482024 2.8339949537e-19)
(-0.024252636312 0.0434813168071 5.7946646327e-20)
(-0.0273030516697 0.0419104741371 -2.38611338912e-21)
(-0.0302873391664 0.039817843537 -2.17351215923e-20)
(-0.0331961591947 0.0376590105484 -3.03887839235e-20)
(-0.0362342468251 0.0355807008589 -2.98382753517e-20)
(-0.0393971924353 0.0335672203575 -2.60508684193e-20)
(-0.0423945001325 0.0313273482318 -1.89681483725e-20)
(-0.0449962357173 0.0293354523008 -1.24248955794e-20)
(-0.0472889200583 0.0280859775757 -7.37988074068e-21)
)
;
    }
    procBoundary8to7
    {
        type            processor;
        value           nonuniform List<vector> 
17
(
(-0.0271002279042 0.00106837666454 -2.45617650522e-22)
(-0.0283126342306 0.00322905024751 -2.85107624446e-22)
(-0.0294781822612 0.00538210301213 -1.79193308445e-22)
(-0.0303922895578 0.00761349741837 2.1490282329e-23)
(-0.0310682128064 0.00987917865076 1.48596412187e-22)
(-0.0316602027171 0.0121817160292 1.69519981321e-22)
(-0.0322843658767 0.0145197133833 1.49704899914e-22)
(-0.0329987866184 0.0168845246645 1.3663892888e-22)
(-0.0345750313449 0.017629612858 1.0685436592e-22)
(-0.0361471265791 0.0183475895233 7.85601621516e-23)
(-0.0370903542899 0.0206128349185 4.41408123882e-23)
(-0.038136631351 0.0228545607108 -8.23098703186e-23)
(-0.0397828333921 0.0233198428394 -3.35547539154e-22)
(-0.0413759304949 0.0238262052994 -5.55835315032e-22)
(-0.042711416569 0.0257943788146 -2.01302526359e-21)
(-0.0446066287755 0.0261341239893 -3.24257167253e-21)
(-0.0466196670128 0.0268361415153 -4.12974614119e-21)
)
;
    }
}


// ************************************************************************* //
