/*--------------------------------*- C++ -*----------------------------------*\
| =========                 |                                                 |
| \\      /  F ield         | OpenFOAM: The Open Source CFD Toolbox           |
|  \\    /   O peration     | Version:  v2012                                 |
|   \\  /    A nd           | Website:  www.openfoam.com                      |
|    \\/     M anipulation  |                                                 |
\*---------------------------------------------------------------------------*/
FoamFile
{
    version     2.0;
    format      ascii;
    class       volScalarField;
    location    "2.3";
    object      ddt0(epsilon);
}
// * * * * * * * * * * * * * * * * * * * * * * * * * * * * * * * * * * * * * //

dimensions      [0 2 -4 0 0 0 0];


internalField   nonuniform List<scalar> 
164
(
-0.00397440879208
-0.00410717113371
-0.00441543079137
-0.00449676831967
-0.00451627042649
-0.00452358798272
-0.00453005323205
-0.00453734641882
-0.00397383446623
-0.00410499777859
-0.00441654483091
-0.00450041994562
-0.004521283429
-0.00452926219628
-0.00453614609976
-0.004543860609
-0.00397428690701
-0.00410122305509
-0.00441664174734
-0.00450345145874
-0.00452596569074
-0.00453476489378
-0.00454218006378
-0.00455042054773
-0.00455964873463
-0.00456986828724
-0.00397566931573
-0.00409576075476
-0.00441540974322
-0.0045058268957
-0.00453023585695
-0.00453997679346
-0.00454802781028
-0.00455688819676
-0.00456683878388
-0.00457786777896
-0.00396869123327
-0.00409196919767
-0.00441504864695
-0.00450830785961
-0.00453422867031
-0.0045447810945
-0.00455346094863
-0.00456298328761
-0.00457368549581
-0.00458551326088
-0.00396108894771
-0.00408677454181
-0.00441344601232
-0.00450981979766
-0.00453746935722
-0.00454896399153
-0.00455836350382
-0.00456863285849
-0.00458018961171
-0.00459294009839
-0.00395224553171
-0.00408008037922
-0.00441036190547
-0.00451014184264
-0.00453974806681
-0.00455232477014
-0.00456252981448
-0.00457363246077
-0.00458616652666
-0.00459999267394
-0.0039422263779
-0.00407155930824
-0.00440556536411
-0.00450903791641
-0.00454083313603
-0.00455462764803
-0.00456573354483
-0.00457777817468
-0.00459143093841
-0.00460647030614
-0.00393059761739
-0.00406105300789
-0.00439877470585
-0.00450622138205
-0.00454045395271
-0.00455562107345
-0.00456773293064
-0.00458082964504
-0.00459568852785
-0.00461215233015
-0.00391720460027
-0.00404822903413
-0.00438972202153
-0.00450141172271
-0.00453832509919
-0.00455502003945
-0.00456822612162
-0.0045824162488
-0.00459863169498
-0.00461677892521
-0.00390191318737
-0.00403295495318
-0.00437812025521
-0.00449429721605
-0.00453416848544
-0.00455253859494
-0.00456689459249
-0.00458223233357
-0.00459987863032
-0.00461997000218
-0.00388391006948
-0.00401495076394
-0.00436371128096
-0.00448458517488
-0.00452760832791
-0.00454780139707
-0.00456336678689
-0.00457981198343
-0.00459873558435
-0.0046205889908
-0.00386375004625
-0.00399397506297
-0.00434618865903
-0.00447189990411
-0.00451831921291
-0.00454049801496
-0.00455733950177
-0.00457479411291
-0.00459478448518
-0.00461789707882
-0.0038406486507
-0.00397001711337
-0.00432536198084
-0.00445599299375
-0.00450598333316
-0.00453032038001
-0.00454845651317
-0.00456690726611
-0.00458787562892
-0.0046118627
-0.00381490417392
-0.00394305634938
-0.00430118624726
-0.00443658662708
-0.00449027842248
-0.00451687136331
-0.00453637917313
-0.00455585496332
-0.00457772446387
-0.00460262424056
-0.00378622936394
-0.00391313043421
-0.00427353717356
-0.00441356780926
-0.0044709476292
-0.00449985234744
-0.00452081917369
-0.00454129992415
-0.00456404654408
-0.00459007096276
-0.00375517276288
-0.00388064953103
-0.00424275435188
-0.00438696350121
-0.00444779474238
-0.00447907057868
-0.00450145937864
-0.00442104252988
)
;

boundaryField
{
    back
    {
        type            calculated;
        value           nonuniform List<scalar> 
164
(
-0.00397440879208
-0.00410717113371
-0.00441543079137
-0.00449676831967
-0.00451627042649
-0.00452358798272
-0.00453005323205
-0.00453734641882
-0.00397383446623
-0.0041049977786
-0.00441654483091
-0.00450041994562
-0.004521283429
-0.00452926219628
-0.00453614609976
-0.004543860609
-0.00397428690701
-0.00410122305509
-0.00441664174734
-0.00450345145874
-0.00452596569074
-0.00453476489378
-0.00454218006378
-0.00455042054772
-0.00455964873463
-0.00456986828724
-0.00397566931573
-0.00409576075476
-0.00441540974322
-0.0045058268957
-0.00453023585695
-0.00453997679346
-0.00454802781028
-0.00455688819676
-0.00456683878388
-0.00457786777896
-0.00396869123327
-0.00409196919767
-0.00441504864695
-0.00450830785961
-0.00453422867031
-0.0045447810945
-0.00455346094863
-0.00456298328761
-0.00457368549581
-0.00458551326088
-0.00396108894771
-0.00408677454181
-0.00441344601232
-0.00450981979766
-0.00453746935722
-0.00454896399153
-0.00455836350382
-0.00456863285849
-0.00458018961171
-0.00459294009839
-0.00395224553171
-0.00408008037922
-0.00441036190547
-0.00451014184264
-0.00453974806681
-0.00455232477014
-0.00456252981448
-0.00457363246077
-0.00458616652666
-0.00459999267394
-0.0039422263779
-0.00407155930824
-0.00440556536411
-0.00450903791641
-0.00454083313603
-0.00455462764803
-0.00456573354483
-0.00457777817468
-0.00459143093841
-0.00460647030614
-0.00393059761739
-0.00406105300789
-0.00439877470585
-0.00450622138205
-0.00454045395271
-0.00455562107345
-0.00456773293064
-0.00458082964504
-0.00459568852785
-0.00461215233015
-0.00391720460027
-0.00404822903413
-0.00438972202153
-0.00450141172271
-0.00453832509919
-0.00455502003945
-0.00456822612162
-0.0045824162488
-0.00459863169498
-0.00461677892521
-0.00390191318737
-0.00403295495318
-0.00437812025521
-0.00449429721605
-0.00453416848544
-0.00455253859494
-0.00456689459249
-0.00458223233357
-0.00459987863032
-0.00461997000218
-0.00388391006948
-0.00401495076394
-0.00436371128096
-0.00448458517488
-0.00452760832791
-0.00454780139707
-0.00456336678689
-0.00457981198343
-0.00459873558435
-0.0046205889908
-0.00386375004625
-0.00399397506297
-0.00434618865903
-0.00447189990411
-0.00451831921291
-0.00454049801496
-0.00455733950177
-0.00457479411291
-0.00459478448518
-0.00461789707882
-0.0038406486507
-0.00397001711337
-0.00432536198084
-0.00445599299375
-0.00450598333316
-0.00453032038001
-0.00454845651317
-0.00456690726611
-0.00458787562892
-0.0046118627
-0.00381490417392
-0.00394305634938
-0.00430118624726
-0.00443658662708
-0.00449027842248
-0.00451687136331
-0.00453637917313
-0.00455585496332
-0.00457772446387
-0.00460262424056
-0.00378622936394
-0.00391313043421
-0.00427353717356
-0.00441356780926
-0.0044709476292
-0.00449985234744
-0.00452081917369
-0.00454129992415
-0.00456404654408
-0.00459007096276
-0.00375517276288
-0.00388064953103
-0.00424275435188
-0.00438696350121
-0.00444779474238
-0.00447907057868
-0.00450145937864
-0.00442104252988
)
;
    }
    sides
    {
        type            calculated;
        value           nonuniform List<scalar> 0();
    }
    bottom
    {
        type            calculated;
        value           nonuniform List<scalar> 
17
(
-0.00397440879208
-0.00397383446623
-0.00397428690701
-0.00397566931573
-0.00396869123327
-0.00396108894771
-0.00395224553171
-0.0039422263779
-0.00393059761739
-0.00391720460027
-0.00390191318737
-0.00388391006948
-0.00386375004625
-0.0038406486507
-0.00381490417392
-0.00378622936394
-0.00375517276288
)
;
    }
    front
    {
        type            calculated;
        value           nonuniform List<scalar> 
164
(
-0.00397440879208
-0.00410717113371
-0.00441543079137
-0.00449676831967
-0.00451627042649
-0.00452358798272
-0.00453005323205
-0.00453734641882
-0.00397383446623
-0.0041049977786
-0.00441654483091
-0.00450041994562
-0.004521283429
-0.00452926219628
-0.00453614609976
-0.004543860609
-0.00397428690701
-0.00410122305509
-0.00441664174734
-0.00450345145874
-0.00452596569074
-0.00453476489378
-0.00454218006378
-0.00455042054772
-0.00455964873463
-0.00456986828724
-0.00397566931573
-0.00409576075476
-0.00441540974322
-0.0045058268957
-0.00453023585695
-0.00453997679346
-0.00454802781028
-0.00455688819676
-0.00456683878388
-0.00457786777896
-0.00396869123327
-0.00409196919767
-0.00441504864695
-0.00450830785961
-0.00453422867031
-0.0045447810945
-0.00455346094863
-0.00456298328761
-0.00457368549581
-0.00458551326088
-0.00396108894771
-0.00408677454181
-0.00441344601232
-0.00450981979766
-0.00453746935722
-0.00454896399153
-0.00455836350382
-0.00456863285849
-0.00458018961171
-0.00459294009839
-0.00395224553171
-0.00408008037922
-0.00441036190547
-0.00451014184264
-0.00453974806681
-0.00455232477014
-0.00456252981448
-0.00457363246077
-0.00458616652666
-0.00459999267394
-0.0039422263779
-0.00407155930824
-0.00440556536411
-0.00450903791641
-0.00454083313603
-0.00455462764803
-0.00456573354483
-0.00457777817468
-0.00459143093841
-0.00460647030614
-0.00393059761739
-0.00406105300789
-0.00439877470585
-0.00450622138205
-0.00454045395271
-0.00455562107345
-0.00456773293064
-0.00458082964504
-0.00459568852785
-0.00461215233015
-0.00391720460027
-0.00404822903413
-0.00438972202153
-0.00450141172271
-0.00453832509919
-0.00455502003945
-0.00456822612162
-0.0045824162488
-0.00459863169498
-0.00461677892521
-0.00390191318737
-0.00403295495318
-0.00437812025521
-0.00449429721605
-0.00453416848544
-0.00455253859494
-0.00456689459249
-0.00458223233357
-0.00459987863032
-0.00461997000218
-0.00388391006948
-0.00401495076394
-0.00436371128096
-0.00448458517488
-0.00452760832791
-0.00454780139707
-0.00456336678689
-0.00457981198343
-0.00459873558435
-0.0046205889908
-0.00386375004625
-0.00399397506297
-0.00434618865903
-0.00447189990411
-0.00451831921291
-0.00454049801496
-0.00455733950177
-0.00457479411291
-0.00459478448518
-0.00461789707882
-0.0038406486507
-0.00397001711337
-0.00432536198084
-0.00445599299375
-0.00450598333316
-0.00453032038001
-0.00454845651317
-0.00456690726611
-0.00458787562892
-0.0046118627
-0.00381490417392
-0.00394305634938
-0.00430118624726
-0.00443658662708
-0.00449027842248
-0.00451687136331
-0.00453637917313
-0.00455585496332
-0.00457772446387
-0.00460262424056
-0.00378622936394
-0.00391313043421
-0.00427353717356
-0.00441356780926
-0.0044709476292
-0.00449985234744
-0.00452081917369
-0.00454129992415
-0.00456404654408
-0.00459007096276
-0.00375517276288
-0.00388064953103
-0.00424275435188
-0.00438696350121
-0.00444779474238
-0.00447907057868
-0.00450145937864
-0.00442104252988
)
;
    }
    atmosphere
    {
        type            calculated;
        value           nonuniform List<scalar> 0();
    }
    floatingObject
    {
        type            calculated;
        value           nonuniform List<scalar> 0();
    }
    procBoundary4to0
    {
        type            processor;
        value           nonuniform List<scalar> 8(-0.00397452062961 -0.0041080856424 -0.00441356646431 -0.0044927069294 -0.00451106604939 -0.00451786768925 -0.00452405023014 -0.00453110896148);
    }
    procBoundary4to3
    {
        type            processor;
        value           nonuniform List<scalar> 
13
(
-0.0045228804463
-0.00454638233683
-0.00457300224279
-0.00372207141524
-0.00384620800963
-0.00420936434029
-0.0043569936492
-0.0044544327886
-0.0045228804463
-0.00447834773641
-0.0043569936492
-0.0044544327886
-0.00439113959031
)
;
    }
    procBoundary4to5
    {
        type            processor;
        value           nonuniform List<scalar> 
18
(
-0.00454550728655
-0.00455248254741
-0.00455248254741
-0.00456203035734
-0.00458188379463
-0.00459059267437
-0.00459873852517
-0.00460677457801
-0.00461451250454
-0.00462184780022
-0.00462856836294
-0.00463427815076
-0.00464017336778
-0.00464378020123
-0.00464274856548
-0.00463682650924
-0.00462780027468
-0.00461842239544
)
;
    }
}


// ************************************************************************* //
