/*--------------------------------*- C++ -*----------------------------------*\
| =========                 |                                                 |
| \\      /  F ield         | OpenFOAM: The Open Source CFD Toolbox           |
|  \\    /   O peration     | Version:  v2012                                 |
|   \\  /    A nd           | Website:  www.openfoam.com                      |
|    \\/     M anipulation  |                                                 |
\*---------------------------------------------------------------------------*/
FoamFile
{
    version     2.0;
    format      ascii;
    class       volScalarField;
    location    "2.2";
    object      k;
}
// * * * * * * * * * * * * * * * * * * * * * * * * * * * * * * * * * * * * * //

dimensions      [0 2 -2 0 0 0 0];


internalField   nonuniform List<scalar> 
164
(
0.00743687436864
0.00745409772227
0.00747531848742
0.00750707713089
0.00757121306396
0.00773181162628
0.00816109588243
0.00929783013546
0.0121170468903
0.0181095188203
0.0310716564837
0.0678706140495
0.0074443354947
0.00746214092018
0.00748376300627
0.0075151537033
0.00757664502217
0.00772968600317
0.00814514124202
0.00926915866071
0.0120739556969
0.0177644684127
0.0263282871457
0.0363959603594
0.00749192086967
0.00752336533413
0.00758316729276
0.00773144967388
0.00814233529373
0.00929265382573
0.0122585668323
0.0183866787882
0.02750524838
0.0375586163814
0.00749970893401
0.00753156635076
0.00759024906295
0.00773432794797
0.00813983441609
0.00931423455581
0.0125379752567
0.0199771370723
0.0338903265787
0.0667499058636
0.00750703036353
0.00753961605442
0.0075975477677
0.00773746643436
0.00813572873791
0.00933180721631
0.0128938552192
0.0221866782941
0.0408563441908
0.0756657738593
0.00751378958662
0.00754746049072
0.0076052717826
0.00774249205203
0.00813876680741
0.0093762793429
0.0132627078276
0.023613710168
0.0434709363453
0.0775059952723
0.00751979675756
0.00755499118484
0.00761384632151
0.00775316940894
0.00816877971974
0.00950845752293
0.0136776790999
0.0242718996777
0.0438150950822
0.0776301023736
0.00752491694594
0.00756220068349
0.00762440353258
0.00777821281146
0.00826845273818
0.00984647210542
0.0141891588791
0.0236365365642
0.0408914353134
0.0747664785282
0.00752896876625
0.00756895462415
0.0076378434381
0.00782459489089
0.00846119555903
0.0104143001963
0.0148568888041
0.0223127493544
0.0342935678684
0.0489696329289
0.00753163794554
0.00757512686927
0.00765551532602
0.00789451908238
0.00871623399445
0.0110600585473
0.0159944812111
0.0246850718814
0.0404121798243
0.0506210619526
0.00753269097269
0.00758048614302
0.00767687323715
0.00798315738365
0.00899445885204
0.0116328647451
0.0170808152837
0.0287443103591
0.0535890284278
0.0804294095257
0.00753078804134
0.00757734188663
0.00765777038915
0.00788835181503
0.00870623914718
0.0112738388312
0.0176296220129
0.0293272120742
0.0453752068654
0.0733484985962
0.00752772080032
0.00757468322007
0.00764661053696
0.007832907525
0.00853935190126
0.0111443696182
0.018462631808
0.0319096660839
0.0494248970006
0.0781206128897
0.00752328654907
0.00757250295493
0.00764859349886
0.00786390026172
0.00874543652734
0.0119051264524
0.0196946408597
0.0326178467617
0.0492725644047
0.0752706870082
0.00751731738251
0.00757027090858
0.00766310680038
0.00798973496915
0.00937674208332
0.0135637531285
0.0213108500261
0.0322707615621
0.0461803278696
0.0631583365182
0.00750883551705
0.0075602074126
0.00762865082629
0.00778719885895
0.0084081901389
0.010789074376
0.0176635227797
0.031791118652
0.0506147900495
0.0787351089198
)
;

boundaryField
{
    back
    {
        type            kqRWallFunction;
        value           nonuniform List<scalar> 
164
(
0.00743687436864
0.00745409772227
0.00747531848742
0.00750707713089
0.00757121306396
0.00773181162628
0.00816109588243
0.00929783013546
0.0121170468903
0.0181095188203
0.0310716564837
0.0678706140495
0.0074443354947
0.00746214092018
0.00748376300627
0.0075151537033
0.00757664502217
0.00772968600317
0.00814514124202
0.00926915866071
0.0120739556969
0.0177644684127
0.0263282871457
0.0363959603594
0.00749192086967
0.00752336533413
0.00758316729276
0.00773144967388
0.00814233529373
0.00929265382573
0.0122585668323
0.0183866787882
0.02750524838
0.0375586163814
0.00749970893401
0.00753156635076
0.00759024906295
0.00773432794797
0.00813983441609
0.00931423455581
0.0125379752567
0.0199771370723
0.0338903265787
0.0667499058636
0.00750703036353
0.00753961605442
0.0075975477677
0.00773746643436
0.00813572873791
0.00933180721631
0.0128938552192
0.0221866782941
0.0408563441908
0.0756657738593
0.00751378958662
0.00754746049072
0.0076052717826
0.00774249205203
0.00813876680741
0.0093762793429
0.0132627078276
0.023613710168
0.0434709363453
0.0775059952723
0.00751979675756
0.00755499118484
0.00761384632151
0.00775316940894
0.00816877971974
0.00950845752293
0.0136776790999
0.0242718996777
0.0438150950822
0.0776301023736
0.00752491694594
0.00756220068349
0.00762440353258
0.00777821281146
0.00826845273818
0.00984647210542
0.0141891588791
0.0236365365642
0.0408914353134
0.0747664785282
0.00752896876625
0.00756895462415
0.0076378434381
0.00782459489089
0.00846119555903
0.0104143001963
0.0148568888041
0.0223127493544
0.0342935678684
0.0489696329289
0.00753163794554
0.00757512686927
0.00765551532602
0.00789451908238
0.00871623399445
0.0110600585473
0.0159944812111
0.0246850718814
0.0404121798243
0.0506210619526
0.00753269097269
0.00758048614302
0.00767687323715
0.00798315738365
0.00899445885204
0.0116328647451
0.0170808152837
0.0287443103591
0.0535890284278
0.0804294095257
0.00753078804134
0.00757734188663
0.00765777038915
0.00788835181503
0.00870623914718
0.0112738388312
0.0176296220129
0.0293272120742
0.0453752068654
0.0733484985962
0.00752772080032
0.00757468322007
0.00764661053696
0.007832907525
0.00853935190126
0.0111443696182
0.018462631808
0.0319096660839
0.0494248970006
0.0781206128897
0.00752328654907
0.00757250295493
0.00764859349886
0.00786390026172
0.00874543652734
0.0119051264524
0.0196946408597
0.0326178467617
0.0492725644047
0.0752706870082
0.00751731738251
0.00757027090858
0.00766310680038
0.00798973496915
0.00937674208332
0.0135637531285
0.0213108500261
0.0322707615621
0.0461803278696
0.0631583365182
0.00750883551705
0.0075602074126
0.00762865082629
0.00778719885895
0.0084081901389
0.010789074376
0.0176635227797
0.031791118652
0.0506147900495
0.0787351089198
)
;
    }
    sides
    {
        type            kqRWallFunction;
        value           nonuniform List<scalar> 0();
    }
    bottom
    {
        type            kqRWallFunction;
        value           nonuniform List<scalar> 0();
    }
    front
    {
        type            kqRWallFunction;
        value           nonuniform List<scalar> 
164
(
0.00743687436864
0.00745409772227
0.00747531848742
0.00750707713089
0.00757121306396
0.00773181162628
0.00816109588243
0.00929783013546
0.0121170468903
0.0181095188203
0.0310716564837
0.0678706140495
0.0074443354947
0.00746214092018
0.00748376300627
0.0075151537033
0.00757664502217
0.00772968600317
0.00814514124202
0.00926915866071
0.0120739556969
0.0177644684127
0.0263282871457
0.0363959603594
0.00749192086967
0.00752336533413
0.00758316729276
0.00773144967388
0.00814233529373
0.00929265382573
0.0122585668323
0.0183866787882
0.02750524838
0.0375586163814
0.00749970893401
0.00753156635076
0.00759024906295
0.00773432794797
0.00813983441609
0.00931423455581
0.0125379752567
0.0199771370723
0.0338903265787
0.0667499058636
0.00750703036353
0.00753961605442
0.0075975477677
0.00773746643436
0.00813572873791
0.00933180721631
0.0128938552192
0.0221866782941
0.0408563441908
0.0756657738593
0.00751378958662
0.00754746049072
0.0076052717826
0.00774249205203
0.00813876680741
0.0093762793429
0.0132627078276
0.023613710168
0.0434709363453
0.0775059952723
0.00751979675756
0.00755499118484
0.00761384632151
0.00775316940894
0.00816877971974
0.00950845752293
0.0136776790999
0.0242718996777
0.0438150950822
0.0776301023736
0.00752491694594
0.00756220068349
0.00762440353258
0.00777821281146
0.00826845273818
0.00984647210542
0.0141891588791
0.0236365365642
0.0408914353134
0.0747664785282
0.00752896876625
0.00756895462415
0.0076378434381
0.00782459489089
0.00846119555903
0.0104143001963
0.0148568888041
0.0223127493544
0.0342935678684
0.0489696329289
0.00753163794554
0.00757512686927
0.00765551532602
0.00789451908238
0.00871623399445
0.0110600585473
0.0159944812111
0.0246850718814
0.0404121798243
0.0506210619526
0.00753269097269
0.00758048614302
0.00767687323715
0.00798315738365
0.00899445885204
0.0116328647451
0.0170808152837
0.0287443103591
0.0535890284278
0.0804294095257
0.00753078804134
0.00757734188663
0.00765777038915
0.00788835181503
0.00870623914718
0.0112738388312
0.0176296220129
0.0293272120742
0.0453752068654
0.0733484985962
0.00752772080032
0.00757468322007
0.00764661053696
0.007832907525
0.00853935190126
0.0111443696182
0.018462631808
0.0319096660839
0.0494248970006
0.0781206128897
0.00752328654907
0.00757250295493
0.00764859349886
0.00786390026172
0.00874543652734
0.0119051264524
0.0196946408597
0.0326178467617
0.0492725644047
0.0752706870082
0.00751731738251
0.00757027090858
0.00766310680038
0.00798973496915
0.00937674208332
0.0135637531285
0.0213108500261
0.0322707615621
0.0461803278696
0.0631583365182
0.00750883551705
0.0075602074126
0.00762865082629
0.00778719885895
0.0084081901389
0.010789074376
0.0176635227797
0.031791118652
0.0506147900495
0.0787351089198
)
;
    }
    atmosphere
    {
        type            inletOutlet;
        inletValue      uniform 0.1;
        value           nonuniform List<scalar> 
16
(
0.1
0.0363959603594
0.0375586163814
0.1
0.1
0.1
0.1
0.1
0.0489696329289
0.0506210619526
0.1
0.1
0.1
0.0752706870082
0.0631583365182
0.1
)
;
    }
    floatingObject
    {
        type            kqRWallFunction;
        value           nonuniform List<scalar> 0();
    }
    procBoundary5to0
    {
        type            processor;
        value           nonuniform List<scalar> 
12
(
0.00742877418288
0.00744557478914
0.00746659974668
0.00749904823173
0.00756640662901
0.00773573696882
0.00818146780437
0.00934089286273
0.0122132177665
0.0184306750018
0.0310228115891
0.0669650517421
)
;
    }
    procBoundary5to3
    {
        type            processor;
        value           nonuniform List<scalar> 10(0.00749992088554 0.00755269901061 0.00761507426007 0.00772360353076 0.00809472968145 0.00970385874852 0.0157179519418 0.0305923490043 0.0517995993133 0.0802425920444);
    }
    procBoundary5to4
    {
        type            processor;
        value           nonuniform List<scalar> 
18
(
0.00742188119715
0.00742878974694
0.00745109248424
0.00746965197125
0.00746965197125
0.00747655487537
0.00748275333885
0.00748813632732
0.00749254708796
0.00749582161038
0.00749778510843
0.00749824062367
0.00749696007665
0.00749364788162
0.00748869665732
0.00748199698647
0.00747350976377
0.00746311869325
)
;
    }
}


// ************************************************************************* //
