/*--------------------------------*- C++ -*----------------------------------*\
| =========                 |                                                 |
| \\      /  F ield         | OpenFOAM: The Open Source CFD Toolbox           |
|  \\    /   O peration     | Version:  v2012                                 |
|   \\  /    A nd           | Website:  www.openfoam.com                      |
|    \\/     M anipulation  |                                                 |
\*---------------------------------------------------------------------------*/
FoamFile
{
    version     2.0;
    format      ascii;
    class       volScalarField;
    location    "0.6";
    object      nut;
}
// * * * * * * * * * * * * * * * * * * * * * * * * * * * * * * * * * * * * * //

dimensions      [0 2 -1 0 0 0 0];


internalField   nonuniform List<scalar> 
164
(
0.00143056515754
0.00197324108339
0.0020118538084
0.00204177287488
0.00206966189885
0.00210795990323
0.00226557741761
0.00318963123977
0.00136251203526
0.00194679198691
0.00199433796395
0.00202784785201
0.00205936014466
0.00209723265196
0.00219241130327
0.00278975836463
0.00136251359145
0.00194679621147
0.00199434526837
0.0020278562555
0.00205937120025
0.00209724415009
0.00219233940819
0.00278981060952
0.00143056916147
0.00197324894046
0.0020118667427
0.00204178744073
0.00206967914339
0.00210797522533
0.00226558106233
0.00318962663136
0.00202947761235
0.00205214105076
0.00207508084929
0.00211466646729
0.00235156111268
0.00343767926449
0.00204538698748
0.00205817878527
0.00207595953694
0.00211824108044
0.00247095383697
0.00358329240367
0.00204604070336
0.00205665273305
0.00207387369906
0.00211399756324
0.00244606736285
0.00348884949529
0.00204316907392
0.00205391527316
0.00207310350099
0.00211623567285
0.0022582882905
0.00309430423138
0.00204001149031
0.00205121610729
0.00207344435243
0.00212742385503
0.00231639213616
0.00330924791688
0.00203695658654
0.00204859381581
0.00207415702829
0.00213964750061
0.00236177349564
0.00343196129486
0.0020340065837
0.00204618893665
0.00207537090353
0.00215142893039
0.0023615174997
0.00320529411478
0.00203112465093
0.00204397482707
0.00207738446511
0.00216599675456
0.00237846931578
0.00303506404073
0.00202830947815
0.00204196593217
0.00208004378399
0.0021822850865
0.0024027940605
0.00279011353407
0.0020255448971
0.00204011222994
0.00208315990022
0.00220011616899
0.00245009569295
0.00293037085316
0.00202285078938
0.00203842895125
0.00208653413864
0.00221789722721
0.00249617162455
0.00298620703605
0.00202023032389
0.00203688926663
0.00208999516177
0.00223452724558
0.00253947320615
0.00313696153862
0.0020177115779
0.00203547388132
0.00209393031669
0.00225224692309
0.00257309091352
0.00315310704706
0.00201536191127
0.00203465500815
0.00209784029575
0.00226482751175
0.00259672708624
0.00316464524962
0.00201308539037
0.0020332825416
0.00209962270381
0.0022730644851
0.00261321808037
0.00317334900671
0.00201074319445
0.00203139974066
0.00209953772201
0.00227730435168
0.00262357542538
0.00317927292128
0.00200835794522
0.00202905953146
0.00209786062902
0.00227819477107
0.00262907434608
0.00318274706737
0.00200595187677
0.00202634712107
0.00209485885521
0.00227626485622
0.00263075406232
0.00318399991192
0.00200355323797
0.00202337140722
0.00209084567792
0.00227214279239
0.00262986257431
0.00318253905671
0.00200118938531
0.00202023465755
0.00208609035494
0.00226619105659
0.00262683325601
0.00317711986708
0.00208084660352
0.00225884418752
0.00262332199754
0.00317847097721
0.0020753367188
0.00225037499633
0.0026174078728
0.00319392716448
0.00206972113864
0.00224123710588
0.00260816335836
0.00319292643559
)
;

boundaryField
{
    back
    {
        type            nutkWallFunction;
        blending        stepwise;
        Cmu             0.09;
        kappa           0.41;
        E               9.8;
        value           nonuniform List<scalar> 
164
(
0.000181257084951
0.00018692385877
0.00019020185365
0.000192722219929
0.000195067451878
0.000198205945639
0.000209649768848
0.000278334834988
0.00017357186856
0.000184662955092
0.000188716753849
0.000191552441748
0.000194207252448
0.000197351547211
0.000204549987122
0.000247936955983
0.000173572053991
0.000184663312462
0.000188717366702
0.000191553133171
0.000194208184143
0.000197352748694
0.000204547893958
0.000247928378644
0.000181257529042
0.000186924513421
0.000190202912376
0.000192723323896
0.000195068763982
0.000198207482797
0.000209650169035
0.000278334713814
0.000191660542706
0.000193571845237
0.000195518824734
0.000198719484746
0.000215122371692
0.000304245385856
0.000192951269557
0.000194047596176
0.000195600865003
0.000198988458152
0.000222081122206
0.000387705340877
0.000192974675177
0.000193896364978
0.00019543755835
0.000198829089719
0.000217296057525
0.000304086385341
0.000192711953717
0.0001936391642
0.000195340728735
0.000199132963626
0.000210872767407
0.000270151521127
0.000192428525878
0.000193389727998
0.000195337351418
0.000200007573137
0.000214511427899
0.000287321292857
0.000192155304199
0.000193151219856
0.000195378857371
0.000201057434851
0.000218616940454
0.000378341898641
0.000191891060733
0.000192929123602
0.000195463564907
0.000202115556937
0.000219527033267
0.000303939064626
0.00019163196609
0.000192720186163
0.000195606477913
0.000203372916501
0.000221719794005
0.000303745625159
0.000191378334762
0.000192525946945
0.000195792745357
0.000204724052576
0.000224395386467
0.000312733338508
0.000191129120269
0.000192342422918
0.000196004364798
0.000206128761653
0.000228220888218
0.000337984596862
0.000190886985734
0.000192172876391
0.000196227642903
0.000207477752884
0.000231719876731
0.000347634367135
0.000190652653995
0.000192016309879
0.000196451311613
0.000208717970737
0.000234663190008
0.000355047588092
0.000190428586149
0.000191875303625
0.000196688295465
0.000209763847181
0.000236618630302
0.000356336823859
0.000190217115987
0.00019174083758
0.000196810811162
0.000210400146748
0.00023789560273
0.000357226825284
0.00019000646687
0.000191563514142
0.000196774892415
0.000210694937842
0.000238629186563
0.000357807397274
0.00018979433219
0.000191351321638
0.000196604743437
0.000210698018887
0.000238939147389
0.00035812291273
0.000189582693922
0.000191111742022
0.000196328723227
0.000210469057704
0.000238934000829
0.00035822168903
0.000189373607082
0.000190853038774
0.00019597123694
0.000210052123567
0.000238694261233
0.000358161275514
0.000189169182042
0.000190583801705
0.000195557385188
0.000209492799546
0.000238292898369
0.000358064908731
0.000188971207879
0.000190311377684
0.000195108421806
0.000208824932787
0.00023775550382
0.000358055381547
0.000194641911114
0.00020808172324
0.000237096756342
0.000358506396783
0.000194171686857
0.000207292681068
0.000236270122539
0.000300733176067
0.000193707357701
0.000206487138524
0.000235334257813
0.00029157407959
)
;
    }
    sides
    {
        type            nutkWallFunction;
        blending        stepwise;
        Cmu             0.09;
        kappa           0.41;
        E               9.8;
        value           nonuniform List<scalar> 0();
    }
    bottom
    {
        type            nutkWallFunction;
        blending        stepwise;
        Cmu             0.09;
        kappa           0.41;
        E               9.8;
        value           nonuniform List<scalar> 0();
    }
    front
    {
        type            nutkWallFunction;
        blending        stepwise;
        Cmu             0.09;
        kappa           0.41;
        E               9.8;
        value           nonuniform List<scalar> 
164
(
0.000181257084951
0.00018692385877
0.00019020185365
0.000192722219929
0.000195067451878
0.000198205945639
0.000209649768848
0.000278334834988
0.00017357186856
0.000184662955092
0.000188716753849
0.000191552441748
0.000194207252448
0.000197351547211
0.000204549987122
0.000247936955983
0.000173572053991
0.000184663312462
0.000188717366702
0.000191553133171
0.000194208184143
0.000197352748694
0.000204547893958
0.000247928378644
0.000181257529042
0.000186924513421
0.000190202912376
0.000192723323896
0.000195068763982
0.000198207482797
0.000209650169035
0.000278334713814
0.000191660542706
0.000193571845237
0.000195518824734
0.000198719484746
0.000215122371692
0.000304245385856
0.000192951269557
0.000194047596176
0.000195600865003
0.000198988458152
0.000222081122206
0.000387705340877
0.000192974675177
0.000193896364978
0.00019543755835
0.000198829089719
0.000217296057525
0.000304086385341
0.000192711953717
0.0001936391642
0.000195340728735
0.000199132963626
0.000210872767407
0.000270151521127
0.000192428525878
0.000193389727998
0.000195337351418
0.000200007573137
0.000214511427899
0.000287321292857
0.000192155304199
0.000193151219856
0.000195378857371
0.000201057434851
0.000218616940454
0.000378341898641
0.000191891060733
0.000192929123602
0.000195463564907
0.000202115556937
0.000219527033267
0.000303939064626
0.00019163196609
0.000192720186163
0.000195606477913
0.000203372916501
0.000221719794005
0.000303745625159
0.000191378334762
0.000192525946945
0.000195792745357
0.000204724052576
0.000224395386467
0.000312733338508
0.000191129120269
0.000192342422918
0.000196004364798
0.000206128761653
0.000228220888218
0.000337984596862
0.000190886985734
0.000192172876391
0.000196227642903
0.000207477752884
0.000231719876731
0.000347634367135
0.000190652653995
0.000192016309879
0.000196451311613
0.000208717970737
0.000234663190008
0.000355047588092
0.000190428586149
0.000191875303625
0.000196688295465
0.000209763847181
0.000236618630302
0.000356336823859
0.000190217115987
0.00019174083758
0.000196810811162
0.000210400146748
0.00023789560273
0.000357226825284
0.00019000646687
0.000191563514142
0.000196774892415
0.000210694937842
0.000238629186563
0.000357807397274
0.00018979433219
0.000191351321638
0.000196604743437
0.000210698018887
0.000238939147389
0.00035812291273
0.000189582693922
0.000191111742022
0.000196328723227
0.000210469057704
0.000238934000829
0.00035822168903
0.000189373607082
0.000190853038774
0.00019597123694
0.000210052123567
0.000238694261233
0.000358161275514
0.000189169182042
0.000190583801705
0.000195557385188
0.000209492799546
0.000238292898369
0.000358064908731
0.000188971207879
0.000190311377684
0.000195108421806
0.000208824932787
0.00023775550382
0.000358055381547
0.000194641911114
0.00020808172324
0.000237096756342
0.000358506396783
0.000194171686857
0.000207292681068
0.000236270122539
0.000300733176067
0.000193707357701
0.000206487138524
0.000235334257813
0.00029157407959
)
;
    }
    atmosphere
    {
        type            calculated;
        value           nonuniform List<scalar> 
27
(
0.00318963123977
0.00278975836463
0.00278981060952
0.00318962663136
0.00343767926449
0.009
0.009
0.00309430423138
0.00330924791688
0.009
0.009
0.009
0.00279011353407
0.009
0.009
0.009
0.009
0.009
0.009
0.009
0.009
0.009
0.009
0.009
0.009
0.009
0.009
)
;
    }
    floatingObject
    {
        type            nutkWallFunction;
        blending        stepwise;
        Cmu             0.09;
        kappa           0.41;
        E               9.8;
        value           nonuniform List<scalar> 4(9.64064207872e-05 9.23276216535e-05 9.23277200797e-05 9.64066564535e-05);
    }
    procBoundary6to3
    {
        type            processor;
        value           nonuniform List<scalar> 8(0.00195475031788 0.00199960151577 0.00202946291929 0.00205212419802 0.0020750622379 0.0021146466535 0.00235154633868 0.00343767249069);
    }
    procBoundary6to7
    {
        type            processor;
        value           nonuniform List<scalar> 
11
(
0.00200673730954
0.00200447421214
0.00200225689102
0.00200009399788
0.00199799428364
0.00199596546817
0.00199888419821
0.00201702722699
0.00201702722699
0.00201382278578
0.00201067644855
)
;
    }
    procBoundary6to8
    {
        type            processor;
        value           nonuniform List<scalar> 
16
(
0.00195475420332
0.00199960876145
0.00199960876145
0.00203215737006
0.00203645465269
0.00203433390331
0.00203157316586
0.00202890120097
0.0020263276849
0.00202379711754
0.00202128709516
0.00201878346579
0.00201629465551
0.00201382732092
0.0020113997737
0.0020090239562
)
;
    }
    procBoundary6to9
    {
        type            processor;
        value           nonuniform List<scalar> 4(0.00206413238302 0.00223186764787 0.00259790661065 0.00318858359623);
    }
}


// ************************************************************************* //
