/*--------------------------------*- C++ -*----------------------------------*\
| =========                 |                                                 |
| \\      /  F ield         | OpenFOAM: The Open Source CFD Toolbox           |
|  \\    /   O peration     | Version:  v2012                                 |
|   \\  /    A nd           | Website:  www.openfoam.com                      |
|    \\/     M anipulation  |                                                 |
\*---------------------------------------------------------------------------*/
FoamFile
{
    version     2.0;
    format      ascii;
    class       volVectorField;
    location    "0.6";
    object      U;
}
// * * * * * * * * * * * * * * * * * * * * * * * * * * * * * * * * * * * * * //

dimensions      [0 1 -1 0 0 0 0];


internalField   nonuniform List<vector> 
164
(
(0.163284122417 0.197567861665 9.64830991556e-18)
(0.178752856877 0.187726678294 3.52613733106e-18)
(0.187361019596 0.26201716584 2.46216086271e-18)
(0.209670470404 0.359266325574 1.38672761694e-18)
(0.288108506369 0.465517789479 7.25401464175e-19)
(0.448604970836 0.581475857784 4.08799104357e-19)
(0.82232159819 0.698072042956 -7.50717331356e-20)
(2.62188585184 1.07756375131 -1.69583266406e-19)
(-0.0615738841144 0.0229248906003 2.91071970632e-18)
(0.0476428861523 0.0688985504613 1.65524257507e-18)
(0.0858773729779 0.201745362321 1.2793720686e-18)
(0.0904218257547 0.357357123616 8.39933177995e-19)
(0.159162764103 0.530193420524 6.18618211911e-19)
(0.174905097411 0.898396091539 3.80808548252e-19)
(0.469313165386 1.17134695626 3.59962006041e-19)
(1.32531411415 3.43580008345 4.4303515936e-20)
(0.0615770438812 0.0229249312203 2.99893498118e-18)
(-0.0476397927932 0.0688987436648 1.67706377537e-18)
(-0.0858742351684 0.201745620517 1.29734856003e-18)
(-0.0904184568416 0.357357356603 7.86229417296e-19)
(-0.159159812814 0.530193490874 7.45978665797e-19)
(-0.174902862026 0.898396132115 2.47187312404e-19)
(-0.469310356632 1.17134579422 8.34811283612e-19)
(-1.32530849204 3.4358018238 2.53496094604e-19)
(-0.163280485602 0.197567672022 9.91327881889e-18)
(-0.178750278126 0.187726774407 3.53273668809e-18)
(-0.18735888047 0.262017683275 2.45681585432e-18)
(-0.209667886039 0.359266809598 1.3826015987e-18)
(-0.288106200228 0.465517738065 7.70937071862e-19)
(-0.448603123986 0.581475232617 3.97503423279e-19)
(-0.822320632047 0.698072526833 4.48768933077e-20)
(-2.62188702808 1.07756362697 -5.23148937803e-20)
(-0.206044111842 0.318565066383 2.3516316233e-18)
(-0.247941088869 0.341022764966 9.95636924052e-19)
(-0.330715342054 0.376569350307 3.15642556955e-19)
(-0.458109975154 0.333328807545 6.16452647314e-20)
(-0.783146906681 0.354626949634 -2.14149415348e-19)
(-2.76180531493 0.156746113251 -1.86885181801e-19)
(-0.22260894033 0.302850759566 -1.11549037702e-18)
(-0.257703962178 0.29730010071 -5.26346336038e-19)
(-0.309936251629 0.295849445211 -2.14167164104e-19)
(-0.372767564698 0.21437367876 -5.48534102926e-20)
(-0.538556428252 0.187244344403 -3.2523857479e-19)
(-2.31922350543 -1.80594577921 -5.89822173313e-21)
(-0.229673943448 0.275222175771 2.53359129992e-19)
(-0.253078481402 0.270572570575 1.802211906e-19)
(-0.279676139497 0.268997453509 4.67401291183e-20)
(-0.278034105283 0.198973572907 3.59110732438e-20)
(-0.145479533323 0.211493889325 8.29235262328e-20)
(1.71371724288 -0.868502436597 9.62550768704e-19)
(-0.238376198726 0.250934428455 -5.33597052374e-20)
(-0.263233584145 0.257886213923 -3.08318247209e-20)
(-0.28370117896 0.289803681961 -1.59237628205e-20)
(-0.279813663741 0.352619926076 -2.4851271667e-20)
(-0.22353754675 0.338125378708 1.89594954391e-19)
(-0.166977351207 2.30417233301 1.37894254666e-19)
(-0.250175916771 0.223431710035 1.19633393515e-20)
(-0.280040433385 0.232152796988 2.32731894836e-20)
(-0.314868256796 0.26282907596 8.93805010756e-21)
(-0.361344688024 0.30915637163 -5.09508700696e-20)
(-0.567393870528 0.23707068293 4.40881219622e-19)
(-1.72063705043 1.72953268876 3.18504485949e-19)
(-0.260750616424 0.194436449305 2.8942867252e-22)
(-0.291359753083 0.199191458372 1.43554704418e-21)
(-0.331440056003 0.217553980979 -2.67125695339e-20)
(-0.375862273409 0.189177218374 -2.49646229199e-20)
(-0.601555945613 0.177559121066 -1.94857100782e-19)
(-3.17714101946 -1.06221674327 -4.35178980009e-20)
(-0.269108310208 0.165992979551 -1.17064380989e-21)
(-0.298481832963 0.169191684126 2.2975298075e-20)
(-0.332416267038 0.182653620468 -1.14928640908e-20)
(-0.360625218522 0.151774283302 -1.66867185038e-20)
(-0.40708808794 0.182049917864 -5.94813430383e-20)
(-1.02026301875 -0.278159270244 1.83501101427e-19)
(-0.275116058744 0.138878489094 7.86370821409e-22)
(-0.302826413462 0.141256859854 5.12097381886e-21)
(-0.333378404281 0.153499834389 -2.32516201126e-20)
(-0.356778656421 0.128277916781 -3.70534058855e-21)
(-0.360268961003 0.142371252512 -3.8491012189e-20)
(-0.615577980538 -0.0654148851401 -3.03370247015e-20)
(-0.279375423278 0.112953453456 2.51927099272e-22)
(-0.3062779654 0.114508321684 -3.47682630145e-21)
(-0.335607885763 0.125681911345 -2.48419216613e-20)
(-0.359992520347 0.102344975315 -8.79469914995e-21)
(-0.363920470955 0.118523235936 7.86498855112e-21)
(-0.485024901734 0.204107602986 2.87086517664e-21)
(-0.281466667576 0.0877560614855 -5.46286418459e-22)
(-0.307630684855 0.0875983892477 9.37672137301e-21)
(-0.33710139125 0.0955316331207 6.83950431994e-23)
(-0.364888324762 0.0707824246706 -6.18959435816e-21)
(-0.377133686501 0.0810479771384 2.87301190552e-21)
(-0.507044941953 0.0103205334016 1.35233868404e-20)
(-0.281335595291 0.063318800273 7.07105477892e-22)
(-0.306589252146 0.0604895687233 -3.62556649391e-21)
(-0.33563313742 0.0635932985046 -1.59586826028e-20)
(-0.363468393703 0.0379550147144 1.3909290527e-20)
(-0.377791931515 0.0394051508707 -2.3669356791e-21)
(-0.369057718411 0.0189359961255 -6.08957161106e-21)
(-0.278589452078 0.0401420921911 7.0897486507e-23)
(-0.302109672579 0.0343908318045 3.67078044508e-21)
(-0.3286173784 0.0323907662423 -2.46665013537e-21)
(-0.354205275825 0.00672860146594 -2.36689683783e-20)
(-0.36787639937 0.000217099457872 1.86511708883e-21)
(-0.323002330064 -0.0154131597282 4.74297056535e-21)
(-0.273587992462 0.0188655658391 5.29157653092e-22)
(-0.294936065704 0.0111131660104 -1.38525216532e-21)
(-0.317585919151 0.00486649129301 -7.34443178329e-21)
(-0.340383661219 -0.0215685649966 4.83174602226e-21)
(-0.351734549987 -0.0358554068609 7.0134816361e-22)
(-0.306083576741 -0.0426030572543 -2.04493127887e-21)
(-0.266553025121 -0.000481980738368 -5.27511355891e-22)
(-0.285526944248 -0.00917820464712 -4.97378239915e-22)
(-0.305486896432 -0.0190531541066 -3.38608450082e-21)
(-0.325219625747 -0.0459989189731 3.24180113897e-21)
(-0.332939549155 -0.0652447339546 2.30913865282e-20)
(-0.291691739041 -0.0679932205149 2.08287739179e-20)
(-0.257934696686 -0.0174871639933 -3.29008073831e-22)
(-0.274422972167 -0.0274315443125 -8.25478382612e-23)
(-0.292372000328 -0.0395766964743 -7.79382317116e-22)
(-0.308705768633 -0.0657672673351 -1.65275609219e-20)
(-0.312985343212 -0.0883063211066 -6.81668939891e-21)
(-0.277831232977 -0.0905253334263 -4.23565328516e-21)
(-0.248231804242 -0.032341612239 6.62237143411e-22)
(-0.262443774425 -0.0433591471508 -9.69404651588e-23)
(-0.277815374584 -0.0567694874147 -5.02141901952e-21)
(-0.291424071332 -0.0813915183392 -4.55676961426e-21)
(-0.292756479317 -0.105542681118 -1.20913604071e-20)
(-0.264237924949 -0.108604975409 -1.39718290523e-20)
(-0.237741019169 -0.0451334408356 -3.91511996696e-22)
(-0.249786642415 -0.056904925616 -4.02268474821e-22)
(-0.262545968618 -0.0709329280546 -8.1537130124e-22)
(-0.273872713504 -0.093652574584 -6.22552119324e-21)
(-0.273099619402 -0.117785053992 -2.31845714997e-21)
(-0.251292707562 -0.122046426389 -8.64956519258e-22)
(-0.22673033254 -0.0559612642467 7.24682875049e-22)
(-0.236752125903 -0.0681688314056 5.45489780895e-22)
(-0.247054008299 -0.0823486122524 -2.24132190902e-21)
(-0.256329040431 -0.102969736511 -6.89275389252e-21)
(-0.254561485251 -0.12595176854 -1.16232261689e-20)
(-0.240390926322 -0.130295007968 -1.18671436607e-20)
(-0.21544414454 -0.0649700735151 -9.34821483451e-23)
(-0.223626301476 -0.077347161018 3.6111294737e-22)
(-0.231718176301 -0.0914276911486 -5.53637790687e-22)
(-0.239064155276 -0.109944166713 -2.65542503927e-21)
(-0.237328934763 -0.13128464564 -6.0634692886e-21)
(-0.234260315395 -0.131536843344 -6.04731559067e-21)
(-0.204086790827 -0.0723285146167 1.06030992103e-22)
(-0.210631208167 -0.0846477317134 6.66181571869e-23)
(-0.216795401344 -0.0984754521531 1.26863298487e-22)
(-0.222295330485 -0.114807275251 -7.93670958429e-21)
(-0.221415568533 -0.134547476227 -2.56369172243e-20)
(-0.240943155946 -0.121135951785 -2.54429773233e-20)
(-0.202477871089 -0.103787224768 1.44981415555e-21)
(-0.206214717438 -0.11804418473 -6.17078531779e-21)
(-0.206724517985 -0.136296376762 -3.59473416074e-20)
(-0.280935807333 -0.121585600147 -3.15102363764e-20)
(-0.188844110681 -0.107628222757 1.33131205693e-21)
(-0.190973968216 -0.120384530287 -2.49554180953e-21)
(-0.191057689399 -0.136288625516 -2.93585102987e-20)
(-0.28061629997 -0.165829588358 -1.40401172018e-20)
(-0.175904721217 -0.110179766627 -2.65798259308e-22)
(-0.176729789312 -0.121970917406 -8.33934042135e-21)
(-0.175255346433 -0.134813475079 -3.38682880374e-20)
(-0.251190732171 -0.17213261975 -2.30795047716e-20)
)
;

boundaryField
{
    back
    {
        type            noSlip;
    }
    sides
    {
        type            noSlip;
    }
    bottom
    {
        type            noSlip;
    }
    front
    {
        type            noSlip;
    }
    atmosphere
    {
        type            pressureInletOutletVelocity;
        value           nonuniform List<vector> 
27
(
(2.62188585184 1.07756375131 -1.69583266406e-19)
(1.32531411415 3.43580008345 4.4303515936e-20)
(-1.32530849204 3.4358018238 2.53496094604e-19)
(-2.62188702808 1.07756362697 -5.23148937803e-20)
(-2.76180531493 0.156746113251 -1.86885181801e-19)
(0 -1.80594577921 0)
(0 -0.868502436597 0)
(-0.166977351207 2.30417233301 1.37894254666e-19)
(-1.72063705043 1.72953268876 3.18504485949e-19)
(0 -1.06221674327 0)
(0 -0.278159270244 0)
(0 -0.0654148851401 0)
(-0.485024901734 0.204107602986 2.87086517664e-21)
(0 0.0103205334016 0)
(0 0.0189359961255 0)
(0 -0.0154131597282 0)
(0 -0.0426030572543 0)
(0 -0.0679932205149 0)
(0 -0.0905253334263 0)
(0 -0.108604975409 0)
(0 -0.122046426389 0)
(0 -0.130295007968 0)
(0 -0.131536843344 0)
(0 -0.121135951785 0)
(0 -0.121585600147 0)
(0 -0.165829588358 0)
(0 -0.17213261975 0)
)
;
    }
    floatingObject
    {
        type            movingWallVelocity;
        value           nonuniform List<vector> 4((0 0 0) (0 0 0) (-2.77555756156e-16 0 0) (0 0 0));
    }
    procBoundary6to3
    {
        type            processor;
        value           nonuniform List<vector> 8((0.176162291849 0.336037383353 1.00326748332e-17) (0.194275413816 0.304532395069 4.31486319455e-18) (0.206045492968 0.318564418232 2.34965261075e-18) (0.247942618101 0.341022449362 1.00321473105e-18) (0.330716681486 0.37656966951 3.07814469829e-19) (0.458111224481 0.333330087881 8.77961162873e-20) (0.783147752549 0.354626550875 -3.7578567919e-19) (2.7618129203 0.156747783568 -7.70427084796e-19));
    }
    procBoundary6to7
    {
        type            processor;
        value           nonuniform List<vector> 
11
(
(-0.242573578812 -0.00935800959176 -1.88575568921e-22)
(-0.23482741074 -0.0232116003602 -5.71567229942e-23)
(-0.22620527747 -0.0352789309371 -2.74022330866e-22)
(-0.216954501019 -0.0456412943841 1.976293134e-22)
(-0.207294073423 -0.0544084896146 -9.30173489514e-23)
(-0.197410806168 -0.0617101506219 -4.84657183108e-23)
(-0.192821066784 -0.0782234146917 3.00401444096e-23)
(-0.197935342731 -0.0903077058355 -8.16860743251e-23)
(-0.197935342731 -0.0903077058355 -8.16860743251e-23)
(-0.185643312025 -0.0945700963672 4.22396691894e-22)
(-0.173820101721 -0.0976461696388 3.42837875799e-22)
)
;
    }
    procBoundary6to8
    {
        type            processor;
        value           nonuniform List<vector> 
16
(
(-0.176160219527 0.336036597386 1.00652632826e-17)
(-0.194273595107 0.304532669782 4.33039561503e-18)
(-0.194273595107 0.304532669782 4.33039561503e-18)
(-0.192409545975 0.294479741234 -1.53156489614e-18)
(-0.202280840769 0.26584107134 2.4201463163e-19)
(-0.211341408274 0.237652980824 -3.16786863711e-20)
(-0.222919313154 0.210328870922 7.59562042721e-21)
(-0.233595466812 0.183557834169 -3.02973560503e-22)
(-0.242714750865 0.157616099827 8.98257173323e-22)
(-0.24978611977 0.13270273774 5.06984875485e-22)
(-0.254906060445 0.108840788965 -3.40360133393e-22)
(-0.257920838569 0.08588237045 -1.21393049108e-23)
(-0.258837143965 0.0638984849777 -7.40998817119e-23)
(-0.257550779822 0.0431483476065 -7.9404198963e-23)
(-0.254258939433 0.023904577106 1.13929709366e-23)
(-0.249161276036 0.00634037493262 -6.42364009864e-22)
)
;
    }
    procBoundary6to9
    {
        type            processor;
        value           nonuniform List<vector> 4((-0.163674146097 -0.111693471667 -9.11992953616e-22) (-0.163495932704 -0.12271025736 -2.77457857452e-21) (-0.160603117953 -0.132865662595 -6.08680221965e-22) (-0.221031430967 -0.169840176751 -1.54405742804e-21));
    }
}


// ************************************************************************* //
