/*--------------------------------*- C++ -*----------------------------------*\
| =========                 |                                                 |
| \\      /  F ield         | OpenFOAM: The Open Source CFD Toolbox           |
|  \\    /   O peration     | Version:  v2012                                 |
|   \\  /    A nd           | Website:  www.openfoam.com                      |
|    \\/     M anipulation  |                                                 |
\*---------------------------------------------------------------------------*/
FoamFile
{
    version     2.0;
    format      ascii;
    class       surfaceVectorField;
    location    "0.6";
    object      Uf;
}
// * * * * * * * * * * * * * * * * * * * * * * * * * * * * * * * * * * * * * //

dimensions      [0 1 -1 0 0 0 0];


internalField   nonuniform List<vector> 
293
(
(0.171018489647 0.163920929987 6.58722362331e-18)
(0.0359489593588 0.110246376133 6.27951481094e-18)
(0.183056938236 0.242904187256 2.99414909689e-18)
(0.106863974529 0.128312614378 2.59068995307e-18)
(0.198515745 0.309947258645 1.92444423982e-18)
(0.130804374193 0.23188126408 1.87076646566e-18)
(0.248889488387 0.399880085334 1.05606454056e-18)
(0.144731510981 0.358311724595 1.11333039747e-18)
(0.368356738602 0.492452146567 5.67100284266e-19)
(0.228152573712 0.497855605001 6.72009838043e-19)
(0.635463284513 0.61110728072 1.66863685611e-19)
(0.341622732784 0.739935974661 3.94803826305e-19)
(1.72210372502 0.666203397734 -1.22327499771e-19)
(0.734756298991 0.934709499608 1.42445136453e-19)
(2.33881453909 2.25668191738 -6.26398752349e-20)
(-0.00696549898108 0.0359478833749 2.28298114069e-18)
(1.85475658104e-06 0.0229249109103 2.95482734375e-18)
(0.0667601295651 0.142811481071 1.46730732184e-18)
(1.52929596958e-06 0.0688986470631 1.66615317522e-18)
(0.0881495993663 0.273616013093 1.0596526233e-18)
(1.50543367054e-06 0.201745491419 1.28836031432e-18)
(0.124792294929 0.418347963422 7.29275694953e-19)
(1.6554215954e-06 0.357357240109 8.13081297645e-19)
(0.167033930757 0.646501169194 4.99713380082e-19)
(1.47022252586e-06 0.530193455699 6.82298438854e-19)
(0.322109131399 0.98812435943 3.70385277146e-19)
(1.08603303799e-06 0.898396111827 3.13997930328e-19)
(0.897313639768 1.722879627 2.02132760989e-19)
(1.56702142012e-06 1.17134637524 5.97386644827e-19)
(2.97893273872e-06 3.43580095362 1.4889980527e-19)
(0.006968625544 0.0359479314556 2.33799937828e-18)
(-0.0359452428887 0.110246301621 6.45610690004e-18)
(-0.0667570139808 0.142811682078 1.4872061677e-18)
(-0.106860995483 0.128312759036 2.60490023173e-18)
(-0.088146346005 0.273616323507 1.04178898866e-18)
(-0.130801534118 0.231881651896 1.87708220718e-18)
(-0.124789134828 0.418348172015 7.66104041546e-19)
(-0.144728296072 0.3583120831 1.084415508e-18)
(-0.16703133742 0.64650111758 4.965829891e-19)
(-0.228149656448 0.49785561447 7.58457868829e-19)
(-0.322106609329 0.988123649087 5.40999298008e-19)
(-0.341620266794 0.739935682366 3.22345367841e-19)
(-0.897309424337 1.72287972992 5.44153689108e-19)
(-0.73475427934 0.934709160526 4.3984408846e-19)
(-2.3388104262 2.25668272538 1.00590600412e-19)
(-0.171015381864 0.163920989325 6.72300775349e-18)
(-0.183054579298 0.242904532068 2.9947762712e-18)
(-0.198513383255 0.309947895687 1.91970872651e-18)
(-0.197843559703 0.290291374829 2.40422373881e-18)
(-0.248887043134 0.399880453641 1.07676933528e-18)
(-0.234659385977 0.350144787282 1.18911926138e-18)
(-0.368354662107 0.492451807272 5.84220247571e-19)
(-0.320719770572 0.421043544186 5.43289814409e-19)
(-0.635461878017 0.611106451352 2.21190158293e-19)
(-0.460274319078 0.457402020081 2.29574344005e-19)
(-1.72210383006 0.666203409713 -3.71900023629e-21)
(-0.789850271214 0.526349738234 -8.46362610202e-20)
(-2.99164648438 0.617154870111 -1.1960003779e-19)
(-0.226992600356 0.331875765046 1.67363427367e-18)
(-0.216251698142 0.310707912975 6.18070623136e-19)
(-0.289328215462 0.35315959182 6.55639740504e-19)
(-0.255942401817 0.319161432838 2.34645294007e-19)
(-0.394412658604 0.355777604183 1.88643910843e-19)
(-0.323337224422 0.336209397759 5.07376964253e-20)
(-0.620628440918 0.316595107869 -7.62520753083e-20)
(-0.421091658486 0.273851243152 3.39592721941e-21)
(-1.7724761108 0.200698485713 -2.00517298574e-19)
(-0.673953270765 0.270935647019 -2.69693995069e-19)
(-3.0184432905 -0.824599832979 -9.63917017668e-20)
(-0.240156451254 0.302335620916 -8.20918356531e-19)
(-0.225323774736 0.289036467669 -4.31065623516e-19)
(-0.283820106903 0.298344190983 -3.70256750071e-19)
(-0.251950849839 0.283936335642 -1.73062572719e-19)
(-0.341351908163 0.266254849883 -1.34510287198e-19)
(-0.29124789053 0.28242344936 -8.3713517493e-20)
(-0.455661996475 0.174821537302 -1.90045992541e-19)
(-0.329658452368 0.206673625834 -9.47116852438e-21)
(-1.42888996684 -0.100289468882 -1.65568398262e-19)
(-0.398841781381 0.199369116864 -1.21157524279e-19)
(0.102587845461 -1.3372241079 4.78326273486e-19)
(-0.241376212425 0.274328921307 2.16790160296e-19)
(-0.231722000155 0.263078302113 9.99997123772e-20)
(-0.266377310449 0.274497439226 1.13480659859e-19)
(-0.252119790806 0.264229392249 7.46946829395e-20)
(-0.27885512239 0.250900453962 4.13256011811e-20)
(-0.267651298876 0.279400567735 1.54081831489e-20)
(-0.211756819303 0.161225617078 5.94172997383e-20)
(-0.239984035258 0.275796749492 5.52990078839e-21)
(0.784118854778 -0.129562571314 5.22737147469e-19)
(-0.108054102894 0.274809634017 1.36259240312e-19)
(1.22268070313 0.717834948208 5.50222511685e-19)
(-0.250804891436 0.253387603478 -4.20957649792e-20)
(-0.242683371024 0.237183069245 -2.06981829429e-20)
(-0.273467381553 0.271378074916 -2.33777937707e-20)
(-0.270110978282 0.245019505455 -3.77931761866e-21)
(-0.28175742135 0.302904141673 -2.03875172438e-20)
(-0.299177991788 0.276316378961 -3.49285635646e-21)
(-0.251675605246 0.395493628436 8.2371841362e-20)
(-0.332573869137 0.330888148853 -3.79010708683e-20)
(-0.195257448979 0.753462376799 1.63744604528e-19)
(-0.466023491386 0.287598030819 3.15238087007e-19)
(-1.26648462967 2.01685251089 2.28199370308e-19)
(-0.265108175078 0.22679329763 1.76182644176e-20)
(-0.254269438299 0.20893407967 6.12638401202e-21)
(-0.297454345091 0.24224717326 1.61056197956e-20)
(-0.285565569386 0.21567212768 1.23543682639e-20)
(-0.33810647241 0.271248844267 -2.1006409981e-20)
(-0.328180254346 0.24019152847 -8.88725971319e-21)
(-0.464369279276 0.321993208905 1.94965174776e-19)
(-0.383318492949 0.249166795002 -3.79577464948e-20)
(-1.14401546048 0.498130745709 3.79692852786e-19)
(-0.642161534097 0.207314901998 1.2301205942e-19)
(-3.34493737726 0.333657972743 1.37493293974e-19)
(-0.276055184754 0.197350507987 8.62487858351e-22)
(-0.263929833563 0.180214714428 -4.40607568687e-22)
(-0.311399904543 0.206061825286 -1.26385112449e-20)
(-0.294277346662 0.184191571249 1.22054225596e-20)
(-0.353651164706 0.208469623127 -2.58385962269e-20)
(-0.33058840343 0.200103800723 -1.91027168124e-20)
(-0.488709109511 0.189568166075 -1.09910861851e-19)
(-0.364417157616 0.170475750838 -2.08256707118e-20)
(-1.88934848254 0.0119087911803 -1.19187499391e-19)
(-0.464501626422 0.179804519465 -1.2716922191e-19)
(-1.36162209353 -0.670188006759 6.99916017133e-20)
(-0.283795071586 0.168075305702 1.09023271325e-20)
(-0.271286188256 0.152435734323 -1.92136494243e-22)
(-0.31544905 0.173565154689 5.7412169921e-21)
(-0.299767287689 0.15522427199 1.40481359469e-20)
(-0.34652074278 0.174516097536 -1.40897912973e-20)
(-0.331539449183 0.168076727428 -1.73722421017e-20)
(-0.383856653231 0.165990528808 -3.8084030771e-20)
(-0.355891631711 0.140026100042 -1.01960295462e-20)
(-0.713675553344 0.0677276982993 6.20098791946e-20)
(-0.366238129742 0.162210585188 -4.89861776136e-20)
(-0.785995817783 -0.171787077692 7.6582038363e-20)
(-0.288971236103 0.140166752032 2.95367232013e-21)
(-0.276661855768 0.125915971275 5.1914896034e-22)
(-0.318102408871 0.144255315218 -9.06532314687e-21)
(-0.303855596613 0.127882590769 8.22073758703e-22)
(-0.345078530351 0.145939887197 -1.34784803506e-20)
(-0.333223911539 0.139590872867 -2.4046770887e-20)
(-0.358523808712 0.145555245713 -2.10981763888e-20)
(-0.355506966967 0.115311446048 -6.25001986925e-21)
(-0.487923470771 0.136246787143 -3.44140184453e-20)
(-0.356929523371 0.130447244224 -1.5313011819e-20)
(-0.439126710586 0.0693463589229 -1.37330797624e-20)
(-0.292826694339 0.113426884163 -1.61244960109e-21)
(-0.280131290841 0.100354757471 -1.47179659594e-22)
(-0.320942925581 0.116363182856 -1.41593739814e-20)
(-0.306791405171 0.101053355466 2.94994753578e-21)
(-0.347800203055 0.119306622609 -1.68183104056e-20)
(-0.336167110125 0.110606772233 -1.23867633091e-20)
(-0.361956495651 0.127087791763 -4.64855299415e-22)
(-0.36328800048 0.0865636999929 -7.49214675406e-21)
(-0.424472686345 0.145676910799 5.36792686388e-21)
(-0.375529810707 0.0997856065373 5.36900022832e-21)
(-0.57186371945 0.107214068194 8.19712600852e-21)
(-0.294548676216 0.0873849666411 4.41521747728e-21)
(-0.281488699319 0.0755374308793 8.04095297168e-23)
(-0.322366038053 0.0880374526549 4.7225582081e-21)
(-0.307443309874 0.0740439789855 2.87557743955e-21)
(-0.350994858006 0.0891534393831 -3.06059965748e-21)
(-0.337282811934 0.0795624658126 -7.9451437798e-21)
(-0.371011005631 0.0921553307711 -1.65829122632e-21)
(-0.366289816153 0.0543687196925 3.8598480844e-21)
(-0.442089314227 0.0981473314482 8.19819937296e-21)
(-0.381521111899 0.0602265640046 2.53038113208e-22)
(-0.393045426639 0.0146282647635 3.71690761467e-21)
(-0.293962423718 0.0617321530821 -1.45923050801e-21)
(-0.280203413597 0.051730446232 3.890014822e-22)
(-0.321111194783 0.0592463752375 -9.79212454835e-21)
(-0.30495698721 0.0474402002639 2.2606975587e-23)
(-0.349550765561 0.0557364622351 -1.02469603791e-21)
(-0.333772631571 0.0479920323735 -9.21266636908e-21)
(-0.370630162609 0.0505860899837 5.77117742393e-21)
(-0.361139380129 0.0223418080902 -4.87983892568e-21)
(-0.373424824963 0.0445834678749 -4.22825364508e-21)
(-0.375516769557 0.0198111251643 -2.50909295134e-22)
(-0.335169344373 0.00176141819863 -6.73300522851e-22)
(-0.290349562329 0.0374843348261 1.87083896579e-21)
(-0.276384997614 0.0295038290151 3.000275698e-22)
(-0.31536352549 0.031463199556 6.02065154855e-22)
(-0.298935418535 0.0227519989074 1.14276413988e-21)
(-0.341411327112 0.0212829580494 -1.30678092568e-20)
(-0.323592176178 0.0186286287677 -4.90554095933e-21)
(-0.361040837597 0.00789786859097 -1.09019256447e-20)
(-0.347754237787 -0.00741998176533 -9.41861117803e-21)
(-0.345439364717 -0.00646481367992 3.30404382709e-21)
(-0.361153260057 -0.0178191537015 1.28323262622e-21)
(-0.313523680982 -0.0290081084913 1.34901964324e-21)
(-0.284262029083 0.0152487819936 -4.28047256112e-22)
(-0.270426402496 0.00919179255037 8.23148600798e-25)
(-0.306260992427 0.00716500493865 -4.3648419743e-21)
(-0.290851336451 0.000967480681627 -9.41315202616e-22)
(-0.328984790185 -0.0048025887389 -1.25634288052e-21)
(-0.311624430511 -0.0070933314068 -5.36525814206e-21)
(-0.346059105603 -0.0190909768094 2.76654709294e-21)
(-0.333465819727 -0.0337837419849 4.03677358062e-21)
(-0.328909063364 -0.037115635317 -6.71791557631e-22)
(-0.343127791898 -0.0505500704077 1.18963673459e-20)
(-0.298445041309 -0.0552981388846 9.39192131951e-21)
(-0.276039984685 -0.00502549612988 -5.12444797903e-22)
(-0.262499632599 -0.00898457236585 -4.28259714861e-22)
(-0.29550692034 -0.015632388773 -1.94173137037e-21)
(-0.28024425851 -0.0183048744798 -2.89963039088e-22)
(-0.315353261089 -0.0276905634841 -7.21416809226e-23)
(-0.299566161942 -0.0293149252905 -2.08273340897e-21)
(-0.329079587451 -0.0436934893285 1.31665938336e-20)
(-0.317462874793 -0.0558830931541 -6.64287989146e-21)
(-0.312315644098 -0.0632089343736 2.1960080223e-20)
(-0.323611711041 -0.0767755275306 8.13734856464e-21)
(-0.284527179822 -0.0792592769706 8.29656031636e-21)
(-0.266178834426 -0.0225554248958 -2.05777956046e-22)
(-0.253310125913 -0.0249143881162 1.6661453479e-22)
(-0.283397486248 -0.0340735484155 -4.30965077689e-22)
(-0.268726039377 -0.0353953457317 -8.974415171e-23)
(-0.300538884481 -0.0480865704697 -8.6534716195e-21)
(-0.285553090525 -0.0481730919445 -2.90040066832e-21)
(-0.310845555922 -0.0650824605601 -1.16721251604e-20)
(-0.300466976706 -0.0735793928372 -1.05421652681e-20)
(-0.295408288094 -0.0853281183381 -5.52617134203e-21)
(-0.303365563879 -0.0969245011122 -9.454024903e-21)
(-0.270881505545 -0.0995651544178 -9.10374116871e-21)
(-0.255337789333 -0.0377760315774 2.82648339126e-22)
(-0.243180459969 -0.0387375265373 1.35362573358e-22)
(-0.270129574505 -0.0501361489593 -2.55917974234e-21)
(-0.256365884299 -0.0501320363834 -2.4960446999e-22)
(-0.284619722958 -0.0651921565747 -4.78909431689e-21)
(-0.270497063999 -0.0638512077347 -2.91839516038e-21)
(-0.292090275325 -0.0827027771228 -8.32406501068e-21)
(-0.282956355795 -0.0875220464616 -5.39114540375e-21)
(-0.278497202133 -0.102805578835 -1.30315947297e-20)
(-0.28326239372 -0.111663867555 -7.20490877853e-21)
(-0.257499660591 -0.115325700899 -7.41839278576e-21)
(-0.243763830792 -0.0508124413566 -3.96890235758e-22)
(-0.232386715684 -0.0505473525412 1.66585439177e-22)
(-0.256166305516 -0.0637267085974 -6.0881988803e-22)
(-0.243451613259 -0.0625368785108 7.16106530367e-23)
(-0.268209341061 -0.0792219096689 -3.52044624724e-21)
(-0.255001863917 -0.0766407701535 -1.52834660513e-21)
(-0.273486166453 -0.0968794971425 -4.27198917161e-21)
(-0.265298773764 -0.0983111555476 -6.55913754288e-21)
(-0.262196163482 -0.116114465645 -1.59170683462e-21)
(-0.264027130131 -0.121868411266 -6.97084165944e-21)
(-0.245073722858 -0.126170717178 -6.36605008998e-21)
(-0.231741229221 -0.0617692888937 6.35086327972e-22)
(-0.221195164765 -0.0604656688809 3.15600363352e-22)
(-0.241903067101 -0.0749097203609 -8.47916064062e-22)
(-0.230311209896 -0.0727579962118 4.53301364132e-22)
(-0.251691524365 -0.0904001100702 -4.56703790077e-21)
(-0.23951149212 -0.0868881517005 -1.39747984985e-21)
(-0.255445262841 -0.107864810598 -9.25799003071e-21)
(-0.247834081835 -0.106456951612 -4.7740894659e-21)
(-0.247476205786 -0.125788551012 -1.17451849148e-20)
(-0.246103186192 -0.12861820709 -8.84334772875e-21)
(-0.235671878533 -0.130915925656 -8.95722962569e-21)
(-0.219535223008 -0.0708105893597 1.33815399513e-22)
(-0.209833003114 -0.0686492940659 6.27442187888e-24)
(-0.227672238889 -0.0839253569679 -9.62624216585e-23)
(-0.217196493249 -0.0809974463657 2.13865552279e-22)
(-0.235391165789 -0.0991268849505 -1.60453141498e-21)
(-0.224310001758 -0.0949515716508 -2.133872461e-22)
(-0.238196545019 -0.116254534242 -4.35944716394e-21)
(-0.230706450251 -0.112375720982 -5.29606731178e-21)
(-0.235794625079 -0.132964053923 -6.05539243964e-21)
(-0.229393426318 -0.132916060933 -1.58501932565e-20)
(-0.23512505273 -0.126336397565 -1.5745146457e-20)
(-0.207358999497 -0.0781207402407 8.63245746449e-23)
(-0.213713304755 -0.0910073523497 9.67407278368e-23)
(-0.219545365914 -0.105678367531 -3.9049231429e-21)
(-0.209639047838 -0.10113133846 7.88338727018e-22)
(-0.221855449509 -0.122170057868 -1.67868134043e-20)
(-0.214214784033 -0.11642572999 -7.05374745104e-21)
(-0.231179362239 -0.13751036389 -2.55399472738e-20)
(-0.214052989004 -0.135421926495 -3.07921294159e-20)
(-0.253182720102 -0.121360775966 -2.84766068498e-20)
(-0.204346294263 -0.110419173646 -2.36048558112e-21)
(-0.195645093587 -0.105707723762 1.39056310624e-21)
(-0.206469617712 -0.126096019938 -2.10590634626e-20)
(-0.198537973881 -0.119214357508 -4.33316356366e-21)
(-0.243830162659 -0.140923283756 -3.37287889919e-20)
(-0.199225707639 -0.136292501139 -3.2652925953e-20)
(-0.291488480201 -0.143707594253 -2.27751767891e-20)
(-0.189909039449 -0.113756021738 -5.82114876298e-22)
(-0.182338063842 -0.108903994692 5.32756898813e-22)
(-0.191015828807 -0.128547976573 -1.59270260541e-20)
(-0.183746062424 -0.121177723846 -5.41744111544e-21)
(-0.235836994684 -0.144552235353 -2.16993137502e-20)
(-0.183221458304 -0.135551050298 -3.1613399168e-20)
(-0.268539959718 -0.168981104054 -1.85598109867e-20)
(-0.176317255264 -0.115882664245 -4.30256934033e-21)
(-0.175992567872 -0.129612659458 -2.11038142294e-20)
(-0.213223039302 -0.144875626268 -2.84738964045e-20)
)
;

boundaryField
{
    back
    {
        type            calculated;
        value           uniform (0 0 0);
    }
    sides
    {
        type            calculated;
        value           nonuniform List<vector> 0();
    }
    bottom
    {
        type            calculated;
        value           nonuniform List<vector> 0();
    }
    front
    {
        type            calculated;
        value           uniform (0 0 0);
    }
    atmosphere
    {
        type            calculated;
        value           nonuniform List<vector> 
27
(
(2.62188585184 1.31904007828 -1.69583266406e-19)
(1.32531411415 4.06169132074 4.4303515936e-20)
(-1.32530849204 4.06169326637 2.53496094604e-19)
(-2.62188702808 1.31904128561 -5.23148937803e-20)
(-2.76180531493 0.227491004074 -1.86885181801e-19)
(0 -3.22133213494 0)
(0 -1.24963524367 0)
(-0.166977351207 3.24262369461 1.37894254666e-19)
(-1.72063705043 2.57658415104 3.18504485949e-19)
(0 -1.97141278491 0)
(0 -0.507899399508 0)
(0 -0.210623712383 0)
(-0.485024901734 0.278441778403 2.87086517664e-21)
(0 -0.0806833982608 0)
(0 -0.0132941222691 0)
(0 -0.0281113225896 0)
(0 -0.052195020913 0)
(0 -0.077127396079 0)
(0 -0.0989742645564 0)
(0 -0.116187788954 0)
(0 -0.128540701574 0)
(0 -0.135190611106 0)
(0 -0.133511132914 0)
(0 -0.119452851184 0)
(0 -0.102617674004 0)
(0 -0.167500672686 0)
(0 -0.176053746334 0)
)
;
    }
    floatingObject
    {
        type            calculated;
        value           nonuniform List<vector> 4((0 0 0) (0 0 0) (-2.77555756156e-16 0 0) (0 0 0));
    }
    procBoundary6to3
    {
        type            processor;
        value           nonuniform List<vector> 8((0.199868725302 0.266802622509 9.84049237436e-18) (0.185845817342 0.246129536682 3.92050026281e-18) (0.197845372207 0.290290792036 2.40590673673e-18) (0.234661400173 0.350144387468 1.19497117399e-18) (0.320721440256 0.421043729495 5.16607967002e-19) (0.460275625427 0.457402972832 2.48297610322e-19) (0.78985057763 0.526349296916 -2.25428706163e-19) (2.99164856827 0.61715576744 -4.70005175601e-19));
    }
    procBoundary6to7
    {
        type            processor;
        value           nonuniform List<vector> 
11
(
(-0.250254137749 -0.0133661516582 -2.58791821376e-22)
(-0.241529607491 -0.027646439288 3.02540210208e-22)
(-0.231973148319 -0.0400186985152 -3.32767163781e-22)
(-0.221842416779 -0.0505777061599 4.61156094225e-22)
(-0.211369108981 -0.0594483639723 -9.32497486482e-23)
(-0.200748798497 -0.0667754721697 2.8782636896e-23)
(-0.198487815275 -0.0752759646542 6.80355682562e-23)
(-0.204309964538 -0.0874777187745 -7.53395856915e-24)
(-0.20020660691 -0.096425081908 6.84064040612e-22)
(-0.187243711353 -0.100448820531 8.76854374414e-22)
(-0.174862411469 -0.103278762354 3.85198082456e-23)
)
;
    }
    procBoundary6to8
    {
        type            processor;
        value           nonuniform List<vector> 
16
(
(-0.199865456418 0.266802134704 9.98927105077e-18)
(-0.185843529679 0.246129722095 3.93156615156e-18)
(-0.200158853475 0.313466501783 3.34101361916e-18)
(-0.207509243153 0.293263325511 -1.32352763658e-18)
(-0.215977392109 0.267931297826 2.47686880811e-19)
(-0.2248588035 0.242427276131 -4.25191958043e-20)
(-0.236547614962 0.215208218227 9.77947988936e-21)
(-0.247173041618 0.187690608994 -6.77244399136e-24)
(-0.255911530536 0.160718717401 -1.36193318285e-22)
(-0.262451089257 0.134790137371 6.46677848447e-22)
(-0.267140741861 0.109956009235 -4.42165170605e-23)
(-0.269693753073 0.0860259480328 -2.79212861685e-22)
(-0.270086369628 0.063015968094 3.1650279809e-22)
(-0.26807011595 0.0413015954701 -4.253356228e-24)
(-0.263923465948 0.0212065786425 2.70275312014e-22)
(-0.257857150578 0.00290083315411 -5.84937682877e-22)
)
;
    }
    procBoundary6to9
    {
        type            processor;
        value           nonuniform List<vector> 4((-0.169734328261 -0.110936619147 -5.88895606462e-22) (-0.17001611213 -0.122340587383 -5.55695949794e-21) (-0.167958508957 -0.133839568837 -1.72384841297e-20) (-0.237361843812 -0.170986398251 -1.23117810998e-20));
    }
}


// ************************************************************************* //
