/*--------------------------------*- C++ -*----------------------------------*\
| =========                 |                                                 |
| \\      /  F ield         | OpenFOAM: The Open Source CFD Toolbox           |
|  \\    /   O peration     | Version:  v2012                                 |
|   \\  /    A nd           | Website:  www.openfoam.com                      |
|    \\/     M anipulation  |                                                 |
\*---------------------------------------------------------------------------*/
FoamFile
{
    version     2.0;
    format      ascii;
    class       volScalarField;
    location    "1.6";
    object      p;
}
// * * * * * * * * * * * * * * * * * * * * * * * * * * * * * * * * * * * * * //

dimensions      [1 -1 -2 0 0 0 0];


internalField   nonuniform List<scalar> 
164
(
8454.17604002
7964.6541018
7475.29801693
6986.07533677
6496.98975446
6008.04369586
5519.24076731
5030.58581812
8466.46626079
7976.98005638
7487.68107006
6998.54522411
6509.57041648
6020.75436437
5532.09396732
5043.58455403
8478.59016041
7989.13864628
7499.89800004
7010.84897922
6521.98543636
6033.30073316
5544.78556656
5056.42636221
4568.20311583
4080.08695752
8490.51817406
8001.10159834
7511.92159097
7022.96242623
6534.21500281
6045.66930439
5557.31098545
5069.11920495
4581.06370028
4093.10118116
8502.22016048
8012.839992
7523.72403577
7034.85987693
6546.23695519
6057.8430035
5569.66037572
5081.66352035
4593.81552945
4106.06377099
8513.66445007
8024.32300372
7535.27509436
7046.51271517
6558.02498506
6069.79871193
5581.81531119
5094.04769924
4606.45657486
4118.98650053
8524.81655441
8035.5183139
7546.54170218
7057.8885713
6569.54732931
6081.5056331
5593.74654391
5106.24502676
4618.96302544
4131.84989111
8535.63956111
8046.39174813
7557.4883109
7068.95088573
6580.76636548
6092.9246686
5605.41289368
5118.21290145
4631.28771045
4144.59984521
8546.09217247
8056.91308283
7568.07380973
7079.65863748
6591.63922292
6104.00899259
5616.76044471
5129.89611771
4643.36186267
4157.15017066
8556.12091207
8067.07193524
7578.24517565
7089.96524874
6602.11966695
6114.70698203
5627.7165532
5141.23891192
4655.09908688
4169.38845588
8565.7403921
8076.71842326
7587.99807722
7099.8381871
6612.16658713
6124.981712
5638.28616324
5152.09773872
4666.38542356
4181.18039757
8574.86947357
8085.88655045
7597.25923641
7109.22364376
6621.72420757
6134.76155645
5648.34042389
5162.46889417
4677.14737425
4192.39271435
8583.46793737
8094.53169669
7605.98738955
7118.0739867
6630.74176459
6143.99352262
5657.8356843
5172.27636545
4687.32256389
4202.98576801
8591.49675208
8102.60914781
7614.14040497
7126.34357843
6639.17091034
6152.62741227
5666.72153847
5181.46262933
4696.85877506
4212.91829776
8598.91788376
8110.07750774
7621.6766922
7133.98812736
6646.96467798
6160.6139961
5674.94724424
5189.97551373
4705.70657157
4222.14579888
8605.69527859
8116.89837248
7628.55645317
7140.96489695
6654.07704755
6167.90422052
5682.4616741
5197.76348279
4713.8163633
4230.62122991
8611.79628981
8123.03692998
7634.74257934
7147.23300909
6660.46256838
6174.44816741
5689.21161768
6666.0763163
)
;

boundaryField
{
    back
    {
        type            calculated;
        value           nonuniform List<scalar> 
164
(
8454.17604002
7964.6541018
7475.29801693
6986.07533677
6496.98975446
6008.04369586
5519.24076731
5030.58581812
8466.46626079
7976.98005638
7487.68107006
6998.54522411
6509.57041648
6020.75436437
5532.09396732
5043.58455403
8478.59016041
7989.13864628
7499.89800004
7010.84897922
6521.98543636
6033.30073316
5544.78556656
5056.42636221
4568.20311583
4080.08695752
8490.51817406
8001.10159834
7511.92159097
7022.96242623
6534.21500281
6045.66930439
5557.31098545
5069.11920495
4581.06370028
4093.10118116
8502.22016048
8012.839992
7523.72403577
7034.85987693
6546.23695519
6057.8430035
5569.66037572
5081.66352035
4593.81552945
4106.06377099
8513.66445007
8024.32300372
7535.27509436
7046.51271517
6558.02498506
6069.79871193
5581.81531119
5094.04769924
4606.45657486
4118.98650053
8524.81655441
8035.5183139
7546.54170218
7057.8885713
6569.54732931
6081.5056331
5593.74654391
5106.24502676
4618.96302544
4131.84989111
8535.63956111
8046.39174813
7557.4883109
7068.95088573
6580.76636548
6092.9246686
5605.41289368
5118.21290145
4631.28771045
4144.59984521
8546.09217247
8056.91308283
7568.07380973
7079.65863748
6591.63922292
6104.00899259
5616.76044471
5129.89611771
4643.36186267
4157.15017066
8556.12091207
8067.07193524
7578.24517565
7089.96524874
6602.11966695
6114.70698203
5627.7165532
5141.23891192
4655.09908688
4169.38845588
8565.7403921
8076.71842326
7587.99807722
7099.8381871
6612.16658713
6124.981712
5638.28616324
5152.09773872
4666.38542356
4181.18039757
8574.86947357
8085.88655045
7597.25923641
7109.22364376
6621.72420757
6134.76155645
5648.34042389
5162.46889417
4677.14737425
4192.39271435
8583.46793737
8094.53169669
7605.98738955
7118.0739867
6630.74176459
6143.99352262
5657.8356843
5172.27636545
4687.32256389
4202.98576801
8591.49675208
8102.60914781
7614.14040497
7126.34357843
6639.17091034
6152.62741227
5666.72153847
5181.46262933
4696.85877506
4212.91829776
8598.91788376
8110.07750774
7621.6766922
7133.98812736
6646.96467798
6160.6139961
5674.94724424
5189.97551373
4705.70657157
4222.14579888
8605.69527859
8116.89837248
7628.55645317
7140.96489695
6654.07704755
6167.90422052
5682.4616741
5197.76348279
4713.8163633
4230.62122991
8611.79628981
8123.03692998
7634.74257934
7147.23300909
6660.46256838
6174.44816741
5689.21161768
6666.0763163
)
;
    }
    sides
    {
        type            calculated;
        value           nonuniform List<scalar> 0();
    }
    bottom
    {
        type            calculated;
        value           nonuniform List<scalar> 
17
(
8698.9846656
8711.27488318
8723.39876388
8735.32675386
8747.02872015
8758.47299576
8769.62507351
8780.44805278
8790.9006381
8800.92935151
8810.54882782
8819.67783873
8828.27629913
8836.30511386
8843.72632514
8850.5037729
8856.60477575
)
;
    }
    front
    {
        type            calculated;
        value           nonuniform List<scalar> 
164
(
8454.17604002
7964.6541018
7475.29801693
6986.07533677
6496.98975446
6008.04369586
5519.24076731
5030.58581812
8466.46626079
7976.98005638
7487.68107006
6998.54522411
6509.57041648
6020.75436437
5532.09396732
5043.58455403
8478.59016041
7989.13864628
7499.89800004
7010.84897922
6521.98543636
6033.30073316
5544.78556656
5056.42636221
4568.20311583
4080.08695752
8490.51817406
8001.10159834
7511.92159097
7022.96242623
6534.21500281
6045.66930439
5557.31098545
5069.11920495
4581.06370028
4093.10118116
8502.22016048
8012.839992
7523.72403577
7034.85987693
6546.23695519
6057.8430035
5569.66037572
5081.66352035
4593.81552945
4106.06377099
8513.66445007
8024.32300372
7535.27509436
7046.51271517
6558.02498506
6069.79871193
5581.81531119
5094.04769924
4606.45657486
4118.98650053
8524.81655441
8035.5183139
7546.54170218
7057.8885713
6569.54732931
6081.5056331
5593.74654391
5106.24502676
4618.96302544
4131.84989111
8535.63956111
8046.39174813
7557.4883109
7068.95088573
6580.76636548
6092.9246686
5605.41289368
5118.21290145
4631.28771045
4144.59984521
8546.09217247
8056.91308283
7568.07380973
7079.65863748
6591.63922292
6104.00899259
5616.76044471
5129.89611771
4643.36186267
4157.15017066
8556.12091207
8067.07193524
7578.24517565
7089.96524874
6602.11966695
6114.70698203
5627.7165532
5141.23891192
4655.09908688
4169.38845588
8565.7403921
8076.71842326
7587.99807722
7099.8381871
6612.16658713
6124.981712
5638.28616324
5152.09773872
4666.38542356
4181.18039757
8574.86947357
8085.88655045
7597.25923641
7109.22364376
6621.72420757
6134.76155645
5648.34042389
5162.46889417
4677.14737425
4192.39271435
8583.46793737
8094.53169669
7605.98738955
7118.0739867
6630.74176459
6143.99352262
5657.8356843
5172.27636545
4687.32256389
4202.98576801
8591.49675208
8102.60914781
7614.14040497
7126.34357843
6639.17091034
6152.62741227
5666.72153847
5181.46262933
4696.85877506
4212.91829776
8598.91788376
8110.07750774
7621.6766922
7133.98812736
6646.96467798
6160.6139961
5674.94724424
5189.97551373
4705.70657157
4222.14579888
8605.69527859
8116.89837248
7628.55645317
7140.96489695
6654.07704755
6167.90422052
5682.4616741
5197.76348279
4713.8163633
4230.62122991
8611.79628981
8123.03692998
7634.74257934
7147.23300909
6660.46256838
6174.44816741
5689.21161768
6666.0763163
)
;
    }
    atmosphere
    {
        type            calculated;
        value           nonuniform List<scalar> 0();
    }
    floatingObject
    {
        type            calculated;
        value           nonuniform List<scalar> 0();
    }
    procBoundary4to0
    {
        type            processor;
        value           nonuniform List<scalar> 8(8441.74927249 7952.1910053 7462.77631838 6973.46363312 6484.26291229 5995.18130726 5506.22900516 5017.42001707);
    }
    procBoundary4to3
    {
        type            processor;
        value           nonuniform List<scalar> 
13
(
5204.77299329
4721.1374508
4238.29934449
8617.19324997
8128.46308622
7640.20185602
7152.75406258
6180.19366578
5204.77299329
5695.13915458
7152.75406258
6180.19366578
6670.87396326
)
;
    }
    procBoundary4to5
    {
        type            processor;
        value           nonuniform List<scalar> 
18
(
4542.08467352
4555.21862525
4555.21862525
4066.9849183
3592.0366399
3605.16967059
3618.33283658
3631.55849689
3644.83367038
3658.09453419
3671.23129454
3684.10053459
3696.5325191
3708.22831711
3719.27972645
3729.65005869
3739.2985149
3748.17641607
)
;
    }
}


// ************************************************************************* //
