/*--------------------------------*- C++ -*----------------------------------*\
| =========                 |                                                 |
| \\      /  F ield         | OpenFOAM: The Open Source CFD Toolbox           |
|  \\    /   O peration     | Version:  v2012                                 |
|   \\  /    A nd           | Website:  www.openfoam.com                      |
|    \\/     M anipulation  |                                                 |
\*---------------------------------------------------------------------------*/
FoamFile
{
    version     2.0;
    format      ascii;
    class       surfaceVectorField;
    location    "1.6";
    object      Uf_0;
}
// * * * * * * * * * * * * * * * * * * * * * * * * * * * * * * * * * * * * * //

dimensions      [0 1 -1 0 0 0 0];


internalField   nonuniform List<vector> 
300
(
(0.0207828117985 -0.00128187727812 -2.24207446718e-22)
(0.0191478181403 -0.000781264166439 -4.60146524826e-22)
(0.0235476982648 -0.00268343365672 1.71832006695e-23)
(0.023539204397 -0.00179697096515 8.96079897542e-23)
(0.0243619211591 -0.0041840391281 1.80030145408e-23)
(0.0248431216274 -0.00339168587693 -1.54240204521e-22)
(0.0246397388296 -0.00578805479377 3.36951923949e-23)
(0.0252799407398 -0.00487104531954 1.36413376952e-23)
(0.0248055961204 -0.00750647967291 -1.42705761164e-23)
(0.0255156676521 -0.00651474644268 -2.12011285856e-23)
(0.0249619031402 -0.00937533095382 -1.73176062133e-23)
(0.0257508224905 -0.00829113884187 -1.59973092557e-23)
(0.0251133057407 -0.0114319704243 -1.63244629293e-23)
(0.026006590398 -0.0102414431713 -6.64007074975e-24)
(0.0262751761518 -0.0124097912747 -1.10806580834e-23)
(0.0220918544901 -0.00121517435811 -1.46331088354e-22)
(0.0203629982592 -0.000698852653709 -3.33419100251e-22)
(0.024980837963 -0.00256303297589 -8.18154154365e-23)
(0.024887067362 -0.00172091298839 1.99610503006e-22)
(0.0258978087042 -0.00402799678086 -1.58601881367e-22)
(0.0263080883599 -0.00321379740363 -1.49510926064e-22)
(0.026285843848 -0.00558092472389 -4.12549832852e-23)
(0.0268328700709 -0.00463120517188 -6.28438867997e-23)
(0.0265903617734 -0.0072635028792 -2.29278617249e-23)
(0.0271982454968 -0.00622288271924 -3.68404585295e-23)
(0.0269222382047 -0.00910782161168 -5.31977379215e-24)
(0.0275951383897 -0.00794880822385 -6.93044860634e-24)
(0.0272912366295 -0.0111553154382 -1.39626590378e-24)
(0.0280540793877 -0.00985905413649 2.83734627051e-24)
(0.0285694447138 -0.0119993771736 -2.40694143439e-24)
(0.0233332544856 -0.00114615773302 1.25224911089e-23)
(0.0215091575492 -0.000624664998573 -3.39082599665e-22)
(0.0263447619014 -0.00240722359254 1.31914992378e-22)
(0.0261481331139 -0.00161260783809 1.89051218822e-22)
(0.0273708526721 -0.00378009562742 -5.37529314971e-23)
(0.0276809592108 -0.00296952114606 -2.22623195932e-23)
(0.0278743243512 -0.00525962786217 -5.8429362044e-23)
(0.0283124003539 -0.00429117432635 -3.21591563434e-23)
(0.0283272257333 -0.00687214457458 -2.0843045411e-23)
(0.0288107596818 -0.00578789865591 -3.20005175143e-23)
(0.0288450733366 -0.0086534044678 1.22667145632e-24)
(0.0293763953117 -0.00742227531929 -7.76037237497e-24)
(0.0294440998359 -0.0106425592314 1.8266707399e-24)
(0.0300432311258 -0.00924734855047 -1.26785056417e-24)
(0.030124151744 -0.0128938013237 -3.8979776613e-24)
(0.030820683406 -0.0113062074461 -3.63301703684e-24)
(0.0308801457205 -0.0154589505665 -6.80535661051e-24)
(0.031705929229 -0.0136533812879 -1.65692183457e-23)
(0.0327024327164 -0.0163464695172 -8.13299003761e-24)
(0.0244929439547 -0.00105175033134 -1.62553871952e-22)
(0.0225609047181 -0.000530862954289 -3.53408232745e-22)
(0.0276101399896 -0.00220001313514 3.48739068505e-23)
(0.0272963908637 -0.00146355902981 1.56415374324e-22)
(0.0287453496672 -0.00345179931764 -6.68544439517e-25)
(0.0289327396034 -0.00265518026697 3.32619148999e-23)
(0.0293706367336 -0.00481580013862 -5.73031181371e-24)
(0.0296763954295 -0.00384811857222 3.82315319606e-23)
(0.029976315058 -0.0063172742398 -1.89178444783e-23)
(0.0303122287396 -0.0052077865787 -8.75094537634e-24)
(0.0306847720138 -0.00798701203963 -1.02548943955e-23)
(0.0310461295113 -0.00670864459174 -6.05171294591e-24)
(0.0315206273744 -0.00987165083961 -6.72753834091e-24)
(0.0319278685867 -0.00840104819965 -1.0677649718e-23)
(0.0324899172662 -0.012016319435 -1.63042577212e-23)
(0.0329653542185 -0.0103248432801 -5.76699993305e-24)
(0.0335965369557 -0.0144784975007 -1.78968517728e-23)
(0.0341681168353 -0.0125335017077 -2.68957310981e-23)
(0.0355466742137 -0.0150783693329 -8.88650527155e-24)
(0.0255355214155 -0.000926013804929 -3.44389864682e-23)
(0.0234869103101 -0.000414053305207 -1.51980731396e-22)
(0.0287449272919 -0.00193059557676 1.54803382374e-22)
(0.0283009624758 -0.00127119952598 3.34569922223e-22)
(0.0299858966398 -0.00303007283712 7.21619913e-23)
(0.0300322064318 -0.00226292310245 1.46371486239e-22)
(0.0307360500024 -0.00424361721783 3.5210898398e-23)
(0.0308899303919 -0.00329517827737 1.38093195259e-22)
(0.0314947139898 -0.00559100168468 4.11518615603e-24)
(0.0316596060118 -0.00448211158315 2.88431225951e-23)
(0.0323941903034 -0.00710782156536 -6.47446826846e-24)
(0.0325629457714 -0.00580805026537 2.99909763242e-24)
(0.0334665778204 -0.00883440563645 -9.71711131015e-24)
(0.0336544539884 -0.00732051334644 -1.51866317624e-23)
(0.0347223138749 -0.010818938272 -1.63584733099e-23)
(0.0349498964831 -0.00905851421994 -2.12389617711e-23)
(0.0361719126753 -0.0131099543338 -1.78853845969e-23)
(0.0364591564326 -0.0110720794906 -2.32695513252e-23)
(0.0381955909604 -0.0134007644815 -8.46479770042e-24)
(0.0264259898039 -0.000763001687938 2.17028177295e-22)
(0.0242498989378 -0.000281945545182 5.25334294481e-23)
(0.0297191815691 -0.00159201598249 3.26138026088e-22)
(0.0291299619676 -0.00103685616673 3.05948503616e-22)
(0.0310611764033 -0.00251969247028 2.12302690198e-22)
(0.0309598684913 -0.00179057933725 2.10139771843e-22)
(0.031930878985 -0.0035440840599 1.31725419456e-22)
(0.031914309722 -0.00263263009263 1.96962447946e-22)
(0.0328398218285 -0.00469907083159 2.77270340715e-23)
(0.0328145844865 -0.00361129241544 4.37640079911e-23)
(0.0339271974041 -0.00601821820281 -5.71306586157e-24)
(0.0338820907674 -0.00472272218481 1.41561586363e-23)
(0.0352302271282 -0.00754116582283 -2.67084822235e-23)
(0.035177407083 -0.00601166944126 -4.98704282781e-24)
(0.0367635489424 -0.00931070207469 -2.81500397865e-23)
(0.0367194515528 -0.00751649228936 -1.70244968844e-23)
(0.0385421945915 -0.0113743090421 -1.38489644288e-23)
(0.038522802863 -0.00928265844985 -1.86030899031e-23)
(0.0406094288494 -0.0113424925873 -1.5985532309e-23)
(0.0271342132942 -0.000575277238782 1.41453755769e-22)
(0.0248251591502 -0.000137561445888 2.28072849794e-22)
(0.0305026295908 -0.00119955821526 1.89950249372e-22)
(0.0297542246837 -0.000761186898127 1.46941234983e-22)
(0.0319383671519 -0.00191507964174 1.94799529592e-22)
(0.0316753728724 -0.00124259957285 2.14128475659e-22)
(0.03291834449 -0.00271681059637 1.09001036481e-22)
(0.0327160271126 -0.00186730094812 1.93570673092e-22)
(0.0339716005451 -0.00364333882578 3.0193132556e-23)
(0.0337411049883 -0.00259906997824 5.61010702981e-23)
(0.0352389771523 -0.00472462952836 1.48821816701e-23)
(0.0349633820732 -0.00345886957384 3.97669212368e-23)
(0.0367625719062 -0.00599865614112 4.69694251123e-24)
(0.0364514449719 -0.00448362311566 3.10663093671e-23)
(0.0385599831954 -0.00750530324566 -7.477547001e-24)
(0.0382261281155 -0.00571169576271 1.32641416599e-23)
(0.0406490007731 -0.00928655510403 -2.07396577833e-23)
(0.040304110831 -0.00718397383386 -4.34163584691e-24)
(0.042704563779 -0.00893528834843 -1.54053041335e-23)
(0.0276355638003 -0.000356222292933 2.33560329008e-22)
(0.0251813619896 2.39674999119e-05 2.85742839092e-22)
(0.0310624702132 -0.000763432891765 1.71119461271e-22)
(0.0301614154112 -0.000450179855581 -3.335640505e-22)
(0.0325789044592 -0.00121600337558 2.12899619159e-22)
(0.0321279257079 -0.000629967503587 1.62045637266e-22)
(0.0336648537083 -0.00176658410899 1.40670706909e-22)
(0.0332665950762 -0.00100318701353 2.51032490048e-22)
(0.0348529269932 -0.00242951990048 6.56748589789e-23)
(0.0344040357152 -0.00145374575214 9.75338059296e-23)
(0.0362889875828 -0.00323568598183 5.59510489338e-23)
(0.0357695536647 -0.00202639063687 7.20567928248e-23)
(0.038019137447 -0.00422095352005 3.96335085158e-23)
(0.0374367310941 -0.00274910499285 5.04776079318e-23)
(0.0400632999161 -0.00542207623451 1.6400052814e-23)
(0.0394272915601 -0.00366054477181 4.28417993033e-23)
(0.0424398092436 -0.00687978748261 9.92717802799e-25)
(0.0417618936011 -0.00479822294062 3.52114252018e-23)
(0.0444561519059 -0.00620271264401 1.25799759264e-23)
(0.0279063141031 -0.000107368172352 -2.81381540417e-22)
(0.0252887103589 0.000215152919502 4.15088721957e-22)
(0.0313718821161 -0.00027719402503 -3.42637874504e-22)
(0.0303312221205 -0.000110871706254 -6.89091387794e-22)
(0.0329474077424 -0.000445017279179 2.00178508155e-22)
(0.0322957331516 2.85612253431e-05 2.00367187486e-22)
(0.034135631136 -0.000705370485953 2.07895589069e-22)
(0.0335269387263 -4.38353949166e-05 2.82587776455e-22)
(0.0354475027533 -0.0010680595153 1.03915739775e-22)
(0.0347667245795 -0.000185963189411 1.33316450716e-22)
(0.0370385448803 -0.00156339696882 6.65833518228e-23)
(0.0362649033357 -0.000438355858012 1.07422097494e-22)
(0.0389592587391 -0.00221850947619 5.36858987194e-23)
(0.0380918704895 -0.000823493121336 7.8548506632e-23)
(0.0412334308468 -0.00307565054003 6.16531716911e-23)
(0.0402844839532 -0.00137908730262 5.55118247697e-23)
(0.0438793418191 -0.00417248935195 4.67986833254e-23)
(0.0428588155758 -0.00214295340768 9.4591991495e-23)
(0.0458339448459 -0.00316180960438 6.11897602802e-23)
(0.0279124369706 0.000132967449886 7.37887457991e-24)
(0.0251557251395 0.000425780705729 8.36832247847e-22)
(0.0313982310745 0.000296306255731 -1.46086325803e-22)
(0.0301678674558 0.000254511459148 -1.65448497951e-22)
(0.0330258393207 0.000406176153737 2.82776455786e-22)
(0.0321858518449 0.000730246616268 3.76770748868e-22)
(0.0343008801534 0.000454379256011 2.08008638101e-22)
(0.0334787316902 0.000995457562759 3.23867711356e-22)
(0.0357216836377 0.000416438137153 1.36822808434e-22)
(0.0348046724589 0.00118906246172 1.42861992358e-22)
(0.0374506639937 0.000268689837891 1.19387252303e-22)
(0.0364126718624 0.00128816478914 9.4230043085e-23)
(0.0395437267245 -2.31893016772e-05 8.03744326824e-23)
(0.0383837849427 0.00127544836348 8.45723568338e-23)
(0.0420287905283 -0.000493247901631 8.84506445736e-23)
(0.0407546021315 0.00111440633501 2.35894659792e-23)
(0.0449258086456 -0.00118199449538 1.0898306845e-22)
(0.0435476504744 0.000764769987525 9.559507872e-23)
(0.0467838731015 0.000178614488942 9.48092429405e-23)
(0.0276316616231 0.000406297788442 6.64004875316e-22)
(0.024749413996 0.000638289277171 8.42582022711e-22)
(0.0311141710258 0.000870069101471 3.57408576721e-22)
(0.0297040859872 0.000641931246442 -6.76786640477e-22)
(0.0327899586498 0.00131016571164 4.17862004437e-22)
(0.031745750541 0.00147674277805 1.83407668272e-22)
(0.0341331700252 0.00169947366895 2.58721065613e-22)
(0.0330894274266 0.00209615202068 3.0454833065e-22)
(0.0356443458169 0.00201976077992 1.00269227009e-22)
(0.0344844004332 0.00265242897681 1.25247377689e-22)
(0.0374912504518 0.00224928946159 5.94151476154e-23)
(0.0361831717957 0.00313340123836 7.67267649988e-23)
(0.039735737395 0.00235773041653 2.77873901306e-23)
(0.0382753865829 0.00352760233951 7.29601365043e-23)
(0.0424100557261 0.0023096345811 3.07339001256e-23)
(0.0408027615321 0.00379933934148 4.64376440095e-23)
(0.0455390101515 0.00206273182954 8.14212532107e-23)
(0.043794637762 0.00390710510612 6.72348934853e-23)
(0.0472785185807 0.00380546355939 5.718447794e-23)
(0.0270555432673 0.000690523562076 -4.98209493082e-22)
(0.024058883537 0.000851856781407 6.6816963279e-22)
(0.0305053815263 0.00147250814277 -8.50787548925e-22)
(0.028922098854 0.00104317824859 -1.704511043e-21)
(0.0322081871835 0.00225878286125 7.00939944854e-23)
(0.0309594794749 0.00225319612424 -1.98817111531e-22)
(0.0336033661666 0.00301193631206 1.71074642726e-22)
(0.0323362864442 0.00324299403574 3.56461382246e-22)
(0.0351849630226 0.00371715033209 1.01704915679e-22)
(0.0337792101383 0.00418454326766 1.82176028574e-22)
(0.0371267510896 0.00435632687284 9.02717538878e-23)
(0.0355440312666 0.00507512402598 1.03181845916e-22)
(0.0394981886927 0.00490198208517 9.16103903833e-23)
(0.0377297784795 0.00590951422514 8.57584128107e-23)
(0.0423376000948 0.00531815937082 8.29386373692e-23)
(0.0403866456065 0.00665263785178 3.61657451721e-23)
(0.0456752054143 0.00556313451459 4.29981182146e-23)
(0.0435497328584 0.00726197518855 6.97299156642e-23)
(0.0472504285662 0.00769324893572 5.64991283577e-23)
(0.0261721882484 0.000979334162248 -5.38131917126e-22)
(0.0230795502532 0.00106365579473 1.51366077897e-21)
(0.029556665367 0.00209205823045 -1.0525406056e-21)
(0.0278093808144 0.00144952447631 -2.29770572407e-21)
(0.0312625856675 0.00323701076304 8.75502762296e-23)
(0.0298145394895 0.00304303691333 -6.02655826896e-22)
(0.032688284277 0.00437218081575 3.67562768094e-22)
(0.031201137544 0.00441597534596 3.56084082956e-22)
(0.0343154553244 0.00548595871592 1.83652958811e-22)
(0.0326654635433 0.00576101018953 2.42231184021e-22)
(0.0363241800834 0.00656421739469 9.86685048385e-23)
(0.0344658134968 0.00708608887295 1.29538951566e-22)
(0.0387932882366 0.00758164367912 3.03137675995e-23)
(0.0367123995838 0.00839281284191 1.28186838123e-22)
(0.0417684061489 0.00850240535554 2.2957023467e-23)
(0.0394659355333 0.00964596563348 4.88737966166e-23)
(0.0452835696218 0.00928422718567 8.32309258074e-23)
(0.0427679566689 0.0107993231005 1.25743552849e-22)
(0.0466497441222 0.0118046746697 8.15296526884e-23)
(0.0249752411213 0.00126657504713 -2.45913027969e-22)
(0.0218129841405 0.00126883275952 1.79428038873e-21)
(0.0282577700615 0.00271496097675 -1.84782094536e-21)
(0.0263610093216 0.00185062109284 -2.89844378367e-21)
(0.0299397973824 0.00422558512428 -3.34122020169e-22)
(0.0283039361843 0.0038270308068 -9.49313811848e-22)
(0.0313688110036 0.00575543887752 2.30752498883e-22)
(0.0296713124409 0.0055894537683 2.48636911874e-22)
(0.0330104332572 0.0072975294553 1.88117176776e-22)
(0.0311234099656 0.00735105061141 2.43003479375e-22)
(0.0350519620679 0.00884250775136 1.59057284851e-22)
(0.0329208781846 0.00913280724603 1.44375282975e-22)
(0.0375843008104 0.010366908812 1.4674686714e-22)
(0.0351880413131 0.0109441761175 1.76997737162e-22)
(0.0406631211194 0.011832802677 1.51660325998e-22)
(0.0380000815203 0.0127488357857 1.09693946522e-22)
(0.0443260423619 0.0131905796573 1.2404227973e-22)
(0.0414101961639 0.0144908457703 1.93723251206e-22)
(0.0454496303475 0.0161051557078 1.25086635595e-22)
(0.0234658537735 0.001544039736 -8.5825036697e-22)
(0.020268965019 0.00146221373078 2.20776407944e-21)
(0.0266056102818 0.00332450771962 -1.99993665016e-21)
(0.024580566133 0.00223540057817 -2.39600454199e-21)
(0.0282323291939 0.0052000070743 -3.66554879805e-22)
(0.0264284666925 0.00458390178642 -7.16873551233e-22)
(0.0296303124239 0.00713083310568 2.60887892365e-22)
(0.0277405206275 0.00673278713726 1.85122787009e-22)
(0.0312469333253 0.00911705139299 1.99261585574e-22)
(0.0291372301564 0.00891691458893 2.25970034967e-22)
(0.0332786197982 0.0111556451091 1.62315735286e-22)
(0.0308823240784 0.0111741012064 1.37321472163e-22)
(0.0358326269348 0.0132249762666 1.39944816544e-22)
(0.033118758874 0.013523841484 1.38403679497e-22)
(0.038981488191 0.0152826973454 1.5175687173e-22)
(0.0359423823887 0.0159301694493 9.61309979978e-23)
(0.0427724234012 0.0172604406872 1.94767607071e-22)
(0.0394324355304 0.0183197288972 1.74631423029e-22)
(0.0436294191742 0.0205916814109 1.50498889225e-22)
(0.02165290594 0.00180470885272 6.70009904414e-22)
(0.0184642877731 0.00163951189665 4.08975653933e-21)
(0.024605608709 0.00390422371647 -1.11294144307e-21)
(0.0224810861967 0.00259192846534 -1.43891779703e-21)
(0.026140661021 0.0061333720135 -1.65195884419e-22)
(0.0241993531307 0.00528943114527 -2.09985752931e-22)
(0.0274641722734 0.00846198354693 1.5020492961e-22)
(0.025411957533 0.00780884612797 2.44411640697e-22)
(0.0290045805948 0.0109017442878 1.64029921556e-22)
(0.0266975049435 0.0104112471361 2.39102886078e-22)
(0.0309706999912 0.0134597004867 1.13409416374e-22)
(0.0283244274436 0.0131574403797 1.6633925322e-22)
(0.0334919135677 0.0161176692874 9.45898609514e-23)
(0.0304608224355 0.0160809331246 1.07564738134e-22)
(0.0366715581173 0.0188317023525 1.19005549297e-22)
(0.0405834253539 0.0214979585728 1.30362705184e-22)
(0.019553614659 0.00204054230916 1.98082883788e-21)
(0.0222736841584 0.00443341442471 -5.35962106899e-22)
(0.0236757801999 0.00699145654903 1.99621772185e-22)
(0.0248700651814 0.00970219673527 3.33309597164e-22)
(0.026266621251 0.0125960902422 2.41412217741e-22)
(0.0238036925064 0.0117721132207 2.49073192602e-22)
(0.0280915357672 0.0156975224541 1.6049457498e-22)
)
;

boundaryField
{
    back
    {
        type            calculated;
        value           uniform (0 0 0);
    }
    sides
    {
        type            calculated;
        value           nonuniform List<vector> 0();
    }
    bottom
    {
        type            calculated;
        value           uniform (0 0 0);
    }
    front
    {
        type            calculated;
        value           uniform (0 0 0);
    }
    atmosphere
    {
        type            calculated;
        value           nonuniform List<vector> 0();
    }
    floatingObject
    {
        type            calculated;
        value           nonuniform List<vector> 0();
    }
    procBoundary4to0
    {
        type            processor;
        value           nonuniform List<vector> 8((0.0178659250776 -0.000852817173459 -6.78275170796e-22) (0.0221376338964 -0.00183042091559 2.81010642951e-22) (0.0233425050296 -0.00349542272308 4.11847029432e-23) (0.0236759179515 -0.00500721310308 6.66109345067e-23) (0.0237972404284 -0.00666837633594 -5.58062294025e-25) (0.0238819750616 -0.00845708553271 -1.64493323859e-23) (0.023949961372 -0.0104049483379 -1.2272678938e-23) (0.0239862185991 -0.012551357512 -2.28168077615e-23));
    }
    procBoundary4to3
    {
        type            processor;
        value           nonuniform List<vector> 
13
(
(0.033228363991 0.0191560147963 7.96465300101e-23)
(0.0367661455928 0.022283002911 1.53819124373e-22)
(0.0411438470824 0.0252980265787 6.08763936364e-23)
(0.016423782263 0.00179669676346 3.64474666431e-21)
(0.0200882517957 0.00290455723325 -1.23209175452e-21)
(0.0216413735405 0.00591285909383 -1.63507718665e-22)
(0.0227012518039 0.00876984007216 2.62598307263e-22)
(0.0252230293276 0.0150127708394 1.91700795156e-22)
(0.0305005677731 0.0189955478012 9.2621407193e-23)
(0.0271628348399 0.0185440749006 2.16572884669e-22)
(0.0218591329334 0.0107900936497 1.783619027e-22)
(0.0230223934138 0.0141262442221 1.99361770016e-22)
(0.0204675932597 0.0129142748755 2.38310413149e-22)
)
;
    }
    procBoundary4to5
    {
        type            processor;
        value           nonuniform List<vector> 
18
(
(0.0252426464363 -0.0137209459768 -2.04931098671e-23)
(0.0276881338043 -0.0134495913006 -4.91584743824e-24)
(0.0291407873505 -0.0144230168311 -6.40688366515e-24)
(0.0297479741628 -0.0171902475195 -1.67334136226e-23)
(0.031710065644 -0.018413416872 -1.2726364872e-24)
(0.0348508646103 -0.0173227240968 1.14901321789e-23)
(0.0378364000843 -0.0157588382098 -2.51016832341e-24)
(0.0405885161395 -0.0137880945195 -1.622828441e-23)
(0.0430447916731 -0.0113816183642 -2.37245715516e-23)
(0.0451616951924 -0.00863128764818 -2.47964209124e-23)
(0.0469091172147 -0.00555018419489 4.2802919578e-23)
(0.0482530138957 -0.00213182375277 5.59081790716e-23)
(0.0491489762928 0.0015681747638 2.8602315477e-23)
(0.0495414919401 0.00559128997329 6.61271257241e-23)
(0.0493686839625 0.00988494238798 6.48458459953e-23)
(0.0485938843316 0.014390681772 1.97117505564e-22)
(0.0472157910172 0.0190805835012 1.83787043099e-22)
(0.0452341199557 0.0239834413268 1.55057326501e-22)
)
;
    }
}


// ************************************************************************* //
