/*--------------------------------*- C++ -*----------------------------------*\
| =========                 |                                                 |
| \\      /  F ield         | OpenFOAM: The Open Source CFD Toolbox           |
|  \\    /   O peration     | Version:  v2012                                 |
|   \\  /    A nd           | Website:  www.openfoam.com                      |
|    \\/     M anipulation  |                                                 |
\*---------------------------------------------------------------------------*/
FoamFile
{
    version     2.0;
    format      ascii;
    class       volScalarField;
    location    "4.3";
    object      p;
}
// * * * * * * * * * * * * * * * * * * * * * * * * * * * * * * * * * * * * * //

dimensions      [1 -1 -2 0 0 0 0];


internalField   nonuniform List<scalar> 
1984
(
8433.18457059
7943.52283694
7453.7722978
6963.93437429
6474.00003543
5983.95099762
5493.76203703
5003.400298
4512.82467958
4021.98235879
3530.8097506
3039.22951038
2547.14625704
2054.44465448
1560.97605449
1066.54278249
570.875330179
161.214012557
-3.21791336472
-9.58088717188
8433.18930061
7943.53228831
7453.78936373
6963.9630985
6474.04614866
5984.0207766
5493.8624247
5003.53956599
4513.01237347
4022.23106636
3531.1337159
3039.64718547
2547.68106561
2055.1256481
1561.8491948
1067.69365358
572.293737598
162.025252906
-3.21441119986
-9.58779800614
8433.23927181
7943.59232011
7453.86682916
6964.06696003
6474.18669198
5984.20954977
5494.11265645
5003.86656376
4513.43631682
4022.77506584
3531.8275802
3040.52573812
2548.7873394
2056.51250861
1563.58097405
1069.85640107
574.981308529
164.105087088
-2.78105538477
-9.60577828418
8433.3197226
7943.68668965
7453.98691682
6964.22608873
6474.39962848
5984.49282661
5494.48527383
5004.35122187
4514.0593049
4023.57317692
3532.84227324
3041.80892623
2550.40128501
2058.53267035
1566.09423023
1072.9606166
578.698459829
166.595815161
-2.31077127453
-9.54671025141
8433.41633192
7943.79938949
7454.13190618
6964.42080156
6474.66288303
5984.84564253
5494.95164092
5004.95950574
4514.84413629
4024.57632337
3534.11927134
3043.42532149
2552.43629351
2061.08632534
1569.29337781
1076.97803171
583.70271293
170.225853614
-1.45793691586
-9.49006539893
8433.51479288
7943.91613694
7454.28632855
6964.63372874
6474.95647041
5985.24448451
5495.48393397
5005.65834058
4515.74951532
4025.7372453
3535.59627165
3045.29476836
2554.78899441
2064.04056339
1573.00881221
1081.71503783
589.850102514
175.272703782
0.0351428689166
-9.58056845172
8433.59848493
7944.02015679
7454.43215858
6964.84477602
6475.25739343
5985.66257003
5496.05041952
5006.40968694
4516.72939493
4026.99837707
3537.2028203
3047.32632613
2557.3399222
2067.23046743
1576.9965893
1086.73170915
596.343737846
180.080972321
0.484917427198
-9.87326144468
8433.64894196
7944.09244707
7454.54904461
6965.03142624
6475.5401213
5986.07048136
5496.61658831
5007.17258444
4517.73438279
4028.29959063
3538.86422278
3049.42479051
2559.96419059
2070.48752524
1581.01982672
1091.69178733
602.705952924
184.676384132
-1.36290674199
-11.6634878638
8433.64635934
7944.11229956
7454.6150743
6965.16948317
6475.77732878
5986.43684435
5497.14609593
5007.90422647
4518.71378247
4029.5797555
3540.50673177
3051.50040819
2562.54989633
2073.66546721
1584.86865936
1096.26996306
608.082072722
189.514106929
3.04952076757
-9.89178592985
8433.57017355
7944.05802842
7454.60746268
6965.23385353
6475.94079409
5986.72941243
5497.60160651
5008.56131007
4519.61671966
4030.77923852
3542.06065184
3053.47348948
2565.01035377
2076.6770666
1588.46673825
1100.39144942
612.340151841
191.908130344
3.8545775925
-9.69368153257
8433.39951135
7943.90812712
7454.50294917
6965.1991655
6476.00220818
5986.91600386
5497.94604433
5009.10067938
4520.39324101
4031.84060808
3543.46052879
3055.27314454
2567.2783998
2079.48330193
1591.87227544
1104.41970259
616.914053733
194.672932493
3.73683930061
-9.54787869235
8433.11331804
7943.64167264
7454.27897533
6965.04072062
6475.93409272
5986.96543704
5498.14355035
5009.48084377
4520.9949566
4032.7078483
3544.64352628
3056.83048322
2569.28216119
2082.01989295
1595.05225132
1108.40967497
622.030435232
199.254028513
5.11873752214
-9.60596065916
8432.69274844
7943.23845358
7453.91428881
6964.73545489
6475.71071986
5986.84853452
5498.16062935
5009.66279757
4521.3763083
4033.32803114
3545.54828305
3058.07449131
2570.93580008
2084.17396486
1597.83368359
1112.01092456
626.775218824
203.644678633
6.58641618461
-9.61009504406
8432.12018893
7942.68076279
7453.38988163
6964.26260433
6475.30890805
5986.53912488
5497.96716617
5009.61159378
4521.49682445
4033.65343369
3546.1178552
3058.93516455
2572.14865586
2085.81783838
1600.01647024
1114.89067899
630.654436025
207.754718412
8.0228078511
-9.41564960763
8431.38090867
7941.95294729
7452.68931952
6963.60433699
6474.70895633
5986.0149624
5497.53791505
5009.29794812
4521.32193444
4033.64393246
3546.30349586
3059.35186476
2572.84236565
2086.84289809
1601.4307961
1116.73023883
632.838174751
209.042068488
7.23998785207
-9.42473993972
8430.46217885
7941.04263253
7451.79936864
6962.74639899
6473.89533178
5985.25858792
5496.85242391
5008.69870507
4520.82527267
4033.26754952
3546.06861688
3059.28056091
2572.96301864
2087.18560547
1602.02493461
1117.59469412
633.988573185
210.789849864
9.35825153663
-9.57334003404
8429.35493785
7939.94024555
7450.71031374
6961.67871205
6472.85603106
5984.25639764
5495.89653901
5007.79808116
4519.98740648
4032.50302823
3545.38783153
3058.69389012
2572.47992596
2086.81394608
1601.76966687
1117.47020979
634.088596367
211.435914519
9.55210087654
-9.62567666921
8428.05348094
7938.64005748
7449.41655413
6960.39395509
6471.58471788
5983.00185098
5494.66057716
5006.58350679
4518.7987549
4031.34178186
3544.25457564
3057.58689825
2571.3922798
2085.72924688
1600.6506698
1116.24675273
632.634825116
210.995510637
9.40403202751
-9.60601030855
8426.55521732
7937.14015387
7447.91526063
6958.89096432
6470.07884051
5981.49014199
5493.14235804
5005.05649858
4517.25946001
4029.78398047
3542.66908346
3055.96372857
2569.71675751
2083.97648578
1598.76261174
1114.07780129
629.269981938
209.253786729
8.91914234506
-9.59695401243
8424.8606427
7935.44146938
7446.2080761
6957.17075922
6468.33962269
5979.72681366
5491.34822248
5003.22365228
4515.37750036
4027.83945813
3540.64248606
3053.84048909
2567.47782575
2081.6131552
1596.2846619
1111.85287827
626.446094678
206.557089821
7.7536408263
-9.59376403934
8422.97462467
7933.55117013
7444.29983334
6955.23832341
6466.37511831
5977.72022924
5489.28806299
5001.09664071
4513.1680788
4025.5294831
3538.18813711
3051.23653092
2564.68925734
2078.60359652
1593.02988823
1108.05702865
623.280489221
203.082113004
6.36715651875
-9.59382967801
8420.89941786
7931.4790471
7442.19815607
6953.10337602
6464.19585752
5975.48268405
5486.97580153
4998.6903236
4510.64415217
4022.85876799
3535.35892596
3048.19122927
2561.39056388
2075.00566529
1589.09666128
1103.69205641
618.871660328
199.479231095
4.9850093876
-9.59449560068
8418.66711273
7929.21294244
7439.91344625
6950.77983607
6461.81691339
5973.03128196
5484.43217786
4996.03113381
4507.84231548
4019.88234346
3532.17295727
3044.74310541
2557.62328288
2070.85486132
1584.50590783
1098.55270051
613.371865178
195.346524177
3.6132118039
-9.59810235852
8416.26873531
7926.79234217
7437.46268879
6948.28271731
6459.25550946
5970.38593795
5481.6806857
4993.14784198
4504.7967187
4016.63796847
3528.68453053
3040.95128197
2553.45734338
2066.22541174
1579.3048577
1092.61068515
606.713925534
190.467116895
2.13020706107
-9.59852237394
8413.72265988
7924.22632157
7434.8620681
6945.63028095
6456.53193739
5967.57008415
5478.74877577
4990.0725537
4501.54580388
4013.17231051
3524.95443266
3036.89341606
2548.98932694
2061.23649354
1573.64146573
1086.01867397
598.89809662
184.185203263
0.310620714462
-9.59191172626
8411.04632145
7921.52991751
7432.12874529
6942.84160993
6453.6677494
5964.60844539
5475.66521987
4986.83916748
4498.13034915
4009.53624786
3521.04874746
3032.65548164
2544.33402839
2056.04754716
1567.7424785
1079.11288492
590.474014957
177.145497103
-1.48370108155
-9.58076649549
8408.25670048
7918.72002427
7429.28062062
6939.93604479
6450.68426802
5961.52508267
5472.45797819
4983.48119587
4494.59149318
4005.78153253
3517.03503285
3028.32714791
2539.61685982
2050.84225502
1561.89453168
1072.39268805
582.471580535
170.870847518
-2.79502213174
-9.57135883651
8405.3724272
7915.81515969
7426.33667565
6936.93354005
6447.60273768
5958.34318921
5469.15304004
4980.02875913
4490.96439789
4001.95003126
3512.96631783
3023.9798641
2534.93936198
2045.77150509
1556.33913403
1066.26806792
575.62912892
166.044996675
-3.68845868134
-9.56563689688
8402.41204633
7912.83402719
7423.31596803
6933.85380386
6444.44390728
5955.08482774
5465.77431331
4976.50846171
4487.28059597
3998.0792061
3508.88540139
3019.66624667
2530.37084927
2040.93022802
1551.20709615
1060.86990225
569.936990792
162.340662191
-4.29255117817
-9.56389373055
8399.39429496
7909.79543916
7420.23758096
6930.7162145
6441.22756825
5951.77033074
5462.34266958
4972.94136974
4483.56082521
3994.19120432
3504.81685889
3015.4111072
2525.93390906
2036.33389113
1546.49833932
1056.18488612
565.412721687
159.818000863
-4.65075954987
-9.56524626513
8396.33799402
7906.71823054
7417.12041538
6927.53970019
6437.97259492
5948.41844181
5458.8764197
4969.34484633
4479.82073062
3990.29831668
3500.76808543
3011.21334364
2521.61114676
2031.93580581
1542.11874263
1052.02897442
561.768545864
158.13153898
-4.85299977596
-9.56751857719
8393.26204686
7903.62127664
7413.98314889
6924.34272803
6434.69696656
5945.04617504
5455.39098723
4965.73197899
4476.06970283
3986.40393039
3496.73358526
3007.05353868
2517.36020696
2027.65586565
1537.92123197
1048.12700786
558.438941486
156.493418572
-5.14572687769
-9.56816775619
8390.18557379
7900.52355173
7410.84451088
6921.14352129
6431.41800751
5941.66932653
5451.89978204
4962.11275314
4472.31278127
3982.5056481
3492.69896203
3002.90005399
2513.12449115
2023.39788516
1533.74103516
1044.19673557
554.935961435
154.631958296
-5.49564765744
-9.56850830251
8387.12820847
7897.444385
7407.72350104
6917.960437
6428.152957
5938.30341701
5448.41592652
4958.49650397
4468.553351
3978.59775385
3488.64498668
2998.71439518
2508.8368878
2019.05522811
1529.42320867
1040.02855734
551.047931191
152.397340233
-5.95658024654
-9.56846801256
8384.1099468
7894.40374676
7404.63970427
6914.81237867
6424.91978028
5934.96507482
5444.95375479
4954.89357723
4464.79570875
3974.67578558
3484.55557804
2994.46396913
2504.44161996
2014.54355463
1524.84665979
1035.46529326
546.593620559
149.653124624
-6.54891377663
-9.56787175872
8381.15150622
7891.42239106
7401.61368672
6911.71956569
6421.73815628
5931.67283598
5441.52946531
4951.31694341
4461.04817896
3970.74150386
3480.4231081
2990.12732569
2499.9011105
2009.80820968
1519.9386164
1030.42187877
541.504953438
146.330868746
-7.3510324898
-9.56301122868
8378.27451028
7888.52187919
7398.66713207
6908.70382661
6418.62953697
5928.44724213
5438.16252059
4947.78425424
4457.32546526
3966.80560155
3476.25247667
2985.70140779
2495.20255405
2004.82596987
1514.66531259
1024.85038551
535.657122544
142.424704769
-8.20488608599
-9.55086425834
8375.50127399
7885.72460605
7395.82277335
6905.78815365
6415.61727541
5925.31202521
5434.87679835
4944.31903606
4453.65073038
3962.89042674
3472.06400528
2981.20500736
2490.36193942
1999.60482642
1509.02274373
1018.72398454
529.022704922
138.162592674
-8.86913365298
-9.53473945505
8372.85470087
7883.0536775
7393.10439246
6902.99724118
6412.72726523
5922.29440517
5431.70071181
4940.95118415
4450.0554415
3959.02865055
3467.89288076
2976.6773424
2485.42353677
1994.19266633
1503.05445609
1012.06745417
521.530857286
133.893257036
-9.08816098726
-9.57703932273
8370.35734895
7880.53304976
7390.5367348
6900.35743041
6409.9878069
5919.42488863
5428.66727618
4937.71643237
4446.57833381
3955.26279963
3463.78753678
2972.17466093
2480.45670503
1988.67673218
1496.87506766
1005.06760269
513.55221563
129.475621296
-9.1868997667
-9.59425027181
8368.03261863
7878.18551291
7388.14461801
6897.89592218
6407.42900769
5916.73688101
5425.81339857
4934.65656506
4443.26541951
3951.64552114
3459.80720119
2967.76821911
2475.54859107
1983.16857927
1490.64086335
997.930278299
505.387056098
124.978910572
-9.13199593988
-9.57214657734
8365.90085076
7876.0339195
7385.95245585
6895.63966841
6405.08160721
5914.26543786
5423.18038878
4931.81728693
4440.1688578
3948.23415431
3456.02027698
2963.53830414
2470.79666176
1977.79444854
1484.50762127
990.826303554
497.189923122
120.425648873
-9.0655496324
-9.55461675752
8363.98170157
7874.09816377
7383.98213034
6893.61468819
6402.97632478
5912.04910673
5420.81132203
4929.24681507
4437.34177909
3945.08928225
3452.49365956
2959.56665208
2466.30281432
1972.68687643
1478.65612818
984.0091825
489.238253677
115.953529044
-9.07587704353
-9.56174229865
8362.29107008
7872.39467045
7382.25301041
6891.84367737
6401.14348108
5910.12414866
5418.75469373
4927.0033595
4434.84607514
3942.2738216
3449.29379843
2955.92794744
2462.16285518
1967.97345904
1473.28920715
977.814383067
482.093561313
111.986872175
-9.06789525963
-9.56221238743
8360.84162646
7870.93803526
7380.78198763
6890.34862547
6399.61080139
5908.53363403
5417.06775567
4925.14963644
4432.74107748
3939.84347924
3446.4656299
2952.66100013
2458.45195882
1963.74773863
1468.56274423
972.510171514
476.228396989
108.778471373
-9.04774694026
-9.5587031058
8359.64008567
7869.73633247
7379.57897159
6889.14292873
6398.39894503
5907.30994359
5415.80642566
4923.75502475
4431.0841546
3937.84641922
3444.04132775
2949.77594598
2455.17749698
1960.00683475
1464.54294639
968.25588423
471.905417697
106.536730444
-9.04748892259
-9.56104255576
8358.68838983
7868.79050733
7378.64660066
6888.23259388
6397.51377523
5906.44017632
5414.94624745
4922.83412921
4429.92843663
3936.43049672
3442.41143469
2947.51054941
2452.04476914
1956.62452803
1461.15163562
964.907317679
468.954936597
105.147530837
-9.0521288175
-9.56510529307
8357.98127189
7868.09459625
7377.97777271
6887.62022784
6397.01588478
5906.11633814
5414.80094383
4922.77251216
4429.35706208
3935.34499099
3440.64286607
2942.61982918
2448.21203582
1953.43057568
1458.42304648
962.558619281
467.173125772
104.478102553
-9.05249243452
-9.5667937618
8357.50981895
7867.63303367
7377.53673893
6887.21464355
6396.67278468
5905.99278157
5415.22920354
4924.03128466
2444.98833307
1951.0290591
1456.60317189
961.067511285
466.200853617
104.220603932
-9.0478149267
-9.56634855141
8357.26991952
7867.40196722
7377.32789206
6887.0588715
6396.63407475
5906.08448584
5415.53273455
4925.03520757
2443.36752419
1949.83186286
1455.65414062
960.367396791
465.730107138
104.106332076
-9.04918675571
-9.56666198848
8357.2549218
7867.38761829
7377.31456399
6887.04668204
6396.62111745
5906.07818398
5415.53093638
4925.0369638
2443.44482496
1949.92203356
1455.77826947
960.557314783
465.926964495
104.205011489
-9.05886715393
-9.56769748038
8357.46578203
7867.59077817
7377.49758071
6887.1808795
6396.64928375
5905.96920385
5415.21770898
4924.02657418
2445.19112396
1951.28418176
1456.96170128
961.553368921
466.675218249
104.557523589
-9.06004443299
-9.56525153686
8357.91015575
7868.02559484
7377.91232407
6887.5603184
6396.96381985
5906.07688051
5414.78156368
4922.77440292
4429.39670503
3935.4331207
3440.78539553
2942.82963534
2448.49833953
1953.82299548
1458.98051789
963.341345423
468.170975036
105.235909305
-9.05484145788
-9.56245704993
8358.59346293
7868.69716375
7378.55673641
6888.1487592
6397.43952769
5906.38010856
5414.90299211
4922.81852289
4429.94814206
3936.49849593
3442.53477022
2947.71218714
2452.34910838
1957.06976101
1461.8107937
965.881071604
470.422088372
106.223338486
-9.05204572919
-9.56209261548
8359.52230485
7869.61936173
7379.46460686
6889.03375381
6398.29833533
5907.2219137
5415.73545982
4923.70986672
4431.07299304
3937.87946959
3444.12999437
2949.93691272
2455.44072941
1960.41302874
1465.17007417
969.24898141
473.439845146
107.531771333
-9.04814809108
-9.56203709313
8360.70165092
7870.79772609
7380.64276941
6890.21267516
6399.48126042
5908.41464773
5416.963977
4925.06684736
4432.68639723
3939.82527756
3446.49473833
2952.75150421
2458.62874568
1964.04503811
1469.03666458
973.253175768
477.368232447
109.405628645
-9.04581884387
-9.5620583872
8362.12936715
7872.23128412
7382.08877939
6891.67996465
6400.98251627
5909.97029806
5418.61151248
4926.87477791
4434.73724954
3942.19117627
3449.24499062
2955.92498382
2462.22226392
1968.11554512
1473.5360808
978.183184348
482.563426871
112.119563385
-9.0549335288
-9.56358942945
8363.79888663
7873.91241644
7383.79348499
6893.42344463
6402.78428834
5911.8581458
5420.62524706
4929.06784892
4437.17216583
3944.93271287
3452.35522497
2959.45312769
2466.22490192
1972.65565722
1478.66932377
984.034558698
489.15110182
115.742751213
-9.07006627558
-9.56378390112
8365.69874128
7875.82808968
7385.74178876
6895.42401859
6404.8608259
5914.04068023
5422.95237575
4931.58633174
4439.93590997
3948.00033596
3455.78675219
2963.30751352
2470.57485401
1977.59038857
1484.31219927
990.606403082
496.84144752
120.100973143
-9.07403128826
-9.56038137439
8367.81306302
7877.96154616
7387.91451057
6897.65816098
6407.18240536
5916.48029723
5425.54623861
4934.37686032
4442.97193837
3951.33613492
3459.47930879
2967.42046785
2475.18486362
1982.79245384
1490.2480087
997.518611733
504.979913499
124.780965409
-9.11474063758
-9.56794052677
8370.12269338
7880.2936288
7390.28995146
6900.10073538
6409.71872056
5919.14074162
5428.36517614
4937.39307429
4446.22955749
3954.88399372
3463.37075182
2971.71470619
2479.95070091
1988.12022648
1496.26672246
1004.42733498
512.947158589
129.234120533
-9.18360539964
-9.59045492362
8372.60823885
7882.8023189
7392.84470588
6902.72568346
6412.44017694
5921.98785902
5431.37030079
4940.59160661
4449.66036993
3958.58980629
3467.39926675
2976.11801164
2484.78530943
1993.45765155
1502.20381068
1011.09542699
520.408980856
133.283734745
-9.12244761829
-9.58767089369
8375.24731911
7885.46578524
7395.55494789
6905.50692552
6415.31800675
5924.98973167
5434.52586093
4943.93261958
4453.22021244
3962.40487107
3471.50948482
2980.56507214
2489.61367913
1998.71837429
1507.95917863
1017.42512791
527.340577504
137.046825815
-8.92545082072
-9.54584085992
8378.01831261
7888.26091015
7398.39676786
6908.41902339
6418.32489175
5928.11692187
5437.7999288
4947.38146059
4456.87202791
3966.28834187
3475.65573089
2985.00499422
2494.37818362
2003.83617459
1513.46195968
1023.35301908
533.709521917
140.787830106
-8.55709265632
-9.54376749619
8380.89888042
7891.1652581
7401.34699959
6911.4379
6421.43560051
5931.34293905
5441.16490353
4950.90892631
4460.58557738
3970.20991534
3479.80440592
2989.40085154
2499.038516
2008.77107712
1518.67653297
1028.85856478
539.520494734
144.658779483
-7.78748278655
-9.55876171973
8383.86706125
7894.15667645
7404.38316997
6914.54076159
6424.62696569
5934.64432427
5444.59736108
4954.4923714
4464.3382476
3974.14733183
3483.93739932
2993.73550563
2503.57640654
2013.50812074
1523.59525975
1033.94276535
544.760224248
148.213948739
-6.97852587361
-9.56609648558
8386.90156345
7897.21385991
7407.48382238
6917.70598016
6427.87762667
5938.0004592
5448.07765042
4958.11393596
4468.11533526
3978.09026089
3488.0503479
2998.01205502
2508.00282686
2018.05999928
1528.22731132
1038.58805976
549.365547566
151.148516903
-6.34611356223
-9.56827229447
8389.98152075
7900.31601587
7410.62828165
6920.91312781
6431.16758414
5941.39243214
5451.58914644
4961.75987871
4471.90739995
3982.03526594
3492.14755387
3002.24944561
2512.35304862
2022.47741111
1532.63048204
1042.83918009
553.323072692
153.337781783
-5.91649200224
-9.56768564771
8393.08672382
7903.44282002
7413.79658503
6924.14285503
6434.47830289
5944.80282057
5455.11639285
4965.41855148
4475.70848632
3985.98426375
3496.24216675
3006.47574883
2516.67929949
2026.84730224
1536.94321185
1046.91172303
556.900875849
155.076396021
-5.62935425132
-9.56612805439
8396.1971915
7906.57456304
7416.96928247
6927.37627117
6437.79188099
5948.21521247
5458.64503562
4969.07900931
4479.51300218
3989.94009356
3500.34951516
3010.72416825
2521.04130804
2031.27039375
1541.32846338
1051.05563246
560.500040995
156.865407762
-5.26553183589
-9.56488680017
8399.29329036
7909.69179698
7420.12710704
6930.59454713
6441.09026811
5951.61290921
5462.16051719
4972.72950606
4483.31353094
3993.90242877
3504.48009196
3015.02126818
2525.48908665
2035.83204034
1545.93530432
1055.55040188
564.687429469
159.238724796
-4.79361606993
-9.56507519219
8402.35551699
7912.77507176
7423.2507835
6933.77852703
6444.35466686
5954.97787125
5465.64603623
4976.35520138
4487.09844858
3997.86441106
3508.63452469
3019.37972718
2530.05534483
2040.59633062
1550.87902565
1060.60991657
569.870789002
162.644167658
-4.13415989788
-9.56688689606
8405.36447011
7915.8049414
7426.32078927
6936.90856414
6447.56534166
5958.29028973
5469.08190221
4979.93700957
4490.8497728
4001.80994951
3512.80040964
3023.79345408
2534.74493816
2045.58916229
1556.20983951
1066.28613278
575.996855315
166.950239277
-3.31993750534
-9.57132249526
8408.30061674
7918.76188835
7429.31734736
6939.96457887
6450.7017185
5961.52890749
5472.44600951
4983.45177264
4494.54295324
4005.71293356
3516.94970847
3028.23266192
2539.5269358
2050.77872676
1561.89580412
1072.52798787
582.896936606
171.604004322
-2.5470257363
-9.57355308225
8411.14467592
7921.62648829
7432.22075066
6942.92631736
6453.74264265
5964.67130464
5475.71417374
4986.87276691
4498.14773511
4009.53810097
3521.03975734
3032.64372263
2544.3322669
2056.0737836
1567.81850325
1079.2447088
590.665538616
177.216292119
-1.51908520964
-9.5759900592
8413.87811964
7924.38015818
7435.01183199
6945.77356845
6456.66646375
5967.69382545
5478.85993373
4990.16963836
4501.62823532
4013.24137151
3525.01448484
3036.95198376
2549.05750086
2061.3280418
1573.76628313
1086.14339296
598.943327318
183.841568425
0.0982032540845
-9.58528646909
8416.48289787
7927.00509303
7437.67200479
6948.48657676
6459.45184598
5970.57292051
5481.85670069
4993.31159316
4504.94765424
4016.77687759
3528.81433717
3041.07831427
2553.58993059
2066.37541187
1579.481994
1092.81028727
606.931284708
190.547606486
2.00787902843
-9.59795299335
8418.94163835
7929.48646494
7440.18425264
6951.04643065
6462.07755652
5973.28424869
5484.67602904
4996.26471498
4508.06475701
4020.09295463
3532.37063348
3044.93283778
2557.810659
2071.0483295
1584.71603185
1098.79795255
613.729447505
195.876987812
3.78780479841
-9.6035964093
8421.23539818
7931.81508997
7442.53213501
6953.43494373
6464.52377151
5975.80539959
5487.29189808
4998.99859592
4510.94356049
4023.14751865
3535.62527399
3048.44375032
2561.62998368
2075.23239989
1589.31607034
1103.91479715
619.10170292
199.74952364
5.20950452999
-9.60106035172
8423.37319384
7933.95001039
7444.69869298
6955.63708978
6466.77325711
5978.11675087
5489.68147412
5001.48556542
4513.5522675
4025.91372615
3538.52144811
3051.55865367
2564.98686352
2078.86787315
1593.26067615
1108.27010379
623.519719352
203.300330694
6.38313885013
-9.59846576549
8425.321903
7935.90388873
7446.67240452
6957.63825278
6468.81067771
5980.20090077
5491.82395339
5003.69913542
4515.84991939
4028.30339176
3541.0808891
3054.25139172
2567.84709299
2081.92156729
1596.5131087
1112.02623223
626.537835278
206.611915996
7.60753350978
-9.60374176652
8427.07813517
7937.66557455
7448.44599138
6959.42899528
6470.62456344
5982.04437782
5493.70436974
5005.62456266
4517.83004807
4030.34992455
3543.21880183
3056.48303973
2570.18172286
2084.34634985
1598.96838622
1114.00928512
628.742572229
208.33667679
8.57692730393
-9.6097284198
8428.63648842
7939.22750526
7450.01213798
6961.00183483
6472.20574872
5983.63654435
5495.31019888
5007.2477096
4519.47484847
4032.02378359
3544.93171646
3058.24377335
2571.9996008
2086.23118518
1600.93701174
1116.10187563
631.639401169
209.088590826
8.50513868729
-9.61595894684
8429.99412895
7940.58561809
7451.36784094
6962.35242285
6473.54941541
5984.97109278
5496.63392272
5008.55873741
4520.77256947
4033.30911922
3546.20996786
3059.52021145
2573.29098381
2087.56253929
1602.34712042
1117.63641271
633.334788592
209.323826921
8.14726785358
-9.6607203013
8431.15305101
7941.74125849
7452.51273179
6963.4799123
6474.65344565
5986.04504265
5497.67064196
5009.55130515
4521.71474679
4034.19601592
3547.03869052
3060.29556987
2574.02797519
2088.29808222
1603.14585122
1118.60018782
634.613902865
210.437845464
8.55752592104
-9.70162315426
8432.11887644
7942.69854121
7453.45176868
6964.39040081
6475.52463953
5986.86540477
5498.42755167
5010.23126218
4522.30374671
4034.68015767
3547.4063435
3060.54214458
2574.1627768
2088.36138202
1603.23068665
1118.87160727
635.263454135
210.761490882
8.67086180513
-9.63388209048
8432.89736798
7943.46695721
7454.19394179
6965.09242184
6476.17158969
5987.44084966
5498.91328305
5010.60701992
4522.54685435
4034.76593028
3547.3098286
3060.24340177
2573.65026952
2087.66487929
1602.44628619
1118.23445617
635.207010413
211.195789988
9.07680643825
-9.62218651388
8433.50192491
7944.05687857
7454.75080473
6965.59840753
6476.60759321
5987.78567254
5499.14321078
5010.69510643
4522.46182679
4034.47160647
3546.76103009
3059.39774673
2572.46894612
2086.12738969
1600.58479162
1116.2624286
634.064917961
213.943309316
12.3631983571
-9.25536945048
8433.94616267
7944.48329786
7455.13797523
6965.92509145
6476.85086741
5987.92020128
5499.14034895
5010.52202438
4522.08065947
4033.82813586
3545.79788324
3058.04419801
2570.64661015
2083.73241607
1597.45961044
1112.07967289
627.838827935
205.028730397
6.23807584686
-12.0119340045
8434.24758846
7944.76418749
7455.37456647
6966.09324993
6476.92443022
5987.87032137
5498.93444097
5010.12324669
4521.43810445
4032.88725171
3544.48644584
3056.26372045
2568.29581095
2080.65046942
1593.40820701
1106.69095086
620.619503546
199.196159241
5.79500719018
-9.63181125951
8434.42604164
7944.92060821
7455.48279297
6966.12702855
6476.85534807
5987.66676024
5498.56072303
5009.53573737
4520.58701259
4031.71397289
3542.89652971
3054.17902758
2565.58525236
2077.1321237
1588.81479291
1100.62016249
612.445131305
191.538041479
2.74470156192
-9.96000952279
8434.5039173
7944.97492832
7455.48687122
6966.05322057
6476.673797
5987.34414509
5498.05893031
5008.80942596
4519.58497575
4030.37275943
3541.14900434
3051.92717011
2562.70307337
2073.45072164
1584.09800708
1094.52593127
604.347897414
184.308924814
0.92198329354
-9.79846945893
8434.50363513
7944.95045232
7455.41214258
6965.89991588
6476.41183999
5986.94006324
5497.47439699
5008.00165444
4518.50420572
4028.96277681
3539.34539662
3049.63763763
2559.82037483
2069.8424048
1579.60841141
1089.02407145
597.686702912
179.633117204
0.0932518096182
-9.61866428533
8434.44741414
7944.87057437
7455.28362449
6965.69506667
6476.10163895
5986.49252362
5496.85346052
5007.16661445
4517.40891899
4027.55314199
3537.56853599
3047.41812132
2557.06841926
2066.46043652
1575.50546016
1084.16393402
592.081704475
176.066901136
-0.532715268747
-9.61269093536
8434.35653487
7944.75762356
7455.12508615
6965.4653084
6475.77380402
5986.03734312
5496.23829841
5006.35490358
4516.36006584
4026.22144304
3535.90294243
3045.35836771
2554.54269498
2063.39516092
1571.83719661
1079.82960447
587.035331607
172.509615616
-1.21666660701
-9.62147766015
8434.25058232
7944.63181222
7454.95827297
6965.23490576
6475.4561048
5985.60675282
5495.66652002
5005.61055826
4515.40852058
4025.02346942
3534.41491656
3043.53020898
2552.31600936
2060.7095241
1568.64128425
1076.07684766
582.741771045
169.87327966
-1.45979433033
-9.61611331118
8434.14692111
7944.51064079
7454.80202648
6965.02492319
6475.1727218
5985.22870885
5495.17050353
5004.97100431
4514.59648479
4024.00830304
3533.158701
3041.99191455
2550.44590529
2058.45298101
1565.94281618
1072.87791015
579.050765813
167.558092921
-1.93534160487
-9.61634953994
8434.06021745
7944.40869568
7454.67212809
6964.85306916
6474.94386371
5984.92650696
5494.77721303
5004.4668156
4513.96022472
4023.21502432
3532.17935501
3040.79275679
2548.98593559
2056.68134267
1563.79095508
1070.21990359
575.616719896
164.644484478
-2.57910666655
-9.64418040238
8434.00447558
7944.3418661
7454.58629245
6964.73898363
6474.79134898
5984.72456862
5494.51388446
5004.12892123
4513.53258329
4022.68083075
3531.51858284
3039.98185584
2547.99510724
2055.47156579
1562.30802741
1068.37415433
573.278356734
162.794048096
-2.78524769056
-9.69513982257
8433.99447882
7944.32654832
7454.56251553
6964.70275767
6474.73714181
5984.64667234
5494.40628718
5003.98470636
4513.34462427
4022.43950536
3531.21420721
3039.60131668
2547.52240869
2054.88549901
1561.57475608
1067.43907228
572.265436515
162.035790892
-3.67171424625
-9.09528285361
)
;

boundaryField
{
    back
    {
        type            calculated;
        value           nonuniform List<scalar> 
1984
(
8433.18457059
7943.52283694
7453.7722978
6963.93437429
6474.00003543
5983.95099762
5493.76203703
5003.400298
4512.82467958
4021.98235879
3530.8097506
3039.22951038
2547.14625704
2054.44465448
1560.97605449
1066.54278249
570.875330179
161.214012557
-3.21791336472
-9.58088717188
8433.18930061
7943.53228831
7453.78936373
6963.9630985
6474.04614866
5984.0207766
5493.8624247
5003.53956599
4513.01237347
4022.23106636
3531.1337159
3039.64718547
2547.68106561
2055.1256481
1561.8491948
1067.69365358
572.293737598
162.025252906
-3.21441119986
-9.58779800614
8433.23927181
7943.59232011
7453.86682916
6964.06696003
6474.18669198
5984.20954977
5494.11265645
5003.86656376
4513.43631682
4022.77506584
3531.8275802
3040.52573812
2548.7873394
2056.51250861
1563.58097405
1069.85640107
574.981308529
164.105087088
-2.78105538477
-9.60577828418
8433.3197226
7943.68668965
7453.98691682
6964.22608873
6474.39962848
5984.49282661
5494.48527383
5004.35122187
4514.0593049
4023.57317692
3532.84227324
3041.80892623
2550.40128501
2058.53267035
1566.09423023
1072.9606166
578.698459829
166.595815161
-2.31077127453
-9.54671025141
8433.41633192
7943.79938949
7454.13190618
6964.42080156
6474.66288303
5984.84564253
5494.95164092
5004.95950574
4514.84413629