/*--------------------------------*- C++ -*----------------------------------*\
| =========                 |                                                 |
| \\      /  F ield         | OpenFOAM: The Open Source CFD Toolbox           |
|  \\    /   O peration     | Version:  v2012                                 |
|   \\  /    A nd           | Website:  www.openfoam.com                      |
|    \\/     M anipulation  |                                                 |
\*---------------------------------------------------------------------------*/
FoamFile
{
    version     2.0;
    format      ascii;
    class       volVectorField;
    location    "4.3";
    object      U_0;
}
// * * * * * * * * * * * * * * * * * * * * * * * * * * * * * * * * * * * * * //

dimensions      [0 1 -1 0 0 0 0];


internalField   nonuniform List<vector> 
1984
(
(-0.00229722776997 0.00227615505926 6.32001286274e-22)
(-0.0020943395939 0.00639245865455 9.14104485175e-22)
(-0.00201973969589 0.0103640091383 3.44867933283e-22)
(-0.00204021073956 0.0143356292385 -2.94474368611e-22)
(-0.00209616286054 0.0183564246689 -7.79538832516e-22)
(-0.00214668847135 0.0224554871085 -7.85854859246e-22)
(-0.00219046897608 0.0266415784867 -5.49274875458e-22)
(-0.00223113545838 0.0309049081198 2.1490080651e-22)
(-0.00226502047504 0.0352418532966 6.5853467426e-22)
(-0.00229427267278 0.0396470184605 6.81539896664e-22)
(-0.00232411046138 0.0440887996305 1.97588848749e-22)
(-0.00233348343773 0.0485386087725 -1.81498947327e-23)
(-0.00233439417448 0.0529594266995 -2.27751071109e-22)
(-0.00230811440326 0.0573485437086 -1.27215165439e-21)
(-0.00188209543658 0.060807851968 -2.190780612e-21)
(-0.000551607454771 0.066657273879 -2.57314674693e-21)
(-0.000359906126516 0.0600120036324 -1.82481902027e-21)
(-0.00354139900948 0.0597125628598 1.4220652665e-21)
(-0.0267360626363 0.0692921873628 1.12167318705e-20)
(-0.0492690919271 0.109675646826 5.51308368474e-21)
(-0.0063705543967 0.00205549922657 9.26973254992e-22)
(-0.00610575130072 0.00604172207788 1.11296073411e-21)
(-0.00599122869238 0.00998287465913 5.19466752282e-22)
(-0.0060146470862 0.0139568371337 -2.4642682828e-22)
(-0.00610842403257 0.0179518837951 -8.82626691099e-22)
(-0.00622345077728 0.021998380669 -8.89644573829e-22)
(-0.00634065041578 0.0261154083059 -7.14601452973e-22)
(-0.00645755270177 0.0303078042535 -2.0265547767e-22)
(-0.00656788015651 0.0345770699553 2.13658563348e-22)
(-0.00666457057159 0.0389186482926 -2.70040479019e-23)
(-0.00673362392641 0.0433220526199 -1.62575714534e-22)
(-0.0067514385725 0.0477661274002 -2.49032266627e-22)
(-0.00669727298113 0.0521986341407 -4.6647457796e-22)
(-0.00651615575469 0.0566084081549 -1.38450807137e-21)
(-0.00585290722951 0.0604566679158 -3.93300358493e-21)
(-0.00383301130623 0.067179521851 -8.82251991115e-21)
(-0.00265096617912 0.0624241355794 -6.17968889884e-21)
(-0.00374444377842 0.0635104100604 -1.63784434589e-21)
(-0.0100287333248 0.073399274924 -5.84444495048e-21)
(0.0365583132931 0.00168234726937 9.9328943357e-21)
(-0.0102472774139 0.00195021505638 1.40032345253e-21)
(-0.00999894213057 0.00580995361263 1.7188457631e-21)
(-0.00988083947795 0.00967269145349 9.06120217861e-22)
(-0.00991476698765 0.0135897163886 9.65953922871e-23)
(-0.010048337818 0.0175250278837 -4.19527888961e-22)
(-0.0102285987473 0.0215095578566 -4.8929500218e-22)
(-0.0104263640657 0.0255664602846 -3.75992722168e-22)
(-0.0106276950163 0.0297060742052 -8.26466520633e-23)
(-0.0108228310622 0.0339328101385 4.79988335609e-23)
(-0.0109974707807 0.0382464733704 -8.94430809945e-23)
(-0.0111253809381 0.0426433048049 -1.64486573838e-22)
(-0.0111785596199 0.0471119071242 -1.81006443985e-22)
(-0.0111271169956 0.051597516668 -4.637881111e-22)
(-0.0109203703982 0.0560652859714 -1.96649171185e-21)
(-0.0103171418232 0.0600105068382 -1.15674242703e-21)
(-0.00829765593255 0.0669139943278 -1.08477717346e-20)
(-0.00586351382697 0.063075339547 -1.39544466363e-20)
(-0.00482098781484 0.0652616182612 -1.54448522017e-20)
(-0.0100897909408 0.0796737092122 -3.0877454433e-20)
(0.160645440098 -0.0595400461389 -7.73395447537e-21)
(-0.0140386436314 0.00192152643956 1.39805494856e-21)
(-0.0138481167143 0.00568113137786 1.61483742411e-21)
(-0.0137451315508 0.00945781611937 1.05746677824e-21)
(-0.0138034665744 0.0133027116425 3.76650206069e-22)
(-0.0139804065323 0.0171737549627 -5.96693363107e-23)
(-0.0142245944229 0.0211025346515 -1.78285624477e-22)
(-0.0145052011721 0.0251141839885 -1.34667491844e-22)
(-0.014799501553 0.0292235166909 -2.56482671548e-23)
(-0.01509111828 0.0334432625172 -5.61783085071e-24)
(-0.0153619832281 0.037771964108 -2.38433589244e-23)
(-0.0155840619016 0.0422041124549 -8.49067474915e-23)
(-0.0157075549589 0.0467404305762 -1.18419828995e-22)
(-0.0156947049065 0.0513566262541 -3.62108455624e-22)
(-0.0154900833667 0.0560184005455 -7.8335239722e-22)
(-0.0149422636777 0.060301497375 -8.25617861272e-22)
(-0.0129559642238 0.067505040204 6.13518881909e-22)
(-0.0101751532945 0.0642110141987 -4.48053205648e-21)
(-0.00720616250645 0.0668241168769 -8.39785477269e-21)
(0.0237648814517 0.0844576542492 -8.88529832612e-21)
(0.576770659751 -0.257527546237 -9.72798277403e-21)
(-0.0177656674586 0.00191462647006 1.04833451399e-21)
(-0.0176072557721 0.00558945111633 1.56049761301e-21)
(-0.017514921367 0.00928612145807 1.09855398897e-21)
(-0.0176067194026 0.013049533482 5.03690135643e-22)
(-0.0178400573935 0.0168515792723 1.30177098083e-22)
(-0.0181612399586 0.0207228380302 -6.19557188058e-24)
(-0.0185378932213 0.0246914485006 -2.87164347427e-23)
(-0.0189454278709 0.0287747572151 6.36243484044e-24)
(-0.0193616151834 0.0329895372115 8.88176272495e-24)
(-0.0197592351268 0.0373486337535 -1.21351575951e-23)
(-0.0201105770932 0.0418587828827 -4.31124847192e-23)
(-0.0203651942112 0.0465209798063 -1.14676236094e-22)
(-0.0204544737471 0.0513368357699 -5.28024390632e-22)
(-0.0203433852417 0.0563101427217 -1.43578761716e-21)
(-0.0199392542939 0.0610709373607 -1.3796379902e-21)
(-0.0181413007096 0.0687327931082 -2.31292955271e-21)
(-0.0149193951741 0.0660291906114 -9.84590717928e-21)
(-0.010528529045 0.068353821659 -8.51945748853e-21)
(0.0753356732796 0.0743918190142 -9.80213680945e-21)
(0.99664566421 -0.150737599916 7.71120909116e-23)
(-0.0214402426861 0.00189129360596 8.41786866137e-22)
(-0.0212808826063 0.00548215706983 1.3023334191e-21)
(-0.0212010852521 0.00910117769298 9.59899435435e-22)
(-0.0213331592708 0.012771288242 4.79136875812e-22)
(-0.0216334792151 0.0164938600178 1.69597305404e-22)
(-0.0220448710786 0.0202995799138 4.40631717143e-23)
(-0.0225328674617 0.0242158529185 3.62485429164e-24)
(-0.0230749439763 0.0282624892522 3.44875710794e-25)
(-0.0236444094885 0.0324637505169 4.20485499324e-25)
(-0.0242066136591 0.0368463453159 -1.44844675175e-24)
(-0.0247335126124 0.0414286141489 -4.94108375982e-23)
(-0.0251841147308 0.046241119141 -1.50485799972e-22)
(-0.0254968165407 0.051309729934 -7.16680381819e-22)
(-0.0256294863577 0.0566413807581 -2.07171784664e-21)
(-0.0254600271906 0.062012259348 -2.81842869997e-21)
(-0.0239875431938 0.0703808109975 -5.50464188448e-21)
(-0.0205608626231 0.0686160799106 -1.06991227174e-20)
(-0.0167404614215 0.0715097691444 -8.84999528547e-21)
(0.093622682853 0.0768371558532 7.48556841507e-21)
(1.13081358191 0.131463253109 9.75744448831e-22)
(-0.0250428415795 0.00185464100873 7.80297849899e-22)
(-0.024861788129 0.00534136103119 1.10374018114e-21)
(-0.0247945861051 0.00886649311981 8.19863558259e-22)
(-0.0249710559862 0.0124340753231 4.16838276056e-22)
(-0.0253455424089 0.0160626161958 1.58607758612e-22)
(-0.0258603260736 0.0197843961431 4.05808979705e-23)
(-0.0264758910094 0.0236275176975 7.34965849371e-25)
(-0.0271714662847 0.027619502486 -1.1173348961e-23)
(-0.0279188728718 0.0317920882967 -2.30266624974e-23)
(-0.0286902772223 0.0361781031685 -7.0765042451e-24)
(-0.0294546475387 0.0408110497325 -6.65747180187e-23)
(-0.0301750621114 0.0457349464059 -2.51313386039e-22)
(-0.0308257105718 0.0510137981332 -8.27797991404e-22)
(-0.0313646464725 0.0567401271231 -2.20861061827e-21)
(-0.0316438671924 0.0627706402923 -3.86020609432e-21)
(-0.0308489149118 0.0719867204968 -1.82096532741e-20)
(-0.0280129414321 0.0714768984832 -1.89108174247e-20)
(-0.0256632675562 0.0754486650074 -8.32076319077e-21)
(0.0752442720117 0.101803278835 -1.23026290545e-20)
(0.947512673609 0.36076870805 -3.19065734279e-21)
(-0.0285445330035 0.00180213033826 8.93424572556e-22)
(-0.0283368888544 0.00516674613568 1.27762274419e-21)
(-0.0282779836358 0.00857519058407 9.05410802497e-22)
(-0.0285009882512 0.0120232025112 4.57826061145e-22)
(-0.0289567012867 0.0155353018978 1.69587239207e-22)
(-0.0295835745573 0.0191496677278 5.63119625134e-23)
(-0.0303427341877 0.0228970336184 1.05032329215e-23)
(-0.0312085850462 0.0268061630462 3.55859515708e-25)
(-0.0321605320444 0.0309146691873 -4.31579470071e-24)
(-0.0331777157951 0.0352654670965 -1.97606677273e-23)
(-0.0342331931395 0.0399066576956 -7.27324044281e-23)
(-0.0353068212167 0.0448939250978 -2.91874198269e-22)
(-0.0363826090131 0.050309638239 -7.82186261108e-22)
(-0.0374417758327 0.0562912053834 -1.61388496484e-21)
(-0.0384052211518 0.0627818704651 -1.67117544237e-21)
(-0.0387462855591 0.0725644963768 -1.14869308811e-20)
(-0.0374169283849 0.0731785785152 -2.36789403113e-20)
(-0.038608665762 0.0776052849919 -2.30374520224e-20)
(-0.0391856592922 0.126004610267 2.48787679274e-20)
(0.0865825524945 0.98575307848 -3.53901072234e-20)
(-0.0319153446849 0.00173650891854 8.78070810822e-22)
(-0.0316841426886 0.00495942223397 1.14813440865e-21)
(-0.0316311774224 0.00822317368552 8.64256807519e-22)
(-0.0319024245283 0.0115311504579 4.622597048e-22)
(-0.0324443869563 0.0149045288589 1.79315069882e-22)
(-0.0331893535922 0.0183812232019 6.6854403328e-23)
(-0.0340999766042 0.0219996897405 3.5305276648e-23)
(-0.0351527721808 0.0257931482994 2.47128203607e-24)
(-0.0363325413652 0.0298008105059 6.26801169652e-24)
(-0.0376247168595 0.0340714569175 -1.34102963485e-23)
(-0.0390101567719 0.0386588615792 -5.53322946748e-23)
(-0.0404912307107 0.0436304687854 -2.31051593225e-22)
(-0.0420690389834 0.049085063625 -5.55755759441e-22)
(-0.0437437127779 0.0551743147567 -1.01071964452e-21)
(-0.0454617930842 0.061825303723 -1.61655344596e-21)
(-0.0469393162062 0.071604020837 -8.69712727101e-22)
(-0.0474831998243 0.0727333969008 -7.51563887346e-21)
(-0.0535434041284 0.0766781551762 -1.03386870305e-20)
(-0.180297791651 0.101729574936 -5.06971700759e-21)
(-0.82287656519 0.608908606514 7.67974200556e-21)
(-0.0351300162523 0.00165520620546 6.14092872743e-22)
(-0.0348815354536 0.00471444003284 9.30671824217e-22)
(-0.0348310219119 0.00781090996655 7.11660829632e-22)
(-0.03515002945 0.0109543050813 3.87654674371e-22)
(-0.035780739303 0.0141625504466 1.45747903137e-22)
(-0.0366496214254 0.0174747637858 4.23724488696e-23)
(-0.0377156760064 0.0209295610923 1.06725799633e-23)
(-0.0389633628901 0.0245636005735 3.46370898614e-24)
(-0.0403840159095 0.0284202315159 2.12744391522e-24)
(-0.0419731044548 0.0325541856506 -4.50435574594e-24)
(-0.0437159985394 0.037019911923 -5.86047545284e-23)
(-0.0456389351661 0.041887015263 -2.1757666729e-22)
(-0.0477640847903 0.0472634426573 -4.32747167858e-22)
(-0.0501110441717 0.0533043136764 -5.81851067721e-22)
(-0.0525803313149 0.0598945411602 -1.21883446386e-21)
(-0.0548987804524 0.0693028198448 -2.81920458564e-21)
(-0.0565554235396 0.0703062757682 -1.34135925395e-20)
(-0.0664269217266 0.0728545670189 -1.04823298486e-20)
(-0.195967022958 0.0789482713393 3.89778571241e-20)
(-1.17384580829 0.0181314675239 3.33840787965e-20)
(-0.0381704187259 0.00155738645421 1.28176739923e-22)
(-0.0378999650379 0.00443163236946 4.62842084366e-22)
(-0.0378524161783 0.0073414263768 4.44891569875e-22)
(-0.0382167163112 0.0102935236057 2.97595165046e-22)
(-0.0389361012263 0.013307963702 1.08676763186e-22)
(-0.039928310514 0.0164243992746 2.74685129996e-23)
(-0.0411522841132 0.0196806680889 2.23217154996e-24)
(-0.04259585426 0.02311235691 -5.23861915226e-24)
(-0.0442595721193 0.0267637891504 -6.848524187e-24)
(-0.0461476365056 0.0307004792229 -5.12137644977e-24)
(-0.0482705794885 0.0349677941516 -6.18744667152e-23)
(-0.0506494736338 0.0396313943995 -2.28731585617e-22)
(-0.0533379215319 0.0448056209576 -4.99192535345e-22)
(-0.0563674319336 0.0506571398043 -5.17900834828e-22)
(-0.0596206387035 0.057100950267 -1.76037708679e-21)
(-0.0627430714947 0.066319762959 1.04801953075e-21)
(-0.0652078577514 0.0682347392433 -7.03139548541e-21)
(-0.0763484108454 0.0720942151067 -1.01103741828e-20)
(-0.17494363718 0.085872854418 1.07697499216e-20)
(-0.933163508091 -0.209496395324 3.36495728792e-20)
(-0.0410155931763 0.00145194648969 3.54403676627e-23)
(-0.040718838083 0.00411699698244 5.53563821798e-22)
(-0.040673656302 0.00681494714974 4.76211645041e-22)
(-0.0410815314045 0.00955090238484 2.83410733714e-22)
(-0.0418827960245 0.0123425744194 9.64984309126e-23)
(-0.0429916923686 0.0152328732522 1.84000750422e-23)
(-0.0443681809111 0.0182554688397 3.20524566099e-24)
(-0.0460033107462 0.0214437091639 -1.0919829216e-23)
(-0.0479039906681 0.0248403115918 -2.63729922729e-23)
(-0.050082034492 0.0285037556465 -2.13210630852e-23)
(-0.0525749606217 0.0324909243402 -7.09553041575e-23)
(-0.0554033984564 0.0368636749154 -1.9951241496e-22)
(-0.0586402256324 0.041713274012 -3.1008168295e-22)
(-0.0623335659011 0.047215818312 -4.63203968287e-22)
(-0.0664460783272 0.0533408891703 -1.42997158279e-21)
(-0.0706651476953 0.0622136354132 -2.43541309948e-21)
(-0.0744358692987 0.0650600573642 -1.3007098809e-20)
(-0.0855095051856 0.0696025117319 -1.20086409262e-20)
(-0.142465851228 0.0871942395444 -1.50183925734e-20)
(-0.360935067831 -0.163346827364 6.16172959373e-20)
(-0.0436420590132 0.00133590036809 5.00403656291e-23)
(-0.0433202194079 0.0037706297683 5.60880545715e-22)
(-0.0432709920343 0.00623390317684 4.93193229714e-22)
(-0.0437172370983 0.00873246730342 2.82892802792e-22)
(-0.0445910528323 0.0112770590854 9.13582249278e-23)
(-0.0458077386555 0.0139091223594 1.80174610259e-23)
(-0.0473248137392 0.0166614895415 2.63516867831e-24)
(-0.049137458082 0.0195651441258 -8.02367361224e-24)
(-0.0512615291904 0.0226606221737 -1.99011811419e-23)
(-0.0537175712197 0.0259945834457 -2.59907221807e-23)
(-0.0565452385505 0.0296226878642 -6.30484788434e-23)
(-0.0597885362485 0.0336091467361 -1.63506411054e-22)
(-0.063534138866 0.0380300703832 -2.86955410982e-22)
(-0.0678658206352 0.043050741118 -3.07139282136e-22)
(-0.072859804328 0.0486793296965 -1.71123324995e-21)
(-0.078338944481 0.0568022659869 -8.58936292904e-21)
(-0.0836630995978 0.0602428291432 -2.1931393934e-20)
(-0.0953448681081 0.0642011168407 -1.54654376578e-20)
(-0.13636612244 0.0774493465737 -4.28213446067e-20)
(0.0249998634066 -0.0742242712125 -4.09142491527e-20)
(-0.0460266370285 0.00121236638164 -1.78620503413e-22)
(-0.0456801087622 0.00339810127948 2.18535420309e-22)
(-0.0456211753617 0.0056074892252 2.63175852348e-22)
(-0.0460970101075 0.00784739672526 1.96925675855e-22)
(-0.0470353766505 0.0101190166898 6.45905016934e-23)
(-0.0483456829277 0.0124647719264 1.38593669331e-23)
(-0.0499870277379 0.0149188005915 1.11781798711e-24)
(-0.0519598849321 0.017500914528 -1.68570071096e-23)
(-0.0542810954841 0.0202450524191 -1.21516674948e-23)
(-0.0569844713582 0.0231947105274 -1.48643850319e-23)
(-0.0601105455518 0.0264024347968 -6.22577697909e-23)
(-0.0637153162805 0.0299209436205 -1.17969538673e-22)
(-0.0679164481247 0.0338068446342 -3.42133545188e-22)
(-0.0728378971498 0.0382303544585 -1.29016685888e-22)
(-0.0786794595318 0.0432384119363 -1.79930900575e-21)
(-0.0853927076891 0.0504926740591 1.29418169492e-21)
(-0.092234656516 0.0543392894859 6.95988043083e-22)
(-0.105412494352 0.0578607745528 -8.55585351672e-21)
(-0.153934001428 0.0686710864802 1.48057717205e-20)
(0.257817266254 0.11635690791 -3.58890545944e-20)
(-0.048154449149 0.00107583983778 -4.25493151885e-22)
(-0.0477781156678 0.00299917531562 -1.36083787332e-22)
(-0.0477057920848 0.00493994784515 -6.20854392468e-23)
(-0.0482014967291 0.00690089529033 1.28396885054e-23)
(-0.0491924483003 0.00888353533653 -8.86168361288e-24)
(-0.0505808165179 0.0109246457813 -7.68609720051e-24)
(-0.052326432002 0.0130491798162 -7.63035792718e-24)
(-0.0544327334153 0.0152762863867 -1.15203968716e-23)
(-0.0569157028955 0.017632084889 -8.46953238898e-24)
(-0.0598197232173 0.020148572907 7.71206825781e-24)
(-0.0631927867349 0.0228797848952 -4.05010619411e-23)
(-0.0671128583849 0.0258544184814 -5.33167911837e-23)
(-0.0717068077856 0.0291181553541 -1.25888693178e-22)
(-0.077156143033 0.0328462527004 1.65386738088e-22)
(-0.0837715404305 0.0370642887956 9.02474789823e-23)
(-0.0915324620446 0.0431643206751 5.13613692127e-21)
(-0.0995780958206 0.0467356064001 -7.60398045818e-21)
(-0.11448636432 0.0498099680395 -6.59047743876e-21)
(-0.186286554869 0.0603277579664 6.33274748771e-20)
(-0.310793018162 0.58012357208 1.04048454812e-20)
(-0.0500146422122 0.000936686435293 -8.03726355792e-22)
(-0.0496043664409 0.00258174163966 -5.11953636961e-22)
(-0.0495112165146 0.00423994501299 -2.99997951051e-22)
(-0.0500166945554 0.00591167073583 -1.19988971744e-22)
(-0.0510436102319 0.00759009092803 -4.55063109511e-23)
(-0.052490393367 0.00930791259524 -8.08936198156e-24)
(-0.0543142650713 0.0110825271727 5.24985275339e-24)
(-0.0565166708714 0.0129319786721 7.43165103787e-24)
(-0.0591204903149 0.0148700198625 2.21099507991e-23)
(-0.0621723992703 0.0169157955489 4.79962075244e-23)
(-0.0657292759598 0.0191094638306 -5.78988887159e-23)
(-0.0698992740787 0.0214741661006 -5.40558227774e-23)
(-0.0747987786566 0.0240330534011 -2.21684008383e-22)
(-0.0806727224656 0.0269239297731 -2.43422701611e-22)
(-0.087920590822 0.0300918374987 -1.01772646901e-21)
(-0.0964593685239 0.0348684282314 3.93362177853e-21)
(-0.105340454027 0.037948656328 4.99712073192e-21)
(-0.120811081015 0.0411641294625 -3.84691695187e-21)
(-0.210228934401 0.0453782567063 -1.95282336634e-20)
(-0.657400335002 -0.133757392921 -1.65083313124e-21)
(-0.0515941094731 0.000790284882098 -8.18743475521e-22)
(-0.0511517680437 0.00215200412851 -4.52973969163e-22)
(-0.0510304397724 0.00352050724429 -2.54407744307e-22)
(-0.051534784168 0.00489483669895 -1.04652061154e-22)
(-0.0525810827902 0.00626099334383 -3.65435108095e-23)
(-0.0540614540495 0.00764675017524 -3.86454222245e-24)
(-0.0559284955675 0.00905829868595 2.31997950066e-23)
(-0.0581828280101 0.010507846554 2.71794094968e-23)
(-0.0608659275923 0.0120060544109 1.39385905071e-23)
(-0.064013863172 0.0135602596092 1.61669021659e-23)
(-0.0676904559797 0.0151788224194 -7.38882436177e-24)
(-0.0719960747536 0.0168830572963 -4.59956512026e-23)
(-0.0770699523445 0.0186787414557 -9.89429561353e-23)
(-0.0831836682893 0.0206245000637 -2.51695904317e-22)
(-0.0908310650952 0.0225978771702 -1.69929830523e-21)
(-0.100023119785 0.0259434801056 2.71892064058e-22)
(-0.109789128843 0.028306976946 -1.15575827192e-21)
(-0.125578788722 0.0324863162079 -4.83266750255e-21)
(-0.212477772459 0.0340030080486 -1.26664866474e-20)
(-0.299431414936 -0.0503622451911 -5.29738300739e-20)
(-0.0528877725457 0.000639208996136 -3.96798395938e-22)
(-0.0524078351637 0.0017120747291 -1.02756346078e-22)
(-0.0522535304842 0.00278553338782 -4.42763120019e-23)
(-0.0527449974294 0.00385317669482 -1.39077313303e-23)
(-0.0537949103608 0.00490040003247 -1.71396140782e-23)
(-0.0552853483811 0.00594623768809 -6.78140473541e-24)
(-0.0571653373285 0.00699148953789 1.80180985462e-24)
(-0.0594385363343 0.00802892090829 1.61883428113e-24)
(-0.0621443872535 0.00907554724723 2.47601124731e-23)
(-0.0653314859793 0.0101405951635 1.99623071909e-23)
(-0.0690533336806 0.0112057649902 -3.03319747769e-24)
(-0.0733848061449 0.0122663145049 -3.02583638778e-23)
(-0.0784870956384 0.0133078660084 -1.53951763759e-22)
(-0.0846275282835 0.0143384099377 -5.66940033993e-22)
(-0.092360234386 0.0151314454315 -1.36480432344e-21)
(-0.102020029502 0.0169799680559 -4.32063624067e-21)
(-0.112368430211 0.0176424977893 -1.43608878916e-20)
(-0.128564627197 0.0233179063333 -1.41377490501e-20)
(-0.215499499865 0.0195269515279 -5.78541441758e-20)
(-0.219136428494 -0.00931317171113 -6.36437574732e-20)
(-0.0538877035122 0.000494008109792 1.62725597666e-23)
(-0.0533658200145 0.00127011424656 2.26219491318e-22)
(-0.0531723320634 0.00204319908652 1.49860082167e-22)
(-0.0536407347816 0.00280087075374 1.1388508089e-22)
(-0.0546755597345 0.00352137147968 2.44566708222e-23)
(-0.0561518995808 0.004219652877 -1.52873298858e-24)
(-0.0580196165642 0.00489323836342 3.92522833707e-25)
(-0.0602855066525 0.00553853392575 -4.15546456119e-24)
(-0.0629705197733 0.00614846528687 2.85829896099e-24)
(-0.0661277540658 0.00672151866254 -6.21592688769e-26)
(-0.0698147920343 0.00724629851864 1.90833539193e-24)
(-0.0740926438069 0.00768770332002 -5.10282753893e-23)
(-0.0790998143903 0.00802114152437 -3.26652423199e-22)
(-0.0851415906237 0.00826927360971 -1.19874914746e-21)
(-0.0927462232122 0.0080495713537 -4.78378741652e-21)
(-0.102393729225 0.00871868632252 -3.11954219819e-21)
(-0.112369971004 0.00721492970537 -1.26137415988e-20)
(-0.128710322526 0.0138678600635 -1.62223253455e-20)
(-0.215949105016 0.00390769910727 -4.24524595099e-20)
(-0.175441561413 -0.0151957457344 -5.17407676382e-20)
(-0.0545909080914 0.000345133589207 7.05695877322e-24)
(-0.0540283924159 0.000829379266884 1.74902514667e-22)
(-0.0537881256087 0.00130461102055 1.08627866853e-22)
(-0.0542198628837 0.00175158405003 9.87944899979e-23)
(-0.0552202609046 0.00214516181355 2.46619555319e-23)
(-0.0566638407937 0.00250326098171 2.79962529777e-24)
(-0.0584956960845 0.00281886289598 9.58239334652e-24)
(-0.0607162140984 0.0030785270344 -2.1043243316e-23)
(-0.0633481003842 0.00326575736286 -2.59995410027e-23)
(-0.0664260044865 0.00335923506413 -2.48051256224e-23)
(-0.0700101858385 0.00334854636922 -7.93002639779e-23)
(-0.0741779015922 0.00321049689056 -7.15899681286e-23)
(-0.0790364418212 0.00286872416104 -3.48608835957e-22)
(-0.0848805102866 0.00236389056467 -1.40609151385e-21)
(-0.0922229568623 0.00133297813307 -3.55845799519e-21)
(-0.101595783393 0.00135600089408 3.44883082444e-21)
(-0.111128200072 -0.00329302096822 -5.8688886881e-21)
(-0.126216309383 0.00341989449225 -1.34354975147e-20)
(-0.2072459546 -0.012692977092 -9.1245445044e-21)
(-0.153030347649 -0.0364532687301 -1.04641744686e-20)
(-0.055009390666 0.000194426515266 -3.85650869911e-22)
(-0.0544011874014 0.000394409744232 -1.40021963501e-22)
(-0.0541051676674 0.000579578450832 -5.48085525826e-23)
(-0.0544869325023 0.000727239908904 4.85316213029e-23)
(-0.0554414638643 0.000811161027251 9.25602135475e-24)
(-0.0568369242593 0.00084374601141 -4.45792078299e-24)
(-0.0586077447698 0.000811228772953 -2.70051606737e-25)
(-0.0607478408763 0.000692281941631 -3.7758934482e-24)
(-0.0632825837029 0.000466052112647 -6.41372943737e-24)
(-0.0662433243167 0.000107788266168 -2.09562871923e-23)
(-0.0696765654607 -0.000418192280471 -1.77121977093e-23)
(-0.073657818782 -0.00113791537416 -6.95059982713e-23)
(-0.0782979944192 -0.00211591001033 -3.00098714162e-22)
(-0.0838526601725 -0.00333803129027 -9.19553622083e-22)
(-0.0907995964482 -0.0052858409724 -3.22151130305e-21)
(-0.0995183875199 -0.00609670183501 8.7964603535e-22)
(-0.108799358712 -0.0131721489901 -2.32470919157e-21)
(-0.121782841542 -0.00608555565088 -8.1236742033e-21)
(-0.190046820274 -0.0263772084594 -7.70705265966e-22)
(-0.141672755163 -0.0505686423956 -6.77686684904e-22)
(-0.0551451585511 5.62697492348e-05 -5.63825217457e-22)
(-0.0544923417952 -2.05359439328e-05 -2.72671344888e-22)
(-0.0541330675912 -0.000113545738277 -7.32151537896e-23)
(-0.0544541734473 -0.000253598189367 5.14041398869e-23)
(-0.055351499639 -0.000467496732861 2.71539447129e-23)
(-0.0566786308987 -0.000746909278548 2.24697892564e-23)
(-0.0583653984444 -0.00111082555406 7.40177171371e-24)
(-0.0603977350335 -0.00158941403436 4.08256985177e-24)
(-0.0627959374957 -0.00220732124081 2.59742617418e-23)
(-0.0655897707894 -0.00299503638268 8.7073461025e-24)
(-0.0688264872611 -0.00399006478682 -1.27782439742e-23)
(-0.0725324108485 -0.00523173967292 -7.12364548638e-23)
(-0.0768786694097 -0.00682677967612 -2.57792475656e-22)
(-0.0820452749378 -0.00879567639324 -9.07493861258e-22)
(-0.088392723395 -0.0115608217603 -3.02055840079e-21)
(-0.0959868000602 -0.0134889765344 6.95609270679e-22)
(-0.104401223236 -0.0228142944307 -5.2244432954e-21)
(-0.116086406164 -0.0144780052743 -8.03819537858e-21)
(-0.173031755553 -0.0367559961719 -1.78416941619e-20)
(-0.129949218974 -0.0616671727341 -1.43531724615e-20)
(-0.0550149728659 -8.44912993959e-05 -5.12330761674e-22)
(-0.05430872102 -0.000421392640341 -2.31672939532e-22)
(-0.0538821640845 -0.000771999484243 2.36481133492e-26)
(-0.0541414416925 -0.00118454506996 6.20195730004e-23)
(-0.0549679775557 -0.00168030123224 2.47134123697e-23)
(-0.0562098902425 -0.00225468060647 6.18254424054e-24)
(-0.0577903971656 -0.00293077516771 1.15596947422e-23)
(-0.0596903027386 -0.00373697884937 2.35996843234e-23)
(-0.0619191737892 -0.00470739376209 2.07745302065e-23)
(-0.0645030645558 -0.00588444975478 1.97121773203e-23)
(-0.0674764325639 -0.00728804282425 5.76087542861e-24)
(-0.0708742950795 -0.00902558151422 -4.20885914021e-23)
(-0.0748463609187 -0.0111890951182 -1.37508526582e-22)
(-0.0795050028846 -0.0137897071537 -5.01157969124e-22)
(-0.0850440487997 -0.0172756496621 3.99619612934e-22)
(-0.0913645898944 -0.0203956401047 6.52985683561e-22)
(-0.0982018581689 -0.0307725553878 -1.52470571549e-21)
(-0.108811410038 -0.021309994698 -5.80248010708e-21)
(-0.154054276213 -0.0461930446824 -1.65801336902e-20)
(-0.113306064678 -0.0794741459729 -1.16654607909e-20)
(-0.0546293001045 -0.000217774578286 -3.9364818787e-22)
(-0.0538630646 -0.000797863717284 -1.30339960745e-22)
(-0.0533722044215 -0.00139603898216 2.77204503811e-23)
(-0.0535648472425 -0.00206226214651 1.03920618896e-22)
(-0.0543128308204 -0.00281436887899 3.89109770381e-23)
(-0.0554594492008 -0.00365695070819 9.21711268938e-24)
(-0.0569165902586 -0.00461209116893 -1.3035540965e-24)
(-0.0586599663458 -0.00571268153086 -7.45288425409e-24)
(-0.0606928629783 -0.00699677079356 6.9752968446e-24)
(-0.0630332579219 -0.00850930860945 6.94232389697e-24)
(-0.0656990743539 -0.0102871654797 1.39947972775e-23)
(-0.0687595136514 -0.0124450772876 -1.17420895838e-24)
(-0.0722499127204 -0.0150737188379 -4.35071089073e-23)
(-0.0763037033015 -0.0182268830427 -3.9332629216e-22)
(-0.0809515272788 -0.0223301890278 -2.44975016146e-21)
(-0.0859136982653 -0.0264434644077 3.39159578379e-21)
(-0.0911324847167 -0.036824535341 -1.59998620039e-21)
(-0.100433166199 -0.027127184338 -3.53361019854e-21)
(-0.130091839266 -0.054104340882 -5.70539197874e-21)
(-0.0959388059073 -0.0940261318827 -2.25606300402e-21)
(-0.0539994587689 -0.000335268664608 -2.32143977721e-22)
(-0.0531795218742 -0.0011438871882 -7.82381356473e-23)
(-0.0526243487774 -0.00197557659436 1.44827123786e-23)
(-0.052741586072 -0.00287414501748 8.21851538012e-23)
(-0.0534067144603 -0.00386060747194 3.68431648953e-23)
(-0.054449381022 -0.00494180501732 4.92129756841e-24)
(-0.0557741828135 -0.00614247224623 -8.17800898656e-24)
(-0.057349806822 -0.0074972035124 -1.03595183034e-23)
(-0.059171750325 -0.00904735139329 -7.28304877384e-24)
(-0.0612454116639 -0.0108399283189 1.85432238709e-24)
(-0.063580338528 -0.0129354042991 6.26638507663e-24)
(-0.066219877863 -0.015427603054 3.03450375212e-23)
(-0.0691705687849 -0.0184085793633 1.43128082947e-23)
(-0.0725401430766 -0.0220122263495 -2.46142267261e-22)
(-0.0762157908901 -0.0266344860393 -1.33889242927e-21)
(-0.0797306254921 -0.0317913137264 9.5901358914e-22)
(-0.0833810724145 -0.0426340829373 -2.38050507551e-21)
(-0.0908053471478 -0.0335932320963 -9.21542438738e-21)
(-0.103641289473 -0.0637660462971 -2.11056061998e-20)
(-0.0838058052349 -0.102224509982 -1.24799809898e-20)
(-0.0531461212578 -0.000442590492901 -2.18604109789e-22)
(-0.0522775056801 -0.00146092460608 -6.59285468964e-23)
(-0.0516548116522 -0.00250352447708 -2.79906295574e-23)
(-0.0516962202937 -0.00361377555871 4.76175505702e-23)
(-0.052274567784 -0.00481178311152 2.17769120632e-23)
(-0.0532099248404 -0.00610553462848 2.09264127185e-24)
(-0.054398607415 -0.00752037417963 -4.96738382202e-24)
(-0.0558010572518 -0.00909020372578 -3.84468992276e-24)
(-0.0574057080434 -0.0108555698225 1.64518196982e-24)
(-0.0592054322411 -0.0128667052568 3.80471285506e-24)
(-0.0611963597922 -0.0151868259891 5.85428483346e-24)
(-0.0633760111484 -0.0179014763976 4.8740005376e-23)
(-0.065748013452 -0.0211294059884 7.90305836835e-23)
(-0.0683500706346 -0.0250387083103 4.78611819635e-23)
(-0.0709335241097 -0.029931887037 -1.14423267038e-21)
(-0.0728409057921 -0.0359870735694 1.12391310873e-21)
(-0.0743976711997 -0.0474249201927 -5.84080514982e-21)
(-0.0794323579689 -0.0394409265942 -8.64645154675e-21)
(-0.076792274809 -0.0724367602554 -1.62402202931e-20)
(-0.0679486014093 -0.104236281686 -1.03649229197e-20)
(-0.0520953383632 -0.000541972227339 -1.45602330634e-22)
(-0.0511738421935 -0.0017502869191 -7.70558863723e-23)
(-0.0504836882235 -0.00298237341074 -3.39359718092e-23)
(-0.0504502432152 -0.00428323022559 7.53884982027e-24)
(-0.050942345123 -0.00567072736098 3.93839352321e-24)
(-0.0517712687327 -0.00715173045603 1.01830555646e-24)
(-0.052826056157 -0.00874995603008 -5.77602857434e-24)
(-0.0540589931074 -0.0104957478344 7.88353480431e-26)
(-0.0554487501238 -0.0124263890502 1.48450920324e-23)
(-0.0569799347243 -0.0145908413847 2.42743893645e-23)
(-0.0586328554717 -0.0170467242295 3.38417879422e-23)
(-0.0603737629227 -0.0198700166018 9.31823358094e-23)
(-0.0621698901516 -0.0231783552945 1.49838476397e-22)
(-0.0639631499206 -0.0271431210591 -1.14484959891e-22)
(-0.0653954911142 -0.0320017310816 -5.34108132283e-22)
(-0.0656271838119 -0.0383718120883 6.31723761487e-22)
(-0.0648461833288 -0.0495044938929 -1.94080986608e-21)
(-0.0675826496863 -0.0426911037905 -1.22785063787e-20)
(-0.0542009257568 -0.0739958089677 -3.37630122353e-20)
(-0.0503486984117 -0.0941919823732 -2.05037431822e-20)