/*--------------------------------*- C++ -*----------------------------------*\
| =========                 |                                                 |
| \\      /  F ield         | OpenFOAM: The Open Source CFD Toolbox           |
|  \\    /   O peration     | Version:  v2012                                 |
|   \\  /    A nd           | Website:  www.openfoam.com                      |
|    \\/     M anipulation  |                                                 |
\*---------------------------------------------------------------------------*/
FoamFile
{
    version     2.0;
    format      ascii;
    class       surfaceVectorField;
    location    "4.3";
    object      Uf;
}
// * * * * * * * * * * * * * * * * * * * * * * * * * * * * * * * * * * * * * //

dimensions      [0 1 -1 0 0 0 0];


internalField   nonuniform List<vector> 
3840
(
(-0.00222965451667 0.00433774090652 7.70358795394e-22)
(-0.00433810711519 0.00219800112827 7.8112601544e-22)
(-0.00209901747706 0.00846212849168 6.28847611968e-22)
(-0.0041247728438 0.00628092894088 1.01047192792e-21)
(-0.00207534253258 0.0124835692435 3.1152720979e-23)
(-0.00402181281149 0.0102916494029 4.37694439233e-22)
(-0.00211818267295 0.0165338954048 -5.30918706168e-22)
(-0.00405065959251 0.0143250914176 -2.61763860303e-22)
(-0.00217838061713 0.0206673265837 -7.80135160242e-22)
(-0.00413369489814 0.0184025254074 -8.17612574036e-22)
(-0.0022348458644 0.0249007749243 -6.70065947199e-22)
(-0.00423377980307 0.0225580866637 -8.34450747589e-22)
(-0.00228876963981 0.029233766733 -1.80710281485e-22)
(-0.00433337597338 0.0268098905742 -6.29260039512e-22)
(-0.00234053134542 0.033669813211 4.18590407873e-22)
(-0.00443651750049 0.0311603774521 -6.66919936906e-24)
(-0.00238991580017 0.0382080523403 6.57585205252e-22)
(-0.00453871466449 0.0356137779055 4.24310604669e-22)
(-0.00244108959685 0.0428447775184 4.38239390263e-22)
(-0.00463723338453 0.0401717523938 3.2858317734e-22)
(-0.00248684431382 0.0475599150961 9.47822936321e-23)
(-0.00471594494817 0.0448218458737 2.36176002151e-23)
(-0.00252324036684 0.052335011491 -1.13387977377e-22)
(-0.00477620054091 0.0495489200613 -1.27739080998e-22)
(-0.00255004032794 0.0571451234912 -7.34487354664e-22)
(-0.00481146257826 0.0543194151281 -3.28538226328e-22)
(-0.00237333476872 0.0619210333381 -1.7165929793e-21)
(-0.00477751839247 0.0591441759429 -1.29551944897e-21)
(-0.00155801763404 0.0662741447252 -2.38927251269e-21)
(-0.00435474061872 0.0633449799176 -3.02758603628e-21)
(-0.000886184561515 0.0692929329966 -2.40301707709e-21)
(-0.00302004190408 0.0702038046487 -5.65673375533e-21)
(-0.0025570643663 0.0718445655808 -5.13902867099e-22)
(-0.00255212867733 0.0657635598984 -4.2674779403e-21)
(-0.0146530723958 0.0766554698712 5.9697986775e-21)
(-0.00481101184406 0.0656189438743 -1.07686856908e-22)
(-0.0354750911985 0.0914103857373 8.80126088414e-21)
(-0.0147549956657 0.076627339102 3.59877864272e-22)
(-0.0142074213531 0.0710263113181 9.96584113164e-21)
(-0.00630375039979 0.00406496174238 1.02123914796e-21)
(-0.00840343581089 0.00203959092457 1.16435496724e-21)
(-0.00612645133642 0.00809026733959 8.19318755183e-22)
(-0.00815043734211 0.00598999747553 1.40931879131e-21)
(-0.00609055902032 0.0121103789144 1.44777857951e-22)
(-0.00804225680795 0.0099415994998 7.16842950026e-22)
(-0.00616329112818 0.0161501690957 -5.48457728171e-22)
(-0.00809072983123 0.0139439190914 -6.48924394151e-23)
(-0.00628775202813 0.0202418718741 -8.71928161383e-22)
(-0.00822559785913 0.0179749366116 -6.3593059388e-22)
(-0.0064303652783 0.0244107807838 -7.93644839902e-22)
(-0.00840295438485 0.022069184989 -6.84299245459e-22)
(-0.00658089294403 0.0286737966962 -4.55218957396e-22)
(-0.00859687795507 0.0262516784546 -5.40553216002e-22)
(-0.00673626364135 0.0330390107039 -9.49002573368e-25)
(-0.00880180247825 0.0305343088331 -1.4599624514e-22)
(-0.00689168058284 0.0375101148147 9.5308576757e-23)
(-0.00901093847201 0.0349249369192 1.25135503599e-22)
(-0.00703880560033 0.0420885624358 -8.60386127071e-23)
(-0.00921641175524 0.0394272013233 -4.96800981843e-23)
(-0.00716156541512 0.0467689253676 -1.98903774415e-22)
(-0.00939735327464 0.044041581617 -1.60188741131e-22)
(-0.00724158225925 0.0515244295123 -3.42889329949e-22)
(-0.00953313308765 0.0487610603905 -2.08147475099e-22)
(-0.00724847728866 0.0563231394436 -8.89570320638e-22)
(-0.00961195148014 0.0535430369391 -4.43050142279e-22)
(-0.00699060422126 0.0611367222661 -2.60651250595e-21)
(-0.00959302273918 0.0583778197285 -1.64477124383e-21)
(-0.00586920042453 0.0660080063369 -6.29504727891e-21)
(-0.00922789548654 0.0627726750118 -2.48367195007e-21)
(-0.00452523694081 0.070597654847 -7.52119461855e-21)
(-0.0076110123318 0.0700946466892 -9.70595130617e-21)
(-0.00466393661334 0.0741500192966 -3.86126193011e-21)
(-0.00610501336262 0.0669953214114 -1.05965868243e-20)
(-0.0094147116505 0.0759192029862 -5.71760767014e-21)
(-0.00658030075701 0.0681570870678 -8.49671792675e-21)
(0.00362641616247 0.0782271516551 1.52445811178e-21)
(-0.0170631426171 0.0814242715584 -2.20233299515e-20)
(0.0579426010187 0.0190828094407 1.0923804691e-21)
(-0.0102346380794 0.00387792565367 1.55243461059e-21)
(-0.0122816560034 0.00196956089117 1.39482787838e-21)
(-0.0100671309133 0.00781067646079 1.30684298615e-21)
(-0.0120834555072 0.00579949354522 1.65663791047e-21)
(-0.0100420899026 0.0117589127302 5.07172652659e-22)
(-0.011990726289 0.00966259387637 9.8382839904e-22)
(-0.0101501293467 0.0157313688564 -1.52365305125e-22)
(-0.0120633723492 0.0135928424937 2.45087545327e-22)
(-0.0103401731361 0.0197536256646 -4.48301677956e-22)
(-0.0122479694214 0.0175536132197 -2.31920585514e-22)
(-0.0105723412143 0.0238513034364 -4.31207621558e-22)
(-0.0125008759808 0.0215796561401 -3.30269700334e-22)
(-0.0108263635745 0.0280496336191 -2.31330503746e-22)
(-0.0127953095695 0.0256986374857 -2.55253218074e-22)
(-0.0110922830242 0.0323554383437 -1.99117389669e-23)
(-0.0131087640959 0.0299269641943 -5.68001805215e-23)
(-0.0113613102064 0.0367728357427 -1.9853171342e-23)
(-0.0134287186845 0.0342772401422 1.99461907663e-23)
(-0.0116171246051 0.0413134333224 -1.23830226608e-22)
(-0.0137588837156 0.0387538202707 -5.44937177934e-23)
(-0.0118364292452 0.0459731348413 -1.69432441815e-22)
(-0.0140586170241 0.0433587752263 -1.22189369672e-22)
(-0.0119951382532 0.0507407418518 -3.08308287429e-22)
(-0.014302673623 0.0480949522918 -1.46941708214e-22)
(-0.0120611965458 0.0555686486741 -1.19825106547e-21)
(-0.0144420594299 0.0529325022988 -3.95572263513e-22)
(-0.0119006777046 0.0604566091039 -1.52193068795e-21)
(-0.014483316242 0.0578491790995 -1.37015974747e-21)
(-0.0108926879034 0.0654366556962 -5.89457597733e-21)
(-0.0142100025199 0.0624047383249 -9.82957396057e-22)
(-0.0090576675247 0.0704057932704 -1.27813435119e-20)
(-0.0125815671192 0.0699185486801 -5.09200091066e-21)
(-0.00773992329664 0.0748733775803 -1.52320428209e-20)
(-0.0105731258465 0.0675316041941 -9.62733782821e-21)
(-0.0130956575974 0.0774514981532 -2.48024402081e-20)
(-0.00915851929882 0.0696429959634 -1.18695529249e-20)
(0.0320016840721 0.0690540609286 -2.24554075942e-20)
(-0.00866588215532 0.0880381442177 -2.15899153068e-20)
(0.160577308159 -0.00794706681042 -9.23050075339e-21)
(-0.0140943302494 0.00379057613405 1.49903117826e-21)
(-0.016072402212 0.00194662160299 1.2201888887e-21)
(-0.0139674592148 0.00763003104122 1.33362332336e-21)
(-0.0159230372183 0.00567492952107 1.57525620612e-21)
(-0.0139685379377 0.0114850113363 7.21743291708e-22)
(-0.0158457997784 0.00944577997135 1.07856135543e-21)
(-0.0141196202178 0.0153765579882 1.65532264938e-22)
(-0.0159549803851 0.01328893288 4.4623589243e-22)
(-0.0143754658667 0.019327392198 -1.13888607891e-22)
(-0.0161988249547 0.0171716245956 4.08070466152e-23)
(-0.0146964974992 0.0233649715581 -1.54315296849e-22)
(-0.0165385616609 0.021128146718 -8.92984057029e-23)
(-0.0150578444519 0.0275058189875 -8.07228948497e-23)
(-0.016936699329 0.0251880369168 -8.10233348102e-23)
(-0.015442439223 0.0317737995204 -1.69422507883e-23)
(-0.0173771649791 0.0293706000515 -1.09291139989e-23)
(-0.0158368099039 0.0361799395192 -1.46943556851e-23)
(-0.0178379563968 0.0336937006016 1.05019109843e-24)
(-0.0162232332563 0.0407162584219 -5.28528608572e-23)
(-0.0182972332079 0.0381671213276 -1.67755414439e-23)
(-0.0165687690217 0.0453897769011 -9.96986360706e-23)
(-0.0187349100742 0.0427968292625 -6.23801159119e-23)
(-0.0168355020482 0.0502085891494 -2.34205684298e-22)
(-0.0191241665646 0.0475908394417 -1.1323882846e-22)
(-0.0169856580472 0.0551583983608 -5.67480945518e-22)
(-0.0193946761074 0.052545041682 -4.31341751185e-22)
(-0.0169306113585 0.0601971075104 -8.31186455583e-22)
(-0.0195247064848 0.057654080097 -1.11672141935e-21)
(-0.0160608574355 0.0653821290152 -1.80382329387e-22)
(-0.0193972806724 0.0625373009408 -1.13657496115e-21)
(-0.0141810205346 0.0708307619331 -1.93799522698e-21)
(-0.0180316337762 0.0703642125038 -9.40161985239e-22)
(-0.0117562483769 0.0760291927775 -6.26484793219e-21)
(-0.0157720656631 0.0685342566456 -7.0444643203e-21)
(-0.00572631677318 0.0792533276563 -8.6570280236e-21)
(-0.0123827455617 0.0709284141359 -8.4138783766e-21)
(0.111342853556 0.0537913227107 -8.36500846604e-21)
(0.0167961493285 0.0869833094239 -1.41370268816e-20)
(0.279542624846 -0.0090357290332 -9.332302101e-21)
(-0.017866691834 0.00372847561828 1.29641391656e-21)
(-0.019800892597 0.00192542036231 9.45958851455e-22)
(-0.0177649779346 0.00747916092213 1.3201942382e-21)
(-0.019673682903 0.00555789682312 1.41640092269e-21)
(-0.0177935348865 0.0112400872453 8.03053956154e-22)
(-0.0196066623329 0.00923806953315 1.02785745139e-21)
(-0.0179973904737 0.0150421211462 3.21510674107e-22)
(-0.0197569535059 0.0129812059418 4.9531167346e-22)
(-0.0183304554151 0.0189174558792 6.53972488035e-23)
(-0.0200741268812 0.0167754906004 1.5373670158e-22)
(-0.0187515080699 0.0228870014946 -1.60064436638e-23)
(-0.020508195035 0.0206545457341 2.16744063329e-23)
(-0.0192343538442 0.0269757858643 -1.12295539594e-23)
(-0.0210259851027 0.0246484229944 -1.19527221289e-23)
(-0.0197587879407 0.031204911823 7.06332788783e-24)
(-0.0216077307358 0.0287779587225 2.94680778174e-24)
(-0.0203040403454 0.0355907226719 -1.03099466034e-24)
(-0.0222262877659 0.0330658464898 4.83566170137e-24)
(-0.0208483025779 0.0401482661228 -2.63027964986e-23)
(-0.0228600664879 0.0375347597196 -5.29535335429e-24)
(-0.0213600475269 0.0448932205134 -7.59203083012e-23)
(-0.0234849438498 0.0422010523246 -4.50304214936e-23)
(-0.0217873444394 0.0498060673428 -3.10374895347e-22)
(-0.0240406309689 0.0470863650111 -1.2487809167e-22)
(-0.0220877282075 0.0549420699353 -9.80582225016e-22)
(-0.0245340757341 0.0522090417137 -6.00455983601e-22)
(-0.0222145963259 0.0602808198451 -1.42210992492e-21)
(-0.0248664707723 0.0575800983661 -1.74841327159e-21)
(-0.0215947695279 0.0658994442391 -1.896354617e-21)
(-0.0250182188963 0.062900605698 -2.0908208033e-21)
(-0.0197566522737 0.0717226727318 -6.04663107856e-21)
(-0.0238562195012 0.0711919301376 -4.04140344714e-21)
(-0.0164828898159 0.0773339216406 -9.19349476471e-21)
(-0.0213837661619 0.0700374031256 -1.03527653263e-20)
(0.00730230256005 0.0822321428085 -1.38938772346e-20)
(-0.0172810442485 0.0725614094391 -8.87239649697e-21)
(0.193961844656 0.0548362208376 -1.51043205165e-20)
(0.0441922517953 0.0820912657521 -1.57298423465e-20)
(0.356030171991 -0.0270428200739 -9.78702040464e-21)
(-0.0215586360684 0.00365398021623 1.06594585759e-21)
(-0.0234547186198 0.00188873575499 8.11979191483e-22)
(-0.0214662137892 0.00729908993998 1.12406413589e-21)
(-0.0233185788604 0.00541346401977 1.19595714286e-21)
(-0.0215255181209 0.0109614017912 7.20115168701e-22)
(-0.0232687551567 0.00899420202717 8.89885947025e-22)
(-0.0217894623334 0.0146691498217 3.27537700933e-22)
(-0.0234645363125 0.0126247038018 4.51568672373e-22)
(-0.0222098340808 0.0184561014952 1.10013859109e-22)
(-0.0238610529218 0.0163158635296 1.68428456143e-22)
(-0.0227428680032 0.0223451236497 2.57281278677e-23)
(-0.0243974489729 0.0201017947812 4.49132694164e-23)
(-0.0233625761177 0.026367676716 2.22363961223e-24)
(-0.0250492755012 0.0240119032867 3.65338066331e-24)
(-0.0240478582408 0.0305438515657 7.1914159528e-25)
(-0.0257859806399 0.0280711288127 -4.51587276031e-24)
(-0.0247726850669 0.0349032243569 5.71303007418e-25)
(-0.02658964682 0.0323083450534 -1.1113078565e-23)
(-0.0255112729392 0.0394687778759 -2.40229783493e-23)
(-0.0274310170181 0.0367553350223 -1.52102316912e-24)
(-0.0262363795999 0.0442659151138 -9.39882048623e-23)
(-0.0282895005471 0.041440410959 -5.53959051672e-23)
(-0.0269050551913 0.0493394120258 -4.14959179923e-22)
(-0.0291186766696 0.0464053233794 -1.90538585153e-22)
(-0.0274752633278 0.0547024946249 -1.36828703018e-21)
(-0.0299011012979 0.0516971973206 -7.44602949904e-22)
(-0.0278826791565 0.0604173258214 -2.41712414998e-21)
(-0.0305844820442 0.0573661502025 -2.09724073364e-21)
(-0.027587041098 0.0664345567793 -4.23586963344e-21)
(-0.0310376650035 0.0632076778357 -3.1706156137e-21)
(-0.025888163916 0.0730019691733 -8.34753769484e-21)
(-0.0304248214148 0.0721325249928 -1.19297941504e-20)
(-0.0226603247163 0.0795873869041 -1.00316670585e-20)
(-0.0279695526182 0.0720500064827 -1.57183708921e-20)
(0.0142962661122 0.0864395596913 -1.07083616089e-20)
(-0.0241332850185 0.0753058087329 -9.15195079717e-21)
(0.239478664821 0.0800979541345 -1.04125422346e-20)
(0.0505337626373 0.0905447320403 -9.93253997459e-21)
(0.570425456401 0.00359882265842 5.59271897073e-21)
(-0.025154905017 0.00355331350145 9.41990476758e-22)
(-0.0270077093607 0.00183710167867 8.41259276183e-22)
(-0.0250610546356 0.00708331636679 9.61778953999e-22)
(-0.0268482011152 0.005232892026 1.18393031111e-21)
(-0.0251520836651 0.0106292140021 6.21339450697e-22)
(-0.0268142923552 0.00869370369576 8.63438022922e-22)
(-0.0254803165517 0.014223027262 2.92459427583e-22)
(-0.0270581034222 0.012196630418 4.41183750666e-22)
(-0.025996199617 0.0178990251036 1.03327866451e-22)
(-0.0275370599179 0.0157645485 1.68484905027e-22)
(-0.0266533520978 0.0216935118208 2.2838522212e-23)
(-0.0281923975961 0.0194345738336 5.05446511155e-23)
(-0.0274242882478 0.025626307927 -3.08613170923e-24)
(-0.0289832315356 0.0232371487291 7.39906144699e-24)
(-0.0282881599759 0.0297303259155 -1.63480929206e-23)
(-0.0298928399566 0.0272007842403 -2.89871921314e-24)
(-0.0292216842899 0.0340408702228 -1.32054047416e-23)
(-0.0309055130869 0.0313599376273 -1.3797359619e-23)
(-0.0302009994979 0.0385897077944 -3.2893949987e-23)
(-0.0319867676015 0.0357535964778 -1.10586084031e-23)
(-0.0311990530003 0.0434163129533 -1.51946285458e-22)
(-0.033125627125 0.040423408352 -6.61386304212e-23)
(-0.0321915206106 0.0485847706163 -5.20182355134e-22)
(-0.0342924892435 0.0454233647038 -2.57584128506e-22)
(-0.0331528571406 0.0541522745994 -1.47355665337e-21)
(-0.0354729061108 0.0508271603665 -7.7848030508e-22)
(-0.0340046941227 0.0602052970097 -2.85073219737e-21)
(-0.0366406762393 0.0567451176643 -1.85832746506e-21)
(-0.0342929383235 0.0668256046842 -1.08645401307e-20)
(-0.037659975645 0.0630505583381 -2.48210372667e-21)
(-0.0331934153547 0.0743865591031 -1.93006273477e-20)
(-0.0379867641922 0.0725317392209 -1.44775301397e-20)
(-0.0307682003321 0.0829352109265 -1.48386546307e-20)
(-0.0365184935777 0.0737087310606 -2.25732157204e-20)
(0.0119724788104 0.0935417572684 -8.37612916284e-21)
(-0.0347398557803 0.0778028835168 -1.62376110542e-20)
(0.462147129607 0.117764919095 6.07272123076e-21)
(0.0263108422417 0.10544149076 8.4427907688e-20)
(0.730980607118 0.578668238199 2.617446071e-20)
(-0.0286329019977 0.00342288628595 1.08319911054e-21)
(-0.0304301175116 0.0017703613419 8.87093776566e-22)
(-0.0285325801833 0.00682073060246 1.08558938004e-21)
(-0.0302455170243 0.00501757088698 1.20093538318e-21)
(-0.0286532800087 0.0102294283023 6.83282322891e-22)
(-0.0302225102715 0.00833216087096 8.83363433105e-22)
(-0.0290487975174 0.0136881917371 3.17209228109e-22)
(-0.030516561966 0.0116875410624 4.62826390509e-22)
(-0.0296659711647 0.0172328826442 1.15701689691e-22)
(-0.031081810678 0.015108711305 1.77269824236e-22)
(-0.0304568561876 0.020899135554 3.51051903505e-23)
(-0.0318593260394 0.0186347640728 6.1792739923e-23)
(-0.0313920200027 0.0247163736027 7.58647394307e-24)
(-0.0328020447422 0.022300542687 2.56713093252e-23)
(-0.0324519798487 0.0287189597121 -3.4798591151e-25)
(-0.0338989834685 0.0261366869167 2.67351024935e-24)
(-0.0336204527946 0.0329391194198 -1.16505632805e-23)
(-0.0351320895673 0.0301805345969 1.43120235602e-24)
(-0.0348788134175 0.0374294601154 -4.43032888373e-23)
(-0.0364852324885 0.0344782171594 -1.55971969427e-23)
(-0.0362096765571 0.0422409645335 -1.71776473469e-22)
(-0.0379483098054 0.0390804995483 -6.2352432551e-23)
(-0.0376010307321 0.0474494932116 -5.15882078452e-22)
(-0.0395068789493 0.0440527950273 -2.48274254104e-22)
(-0.039041372947 0.0531364532494 -1.16325111677e-21)
(-0.0411642831497 0.0494861205787 -6.49964109238e-22)
(-0.0404925883931 0.0594080280728 -1.48969899436e-21)
(-0.0429152631132 0.0555194301341 -1.27332159942e-21)
(-0.0416691516727 0.0664511019154 -6.0950937357e-21)
(-0.0447047945035 0.062063192042 -1.51307372071e-21)
(-0.0418199322263 0.0746339874785 -1.77501185124e-20)
(-0.0461704552825 0.0717059373011 -5.63955180376e-21)
(-0.0423989157525 0.0846398420477 -2.39721721438e-20)
(-0.0465245748335 0.0736395432362 -1.6121189589e-20)
(-0.0499476035888 0.101605948674 7.65664257967e-20)
(-0.0517060683678 0.0778259838943 -1.66406064786e-20)
(-0.0348568776159 0.271899029362 1.04529647167e-19)
(-0.143982397672 0.102902159131 8.59851502453e-20)
(-0.731312866019 0.612696398695 2.08118441878e-20)
(-0.0319656962575 0.00326305451844 1.00483004921e-21)
(-0.0336925639146 0.00168815123532 7.40059878425e-22)
(-0.0318585877328 0.00650803722198 9.98709436252e-22)
(-0.0334898532314 0.00476696256966 1.02296873882e-21)
(-0.0320075837099 0.00975837278922 6.62907500723e-22)
(-0.0334722747239 0.00790884651668 7.83501640666e-22)
(-0.0324720652067 0.0130577259915 3.22886986636e-22)
(-0.0338155707034 0.0110936102463 4.25981150528e-22)
(-0.0331938746346 0.0164458008873 1.23360874467e-22)
(-0.0344699909148 0.0143430009158 1.64474059821e-22)
(-0.0341226977576 0.0199533491047 5.23588588977e-23)
(-0.0353677149658 0.0176958962857 5.48735302269e-23)
(-0.0352308339829 0.023620740214 2.07583456315e-23)
(-0.0364713178634 0.0211903180153 2.52342567544e-23)
(-0.0365024825738 0.0274777724807 4.45269851688e-24)
(-0.0377600589319 0.0248600965018 2.63315851394e-24)
(-0.0379269557071 0.0315749258928 -2.51543130612e-24)
(-0.0392363873385 0.0287447842512 3.35078812676e-24)
(-0.0394922476598 0.0359558318888 -3.36463406564e-23)
(-0.04087484259 0.0328957751465 -8.10447821161e-24)
(-0.0411953492614 0.0406799986245 -1.38850213185e-22)
(-0.0426846163622 0.0373663889254 -5.60541257989e-23)
(-0.043043244944 0.0458411743456 -3.82356284889e-22)
(-0.0446740600162 0.0422287964929 -2.1334663086e-22)
(-0.045040605863 0.0515385761617 -7.60034591883e-22)
(-0.0468660000897 0.047587751633 -4.84635929809e-22)
(-0.0471659221502 0.0578875249278 -1.29669632577e-21)
(-0.0492669917305 0.0535945177382 -7.71811141802e-22)
(-0.0492303998255 0.0650100589056 -1.05753178877e-21)
(-0.0518288563097 0.0601430488625 -1.40915314449e-21)
(-0.0507565353065 0.0731001800419 -4.01062288031e-21)
(-0.0542612718412 0.0695937303093 -1.44894997888e-21)
(-0.0548486256502 0.0826711976466 -8.78962392374e-21)
(-0.0560958075663 0.0716757977562 -1.06331363803e-20)
(-0.116120369511 0.0961404170829 -7.22188202996e-21)
(-0.065175297613 0.0752558261591 -1.03684138981e-20)
(-0.536540996917 0.143480600973 2.26734726579e-21)
(-0.191323131894 0.0887838892077 3.31434934214e-22)
(-0.620524410394 -0.00856735159607 7.60308045193e-21)
(-0.0351291218368 0.00308011814958 7.58198568031e-22)
(-0.0367719812784 0.00158943557883 3.67342716243e-22)
(-0.0350157271505 0.00614674692836 8.0776094323e-22)
(-0.0365557566395 0.00447906362152 6.865769126e-22)
(-0.0351899993653 0.00921358895307 5.46575290471e-22)
(-0.0365384861941 0.00742658348321 5.74437777019e-22)
(-0.0357227939087 0.0123289781524 2.67568223714e-22)
(-0.0369305899081 0.0104151589565 3.43391539778e-22)
(-0.0365511148885 0.0155296395234 9.5986715581e-23)
(-0.0376707797456 0.0134651519604 1.28774552267e-22)
(-0.0376199279297 0.0188516750367 2.77489280836e-23)
(-0.0386906712884 0.0166157320122 3.69852062798e-23)
(-0.0389035178869 0.0223283692539 7.10906963684e-24)
(-0.0399500128442 0.0199039946877 6.69638279609e-24)
(-0.0403930385367 0.0260011331878 1.53124812382e-24)
(-0.041437071105 0.0233642996684 -9.44360867925e-25)
(-0.0420857545923 0.02990861039 -2.23825877872e-24)
(-0.0431510095946 0.0270381488801 -2.34702736808e-24)
(-0.0439768979846 0.0341248058753 -3.05122633541e-23)
(-0.0450997704767 0.0309843924898 -2.68982958142e-24)
(-0.0460772800117 0.0386878238744 -1.30550543474e-22)
(-0.047259684745 0.0352518783947 -5.86177326151e-23)
(-0.0484164931896 0.0437088569187 -3.15626275781e-22)
(-0.0497008361795 0.0399115758184 -2.11293860811e-22)
(-0.0510203252891 0.0492844222287 -4.96412479728e-22)
(-0.0524455720585 0.0450760464671 -4.64611308962e-22)
(-0.0538566090645 0.0555440255344 -8.84267960524e-22)
(-0.0555291042746 0.0509074097925 -5.33900036217e-22)
(-0.0567098202597 0.0625597222631 -1.8005713346e-21)
(-0.0588459198387 0.0573065542462 -1.529459477e-21)
(-0.0591931750752 0.0703075784567 -8.07146347885e-21)
(-0.0620097710287 0.0664844756419 -5.97039885402e-22)
(-0.0652806763659 0.0787650721297 -1.22119263547e-20)
(-0.0645535095168 0.0689727542969 -1.05045274905e-20)
(-0.119881928462 0.088745892902 -2.81509693394e-21)
(-0.075156170268 0.0729385674035 -1.03096595242e-20)
(-0.300119518801 0.0659094065914 5.66716812036e-21)
(-0.16848661065 0.0854627950971 4.82328888969e-21)
(-0.299563796935 -0.0705150534207 1.49777903295e-20)
(-0.038099495915 0.00288490127218 2.95721060812e-22)
(-0.0396561366329 0.00147879186236 8.55610316863e-23)
(-0.0379770554636 0.0057400254739 4.53253746389e-22)
(-0.0394101240079 0.00415700447298 5.04508599999e-22)
(-0.0381744456974 0.00859739584171 3.71254026326e-22)
(-0.0393952035899 0.00688822823302 4.59577506278e-22)
(-0.0387726252669 0.011503073087 2.04597868331e-22)
(-0.0398358822551 0.00965533005402 2.9203844911e-22)
(-0.0397048011532 0.0144877473377 6.97730429663e-23)
(-0.0406555715885 0.0124776494334 1.04886977377e-22)
(-0.0409115717347 0.0175893609696 1.59326609923e-23)
(-0.0417931722497 0.0153956348775 2.42799254482e-23)
(-0.0423687454304 0.0208408709307 -1.35704770868e-24)
(-0.043203455406 0.0184433888369 3.56689237762e-24)
(-0.0440734616738 0.024277814766 -4.82263635982e-24)
(-0.0448780102372 0.021653074125 -7.53736246864e-24)
(-0.0460315696331 0.0279499442968 -2.79859817078e-24)
(-0.0468298748672 0.0250653798113 -1.27533487657e-23)
(-0.0482549318429 0.0319000198965 -3.07952988424e-23)
(-0.0490576849906 0.0287401027515 -9.06017509436e-24)
(-0.0507647523542 0.0362358235647 -1.39361049952e-22)
(-0.0516066680882 0.0327264676525 -6.63583281645e-23)
(-0.0536051870792 0.0410107554004 -3.60278893992e-22)
(-0.0544809111479 0.0370904359979 -2.02665667289e-22)
(-0.0568269622188 0.0463349257059 -5.02098865451e-22)
(-0.057773278055 0.0419345806822 -4.03015690265e-22)
(-0.0604059785683 0.052337291269 -1.17909155269e-21)
(-0.0615336633427 0.047429624104 -4.70910663338e-22)
(-0.0641005436058 0.0591735564552 -3.25928027803e-22)
(-0.0656833907595 0.0535148704003 -1.63648177107e-21)
(-0.0675411622119 0.0670240960741 -3.03010389703e-21)
(-0.0698608895199 0.0623163518183 -5.86067083847e-22)
(-0.0747770138976 0.0762064436939 -8.60226066003e-21)
(-0.0737360426199 0.0655291474967 -1.03448376299e-20)
(-0.117831811742 0.0859520954592 -2.67127370058e-21)
(-0.0849018515568 0.070534631318 -1.11063566742e-20)
(-0.224717224488 0.0592671328461 1.41339110989e-20)
(-0.14180123603 0.0864008552444 -5.21927574055e-21)
(-0.226432602749 0.00969464757006 3.05367730742e-20)
(-0.0408564320789 0.00265341893958 2.94348570873e-22)
(-0.0423088187762 0.00135934714495 4.74970437724e-23)
(-0.0407217793406 0.00528852573255 5.10832359887e-22)
(-0.042044495381 0.00380446929701 5.43537664119e-22)
(-0.0409398634825 0.00791972032453 3.80361929062e-22)
(-0.0420257630704 0.00629637056639 4.80845245987e-22)
(-0.0415975224957 0.0105830774873 1.92327558156e-22)
(-0.0424988545695 0.00881985695311 2.83491555329e-22)
(-0.0426246903042 0.0133258872727 5.93938598592e-23)
(-0.0433984518418 0.0113888951705 9.67471091672e-23)
(-0.043960582143 0.0161731025533 1.19141568335e-23)
(-0.0446411535851 0.0140442445858 1.9582290528e-23)
(-0.0455828455212 0.0191596232663 -2.61342238235e-24)
(-0.0461916354055 0.0168170727213 4.55045632683e-24)
(-0.0474931314979 0.0223220543141 -1.54680748745e-23)
(-0.0480439419424 0.0197366599389 -8.06224285722e-24)
(-0.0497040963032 0.025699732367 -1.90149256893e-23)
(-0.0502130821427 0.0228413465888 -1.78358624013e-23)
(-0.0522442993469 0.0293612861451 -4.46232044164e-23)
(-0.0527258335149 0.0261809748047 -2.09379198647e-23)
(-0.0551484277523 0.0333377117376 -1.29662945501e-22)
(-0.0555923429565 0.0298083511917 -6.7244804268e-23)
(-0.0584714227965 0.0377462451739 -2.45402463561e-22)
(-0.0588936419089 0.0337863332573 -1.68902973862e-22)
(-0.0622847385487 0.0426698278885 -3.71827488152e-22)
(-0.0626997146059 0.0381956883539 -2.94723309328e-22)
(-0.0666192791084 0.0482287410199 -9.2830088171e-22)
(-0.0670943270609 0.043201555091 -3.59147956192e-22)
(-0.0713124669389 0.0546644024574 -1.89662082711e-21)
(-0.0721199951225 0.048776792121 -1.49502356477e-21)
(-0.076028892856 0.0623683967302 -7.90080081674e-21)
(-0.0775653146109 0.0568719596472 -5.24982192162e-21)
(-0.0840699004069 0.0715855817694 -1.28489336441e-20)
(-0.0829533412258 0.0605340689167 -1.78302021938e-20)
(-0.11482311665 0.0812015284922 -1.36543587142e-20)
(-0.0945178206183 0.0654884334961 -1.39193439201e-20)
(-0.157321899087 0.0736839532763 1.11835862348e-20)
(-0.134283572389 0.0800973851155 -2.74588021465e-20)
(-0.110036592435 0.0152037281927 7.39689892839e-22)
(-0.043379967028 0.0024134311117 2.96686137019e-22)
(-0.0447215776271 0.00123139940653 -6.35303685453e-23)
(-0.0432297900839 0.00479943509851 5.1355055022e-22)
(-0.0444298380173 0.00342493920504 3.72979849633e-22)
(-0.0434617011852 0.00717693406831 3.83974872255e-22)
(-0.0444026877415 0.00565788613894 3.69536097895e-22)
(-0.0441700571302 0.00958162279964 1.8791110634e-22)
(-0.0449031768753 0.00791786074504 2.37595920417e-22)
(-0.0452810591377 0.0120546231026 5.6935539836e-23)
(-0.0458714627953 0.0102101071502 7.89788211913e-23)
(-0.0467328978259 0.0146187245883 1.22185900213e-23)
(-0.0472058106662 0.0125746208052 1.77157343028e-23)
(-0.0485038884263 0.0173055478707 -8.9836414805e-25)
(-0.0488797320688 0.0150422434144 3.78855109669e-24)
(-0.0506017833595 0.0201460951276 -1.0430030384e-23)
(-0.0508871165998 0.0176352085907 -1.18713558421e-23)
(-0.0530476684062 0.0231778738197 -1.97588565767e-23)
(-0.0532490834542 0.0203870241291 -1.18465558938e-23)
(-0.0558753530611 0.0264575915319 -4.35595197163e-23)
(-0.0560101919007 0.0233391338457 -1.94992183408e-23)
(-0.0591315946667 0.0300345623118 -1.06484832629e-22)
(-0.0591762749667 0.0265411471147 -6.35125580467e-23)
(-0.0628897844334 0.0339786580335 -2.18223819629e-22)
(-0.062840764518 0.0300484300935 -1.319068939e-22)
(-0.0672463300445 0.038376157748 -2.82043777369e-22)
(-0.0670991976531 0.0339215950889 -3.15972240465e-22)
(-0.0723043416731 0.0433569872982 -9.25870639255e-22)
(-0.0720762860553 0.0383189266695 -1.9384770922e-22)
(-0.0780263347425 0.0491613325955 -4.84822465928e-21)
(-0.0779248566583 0.0432415619251 -1.66117412951e-21)
(-0.0840879973926 0.0561327247199 -1.51792232987e-20)
(-0.0845368602692 0.0503876686669 -3.23660138812e-21)
(-0.0932300722925 0.0644925922927 -1.89006124698e-20)
(-0.0913131887304 0.054220576899 -1.05387381698e-20)
(-0.118097362139 0.0738598343917 -2.77237873524e-20)
(-0.103885051746 0.0585864282619 -1.16369784279e-20)
(-0.0732814478502 0.0763061682677 -3.79026984884e-20)
(-0.136729868428 0.0679569933217 -1.26781017331e-20)
(-0.00100469018975 0.0386990614352 -1.67600427984e-20)
(-0.0456479509809 0.00214878521607 1.27633440685e-23)
(-0.0468698044562 0.00109403200796 -3.04967465237e-22)
(-0.045478915576 0.00427189130185 2.28965397308e-22)
(-0.0465524032221 0.00302165169887 2.60163520384e-23)
(-0.0457165556776 0.00638122260467 2.23157146056e-22)
(-0.0465115438069 0.0049803970013 9.15914564698e-23)
(-0.0464657407944 0.00850985860177 1.28663635268e-22)
(-0.047031490334 0.00695802992544 1.01027284588e-22)
(-0.0476475303432 0.0106835599031 3.97590156581e-23)
(-0.0480451077085 0.00895467145052 2.6568382964e-23)
(-0.04919770436 0.0129378699468 9.28569537818e-24)
(-0.0494604572993 0.0110075662792 3.81713991885e-24)
(-0.0510975183791 0.0152896701744 -7.18444059739e-24)
(-0.0512323410519 0.0131431845419 -1.88038114072e-24)
(-0.0533573537716 0.0177768057734 -1.32878813519e-23)
(-0.053375959652 0.0153776340666 -1.42915571264e-23)
(-0.056004935174 0.0204250891232 -1.15869176578e-23)
(-0.0558996882559 0.0177367448791 -8.39332648759e-24)
(-0.0590806669555 0.0232674102713 -3.94522566712e-23)
(-0.0588553147466 0.0202536999191 -1.71680691635e-24)
(-0.0626371889635 0.0263621822519 -8.89346193177e-23)
(-0.0622749604442 0.0229763701205 -5.30152640535e-23)
(-0.0667677110361 0.029757026794 -2.29655314736e-22)
(-0.0662370888079 0.0259404782285 -8.11761106486e-23)
(-0.0716015761798 0.0335481793428 -2.27776172317e-22)
(-0.0708910519118 0.0291895796226 -2.36646289158e-22)
(-0.0773156940663 0.0378425050731 -9.2915119947e-22)
(-0.0763707104844 0.0328851410733 2.20054764643e-23)
(-0.0839852367849 0.0428784868026 -4.95508583404e-23)
(-0.0829605139959 0.0370363490414 -8.38424436459e-22)
(-0.0912426382961 0.0489572384712 1.40388374078e-21)
(-0.0906151852827 0.0431077429661 3.39675921829e-21)
(-0.101574601851 0.0561434599953 -3.2751041279e-21)
(-0.0984990906884 0.0468334525435 -3.06069729327e-21)
(-0.126902130956 0.0646164303363 3.4087071913e-21)
(-0.112357924941 0.0507883647445 -6.54151488904e-21)
(0.0168394483716 0.0861224799808 8.46455395686e-21)