/*--------------------------------*- C++ -*----------------------------------*\
| =========                 |                                                 |
| \\      /  F ield         | OpenFOAM: The Open Source CFD Toolbox           |
|  \\    /   O peration     | Version:  v2012                                 |
|   \\  /    A nd           | Website:  www.openfoam.com                      |
|    \\/     M anipulation  |                                                 |
\*---------------------------------------------------------------------------*/
FoamFile
{
    version     2.0;
    format      ascii;
    class       volScalarField;
    location    "1.6";
    object      rAU;
}
// * * * * * * * * * * * * * * * * * * * * * * * * * * * * * * * * * * * * * //

dimensions      [-1 3 1 0 0 0 0];


internalField   nonuniform List<scalar> 
164
(
8.21462170275e-06
8.21477608919e-06
8.21504654416e-06
8.21519609295e-06
8.21519403125e-06
8.2178689263e-06
8.21359338887e-06
8.18326437337e-06
8.20778883403e-06
1.0465528156e-05
0.000110676195471
0.00589395046977
8.21463376806e-06
8.21476511156e-06
8.21502517352e-06
8.21521117618e-06
8.21491440471e-06
8.21817718729e-06
8.21449879255e-06
8.18205693111e-06
8.20868309869e-06
1.0349197112e-05
0.000108763031361
0.00584214659139
8.21492437671e-06
8.21518459063e-06
8.21476084416e-06
8.21779046119e-06
8.21621760742e-06
8.19138047983e-06
8.13586611673e-06
1.01295994994e-05
0.000107990212155
0.00581228656844
8.21476416543e-06
8.21506407761e-06
8.21471309501e-06
8.21698150295e-06
8.2178911007e-06
8.20238507902e-06
8.14675431403e-06
1.0034188882e-05
0.000105906067332
0.00580044876259
8.21455266489e-06
8.21480129093e-06
8.21455457492e-06
8.21615258495e-06
8.21902521196e-06
8.21224918405e-06
8.16076796139e-06
9.89361973187e-06
9.89326299131e-05
0.00570494362203
8.21425047112e-06
8.21444447366e-06
8.21436566954e-06
8.21540018006e-06
8.21952458868e-06
8.21881150182e-06
8.17246999267e-06
9.68400984276e-06
8.72904683804e-05
0.00551741198074
8.21381696437e-06
8.21393872265e-06
8.21403243012e-06
8.21383291049e-06
8.21906878925e-06
8.22456156062e-06
8.18694485e-06
9.42084772678e-06
7.69357094654e-05
0.00525718277647
8.21325470052e-06
8.21324805825e-06
8.21375282986e-06
8.21047151017e-06
8.21876645441e-06
8.23196575711e-06
8.16356969838e-06
9.01152401078e-06
6.71133646658e-05
0.00491044970847
8.21261791312e-06
8.21187070077e-06
8.21422284162e-06
8.20230018203e-06
8.21654648461e-06
8.21401683084e-06
8.11066655052e-06
8.28566286028e-06
6.42834344045e-05
0.00455296251207
8.21183787122e-06
8.21032754496e-06
8.21280559948e-06
8.2010045629e-06
8.19594375411e-06
8.14849112549e-06
8.07687662672e-06
8.08877126843e-06
5.51202225926e-05
0.00391450684448
8.21069513192e-06
8.21052669743e-06
8.20724043965e-06
8.20043646673e-06
8.17851307858e-06
8.12990082357e-06
8.02527537489e-06
7.93395120899e-06
1.1964806855e-05
0.000141617672514
8.21003398028e-06
8.20965642255e-06
8.20491724204e-06
8.20801233663e-06
8.17540135615e-06
8.16499986112e-06
8.09086068815e-06
8.30371006245e-06
3.48914575039e-05
0.00339929224074
8.20992432396e-06
8.20919381337e-06
8.20941484946e-06
8.21153333227e-06
8.19943876112e-06
8.1911046369e-06
8.15884092574e-06
8.11287282881e-06
3.34379074071e-05
0.0033536277533
8.20971350489e-06
8.2100891454e-06
8.21262817898e-06
8.21363373268e-06
8.22298323533e-06
8.17931966413e-06
8.11177964354e-06
8.09110036433e-06
2.6804433142e-05
0.00271395665759
8.20932860177e-06
8.2098311371e-06
8.21180603309e-06
8.21507711866e-06
8.217862071e-06
8.13561851248e-06
8.15829563974e-06
8.09577238541e-06
9.08244026181e-06
5.35875189564e-05
8.20875341385e-06
8.20894912411e-06
8.20952374142e-06
8.20708777429e-06
8.19624305481e-06
8.1003091066e-06
8.16679517108e-06
8.08739290857e-06
1.94016727751e-05
0.00242875149935
)
;

boundaryField
{
    back
    {
        type            calculated;
        value           nonuniform List<scalar> 
164
(
8.21462170275e-06
8.21477608919e-06
8.21504654416e-06
8.21519609295e-06
8.21519403125e-06
8.2178689263e-06
8.21359338887e-06
8.18326437337e-06
8.20778883403e-06
1.0465528156e-05
0.000110676195471
0.00589395046977
8.21463376806e-06
8.21476511156e-06
8.21502517352e-06
8.21521117618e-06
8.21491440471e-06
8.21817718729e-06
8.21449879255e-06
8.18205693111e-06
8.20868309869e-06
1.0349197112e-05
0.000108763031361
0.00584214659139
8.21492437671e-06
8.21518459063e-06
8.21476084416e-06
8.21779046119e-06
8.21621760742e-06
8.19138047983e-06
8.13586611673e-06
1.01295994994e-05
0.000107990212155
0.00581228656844
8.21476416543e-06
8.21506407761e-06
8.21471309501e-06
8.21698150295e-06
8.2178911007e-06
8.20238507902e-06
8.14675431403e-06
1.0034188882e-05
0.000105906067332
0.00580044876259
8.21455266489e-06
8.21480129093e-06
8.21455457492e-06
8.21615258495e-06
8.21902521196e-06
8.21224918405e-06
8.16076796139e-06
9.89361973187e-06
9.89326299131e-05
0.00570494362203
8.21425047112e-06
8.21444447366e-06
8.21436566954e-06
8.21540018006e-06
8.21952458868e-06
8.21881150182e-06
8.17246999267e-06
9.68400984276e-06
8.72904683804e-05
0.00551741198074
8.21381696437e-06
8.21393872265e-06
8.21403243012e-06
8.21383291049e-06
8.21906878925e-06
8.22456156062e-06
8.18694485e-06
9.42084772678e-06
7.69357094654e-05
0.00525718277647
8.21325470052e-06
8.21324805825e-06
8.21375282986e-06
8.21047151017e-06
8.21876645441e-06
8.23196575711e-06
8.16356969838e-06
9.01152401078e-06
6.71133646658e-05
0.00491044970847
8.21261791312e-06
8.21187070077e-06
8.21422284162e-06
8.20230018203e-06
8.21654648461e-06
8.21401683084e-06
8.11066655052e-06
8.28566286028e-06
6.42834344045e-05
0.00455296251207
8.21183787122e-06
8.21032754496e-06
8.21280559948e-06
8.2010045629e-06
8.19594375411e-06
8.14849112549e-06
8.07687662672e-06
8.08877126843e-06
5.51202225926e-05
0.00391450684448
8.21069513192e-06
8.21052669743e-06
8.20724043965e-06
8.20043646673e-06
8.17851307858e-06
8.12990082357e-06
8.02527537489e-06
7.93395120899e-06
1.1964806855e-05
0.000141617672514
8.21003398028e-06
8.20965642255e-06
8.20491724204e-06
8.20801233663e-06
8.17540135615e-06
8.16499986112e-06
8.09086068815e-06
8.30371006245e-06
3.48914575039e-05
0.00339929224074
8.20992432396e-06
8.20919381337e-06
8.20941484946e-06
8.21153333227e-06
8.19943876112e-06
8.1911046369e-06
8.15884092574e-06
8.11287282881e-06
3.34379074071e-05
0.0033536277533
8.20971350489e-06
8.2100891454e-06
8.21262817898e-06
8.21363373268e-06
8.22298323533e-06
8.17931966413e-06
8.11177964354e-06
8.09110036433e-06
2.6804433142e-05
0.00271395665759
8.20932860177e-06
8.2098311371e-06
8.21180603309e-06
8.21507711866e-06
8.217862071e-06
8.13561851248e-06
8.15829563974e-06
8.09577238541e-06
9.08244026181e-06
5.35875189564e-05
8.20875341385e-06
8.20894912411e-06
8.20952374142e-06
8.20708777429e-06
8.19624305481e-06
8.1003091066e-06
8.16679517108e-06
8.08739290857e-06
1.94016727751e-05
0.00242875149935
)
;
    }
    sides
    {
        type            calculated;
        value           nonuniform List<scalar> 0();
    }
    bottom
    {
        type            calculated;
        value           nonuniform List<scalar> 0();
    }
    front
    {
        type            calculated;
        value           nonuniform List<scalar> 
164
(
8.21462170275e-06
8.21477608919e-06
8.21504654416e-06
8.21519609295e-06
8.21519403125e-06
8.2178689263e-06
8.21359338887e-06
8.18326437337e-06
8.20778883403e-06
1.0465528156e-05
0.000110676195471
0.00589395046977
8.21463376806e-06
8.21476511156e-06
8.21502517352e-06
8.21521117618e-06
8.21491440471e-06
8.21817718729e-06
8.21449879255e-06
8.18205693111e-06
8.20868309869e-06
1.0349197112e-05
0.000108763031361
0.00584214659139
8.21492437671e-06
8.21518459063e-06
8.21476084416e-06
8.21779046119e-06
8.21621760742e-06
8.19138047983e-06
8.13586611673e-06
1.01295994994e-05
0.000107990212155
0.00581228656844
8.21476416543e-06
8.21506407761e-06
8.21471309501e-06
8.21698150295e-06
8.2178911007e-06
8.20238507902e-06
8.14675431403e-06
1.0034188882e-05
0.000105906067332
0.00580044876259
8.21455266489e-06
8.21480129093e-06
8.21455457492e-06
8.21615258495e-06
8.21902521196e-06
8.21224918405e-06
8.16076796139e-06
9.89361973187e-06
9.89326299131e-05
0.00570494362203
8.21425047112e-06
8.21444447366e-06
8.21436566954e-06
8.21540018006e-06
8.21952458868e-06
8.21881150182e-06
8.17246999267e-06
9.68400984276e-06
8.72904683804e-05
0.00551741198074
8.21381696437e-06
8.21393872265e-06
8.21403243012e-06
8.21383291049e-06
8.21906878925e-06
8.22456156062e-06
8.18694485e-06
9.42084772678e-06
7.69357094654e-05
0.00525718277647
8.21325470052e-06
8.21324805825e-06
8.21375282986e-06
8.21047151017e-06
8.21876645441e-06
8.23196575711e-06
8.16356969838e-06
9.01152401078e-06
6.71133646658e-05
0.00491044970847
8.21261791312e-06
8.21187070077e-06
8.21422284162e-06
8.20230018203e-06
8.21654648461e-06
8.21401683084e-06
8.11066655052e-06
8.28566286028e-06
6.42834344045e-05
0.00455296251207
8.21183787122e-06
8.21032754496e-06
8.21280559948e-06
8.2010045629e-06
8.19594375411e-06
8.14849112549e-06
8.07687662672e-06
8.08877126843e-06
5.51202225926e-05
0.00391450684448
8.21069513192e-06
8.21052669743e-06
8.20724043965e-06
8.20043646673e-06
8.17851307858e-06
8.12990082357e-06
8.02527537489e-06
7.93395120899e-06
1.1964806855e-05
0.000141617672514
8.21003398028e-06
8.20965642255e-06
8.20491724204e-06
8.20801233663e-06
8.17540135615e-06
8.16499986112e-06
8.09086068815e-06
8.30371006245e-06
3.48914575039e-05
0.00339929224074
8.20992432396e-06
8.20919381337e-06
8.20941484946e-06
8.21153333227e-06
8.19943876112e-06
8.1911046369e-06
8.15884092574e-06
8.11287282881e-06
3.34379074071e-05
0.0033536277533
8.20971350489e-06
8.2100891454e-06
8.21262817898e-06
8.21363373268e-06
8.22298323533e-06
8.17931966413e-06
8.11177964354e-06
8.09110036433e-06
2.6804433142e-05
0.00271395665759
8.20932860177e-06
8.2098311371e-06
8.21180603309e-06
8.21507711866e-06
8.217862071e-06
8.13561851248e-06
8.15829563974e-06
8.09577238541e-06
9.08244026181e-06
5.35875189564e-05
8.20875341385e-06
8.20894912411e-06
8.20952374142e-06
8.20708777429e-06
8.19624305481e-06
8.1003091066e-06
8.16679517108e-06
8.08739290857e-06
1.94016727751e-05
0.00242875149935
)
;
    }
    atmosphere
    {
        type            calculated;
        value           nonuniform List<scalar> 
16
(
0.00589395046977
0.00584214659139
0.00581228656844
0.00580044876259
0.00570494362203
0.00551741198074
0.00525718277647
0.00491044970847
0.00455296251207
0.00391450684448
0.000141617672514
0.00339929224074
0.0033536277533
0.00271395665759
5.35875189564e-05
0.00242875149935
)
;
    }
    floatingObject
    {
        type            calculated;
        value           nonuniform List<scalar> 0();
    }
    procBoundary5to0
    {
        type            processor;
        value           nonuniform List<scalar> 
12
(
8.21460015558e-06
8.2147637944e-06
8.21500895784e-06
8.21515624519e-06
8.21544794783e-06
8.21736236099e-06
8.21288573527e-06
8.19506536474e-06
8.21524868607e-06
1.06380891668e-05
0.000116606667376
0.00597343341913
)
;
    }
    procBoundary5to3
    {
        type            processor;
        value           nonuniform List<scalar> 10(8.20811784692e-06 8.20766559716e-06 8.20615241838e-06 8.20061010203e-06 8.18368882517e-06 8.13789598251e-06 8.13070142142e-06 8.04486786531e-06 2.07968418713e-05 0.0029603502912);
    }
    procBoundary5to4
    {
        type            processor;
        value           nonuniform List<scalar> 
18
(
8.21453689918e-06
8.21457336667e-06
8.21461717055e-06
8.21471677946e-06
8.21471677946e-06
8.21462366547e-06
8.21444172637e-06
8.21420054145e-06
8.21387246267e-06
8.21336382652e-06
8.21271830547e-06
8.21196932995e-06
8.21117913807e-06
8.21053363269e-06
8.2101141856e-06
8.20974641861e-06
8.20934475089e-06
8.20888081064e-06
)
;
    }
}


// ************************************************************************* //
