/*--------------------------------*- C++ -*----------------------------------*\
| =========                 |                                                 |
| \\      /  F ield         | OpenFOAM: The Open Source CFD Toolbox           |
|  \\    /   O peration     | Version:  v2012                                 |
|   \\  /    A nd           | Website:  www.openfoam.com                      |
|    \\/     M anipulation  |                                                 |
\*---------------------------------------------------------------------------*/
FoamFile
{
    version     2.0;
    format      ascii;
    class       surfaceScalarField;
    location    "3.4";
    object      alphaPhi0.water;
}
// * * * * * * * * * * * * * * * * * * * * * * * * * * * * * * * * * * * * * //

dimensions      [0 3 -1 0 0 0 0];
oriented        oriented;


internalField   nonuniform List<scalar> 
300
(
-2.46600565826e-05
0.000260067467538
-3.07052846178e-05
0.000269991012529
-3.81741232492e-05
0.00028136667717
-4.74173319897e-05
0.000294291259397
-5.91310447249e-05
0.000308802765715
-7.40303978934e-05
0.000325007914982
-9.37624559986e-05
0.000344101184109
-0.000121079716375
0.000371534900859
-0.00014676994291
0.000409498548012
9.32264681065e-07
0.000215369357537
-1.10737525297e-07
-6.23477872639e-09
-1.20226810923e-09
-1.46913250919e-05
-1.92852817835e-05
-2.51337217701e-05
0.000287217328766
-3.2612334867e-05
0.000301772356709
-4.22884223047e-05
0.000318481404267
-5.48994208461e-05
0.000337621139034
-7.16983766801e-05
0.000360900196649
-9.44001771857e-05
0.000394237708061
-0.000117009817396
0.000444089810339
6.88182568604e-07
0.000245254684191
-2.08631611098e-08
-5.46619652933e-08
3.5522890005e-10
-1.04390688777e-05
0.000291084394601
-1.5620657249e-05
0.000306956265152
-2.25608098808e-05
0.000325423759463
-3.19728744476e-05
0.000347034958061
-4.47556790319e-05
0.000373683138461
-6.11017358843e-05
0.000410583774959
-7.72644047443e-05
0.000468783131867
-6.11745393187e-07
0.000277325673053
-4.31096893055e-07
-5.66314931812e-08
5.87742429493e-09
5.61953696961e-06
0.000292637716924
3.22536584237e-06
0.00030935255008
-2.97045724685e-07
0.000328947981483
-5.64693917854e-06
0.00035238618113
-1.43291478504e-05
0.000382366176482
-2.49759494743e-05
0.000421230929949
-3.57416178957e-05
0.000484138589021
-1.07183129723e-06
0.000306452568257
-6.03289134749e-07
7.17909421035e-08
1.27871926093e-09
2.253611332e-05
0.00029170817129
2.31406373066e-05
0.000308749968746
2.34569801287e-05
0.000328632959997
2.32245631231e-05
0.00035261878784
2.08477118643e-05
0.000384741948565
1.02107659334e-05
0.000431868188644
-3.18228260301e-06
0.000499433467648
3.03343702953e-07
0.000330784643913
-1.37291230862e-09
-3.18182401846e-08
1.48610119919e-13
3.97096643476e-05
0.000288270094015
4.33348288602e-05
0.000305126066428
4.73740772735e-05
0.000324593680672
5.17129232628e-05
0.000348278697635
5.45258771543e-05
0.000381926617452
4.86888748253e-05
0.000437703235961
2.75240057617e-05
0.000512213497564
1.70130783267e-07
0.000347216192749
4.01733125343e-09
6.14436369873e-08
4.01170290437e-09
5.64763272914e-05
0.00028252752219
6.27529723135e-05
0.000298850190487
6.97102205709e-05
0.000317634462275
7.76614465858e-05
0.000340323702489
8.40504883174e-05
0.000375532330159
8.40738609504e-05
0.000437673174391
8.12054157786e-05
0.000519146486545
8.8731589903e-06
0.000353817642004
2.25761171674e-08
2.09607195704e-07
2.09843686353e-08
7.26048068913e-05
0.000274960180192
8.08615357149e-05
0.000290590327881
9.00088498487e-05
0.000308481785305
9.97307471991e-05
0.000330595475633
0.000108703263579
0.000366551327704
0.000114907150225
0.000431461001279
0.000116662157265
0.000517745960348
2.15559413808e-05
0.000347782826293
7.5770989219e-08
-2.34352516533e-06
2.97557754358e-08
8.82005139911e-05
0.000265585838032
9.80219115741e-05
0.000280763883796
0.000108249692315
0.000298244056665
0.000118469255725
0.000320359705668
0.000129350912152
0.000355655400864
0.000144421964551
0.000416377086943
0.000167356111735
0.000494795207007
3.27885530566e-05
0.000347754779196
6.21144871656e-08
-2.6723341438e-06
1.87724809904e-08
0.000103049996111
0.000254595734895
0.000114295566548
0.000269504593135
0.000125634625525
0.000286886712727
0.000137014867361
0.000308959312404
0.000150700128447
0.000341946655227
0.000175732231899
0.000391325500387
0.000219558062036
0.000450956327868
5.2430022782e-05
0.000342884294972
3.19866808485e-08
-4.63600921592e-07
5.07300857558e-08
0.000117705031789
0.000241898148069
0.000130775095866
0.000256417814723
0.000144159185086
0.000273478263018
0.00015838108793
0.000294705213154
0.00017728146492
0.000323012855318
0.000209482573399
0.00035909723466
0.000268344846339
0.000392079830039
7.85818518341e-05
0.00032807977796
1.75211955731e-07
2.4962013618e-06
2.42547562855e-07
0.000132524018061
0.00022708497949
0.000148268792718
0.000240646023359
0.000165127310794
0.000256583467262
0.000183986447663
0.000275803612898
0.000208427793971
0.0002985264693
0.00024573159518
0.000321757839132
0.000311881372194
0.00032591091318
0.000112292267934
0.000297609550208
-1.07750220585e-07
4.12425801662e-06
-9.0618893907e-08
0.000146372886539
0.000210312716815
0.000164667533506
0.000222315491074
0.000185068470157
0.000236136048483
0.000208993806841
0.000251823362536
0.000239489303815
0.000267975809271
0.000284123329934
0.000277080337061
0.000350696204289
0.000259314507305
0.000152726834961
0.000250167834878
-1.87625650098e-06
2.08381475246e-06
-1.64448396185e-06
0.000158437872197
0.000192219361932
0.00017805249407
0.000202653193587
0.000200045065564
0.000214083124478
0.000225995854807
0.00022579772674
0.000259493458807
0.000234402718033
0.000307338469104
0.000229172410293
0.000368434660098
0.000198180632807
0.00018831191902
0.000195153715192
3.76583477929e-07
-6.59485857677e-06
1.15782418205e-06
0.000169211687777
0.000173143685152
0.000189604709689
0.000182199409471
0.000211895629212
0.000191702309033
0.00023666023632
0.000200931865797
0.000266949111079
0.000204006793018
0.000306873872066
0.000189162262837
0.000351111422631
0.000153906152097
0.000196945565011
0.000152533374921
-3.55103334387e-07
-2.1883745688e-05
-8.63352943774e-07
0.000179262386977
0.000200824101232
0.000224164935218
0.000248257245936
0.000272980682315
0.000297629849201
0.000316284544686
0.000168241128657
2.65565838438e-06
)
;

boundaryField
{
    back
    {
        type            calculated;
        value           uniform 0;
    }
    sides
    {
        type            calculated;
        value           nonuniform List<scalar> 0();
    }
    bottom
    {
        type            calculated;
        value           nonuniform List<scalar> 0();
    }
    front
    {
        type            calculated;
        value           uniform 0;
    }
    atmosphere
    {
        type            calculated;
        value           nonuniform List<scalar> 
16
(
-1.23607033472e-07
-2.24235206161e-08
-4.36619765781e-07
-5.98689549387e-07
-9.43416252315e-11
5.13628383032e-12
1.46351987281e-09
1.9582170118e-08
9.65160225111e-10
1.33828993424e-11
-1.78908004557e-08
6.91663464085e-09
-3.45907809226e-07
-3.04192485494e-06
-6.52628691037e-07
-1.61787673461e-06
)
;
    }
    floatingObject
    {
        type            calculated;
        value           nonuniform List<scalar> 0();
    }
    procBoundary5to0
    {
        type            processor;
        value           nonuniform List<scalar> 
12
(
-0.000255103459555
-0.00026394358275
-0.000273894288107
-0.000285043544604
-0.000297084063995
-0.000310103877796
-0.000324368780509
-0.000344216577956
-0.000369668330362
-0.000187451404909
2.2663390403e-09
1.4070256314e-08
)
;
    }
    procBoundary5to3
    {
        type            processor;
        value           nonuniform List<scalar> 10(0.000153083314048 0.000160560737959 0.000168267389849 0.000176718773227 0.000179169461595 0.000164419261922 0.00013521227315 0.000151730845869 -1.83909924962e-05 1.48326810463e-06);
    }
    procBoundary5to4
    {
        type            processor;
        value           nonuniform List<scalar> 
18
(
1.96962793345e-05
1.1073686694e-05
0.000263685082277
0.000274586525271
6.57473700371e-06
-7.1698585737e-06
-2.16033148199e-05
-3.62682742956e-05
-5.073092351e-05
-6.50365543441e-05
-7.88280210977e-05
-9.20697018537e-05
-0.000105024065726
-0.000117735362172
-0.000129634611992
-0.000140387991909
-0.000150194246763
-0.000159258555269
)
;
    }
}


// ************************************************************************* //
