/*--------------------------------*- C++ -*----------------------------------*\
| =========                 |                                                 |
| \\      /  F ield         | OpenFOAM: The Open Source CFD Toolbox           |
|  \\    /   O peration     | Version:  v2012                                 |
|   \\  /    A nd           | Website:  www.openfoam.com                      |
|    \\/     M anipulation  |                                                 |
\*---------------------------------------------------------------------------*/
FoamFile
{
    version     2.0;
    format      ascii;
    class       volScalarField;
    location    "3.4";
    object      ddt0(k);
}
// * * * * * * * * * * * * * * * * * * * * * * * * * * * * * * * * * * * * * //

dimensions      [0 2 -3 0 0 0 0];


internalField   nonuniform List<scalar> 
164
(
-0.00180219585373
-0.00180427017162
-0.00180535508618
-0.00180325065247
-0.00179114224559
-0.00174177687834
-0.00150476012893
-0.000224204314042
0.00516794653983
0.0151470982908
0.00784797159646
-0.00382294905373
-0.00180340732743
-0.00180557785947
-0.00180698692347
-0.00180602722711
-0.00179785858519
-0.00176403492912
-0.00159778539198
-0.00057628579623
0.0045379298856
0.0152666160723
0.0068092968396
-0.00478539079449
-0.00180915949521
-0.00180964578617
-0.00180629897456
-0.00179013429851
-0.00170318521776
-0.00105212066553
0.00279744541503
0.0117377981516
0.00338527976576
-0.00612840224359
-0.00181172826624
-0.00181397714307
-0.00181608341832
-0.00181869726028
-0.00181020223137
-0.00156542889797
0.000409093419317
0.00548202690233
-0.000983258831398
-0.00682694177969
-0.00181445339415
-0.00181818783679
-0.00182533065821
-0.00184751810891
-0.00192495674711
-0.0020139075261
-0.00164180146997
-0.000854139943718
-0.00835957617059
-0.00817356423831
-0.00181733160892
-0.00182218582842
-0.00183212201379
-0.00186337187249
-0.0019693314351
-0.00226239100658
-0.00285093192434
-0.00494331145029
-0.0127664459176
-0.0226736609854
-0.00182059511224
-0.00182702887087
-0.00184216168534
-0.00189367590489
-0.00206598998753
-0.00247925093415
-0.00314991056635
-0.00547790604732
-0.0211630748988
-0.0754497636378
-0.00182408968916
-0.00183262085506
-0.00185567722926
-0.00194186514322
-0.00222716381726
-0.00284653534128
-0.00359434962363
-0.00607934285931
-0.0270260654044
-0.0760260569358
-0.00182781443779
-0.00183884857184
-0.00187123711829
-0.00199841011606
-0.0024136173968
-0.00327930676556
-0.00425980447324
-0.00630660474981
-0.0223227180079
-0.129766988118
-0.00183135257169
-0.00184486704099
-0.0018852676942
-0.00204229368182
-0.0025520024995
-0.00364508155989
-0.00507961320515
-0.00701692117253
-0.0063103767246
0.0209719435148
-0.00183435371407
-0.00184905035225
-0.00189179813385
-0.00205508782936
-0.00259753410993
-0.00385407718899
-0.00576810133888
-0.00875231215461
-0.0133959770328
-0.00711862288689
-0.00183683862584
-0.00185115034141
-0.00189044809045
-0.00204405713646
-0.00258197968057
-0.00392361242173
-0.00611729696906
-0.00916506471864
-0.0210195761957
-0.191946979743
-0.00183988201759
-0.00185542752372
-0.00189737331322
-0.00206026065534
-0.00262187302865
-0.00401231122565
-0.00633374148468
-0.00883544250417
-0.0167888988396
-0.24568624536
-0.00184353902016
-0.00186246220465
-0.00191553805669
-0.00211088584679
-0.00272696719768
-0.00415437394672
-0.00662553392266
-0.00979682823365
-0.0187577771373
-0.199497750815
-0.00184648918208
-0.00186741895788
-0.00192433450183
-0.00212739291685
-0.00274631456363
-0.00417446751227
-0.00684453115316
-0.0112570751763
-0.0197733042004
-0.125247230552
-0.00184919088964
-0.00186723694544
-0.00191028959965
-0.00206599163874
-0.00259817514182
-0.0040075407072
-0.00688608347509
-0.0120940101928
-0.019968551567
-0.0693692829849
)
;

boundaryField
{
    back
    {
        type            calculated;
        value           nonuniform List<scalar> 
164
(
-0.00180219585373
-0.00180427017162
-0.00180535508618
-0.00180325065247
-0.00179114224559
-0.00174177687834
-0.00150476012893
-0.000224204314042
0.00516794653983
0.0151470982908
0.00784797159646
-0.00382294905373
-0.00180340732743
-0.00180557785947
-0.00180698692347
-0.00180602722711
-0.00179785858519
-0.00176403492912
-0.00159778539198
-0.00057628579623
0.0045379298856
0.0152666160723
0.0068092968396
-0.00478539079449
-0.00180915949521
-0.00180964578617
-0.00180629897456
-0.00179013429851
-0.00170318521776
-0.00105212066553
0.00279744541503
0.0117377981516
0.00338527976576
-0.00612840224359
-0.00181172826624
-0.00181397714307
-0.00181608341832
-0.00181869726028
-0.00181020223137
-0.00156542889797
0.000409093419317
0.00548202690233
-0.000983258831398
-0.00682694177969
-0.00181445339415
-0.00181818783679
-0.00182533065821
-0.00184751810891
-0.00192495674711
-0.0020139075261
-0.00164180146997
-0.000854139943718
-0.00835957617059
-0.00817356423831
-0.00181733160892
-0.00182218582842
-0.00183212201379
-0.00186337187249
-0.0019693314351
-0.00226239100658
-0.00285093192434
-0.00494331145029
-0.0127664459176
-0.0226736609854
-0.00182059511224
-0.00182702887087
-0.00184216168534
-0.00189367590489
-0.00206598998753
-0.00247925093415
-0.00314991056635
-0.00547790604732
-0.0211630748988
-0.0754497636378
-0.00182408968916
-0.00183262085506
-0.00185567722926
-0.00194186514322
-0.00222716381726
-0.00284653534128
-0.00359434962363
-0.00607934285931
-0.0270260654044
-0.0760260569358
-0.00182781443779
-0.00183884857184
-0.00187123711829
-0.00199841011606
-0.0024136173968
-0.00327930676556
-0.00425980447324
-0.00630660474981
-0.0223227180079
-0.129766988118
-0.00183135257169
-0.00184486704099
-0.0018852676942
-0.00204229368182
-0.0025520024995
-0.00364508155989
-0.00507961320515
-0.00701692117253
-0.0063103767246
0.0209719435148
-0.00183435371407
-0.00184905035225
-0.00189179813385
-0.00205508782936
-0.00259753410993
-0.00385407718899
-0.00576810133888
-0.00875231215461
-0.0133959770328
-0.00711862288689
-0.00183683862584
-0.00185115034141
-0.00189044809045
-0.00204405713646
-0.00258197968057
-0.00392361242173
-0.00611729696906
-0.00916506471864
-0.0210195761957
-0.191946979743
-0.00183988201759
-0.00185542752372
-0.00189737331322
-0.00206026065534
-0.00262187302865
-0.00401231122565
-0.00633374148468
-0.00883544250417
-0.0167888988396
-0.24568624536
-0.00184353902016
-0.00186246220465
-0.00191553805669
-0.00211088584679
-0.00272696719768
-0.00415437394672
-0.00662553392266
-0.00979682823365
-0.0187577771373
-0.199497750815
-0.00184648918208
-0.00186741895788
-0.00192433450183
-0.00212739291685
-0.00274631456363
-0.00417446751227
-0.00684453115316
-0.0112570751763
-0.0197733042004
-0.125247230552
-0.00184919088964
-0.00186723694544
-0.00191028959965
-0.00206599163874
-0.00259817514182
-0.0040075407072
-0.00688608347509
-0.0120940101928
-0.019968551567
-0.0693692829849
)
;
    }
    sides
    {
        type            calculated;
        value           nonuniform List<scalar> 0();
    }
    bottom
    {
        type            calculated;
        value           nonuniform List<scalar> 0();
    }
    front
    {
        type            calculated;
        value           nonuniform List<scalar> 
164
(
-0.00180219585373
-0.00180427017162
-0.00180535508618
-0.00180325065247
-0.00179114224559
-0.00174177687834
-0.00150476012893
-0.000224204314042
0.00516794653983
0.0151470982908
0.00784797159646
-0.00382294905373
-0.00180340732743
-0.00180557785947
-0.00180698692347
-0.00180602722711
-0.00179785858519
-0.00176403492912
-0.00159778539198
-0.00057628579623
0.0045379298856
0.0152666160723
0.0068092968396
-0.00478539079449
-0.00180915949521
-0.00180964578617
-0.00180629897456
-0.00179013429851
-0.00170318521776
-0.00105212066553
0.00279744541503
0.0117377981516
0.00338527976576
-0.00612840224359
-0.00181172826624
-0.00181397714307
-0.00181608341832
-0.00181869726028
-0.00181020223137
-0.00156542889797
0.000409093419317
0.00548202690233
-0.000983258831398
-0.00682694177969
-0.00181445339415
-0.00181818783679
-0.00182533065821
-0.00184751810891
-0.00192495674711
-0.0020139075261
-0.00164180146997
-0.000854139943718
-0.00835957617059
-0.00817356423831
-0.00181733160892
-0.00182218582842
-0.00183212201379
-0.00186337187249
-0.0019693314351
-0.00226239100658
-0.00285093192434
-0.00494331145029
-0.0127664459176
-0.0226736609854
-0.00182059511224
-0.00182702887087
-0.00184216168534
-0.00189367590489
-0.00206598998753
-0.00247925093415
-0.00314991056635
-0.00547790604732
-0.0211630748988
-0.0754497636378
-0.00182408968916
-0.00183262085506
-0.00185567722926
-0.00194186514322
-0.00222716381726
-0.00284653534128
-0.00359434962363
-0.00607934285931
-0.0270260654044
-0.0760260569358
-0.00182781443779
-0.00183884857184
-0.00187123711829
-0.00199841011606
-0.0024136173968
-0.00327930676556
-0.00425980447324
-0.00630660474981
-0.0223227180079
-0.129766988118
-0.00183135257169
-0.00184486704099
-0.0018852676942
-0.00204229368182
-0.0025520024995
-0.00364508155989
-0.00507961320515
-0.00701692117253
-0.0063103767246
0.0209719435148
-0.00183435371407
-0.00184905035225
-0.00189179813385
-0.00205508782936
-0.00259753410993
-0.00385407718899
-0.00576810133888
-0.00875231215461
-0.0133959770328
-0.00711862288689
-0.00183683862584
-0.00185115034141
-0.00189044809045
-0.00204405713646
-0.00258197968057
-0.00392361242173
-0.00611729696906
-0.00916506471864
-0.0210195761957
-0.191946979743
-0.00183988201759
-0.00185542752372
-0.00189737331322
-0.00206026065534
-0.00262187302865
-0.00401231122565
-0.00633374148468
-0.00883544250417
-0.0167888988396
-0.24568624536
-0.00184353902016
-0.00186246220465
-0.00191553805669
-0.00211088584679
-0.00272696719768
-0.00415437394672
-0.00662553392266
-0.00979682823365
-0.0187577771373
-0.199497750815
-0.00184648918208
-0.00186741895788
-0.00192433450183
-0.00212739291685
-0.00274631456363
-0.00417446751227
-0.00684453115316
-0.0112570751763
-0.0197733042004
-0.125247230552
-0.00184919088964
-0.00186723694544
-0.00191028959965
-0.00206599163874
-0.00259817514182
-0.0040075407072
-0.00688608347509
-0.0120940101928
-0.019968551567
-0.0693692829849
)
;
    }
    atmosphere
    {
        type            calculated;
        value           nonuniform List<scalar> 
16
(
-3.21449404742e-06
6.26095540776e-05
-0.00012283045188
-0.000109093327996
6.12932565269e-38
9.08919058585e-07
-0.0850582595115
-0.0772782653792
-0.493347684512
0.062982405854
-1.85159137981e-08
0.779334926824
0.657183886489
-0.542767702431
0.0318322349149
-0.0697795323269
)
;
    }
    floatingObject
    {
        type            calculated;
        value           nonuniform List<scalar> 0();
    }
    procBoundary5to0
    {
        type            processor;
        value           nonuniform List<scalar> 
12
(
-0.0018010152699
-0.00180303187053
-0.00180385110121
-0.00180084684905
-0.00178586892434
-0.00172534593644
-0.0014374690073
2.20191131638e-06
0.00528820159937
0.014189989544
0.0107010650263
-0.0017298318071
)
;
    }
    procBoundary5to3
    {
        type            processor;
        value           nonuniform List<scalar> 10(-0.00185208243761 -0.00186873569333 -0.00190011701205 -0.0020128038185 -0.00245513118495 -0.00384296194591 -0.00692227714246 -0.0119839266934 -0.0204055597964 -0.117889963004);
    }
    procBoundary5to4
    {
        type            processor;
        value           nonuniform List<scalar> 
18
(
-0.00179993700254
-0.00180112097879
-0.00180482361755
-0.00180723314544
-0.00180723314544
-0.00180911240196
-0.00181113811282
-0.00181335743494
-0.00181579520014
-0.00181838391692
-0.00182103434892
-0.00182356063886
-0.00182586843172
-0.00182799951785
-0.00183022738355
-0.00183251597066
-0.00183476462922
-0.00183646749808
)
;
    }
}


// ************************************************************************* //
