/*--------------------------------*- C++ -*----------------------------------*\
| =========                 |                                                 |
| \\      /  F ield         | OpenFOAM: The Open Source CFD Toolbox           |
|  \\    /   O peration     | Version:  v2012                                 |
|   \\  /    A nd           | Website:  www.openfoam.com                      |
|    \\/     M anipulation  |                                                 |
\*---------------------------------------------------------------------------*/
FoamFile
{
    version     2.0;
    format      ascii;
    class       volScalarField;
    location    "3.4";
    object      epsilon_0;
}
// * * * * * * * * * * * * * * * * * * * * * * * * * * * * * * * * * * * * * //

dimensions      [0 2 -3 0 0 0 0];


internalField   nonuniform List<scalar> 
164
(
0.00194826135133
0.00195658838753
0.00196750336361
0.00198510665249
0.00202173841226
0.00211272076517
0.00236153939089
0.00312432093089
0.00596960540107
0.0180687181948
0.0610923064775
0.169033841557
0.00195187186601
0.00196035929183
0.00197128225156
0.0019884348814
0.00202359067964
0.00211120804878
0.00235082808558
0.00306618850112
0.00568424615833
0.0173763323053
0.0608043852497
0.16915692788
0.0019748478464
0.00199169996565
0.00202563597673
0.00211068974513
0.00234624626112
0.00304446181147
0.00554433747621
0.0167588706102
0.059216431521
0.168314759697
0.00197816225735
0.00199486357673
0.00202778457974
0.00211080543679
0.00234713320581
0.00306445465682
0.00559535468851
0.0163978433864
0.0564683992905
0.166835918078
0.00198118819739
0.00199790911391
0.00203011434959
0.00211148841998
0.00234949025255
0.00309679613436
0.00572408148823
0.0161732907375
0.0531887125629
0.164586841341
0.00198391041184
0.00200093234528
0.00203319439575
0.00211489094036
0.00235619364326
0.0031173089595
0.00573324956447
0.0154768006035
0.0481984672297
0.157910909081
0.00198633068236
0.00200409027351
0.00203801636823
0.00212538140283
0.00238181890107
0.00314944167206
0.00558582675192
0.0139717095941
0.0389788900027
0.0893136391478
0.00198844259078
0.00200751121916
0.00204535164549
0.00214651182272
0.00243821191038
0.00323179240683
0.00543274385292
0.0124331626122
0.0324123900764
0.0687436683827
0.00199024649302
0.00201119025847
0.0020549041882
0.00217644563809
0.00251967370568
0.00336704659787
0.00539128065733
0.0113688897626
0.0314776379874
0.103893604441
0.00199159648626
0.00201469579119
0.00206465221373
0.00220600783141
0.00259918965711
0.00351673002301
0.00548197117876
0.0108270543948
0.030427952615
0.138918663193
0.00199223526178
0.0020170613981
0.00207104472292
0.00222347339016
0.00264625433746
0.00362480365551
0.00563337179566
0.0109173817528
0.0322696612458
0.146848681699
0.0019919835952
0.00201769963123
0.00207240076682
0.00222550745687
0.00265327729537
0.00365760770532
0.00568872744078
0.0107345558421
0.0314064605627
0.141659300425
0.00199105151217
0.0020176818351
0.00207313780636
0.00222648970581
0.00265267615467
0.00365127508531
0.00563172055644
0.0101732169912
0.0285515102516
0.146140333118
0.0019896807984
0.00201794466976
0.00207654785175
0.00223597866656
0.00266685804716
0.00365291649759
0.00559253928375
0.00984237404263
0.0257003166187
0.120554605081
0.00198766033431
0.00201726807591
0.00207743658536
0.00223750413887
0.00266214141831
0.00363280264844
0.00559974167891
0.00988083253664
0.0230349490878
0.0894173661525
0.001984662854
0.00201391358783
0.00206898297769
0.00221108302607
0.00259804259716
0.00354163213664
0.00558898428473
0.0101147994367
0.0220537714174
0.0659300467082
)
;

boundaryField
{
    back
    {
        lowReCorrection 0;
        blending        stepwise;
        n               2;
        type            epsilonWallFunction;
        value           nonuniform List<scalar> 
164
(
0.00194826135133
0.00195658838753
0.00196750336361
0.00198510665249
0.00202173841226
0.00211272076517
0.00236153939089
0.00312432093089
0.00596960540107
0.0180687181948
0.0610923064775
0.169033841557
0.00195187186601
0.00196035929183
0.00197128225156
0.0019884348814
0.00202359067964
0.00211120804878
0.00235082808558
0.00306618850112
0.00568424615833
0.0173763323053
0.0608043852497
0.16915692788
0.0019748478464
0.00199169996565
0.00202563597673
0.00211068974513
0.00234624626112
0.00304446181147
0.00554433747621
0.0167588706102
0.059216431521
0.168314759697
0.00197816225735
0.00199486357673
0.00202778457974
0.00211080543679
0.00234713320581
0.00306445465682
0.00559535468851
0.0163978433864
0.0564683992905
0.166835918078
0.00198118819739
0.00199790911391
0.00203011434959
0.00211148841998
0.00234949025255
0.00309679613436
0.00572408148823
0.0161732907375
0.0531887125629
0.164586841341
0.00198391041184
0.00200093234528
0.00203319439575
0.00211489094036
0.00235619364326
0.0031173089595
0.00573324956447
0.0154768006035
0.0481984672297
0.157910909081
0.00198633068236
0.00200409027351
0.00203801636823
0.00212538140283
0.00238181890107
0.00314944167206
0.00558582675192
0.0139717095941
0.0389788900027
0.0893136391478
0.00198844259078
0.00200751121916
0.00204535164549
0.00214651182272
0.00243821191038
0.00323179240683
0.00543274385292
0.0124331626122
0.0324123900764
0.0687436683827
0.00199024649302
0.00201119025847
0.0020549041882
0.00217644563809
0.00251967370568
0.00336704659787
0.00539128065733
0.0113688897626
0.0314776379874
0.103893604441
0.00199159648626
0.00201469579119
0.00206465221373
0.00220600783141
0.00259918965711
0.00351673002301
0.00548197117876
0.0108270543948
0.030427952615
0.138918663193
0.00199223526178
0.0020170613981
0.00207104472292
0.00222347339016
0.00264625433746
0.00362480365551
0.00563337179566
0.0109173817528
0.0322696612458
0.146848681699
0.0019919835952
0.00201769963123
0.00207240076682
0.00222550745687
0.00265327729537
0.00365760770532
0.00568872744078
0.0107345558421
0.0314064605627
0.141659300425
0.00199105151217
0.0020176818351
0.00207313780636
0.00222648970581
0.00265267615467
0.00365127508531
0.00563172055644
0.0101732169912
0.0285515102516
0.146140333118
0.0019896807984
0.00201794466976
0.00207654785175
0.00223597866656
0.00266685804716
0.00365291649759
0.00559253928375
0.00984237404263
0.0257003166187
0.120554605081
0.00198766033431
0.00201726807591
0.00207743658536
0.00223750413887
0.00266214141831
0.00363280264844
0.00559974167891
0.00988083253664
0.0230349490878
0.0894173661525
0.001984662854
0.00201391358783
0.00206898297769
0.00221108302607
0.00259804259716
0.00354163213664
0.00558898428473
0.0101147994367
0.0220537714174
0.0659300467082
)
;
    }
    sides
    {
        lowReCorrection 0;
        blending        stepwise;
        n               2;
        type            epsilonWallFunction;
        value           nonuniform List<scalar> 0();
    }
    bottom
    {
        lowReCorrection 0;
        blending        stepwise;
        n               2;
        type            epsilonWallFunction;
        value           nonuniform List<scalar> 0();
    }
    front
    {
        lowReCorrection 0;
        blending        stepwise;
        n               2;
        type            epsilonWallFunction;
        value           nonuniform List<scalar> 
164
(
0.00194826135133
0.00195658838753
0.00196750336361
0.00198510665249
0.00202173841226
0.00211272076517
0.00236153939089
0.00312432093089
0.00596960540107
0.0180687181948
0.0610923064775
0.169033841557
0.00195187186601
0.00196035929183
0.00197128225156
0.0019884348814
0.00202359067964
0.00211120804878
0.00235082808558
0.00306618850112
0.00568424615833
0.0173763323053
0.0608043852497
0.16915692788
0.0019748478464
0.00199169996565
0.00202563597673
0.00211068974513
0.00234624626112
0.00304446181147
0.00554433747621
0.0167588706102
0.059216431521
0.168314759697
0.00197816225735
0.00199486357673
0.00202778457974
0.00211080543679
0.00234713320581
0.00306445465682
0.00559535468851
0.0163978433864
0.0564683992905
0.166835918078
0.00198118819739
0.00199790911391
0.00203011434959
0.00211148841998
0.00234949025255
0.00309679613436
0.00572408148823
0.0161732907375
0.0531887125629
0.164586841341
0.00198391041184
0.00200093234528
0.00203319439575
0.00211489094036
0.00235619364326
0.0031173089595
0.00573324956447
0.0154768006035
0.0481984672297
0.157910909081
0.00198633068236
0.00200409027351
0.00203801636823
0.00212538140283
0.00238181890107
0.00314944167206
0.00558582675192
0.0139717095941
0.0389788900027
0.0893136391478
0.00198844259078
0.00200751121916
0.00204535164549
0.00214651182272
0.00243821191038
0.00323179240683
0.00543274385292
0.0124331626122
0.0324123900764
0.0687436683827
0.00199024649302
0.00201119025847
0.0020549041882
0.00217644563809
0.00251967370568
0.00336704659787
0.00539128065733
0.0113688897626
0.0314776379874
0.103893604441
0.00199159648626
0.00201469579119
0.00206465221373
0.00220600783141
0.00259918965711
0.00351673002301
0.00548197117876
0.0108270543948
0.030427952615
0.138918663193
0.00199223526178
0.0020170613981
0.00207104472292
0.00222347339016
0.00264625433746
0.00362480365551
0.00563337179566
0.0109173817528
0.0322696612458
0.146848681699
0.0019919835952
0.00201769963123
0.00207240076682
0.00222550745687
0.00265327729537
0.00365760770532
0.00568872744078
0.0107345558421
0.0314064605627
0.141659300425
0.00199105151217
0.0020176818351
0.00207313780636
0.00222648970581
0.00265267615467
0.00365127508531
0.00563172055644
0.0101732169912
0.0285515102516
0.146140333118
0.0019896807984
0.00201794466976
0.00207654785175
0.00223597866656
0.00266685804716
0.00365291649759
0.00559253928375
0.00984237404263
0.0257003166187
0.120554605081
0.00198766033431
0.00201726807591
0.00207743658536
0.00223750413887
0.00266214141831
0.00363280264844
0.00559974167891
0.00988083253664
0.0230349490878
0.0894173661525
0.001984662854
0.00201391358783
0.00206898297769
0.00221108302607
0.00259804259716
0.00354163213664
0.00558898428473
0.0101147994367
0.0220537714174
0.0659300467082
)
;
    }
    atmosphere
    {
        type            inletOutlet;
        inletValue      uniform 0.1;
        value           nonuniform List<scalar> 
16
(
0.1
0.1
0.1
0.1
0.1
0.1
0.0893136391478
0.0687436683827
0.103893604441
0.1
0.1
0.141659300425
0.146140333118
0.120554605081
0.0894173661525
0.0659300467082
)
;
    }
    floatingObject
    {
        lowReCorrection 0;
        blending        stepwise;
        n               2;
        type            epsilonWallFunction;
        value           nonuniform List<scalar> 0();
    }
    procBoundary5to0
    {
        type            processor;
        value           nonuniform List<scalar> 
12
(
0.00194428998861
0.00195252124172
0.00196351414144
0.0019816916518
0.00201998533078
0.00211470951997
0.00237332123853
0.00318067755038
0.00621111320343
0.0184006050574
0.0596584820592
0.167582900031
)
;
    }
    procBoundary5to3
    {
        type            processor;
        value           nonuniform List<scalar> 10(0.00198122910746 0.00200980369713 0.00205808381307 0.00217700113927 0.00251655220913 0.00342915891129 0.00557703255756 0.0104585598227 0.0245588982802 0.0873645864685);
    }
    procBoundary5to4
    {
        type            processor;
        value           nonuniform List<scalar> 
18
(
0.00194122094333
0.00194464059399
0.00195509740771
0.00196381759282
0.00196381759282
0.00196692143882
0.00196963370474
0.00197192053857
0.0019737528946
0.00197510482273
0.00197594358995
0.00197619228217
0.00197575765878
0.0019745704718
0.00197265202766
0.00197006641287
0.00196678894471
0.00196281535165
)
;
    }
}


// ************************************************************************* //
