/*--------------------------------*- C++ -*----------------------------------*\
| =========                 |                                                 |
| \\      /  F ield         | OpenFOAM: The Open Source CFD Toolbox           |
|  \\    /   O peration     | Version:  v2012                                 |
|   \\  /    A nd           | Website:  www.openfoam.com                      |
|    \\/     M anipulation  |                                                 |
\*---------------------------------------------------------------------------*/
FoamFile
{
    version     2.0;
    format      ascii;
    class       volScalarField;
    location    "3.4";
    object      k;
}
// * * * * * * * * * * * * * * * * * * * * * * * * * * * * * * * * * * * * * //

dimensions      [0 2 -2 0 0 0 0];


internalField   nonuniform List<scalar> 
164
(
0.00381481500297
0.00382581201515
0.00384027283751
0.00386370298971
0.00391257021322
0.00403353198126
0.00436043625677
0.00532429084821
0.00843838536445
0.0178388312231
0.0390331533534
0.0761426767377
0.00381956692795
0.00383076555919
0.00384521229344
0.00386797939386
0.00391470200243
0.00403056994457
0.00434288240131
0.00524210834438
0.00814507367277
0.0173963553912
0.0388580907886
0.0761337910275
0.00384984515713
0.00387213586725
0.00391701530277
0.00402873562612
0.00433246466487
0.00519606452281
0.00793679210123
0.0168418708609
0.0380331940771
0.0758221757725
0.0038541249466
0.00387612595089
0.00391939804464
0.00402761983693
0.00432885490294
0.00519642574696
0.00788097099527
0.0163378374321
0.0366639847695
0.0753506113207
0.00385801405101
0.00387996961404
0.00392209983417
0.00402740615398
0.00432743291264
0.00521422266627
0.00791102519432
0.01591677129
0.034891949921
0.0745694197655
0.0038614901919
0.00388378332693
0.00392583111618
0.00403104292783
0.00433347178449
0.00522713178714
0.00787255018536
0.0152882382325
0.0324234280504
0.0691721966849
0.00386454734066
0.00388773470648
0.00393171603943
0.00404329670494
0.00436121690167
0.00525413765033
0.0077184882665
0.0142311732058
0.0277304079531
0.0465105300101
0.00386718371641
0.00389199682585
0.00394073728711
0.00406847814023
0.00442413749692
0.00533114717135
0.00755501188971
0.0131233923499
0.0241688245902
0.0385640917022
0.00386939963179
0.00389656722253
0.00395255832319
0.00410451323617
0.00451611624921
0.00546338942484
0.00748682193484
0.0123389579094
0.023899055064
0.0494848346903
0.0038710202392
0.00390091345175
0.00396468055859
0.00414044921483
0.004606766233
0.00561233768197
0.00753699276907
0.0119062266772
0.0240552436943
0.0678867141516
0.00387172124884
0.00390383468786
0.0039727301226
0.00416216832182
0.0046615410517
0.00572083970237
0.00764920684849
0.0118988470337
0.0247134240019
0.0692119310688
0.0038712661926
0.00390457113819
0.00397454542519
0.00416523081027
0.0046706625402
0.00575329981962
0.00768570698675
0.0117421441462
0.0239157639124
0.0595368038783
0.00386988777231
0.00390434994389
0.00397519454078
0.00416577376048
0.00466822677134
0.00574266705825
0.00762323506813
0.0113297288081
0.0225699877695
0.058545767564
0.00386790348162
0.00390437603981
0.00397883605404
0.00417563833788
0.00468069535043
0.00573833943411
0.00757409597552
0.0110339659104
0.0208978865626
0.0523005424724
0.00386508310164
0.00390325218986
0.0039795839963
0.00417683214351
0.0046741742884
0.00571577744246
0.00757156012803
0.0110014318791
0.0193462612373
0.0443952278361
0.00386100368238
0.00389883171784
0.00396915853854
0.00414581509267
0.00460337198776
0.00562402045771
0.00755985499519
0.0111465034686
0.0187554030501
0.0377973067781
)
;

boundaryField
{
    back
    {
        type            kqRWallFunction;
        value           nonuniform List<scalar> 
164
(
0.00381481500297
0.00382581201515
0.00384027283751
0.00386370298971
0.00391257021322
0.00403353198126
0.00436043625677
0.00532429084821
0.00843838536445
0.0178388312231
0.0390331533534
0.0761426767377
0.00381956692795
0.00383076555919
0.00384521229344
0.00386797939386
0.00391470200243
0.00403056994457
0.00434288240131
0.00524210834438
0.00814507367277
0.0173963553912
0.0388580907886
0.0761337910275
0.00384984515713
0.00387213586725
0.00391701530277
0.00402873562612
0.00433246466487
0.00519606452281
0.00793679210123
0.0168418708609
0.0380331940771
0.0758221757725
0.0038541249466
0.00387612595089
0.00391939804464
0.00402761983693
0.00432885490294
0.00519642574696
0.00788097099527
0.0163378374321
0.0366639847695
0.0753506113207
0.00385801405101
0.00387996961404
0.00392209983417
0.00402740615398
0.00432743291264
0.00521422266627
0.00791102519432
0.01591677129
0.034891949921
0.0745694197655
0.0038614901919
0.00388378332693
0.00392583111618
0.00403104292783
0.00433347178449
0.00522713178714
0.00787255018536
0.0152882382325
0.0324234280504
0.0691721966849
0.00386454734066
0.00388773470648
0.00393171603943
0.00404329670494
0.00436121690167
0.00525413765033
0.0077184882665
0.0142311732058
0.0277304079531
0.0465105300101
0.00386718371641
0.00389199682585
0.00394073728711
0.00406847814023
0.00442413749692
0.00533114717135
0.00755501188971
0.0131233923499
0.0241688245902
0.0385640917022
0.00386939963179
0.00389656722253
0.00395255832319
0.00410451323617
0.00451611624921
0.00546338942484
0.00748682193484
0.0123389579094
0.023899055064
0.0494848346903
0.0038710202392
0.00390091345175
0.00396468055859
0.00414044921483
0.004606766233
0.00561233768197
0.00753699276907
0.0119062266772
0.0240552436943
0.0678867141516
0.00387172124884
0.00390383468786
0.0039727301226
0.00416216832182
0.0046615410517
0.00572083970237
0.00764920684849
0.0118988470337
0.0247134240019
0.0692119310688
0.0038712661926
0.00390457113819
0.00397454542519
0.00416523081027
0.0046706625402
0.00575329981962
0.00768570698675
0.0117421441462
0.0239157639124
0.0595368038783
0.00386988777231
0.00390434994389
0.00397519454078
0.00416577376048
0.00466822677134
0.00574266705825
0.00762323506813
0.0113297288081
0.0225699877695
0.058545767564
0.00386790348162
0.00390437603981
0.00397883605404
0.00417563833788
0.00468069535043
0.00573833943411
0.00757409597552
0.0110339659104
0.0208978865626
0.0523005424724
0.00386508310164
0.00390325218986
0.0039795839963
0.00417683214351
0.0046741742884
0.00571577744246
0.00757156012803
0.0110014318791
0.0193462612373
0.0443952278361
0.00386100368238
0.00389883171784
0.00396915853854
0.00414581509267
0.00460337198776
0.00562402045771
0.00755985499519
0.0111465034686
0.0187554030501
0.0377973067781
)
;
    }
    sides
    {
        type            kqRWallFunction;
        value           nonuniform List<scalar> 0();
    }
    bottom
    {
        type            kqRWallFunction;
        value           nonuniform List<scalar> 0();
    }
    front
    {
        type            kqRWallFunction;
        value           nonuniform List<scalar> 
164
(
0.00381481500297
0.00382581201515
0.00384027283751
0.00386370298971
0.00391257021322
0.00403353198126
0.00436043625677
0.00532429084821
0.00843838536445
0.0178388312231
0.0390331533534
0.0761426767377
0.00381956692795
0.00383076555919
0.00384521229344
0.00386797939386
0.00391470200243
0.00403056994457
0.00434288240131
0.00524210834438
0.00814507367277
0.0173963553912
0.0388580907886
0.0761337910275
0.00384984515713
0.00387213586725
0.00391701530277
0.00402873562612
0.00433246466487
0.00519606452281
0.00793679210123
0.0168418708609
0.0380331940771
0.0758221757725
0.0038541249466
0.00387612595089
0.00391939804464
0.00402761983693
0.00432885490294
0.00519642574696
0.00788097099527
0.0163378374321
0.0366639847695
0.0753506113207
0.00385801405101
0.00387996961404
0.00392209983417
0.00402740615398
0.00432743291264
0.00521422266627
0.00791102519432
0.01591677129
0.034891949921
0.0745694197655
0.0038614901919
0.00388378332693
0.00392583111618
0.00403104292783
0.00433347178449
0.00522713178714
0.00787255018536
0.0152882382325
0.0324234280504
0.0691721966849
0.00386454734066
0.00388773470648
0.00393171603943
0.00404329670494
0.00436121690167
0.00525413765033
0.0077184882665
0.0142311732058
0.0277304079531
0.0465105300101
0.00386718371641
0.00389199682585
0.00394073728711
0.00406847814023
0.00442413749692
0.00533114717135
0.00755501188971
0.0131233923499
0.0241688245902
0.0385640917022
0.00386939963179
0.00389656722253
0.00395255832319
0.00410451323617
0.00451611624921
0.00546338942484
0.00748682193484
0.0123389579094
0.023899055064
0.0494848346903
0.0038710202392
0.00390091345175
0.00396468055859
0.00414044921483
0.004606766233
0.00561233768197
0.00753699276907
0.0119062266772
0.0240552436943
0.0678867141516
0.00387172124884
0.00390383468786
0.0039727301226
0.00416216832182
0.0046615410517
0.00572083970237
0.00764920684849
0.0118988470337
0.0247134240019
0.0692119310688
0.0038712661926
0.00390457113819
0.00397454542519
0.00416523081027
0.0046706625402
0.00575329981962
0.00768570698675
0.0117421441462
0.0239157639124
0.0595368038783
0.00386988777231
0.00390434994389
0.00397519454078
0.00416577376048
0.00466822677134
0.00574266705825
0.00762323506813
0.0113297288081
0.0225699877695
0.058545767564
0.00386790348162
0.00390437603981
0.00397883605404
0.00417563833788
0.00468069535043
0.00573833943411
0.00757409597552
0.0110339659104
0.0208978865626
0.0523005424724
0.00386508310164
0.00390325218986
0.0039795839963
0.00417683214351
0.0046741742884
0.00571577744246
0.00757156012803
0.0110014318791
0.0193462612373
0.0443952278361
0.00386100368238
0.00389883171784
0.00396915853854
0.00414581509267
0.00460337198776
0.00562402045771
0.00755985499519
0.0111465034686
0.0187554030501
0.0377973067781
)
;
    }
    atmosphere
    {
        type            inletOutlet;
        inletValue      uniform 0.1;
        value           nonuniform List<scalar> 
16
(
0.1
0.1
0.1
0.1
0.1
0.0691721966849
0.0465105300101
0.0385640917022
0.0494848346903
0.1
0.1
0.0595368038783
0.058545767564
0.0523005424724
0.0443952278361
0.0377973067781
)
;
    }
    floatingObject
    {
        type            kqRWallFunction;
        value           nonuniform List<scalar> 0();
    }
    procBoundary5to0
    {
        type            processor;
        value           nonuniform List<scalar> 
12
(
0.00380957606509
0.00382045534401
0.00383504124896
0.00385928793546
0.00391049987018
0.00403685194699
0.00437818151315
0.00539853460392
0.00866518094904
0.0180118697339
0.038558681893
0.0758013734011
)
;
    }
    procBoundary5to3
    {
        type            processor;
        value           nonuniform List<scalar> 10(0.00385632436495 0.00389333373546 0.00395532768642 0.00410447003459 0.00451044114858 0.00550779311529 0.00754716664931 0.0114142914857 0.0202051745725 0.0437456803591);
    }
    procBoundary5to4
    {
        type            processor;
        value           nonuniform List<scalar> 
18
(
0.00380552669193
0.00381003180489
0.00382379619335
0.00383528764956
0.00383528764956
0.00383932561801
0.00384283494328
0.0038457695185
0.00384809001101
0.00384976518426
0.00385075558599
0.0038509674044
0.00385028145749
0.00384860469623
0.00384595403881
0.0038424150914
0.00383796531205
0.00383260398541
)
;
    }
}


// ************************************************************************* //
