/*--------------------------------*- C++ -*----------------------------------*\
| =========                 |                                                 |
| \\      /  F ield         | OpenFOAM: The Open Source CFD Toolbox           |
|  \\    /   O peration     | Version:  v2012                                 |
|   \\  /    A nd           | Website:  www.openfoam.com                      |
|    \\/     M anipulation  |                                                 |
\*---------------------------------------------------------------------------*/
FoamFile
{
    version     2.0;
    format      ascii;
    class       volScalarField;
    location    "3.4";
    object      p_rgh;
}
// * * * * * * * * * * * * * * * * * * * * * * * * * * * * * * * * * * * * * //

dimensions      [1 -1 -2 0 0 0 0];


internalField   nonuniform List<scalar> 
164
(
8611.37778038
8607.50513837
8602.97362324
8597.69935352
8591.58560887
8584.5145253
8576.32869326
8566.67841302
8518.99114678
4211.8874439
0.00834149132615
0.0209914321988
8616.64678043
8612.79880889
8608.26446653
8602.94332505
8596.71835172
8589.44127859
8580.90999597
8570.66949619
8522.03252209
4219.99383577
0.0164522869468
0.0210842372739
8614.32810024
8609.07311869
8602.87404696
8595.57379063
8586.9886633
8576.7191129
8529.58787958
4274.71108552
0.0267642681436
0.0183176184417
8621.19096628
8616.1276052
8610.10186177
8602.95483616
8594.56677191
8585.01888505
8543.33125817
4386.02492599
0.0377030841157
0.0112044696431
8628.85914003
8624.1222175
8618.42172164
8611.54912123
8603.22000665
8595.21017743
8560.63847174
4544.88772316
0.0415339994293
0.000434774136117
8637.31817867
8633.05636533
8627.87260653
8621.57806578
8613.99437199
8605.12697636
8584.75550906
4744.01228766
0.153118357798
-0.00409844599664
8646.52650898
8642.88917366
8638.39253922
8632.84648145
8625.99883627
8617.6063611
8606.60065997
4996.31284297
8.90908872682
-0.0124162572027
8656.4220704
8653.55597614
8649.92859638
8645.33959342
8639.55984451
8632.35990443
8623.16705444
5287.74515983
50.3217671085
-0.00266621305481
8666.90369005
8664.96008098
8662.37035928
8658.97512742
8654.54427589
8648.81593046
8641.2669541
5546.19371147
144.058374625
0.00737774816452
8677.84486568
8676.94980274
8675.590649
8673.60838725
8670.78069591
8666.80426736
8661.07676764
5828.11400285
247.730965518
-0.0483061039839
8689.09926845
8689.37016834
8689.38751903
8689.01985865
8688.06831471
8686.21833421
8682.87671438
6138.70377989
373.650530052
-0.083814185319
8700.47141701
8701.99375348
8703.50568312
8704.920689
8706.10080591
8706.80250882
8706.50742993
6474.7363718
531.034286389
0.261129622949
8711.74323885
8714.55673358
8717.6238707
8720.92472634
8724.43519712
8728.11620126
8731.68282702
6832.89722865
725.541605164
-0.0840177136255
8722.66536038
8726.75886422
8731.36670799
8736.55475641
8742.45250201
8749.32374994
8757.41972586
7201.25935117
994.346451473
0.103146384495
8733.02062505
8738.31336361
8744.34460358
8751.23357686
8759.34925665
8769.13388949
8781.39822788
7526.04501141
1338.58688581
0.306755253237
8742.59798104
8748.92783677
8756.16742426
8764.53416434
8774.36590118
8786.24922741
8801.11082566
7728.08505672
1651.16233121
0.249746730339
)
;

boundaryField
{
    back
    {
        type            fixedFluxPressure;
        gradient        uniform 0;
        value           nonuniform List<scalar> 
164
(
8611.37778038
8607.50513837
8602.97362324
8597.69935352
8591.58560887
8584.5145253
8576.32869326
8566.67841302
8518.99114678
4211.8874439
0.00834149132615
0.0209914321988
8616.64678043
8612.79880889
8608.26446653
8602.94332505
8596.71835172
8589.44127859
8580.90999597
8570.66949619
8522.03252209
4219.99383577
0.0164522869468
0.0210842372739
8614.32810024
8609.07311869
8602.87404696
8595.57379063
8586.9886633
8576.7191129
8529.58787958
4274.71108552
0.0267642681436
0.0183176184417
8621.19096628
8616.1276052
8610.10186177
8602.95483616
8594.56677191
8585.01888505
8543.33125817
4386.02492599
0.0377030841157
0.0112044696431
8628.85914003
8624.1222175
8618.42172164
8611.54912123
8603.22000665
8595.21017743
8560.63847174
4544.88772316
0.0415339994293
0.000434774136117
8637.31817867
8633.05636533
8627.87260653
8621.57806578
8613.99437199
8605.12697636
8584.75550906
4744.01228766
0.153118357798
-0.00409844599664
8646.52650898
8642.88917366
8638.39253922
8632.84648145
8625.99883627
8617.6063611
8606.60065997
4996.31284297
8.90908872682
-0.0124162572027
8656.4220704
8653.55597614
8649.92859638
8645.33959342
8639.55984451
8632.35990443
8623.16705444
5287.74515983
50.3217671085
-0.00266621305481
8666.90369005
8664.96008098
8662.37035928
8658.97512742
8654.54427589
8648.81593046
8641.2669541
5546.19371147
144.058374625
0.00737774816452
8677.84486568
8676.94980274
8675.590649
8673.60838725
8670.78069591
8666.80426736
8661.07676764
5828.11400285
247.730965518
-0.0483061039839
8689.09926845
8689.37016834
8689.38751903
8689.01985865
8688.06831471
8686.21833421
8682.87671438
6138.70377989
373.650530052
-0.083814185319
8700.47141701
8701.99375348
8703.50568312
8704.920689
8706.10080591
8706.80250882
8706.50742993
6474.7363718
531.034286389
0.261129622949
8711.74323885
8714.55673358
8717.6238707
8720.92472634
8724.43519712
8728.11620126
8731.68282702
6832.89722865
725.541605164
-0.0840177136255
8722.66536038
8726.75886422
8731.36670799
8736.55475641
8742.45250201
8749.32374994
8757.41972586
7201.25935117
994.346451473
0.103146384495
8733.02062505
8738.31336361
8744.34460358
8751.23357686
8759.34925665
8769.13388949
8781.39822788
7526.04501141
1338.58688581
0.306755253237
8742.59798104
8748.92783677
8756.16742426
8764.53416434
8774.36590118
8786.24922741
8801.11082566
7728.08505672
1651.16233121
0.249746730339
)
;
    }
    sides
    {
        type            fixedFluxPressure;
        gradient        nonuniform List<scalar> 0();
        value           nonuniform List<scalar> 0();
    }
    bottom
    {
        type            fixedFluxPressure;
        gradient        nonuniform List<scalar> 0();
        value           nonuniform List<scalar> 0();
    }
    front
    {
        type            fixedFluxPressure;
        gradient        uniform 0;
        value           nonuniform List<scalar> 
164
(
8611.37778038
8607.50513837
8602.97362324
8597.69935352
8591.58560887
8584.5145253
8576.32869326
8566.67841302
8518.99114678
4211.8874439
0.00834149132615
0.0209914321988
8616.64678043
8612.79880889
8608.26446653
8602.94332505
8596.71835172
8589.44127859
8580.90999597
8570.66949619
8522.03252209
4219.99383577
0.0164522869468
0.0210842372739
8614.32810024
8609.07311869
8602.87404696
8595.57379063
8586.9886633
8576.7191129
8529.58787958
4274.71108552
0.0267642681436
0.0183176184417
8621.19096628
8616.1276052
8610.10186177
8602.95483616
8594.56677191
8585.01888505
8543.33125817
4386.02492599
0.0377030841157
0.0112044696431
8628.85914003
8624.1222175
8618.42172164
8611.54912123
8603.22000665
8595.21017743
8560.63847174
4544.88772316
0.0415339994293
0.000434774136117
8637.31817867
8633.05636533
8627.87260653
8621.57806578
8613.99437199
8605.12697636
8584.75550906
4744.01228766
0.153118357798
-0.00409844599664
8646.52650898
8642.88917366
8638.39253922
8632.84648145
8625.99883627
8617.6063611
8606.60065997
4996.31284297
8.90908872682
-0.0124162572027
8656.4220704
8653.55597614
8649.92859638
8645.33959342
8639.55984451
8632.35990443
8623.16705444
5287.74515983
50.3217671085
-0.00266621305481
8666.90369005
8664.96008098
8662.37035928
8658.97512742
8654.54427589
8648.81593046
8641.2669541
5546.19371147
144.058374625
0.00737774816452
8677.84486568
8676.94980274
8675.590649
8673.60838725
8670.78069591
8666.80426736
8661.07676764
5828.11400285
247.730965518
-0.0483061039839
8689.09926845
8689.37016834
8689.38751903
8689.01985865
8688.06831471
8686.21833421
8682.87671438
6138.70377989
373.650530052
-0.083814185319
8700.47141701
8701.99375348
8703.50568312
8704.920689
8706.10080591
8706.80250882
8706.50742993
6474.7363718
531.034286389
0.261129622949
8711.74323885
8714.55673358
8717.6238707
8720.92472634
8724.43519712
8728.11620126
8731.68282702
6832.89722865
725.541605164
-0.0840177136255
8722.66536038
8726.75886422
8731.36670799
8736.55475641
8742.45250201
8749.32374994
8757.41972586
7201.25935117
994.346451473
0.103146384495
8733.02062505
8738.31336361
8744.34460358
8751.23357686
8759.34925665
8769.13388949
8781.39822788
7526.04501141
1338.58688581
0.306755253237
8742.59798104
8748.92783677
8756.16742426
8764.53416434
8774.36590118
8786.24922741
8801.11082566
7728.08505672
1651.16233121
0.249746730339
)
;
    }
    atmosphere
    {
        type            totalPressure;
        rho             rho;
        psi             none;
        gamma           1;
        p0              uniform 0;
        value           nonuniform List<scalar> 
16
(
-0.00207304517482
-0.00182332024478
-0.00117898248054
-0.000624194934151
-0.000132638620526
0
0
0
0
-1.12858312206e-06
0
0
-9.85943547472e-06
-0.00360845887802
0
0
)
;
    }
    floatingObject
    {
        type            fixedFluxPressure;
        gradient        nonuniform List<scalar> 0();
        value           nonuniform List<scalar> 0();
    }
    procBoundary5to0
    {
        type            processor;
        value           nonuniform List<scalar> 
12
(
8606.69214872
8602.86474131
8598.41701955
8593.28279109
8587.38801875
8580.65251231
8572.98417726
8564.15090763
8518.54823631
4222.85786355
-0.000679259239653
0.0188734907956
)
;
    }
    procBoundary5to3
    {
        type            processor;
        value           nonuniform List<scalar> 10(8751.25917993 8758.51271096 8766.7629691 8776.20388587 8787.14285697 8800.12158158 8815.88151436 7897.92423729 1760.4330082 0.0110306690311);
    }
    procBoundary5to4
    {
        type            processor;
        value           nonuniform List<scalar> 
18
(
8614.65755959
8619.88392541
8622.51488857
8618.77146306
8618.77146306
8625.43828237
8632.7958581
8640.82196658
8649.47336773
8658.68563029
8668.36993304
8678.41128698
8688.66874515
8698.98579333
8709.17268804
8719.03489268
8728.38194236
8737.05231439
)
;
    }
}


// ************************************************************************* //
