/*--------------------------------*- C++ -*----------------------------------*\
| =========                 |                                                 |
| \\      /  F ield         | OpenFOAM: The Open Source CFD Toolbox           |
|  \\    /   O peration     | Version:  v2012                                 |
|   \\  /    A nd           | Website:  www.openfoam.com                      |
|    \\/     M anipulation  |                                                 |
\*---------------------------------------------------------------------------*/
FoamFile
{
    version     2.0;
    format      ascii;
    class       surfaceScalarField;
    location    "1.3";
    object      alphaPhi0.water;
}
// * * * * * * * * * * * * * * * * * * * * * * * * * * * * * * * * * * * * * //

dimensions      [0 3 -1 0 0 0 0];
oriented        oriented;


internalField   nonuniform List<scalar> 
300
(
-2.26906960138e-05
0.000539997846354
-2.58083831766e-05
0.000550644069677
-2.87655781909e-05
0.000561537920859
-3.12805809682e-05
0.000572220933476
-3.29077001743e-05
0.000582135438498
-3.32315451197e-05
0.000590760359041
-3.11802618597e-05
0.000595394616887
-2.38548039058e-05
0.000596946191663
-1.61000741019e-05
0.000585887368563
-9.65528610738e-07
0.00053438964251
-2.05003670947e-07
5.84974052584e-05
8.13165192811e-09
-1.1873100641e-05
-1.46869777767e-05
-1.78041306714e-05
0.00056465513917
-2.10681282677e-05
0.000575484956948
-2.41526398725e-05
0.000585219955576
-2.65508479618e-05
0.000593158571061
-2.83722869479e-05
0.000597216064372
-2.52711996578e-05
0.000593847030079
-2.10256807762e-05
0.000581641850085
-9.67517213466e-06
0.000538376017867
4.73122722912e-08
7.52157070738e-05
6.85430900436e-10
-7.16235343523e-06
0.000568125869347
-1.15094817136e-05
0.000579832159712
-1.66891197225e-05
0.000590399638549
-2.23360294629e-05
0.000598805513826
-2.86066023826e-05
0.000603486696403
-3.37087911807e-05
0.000598952501807
-3.77960598653e-05
0.00058572910215
-3.02585316187e-05
0.000550724706308
1.64780134388e-07
9.77169819764e-05
3.5400875157e-09
4.42431775379e-06
0.000571909609339
-9.58885430134e-07
0.000585215509599
-8.43879070764e-06
0.00059787966313
-1.79095724337e-05
0.000608276400889
-3.03888031068e-05
0.000615966062693
-4.54734361939e-05
0.000614039103216
-6.29480794043e-05
0.000603203450051
-6.26457375253e-05
0.000577490484855
4.11579987125e-08
0.000128331165317
6.89992668271e-10
1.76143254043e-05
0.000575715873421
1.14150036338e-05
0.000591415019853
2.168585727e-06
0.000607126252772
-1.14431141571e-05
0.000621888261781
-2.99189598677e-05
0.000634442097419
-5.5690559313e-05
0.000639810224656
-8.99994160518e-05
0.000637512605392
-0.000105874623714
0.000628146457617
1.31141257413e-09
0.00016707395989
-1.02862272184e-09
3.31666089602e-05
0.00057904452376
2.69100309368e-05
0.000597671794291
1.66214341112e-05
0.000617415048787
3.96917754108e-07
0.000638112977166
-2.48548710962e-05
0.000659694113794
-6.2681244734e-05
0.000677635244294
-0.000123294537348
0.000698126018705
-0.000167321143862
0.000720865858675
-6.89056217948e-08
0.000227535720727
-9.85234940028e-10
5.16614349528e-05
0.000581170064182
4.64136944173e-05
0.000602919712995
3.69260218012e-05
0.000626902935151
2.12776021539e-05
0.000653761635878
-3.88468022767e-06
0.000684856648987
-4.63323322267e-05
0.00072008788891
-0.000113137573616
0.00076493118971
-0.000173318527465
0.000830645588858
-1.43313949361e-08
0.000299964665197
-1.6506822902e-08
7.32960294133e-05
0.000581378744728
7.020648544e-05
0.000606009406032
6.34484779424e-05
0.000633661177397
5.17156616722e-05
0.000665494751917
3.24860075389e-05
0.000704086636153
-1.01328853852e-06
0.000753587834209
-6.07084058102e-05
0.000824626205294
-0.000127524856927
0.000933044236538
-1.43524710298e-07
0.000398779091109
-1.59997573228e-07
9.78767399117e-05
0.000579074908596
9.77768064786e-05
0.00060610946941
9.51215167133e-05
0.000636316750869
9.00407261969e-05
0.000670575943812
8.30514158321e-05
0.000711076410576
7.42127061681e-05
0.000762427037132
6.54259333059e-05
0.000833413355353
0.000104960143052
0.000893510009962
-4.84728694869e-07
0.000665458655484
-6.44724106582e-07
0.000124929587354
0.000573960177451
0.000128070702052
0.000602968495897
0.000129613881477
0.000634773948368
0.00013104468925
0.000669145691401
0.000136497490785
0.000705624258124
0.000159991697457
0.000738933468058
0.00018018016722
0.000813226800808
0.000343076090745
0.000730614085664
-3.49947615663e-06
0.00111687648765
-4.14420027619e-06
0.00015399119451
0.000565988589958
0.000160049249722
0.000596910635472
0.000164556500808
0.000630267213879
0.000168909536675
0.000664793409886
0.000178806834921
0.000695727827505
0.00020136418488
0.000716376947649
0.000297551231689
0.0007170405535
0.000364741632619
0.000663423682584
0.00163106430192
-0.000126287730292
3.36054236692e-07
0.000184939197186
0.000555186631369
0.000193479928334
0.000588370193219
0.000199476012628
0.000624271813477
0.000201164739513
0.000663105644417
0.000188519646464
0.00070837399258
0.000130448624497
0.000774448967311
-1.07672599611e-05
0.000858269013998
-0.000345404510094
0.0010145217129
-3.36054210688e-07
-9.31959088821e-05
-9.11966716225e-16
0.000218108953147
0.00054139919551
0.000229237629263
0.000577241924372
0.000237288059192
0.000616222224454
0.000241067672244
0.000659327155148
0.000239524946399
0.000709917926374
0.000241962893008
0.0007720120892
0.000291098751343
0.00080913787486
0.000482414503236
0.000823205960858
-3.42494819434e-15
0.000543178462539
3.81297281307e-16
0.000253919938962
0.00052431931783
0.000268044085412
0.000563118361078
0.000279606453328
0.00060466088878
0.000291030087882
0.000647904812511
0.000309398855915
0.000691550466384
0.000348949661161
0.000732462346608
0.000371313440625
0.00078677474931
0.000483749658026
0.000710769743287
-1.64246017672e-16
0.00116850852152
2.14063389237e-16
0.000292738931282
0.000503604963305
0.000309814947354
0.000546043234262
0.000323570782005
0.000590906339924
0.000337110888916
0.000634366201199
0.000359899885236
0.000668763000621
0.000404228952562
0.000688133907381
0.000513637144977
0.00067736701728
0.000658217611726
0.000566189382925
0.00239738727853
-0.000468110495462
-1.12349559265e-11
0.000335168852135
0.000355046112342
0.000369055073842
0.00037390296645
0.000353761010945
0.000280306578616
0.00013403910476
-9.72419411895e-05
-2.37713473771e-14
)
;

boundaryField
{
    back
    {
        type            calculated;
        value           uniform 0;
    }
    sides
    {
        type            calculated;
        value           nonuniform List<scalar> 0();
    }
    bottom
    {
        type            calculated;
        value           nonuniform List<scalar> 0();
    }
    front
    {
        type            calculated;
        value           uniform 0;
    }
    atmosphere
    {
        type            calculated;
        value           nonuniform List<scalar> 
16
(
2.21424603442e-10
-4.13939536339e-09
-7.32011325065e-11
-8.76138975315e-12
1.73819453403e-12
-5.11051679994e-08
0
-6.03269000822e-19
-7.75083890544e-21
-4.10962867167e-19
0.00163698361639
0
7.08585063486e-25
3.15845920465e-24
0.00245903022334
0
)
;
    }
    floatingObject
    {
        type            calculated;
        value           nonuniform List<scalar> 0();
    }
    procBoundary5to0
    {
        type            processor;
        value           nonuniform List<scalar> 
12
(
-0.000536877200463
-0.000547526259848
-0.00055858059719
-0.000569705794604
-0.000580508175003
-0.000590436359904
-0.00059744577346
-0.000604269809248
-0.000593642092991
-0.000533912014849
-4.61673107586e-05
4.49458291855e-10
)
;
    }
    procBoundary5to3
    {
        type            processor;
        value           nonuniform List<scalar> 10(0.000478809259071 0.000526167052353 0.000576898795598 0.000629519681934 0.000688905807011 0.000761589443516 0.000823635067042 0.000809201954855 -0.000298133187237 1.72898220847e-13);
    }
    procBoundary5to4
    {
        type            processor;
        value           nonuniform List<scalar> 
18
(
1.95701935273e-05
9.33783646821e-06
0.000542533219174
0.000553458040604
3.69187759928e-06
-8.20773480082e-06
-2.14202447359e-05
-3.64949396844e-05
-5.37867362454e-05
-7.35045952644e-05
-9.55729266467e-05
-0.000119814989828
-0.000146019791521
-0.000174137400901
-0.000204321594363
-0.000236839992103
-0.000272024230541
-0.000310372547313
)
;
    }
}


// ************************************************************************* //
