/*--------------------------------*- C++ -*----------------------------------*\
| =========                 |                                                 |
| \\      /  F ield         | OpenFOAM: The Open Source CFD Toolbox           |
|  \\    /   O peration     | Version:  v2012                                 |
|   \\  /    A nd           | Website:  www.openfoam.com                      |
|    \\/     M anipulation  |                                                 |
\*---------------------------------------------------------------------------*/
FoamFile
{
    version     2.0;
    format      ascii;
    class       volVectorField;
    location    "1.3";
    object      ddtCorrDdt0(U);
}
// * * * * * * * * * * * * * * * * * * * * * * * * * * * * * * * * * * * * * //

dimensions      [0 1 -2 0 0 0 0];


internalField   nonuniform List<vector> 
164
(
(-0.277771967746 -0.0211814291488 -5.2825454006e-23)
(-0.289598474382 -0.0258065923708 -1.1324392332e-23)
(-0.303513637167 -0.0314002222829 -1.81099900289e-22)
(-0.319915183504 -0.0382348811874 1.10261000674e-22)
(-0.339437862143 -0.0467027780345 1.33874299197e-22)
(-0.363096358815 -0.057093037028 -2.75303585099e-22)
(-0.392220432521 -0.0690276940509 -8.5113684578e-22)
(-0.430299930496 -0.0799241485358 -1.14304191713e-20)
(-0.464480439324 -0.110260240038 -1.49610835443e-20)
(-0.495111381633 -0.0825826168727 -4.98253855265e-21)
(-0.744258140472 -0.149232896052 4.98972354715e-21)
(-0.701504694714 -0.284620142319 -1.91865093973e-21)
(-0.272728088048 -0.0317256375097 -2.08808518843e-24)
(-0.283573976389 -0.0381920948755 -6.90529640953e-23)
(-0.296261749591 -0.0459268981363 -7.56375931561e-23)
(-0.310970830605 -0.0553996953299 4.53888669224e-24)
(-0.328360367306 -0.0672653287858 1.16736627106e-22)
(-0.349187461074 -0.0820822207651 2.2921797944e-21)
(-0.376725247462 -0.0997785957204 6.60216322897e-22)
(-0.41026060701 -0.114230192783 6.66370985928e-22)
(-0.45025209553 -0.161368818773 1.04545697395e-20)
(-0.466218816998 -0.150393105513 -6.41489258631e-21)
(-0.650513582334 -0.239093376428 -1.33403063383e-20)
(-0.728754404819 -0.382138399185 -1.2425401756e-20)
(-0.286776156016 -0.0587618811537 -2.133645829e-23)
(-0.299473902322 -0.070272864726 1.17789025367e-22)
(-0.313935864276 -0.0847978106724 1.51979180399e-22)
(-0.329500533561 -0.104712135301 9.74423263302e-22)
(-0.35444714993 -0.128413253186 -7.46713162021e-22)
(-0.379462294636 -0.156065905538 -5.08365648474e-22)
(-0.418035577498 -0.207587712997 2.07986620217e-20)
(-0.424414870335 -0.19721821359 -5.81334916623e-21)
(-0.533820443945 -0.294797789067 -4.43574049398e-20)
(-0.396347749258 -0.585840691916 -3.22121691401e-20)
(-0.275608650608 -0.0697125235469 6.34852247353e-23)
(-0.286064382784 -0.0825902799516 -2.66194005115e-22)
(-0.297581269325 -0.0973532439352 6.04310479754e-22)
(-0.310239896925 -0.122837789141 5.00109336359e-22)
(-0.324544199959 -0.15011581178 -6.63614498177e-22)
(-0.338810146575 -0.180008539744 -8.37936555535e-21)
(-0.35578734647 -0.242745348876 1.13949797264e-20)
(-0.356894273577 -0.240578888685 2.03197183132e-20)
(-0.407021444207 -0.340024607521 -2.6261811985e-20)
(-0.357869246125 -0.618112525576 4.77416075963e-21)
(-0.263352219327 -0.0785001373358 1.770772941e-22)
(-0.271239601801 -0.0923325685636 -2.71138188507e-22)
(-0.279639597023 -0.109081434602 1.55640024332e-21)
(-0.289658939204 -0.131665572453 3.85159785512e-21)
(-0.295390073334 -0.155649816345 -2.3086145586e-21)
(-0.290274404938 -0.189671598643 1.23416509208e-20)
(-0.291077570759 -0.255195801056 1.92366957881e-20)
(-0.268552288568 -0.271278319606 -6.78609573738e-20)
(-0.23668815391 -0.383626359281 -1.34646147542e-20)
(-0.270920985175 -0.708915983235 -3.72490501031e-20)
(-0.250548045792 -0.0850161512205 -6.81836531196e-24)
(-0.255870545706 -0.0989293904045 -1.02719640827e-21)
(-0.26047269517 -0.115824397008 8.49348451864e-22)
(-0.263595206841 -0.138433068108 1.11739265645e-21)
(-0.262260044839 -0.149808621502 -1.498111496e-21)
(-0.254720308923 -0.179922877231 -2.12622036814e-21)
(-0.234298197103 -0.247805828128 4.20038115037e-21)
(-0.182963302893 -0.263785064092 -8.28754319112e-21)
(-0.0685807384733 -0.378255192608 -2.82691247703e-19)
(-0.213516941555 -0.534133616422 -2.7427077332e-19)
(-0.237943485118 -0.0894044596883 -6.14495952943e-23)
(-0.241178308575 -0.102325013184 -1.07670589632e-22)
(-0.24282808594 -0.116894819218 -1.64456334587e-21)
(-0.241385182083 -0.133286641318 -1.58236049363e-21)
(-0.232727265498 -0.146384884715 -3.24828072994e-21)
(-0.23060407162 -0.166193527059 -2.15782749746e-20)
(-0.195857450986 -0.206360768197 1.78102945825e-20)
(-0.128010429237 -0.199456940406 7.23973415059e-20)
(0.0442483965782 -0.299702069856 -3.09531208858e-20)
(-0.166843959081 -0.334259924895 1.12304262626e-19)
(-0.226129239309 -0.0922935553787 4.73038310941e-23)
(-0.228104091971 -0.103858970963 -3.08122507901e-22)
(-0.228411087469 -0.11603782299 -4.46781861502e-22)
(-0.226059040193 -0.12826167152 -1.89133705622e-22)
(-0.219466258628 -0.138528395284 -2.18205270921e-21)
(-0.210185524578 -0.145237812232 -5.35502525895e-21)
(-0.182248354204 -0.16103933091 4.07375046812e-21)
(-0.108483171051 -0.115854580178 4.28628649906e-20)
(0.0694059741624 -0.155416251599 -3.88610341542e-19)
(-0.0789439983841 0.032460521121 -1.93846208027e-19)
(-0.215351107575 -0.0943582481799 2.49715688657e-23)
(-0.216786020192 -0.104637473539 2.07463905596e-22)
(-0.216835641816 -0.114890095807 7.27957677654e-22)
(-0.215111833876 -0.124364269256 5.04487058582e-22)
(-0.211415622645 -0.13103186925 2.6487773172e-21)
(-0.205633565937 -0.132269150605 -1.61292159108e-21)
(-0.186597773825 -0.135263737859 -1.74251586257e-20)
(-0.180172721413 -0.0741019118166 -3.07124387401e-20)
(-0.0612428362931 0.00228692267326 -6.57619511144e-20)
(0.243464575427 0.269164883417 -5.34501893781e-18)
(-0.205606309104 -0.0961289781296 -8.09152863265e-24)
(-0.206986263619 -0.105358282094 4.20105675608e-22)
(-0.20729754553 -0.114385728691 -1.11387687893e-22)
(-0.206643140066 -0.122902424952 3.3699923062e-21)
(-0.205922725294 -0.129204445199 -5.88159326715e-22)
(-0.213441493455 -0.11988041615 8.94011920117e-21)
(-0.202190160706 -0.149243288966 5.37467639348e-20)
(-0.284064133575 -0.0535327615035 3.59747305195e-21)
(-0.424966841968 0.0100654429539 3.36465163392e-19)
(-0.576286252247 0.575323253796 3.98013987688e-18)
(-0.19678927106 -0.0979637610243 2.06563438024e-22)
(-0.198395777073 -0.10630694248 6.52418567084e-23)
(-0.199069869373 -0.114517110414 5.98075652636e-22)
(-0.199292235591 -0.123079460924 2.32646523661e-21)
(-0.200550284977 -0.136666855924 1.52849720242e-20)
(-0.210987355831 -0.120349248513 5.04408474435e-20)
(-0.187981248726 -0.234492987889 4.45122296342e-20)
(-0.235125047726 -0.300554577198 2.6749853299e-19)
(-0.375194001449 -0.310438652369 3.70799184343e-18)
(-0.308190467633 0.0453943496026 -1.52771847273e-18)
(-0.188803168158 -0.10010425714 -2.16346304678e-22)
(-0.190808628046 -0.107538873621 -2.25378440426e-22)
(-0.191579467532 -0.11493225126 -1.76893735954e-21)
(-0.190683020505 -0.123383377082 -4.91755578053e-22)
(-0.18590184621 -0.139609883959 3.78501367568e-21)
(-0.172071117291 -0.115807359967 -8.41656449124e-20)
(-0.159894266817 -0.247279490995 1.91325869504e-20)
(-0.218174456332 -0.160980617011 -5.92083103528e-19)
(-1.1172464391 -0.238909530861 1.21256164913e-18)
(-1.10928218014 -0.129431192992 1.24015917804e-18)
(-0.181653100037 -0.102787317533 1.35689532765e-22)
(-0.184369374786 -0.108980981288 6.69013231533e-24)
(-0.185275564666 -0.114266745553 -1.61029228335e-22)
(-0.182960761363 -0.118361714791 -6.70315610014e-22)
(-0.17521290045 -0.125738901596 -3.25858267128e-20)
(-0.157611420576 -0.102317073001 -5.76720473938e-20)
(-0.170966752523 -0.113900614001 7.41199586634e-20)
(-0.168961416307 -0.0543749938492 -4.31405601964e-19)
(-0.214405856381 0.0745038356989 -7.89997708573e-19)
(-0.521778532467 -0.854099769209 -1.13615819321e-18)
(-0.175406190872 -0.106488336297 -2.08898406189e-22)
(-0.179585403529 -0.111199244804 3.11398683934e-22)
(-0.181799384059 -0.113803226094 2.71061121759e-21)
(-0.180409194512 -0.113970503613 -1.54569476805e-21)
(-0.174271554711 -0.114701841866 8.59632141754e-21)
(-0.168069697069 -0.109710491579 -1.34510557963e-20)
(-0.18435816249 -0.158264677999 1.17215861117e-20)
(-0.255577940828 -0.223053255792 1.44709089181e-19)
(-0.177305793037 -0.253577285245 1.16931982342e-18)
(-1.09209776662 -0.104683330576 -1.0050948422e-18)
(-0.169932767517 -0.112010908741 -9.10219887219e-23)
(-0.176686395798 -0.115467827079 -1.93176717389e-23)
(-0.18201864896 -0.115394580498 -9.12375178027e-23)
(-0.183900658482 -0.111351288481 4.93754299673e-22)
(-0.178915811402 -0.108267852099 -5.29890029425e-21)
(-0.156365605265 -0.0984694260757 2.17300039271e-20)
(-0.0889927052512 -0.163420837496 -9.62303757364e-20)
(0.017879623161 -0.312795904077 -2.79062276548e-19)
(-0.220061897275 -0.455215450748 1.59763559212e-19)
(-0.351597811663 -0.397154394001 1.03797446884e-18)
(-0.164710912583 -0.120269942314 1.46137800688e-22)
(-0.175180412748 -0.123274597083 1.5896676447e-22)
(-0.18572313568 -0.120964205525 -2.84728209104e-22)
(-0.194843681857 -0.109966882159 8.44413745061e-21)
(-0.198614336013 -0.0853357393145 -4.58815393548e-21)
(-0.186462459458 -0.0186783087786 4.906857697e-20)
(-0.157885877816 0.0802459849492 2.52013145981e-20)
(-0.0229561398902 0.531903587893 -5.36226605244e-19)
(-0.171656547099 0.906761233214 -1.3357467617e-18)
(-1.44807301585 0.548836005744 -8.67203851658e-19)
)
;

boundaryField
{
    back
    {
        type            calculated;
        value           uniform (0 0 0);
    }
    sides
    {
        type            calculated;
        value           nonuniform List<vector> 0();
    }
    bottom
    {
        type            calculated;
        value           nonuniform List<vector> 0();
    }
    front
    {
        type            calculated;
        value           uniform (0 0 0);
    }
    atmosphere
    {
        type            calculated;
        value           nonuniform List<vector> 
16
(
(-3.9039393978 -0.284620142319 3.25402932087e-20)
(5.33826849424 -0.382138399185 9.81020926587e-20)
(1.61374281283 -0.585840691916 3.42768892444e-20)
(-0.00644546069806 -0.618112525576 1.69120446091e-22)
(-0.000565194943742 -0.708915983235 -9.33244843073e-24)
(0.172183823611 -0.534133616422 5.14451766508e-20)
(-1.93391374877e-06 -0.334259924895 2.18396422124e-26)
(9.79339391532e-10 0.032460521121 -1.01894640775e-29)
(-1.34116103278e-10 0.269164883417 -2.68353952337e-30)
(6.42360867984e-11 0.575323253796 2.95229449893e-30)
(-0.308190467638 0.0453943496026 -1.52771847273e-18)
(0 -0.129431192992 0)
(1.68661019566e-15 -0.854099769209 1.29178860604e-36)
(2.1626711519e-15 -0.104683330576 7.23006182139e-35)
(-0.351597811663 -0.397154394001 1.03797446884e-18)
(0 0.548836005744 0)
)
;
    }
    floatingObject
    {
        type            calculated;
        value           nonuniform List<vector> 0();
    }
    procBoundary5to0
    {
        type            processor;
        value           nonuniform List<vector> 
12
(
(-0.280995466213 -0.00989241006315 4.90620580353e-23)
(-0.293494620868 -0.0124744060056 5.46756147638e-24)
(-0.308252606687 -0.015650022523 2.14518623299e-22)
(-0.325710386337 -0.0195381199606 1.70177251667e-22)
(-0.346493931011 -0.0242744955695 1.7604226016e-22)
(-0.371595205975 -0.0299452299668 1.97029740058e-21)
(-0.402480792778 -0.0342792495012 -2.6612927006e-21)
(-0.441346548897 -0.0421338652019 -7.85262753974e-21)
(-0.47579174131 -0.0541941212688 4.72471325747e-21)
(-0.513147013114 -0.0182583956171 -7.23466514323e-21)
(-0.824198692471 -0.062360389707 -1.23055527732e-20)
(-0.674986508947 -0.123902028866 8.44511315977e-21)
)
;
    }
    procBoundary5to3
    {
        type            processor;
        value           nonuniform List<vector> 10((-0.158707735729 -0.132083161284 1.35888795401e-22) (-0.173532345546 -0.136277717107 2.95056189649e-23) (-0.190527105896 -0.134767388191 -5.81350252905e-22) (-0.210052101159 -0.1235914218 -1.01015740349e-21) (-0.232188450255 -0.1016712732 5.64764462797e-21) (-0.262737014965 -0.0502909602932 -3.86555788898e-21) (-0.329883056301 0.00252427824491 6.29052523581e-20) (-0.456298555113 0.180941239934 2.0198508125e-19) (-0.917866428808 0.163692319895 -1.0405517676e-19) (-0.30986128699 0.699302005205 -7.5294025895e-20));
    }
    procBoundary5to4
    {
        type            processor;
        value           nonuniform List<vector> 
18
(
(-0.267747912619 -0.0173135834266 -4.66081181468e-23)
(-0.263446906436 -0.0262470903438 3.29324959056e-24)
(-0.266068498486 -0.0412910095884 -6.04318614427e-24)
(-0.275687741485 -0.049318853277 -3.30893220462e-23)
(-0.275687741485 -0.049318853277 -3.30893220462e-23)
(-0.266346575538 -0.058892281992 -4.88519415329e-23)
(-0.255969346958 -0.0668450993518 -2.18383897205e-22)
(-0.244997007092 -0.0731339276678 1.7035525412e-22)
(-0.233932567359 -0.0778932349098 6.53362589928e-23)
(-0.22317958161 -0.0814776748003 -1.94296971023e-22)
(-0.212968338085 -0.0843225713685 -1.55859819094e-23)
(-0.203378082098 -0.0868315299978 7.07746352071e-23)
(-0.194390122137 -0.0893410935454 3.51702650569e-23)
(-0.185943317211 -0.0921384381712 2.0639533831e-22)
(-0.177971189513 -0.0955195109411 -1.33420745041e-22)
(-0.17036696213 -0.099877805187 6.18612840904e-23)
(-0.162880259911 -0.105727108859 -1.27022232222e-22)
(-0.155014863771 -0.113601213137 3.1290717765e-23)
)
;
    }
}


// ************************************************************************* //
