/*--------------------------------*- C++ -*----------------------------------*\
| =========                 |                                                 |
| \\      /  F ield         | OpenFOAM: The Open Source CFD Toolbox           |
|  \\    /   O peration     | Version:  v2012                                 |
|   \\  /    A nd           | Website:  www.openfoam.com                      |
|    \\/     M anipulation  |                                                 |
\*---------------------------------------------------------------------------*/
FoamFile
{
    version     2.0;
    format      ascii;
    class       volScalarField;
    location    "1.3";
    object      nut;
}
// * * * * * * * * * * * * * * * * * * * * * * * * * * * * * * * * * * * * * //

dimensions      [0 2 -1 0 0 0 0];


internalField   nonuniform List<scalar> 
164
(
0.00135907513493
0.00136035679597
0.00136181035627
0.00136359777209
0.00136643861671
0.00137297771103
0.00139110363725
0.00143904987853
0.00154645679254
0.00174645286234
0.00209230382123
0.00296691998457
0.00135997342214
0.00136128270941
0.00136275633645
0.00136452207241
0.00136717578627
0.00137299067487
0.00138903189375
0.00143225303878
0.00153143788223
0.00171903051976
0.00203256417878
0.00290404743332
0.00136366510028
0.00136543504347
0.00136796075498
0.00137320285546
0.00138748811742
0.00142657661116
0.00151839013667
0.00169679437834
0.0020210294425
0.00292368083143
0.00136453275389
0.00136633250601
0.00136878474721
0.00137358112272
0.00138637855856
0.00142182856554
0.00150737541003
0.00168292375741
0.00206366900351
0.00300513653032
0.00136535691729
0.00136721283358
0.00136963683781
0.00137408710598
0.00138560935929
0.00141783671846
0.00149801819208
0.00167278444854
0.00209492002213
0.00305952581079
0.00136612984347
0.00136806745986
0.00137051075964
0.00137469674949
0.00138511617273
0.00141452478152
0.00149074345987
0.00166870212678
0.00213097484994
0.00309562940809
0.00136684283244
0.00136888617297
0.00137138673197
0.00137540482363
0.001384781929
0.00141131056834
0.00148399512911
0.00168050530114
0.00222120826607
0.00314056642737
0.00136748511757
0.00136965606335
0.00137224556801
0.00137615884411
0.00138471639666
0.00140794821399
0.00147540314711
0.00169106062953
0.00232697615727
0.0032211846728
0.0013680453876
0.00137036348899
0.0013730664544
0.00137691807213
0.00138476759492
0.00140536574241
0.00146350170561
0.00165768484064
0.00237356433939
0.00331473861676
0.00136851324225
0.00137099713381
0.00137383310322
0.00137765239918
0.00138485925952
0.00140303925225
0.00145524065137
0.0016443817803
0.00238776617096
0.00338532343063
0.00136888070414
0.00137155119761
0.00137454104255
0.00137835626294
0.00138496936868
0.00140078533325
0.00144597486563
0.00161352167956
0.00226154152439
0.00319939706743
0.00136914274593
0.00137202618827
0.00137519979824
0.00137906255447
0.00138524202988
0.00139958236575
0.00144805025952
0.00174170369055
0.00243513192924
0.00340633144885
0.00136929657491
0.0013724260374
0.00137582515477
0.0013798181761
0.00138578416121
0.00139885052246
0.00144152962247
0.00166740952621
0.00257330236565
0.00341678193131
0.00136934061454
0.00137275345868
0.00137641662544
0.00138058325874
0.00138638140684
0.0013980305736
0.00143389646915
0.00160880053598
0.0023556282886
0.003422115744
0.0013692760288
0.00137301356349
0.00137697320913
0.00138131906467
0.00138688752754
0.00139691343995
0.00142629813598
0.00157280962791
0.00222650194272
0.00319612519177
0.00136911124682
0.00137322418897
0.00137752690442
0.00138209563405
0.0013875492265
0.00139704361876
0.00143588941865
0.00172673601034
0.00251717880421
0.003393438978
)
;

boundaryField
{
    back
    {
        type            nutkWallFunction;
        blending        stepwise;
        Cmu             0.09;
        kappa           0.41;
        E               9.8;
        value           nonuniform List<scalar> 
164
(
0.00013190829997
0.000132020924916
0.000132148562423
0.000132304623438
0.000132549543997
0.000133109185359
0.000134669083716
0.000138839127968
0.000148262492579
0.000165813004485
0.000195985097107
0.000325936130973
0.000131988331747
0.000132103527126
0.000132233163224
0.000132387833895
0.000132617577629
0.000133116169735
0.000134496567762
0.000138255301025
0.0001469473978
0.000163421225002
0.000190871084519
0.000305965960914
0.000132314276009
0.000132469683168
0.000132689189094
0.000133139732194
0.000134368022842
0.000137756304984
0.000145770798276
0.000161333589917
0.000188621586192
0.000315128534223
0.000132391589427
0.00013254982718
0.00013276349077
0.000133176444028
0.000134274583988
0.000137332249908
0.000144742219479
0.00015975613973
0.000190609935042
0.000335574379597
0.000132464779175
0.000132627954444
0.000132839669284
0.000133223416628
0.000134209899033
0.000136973706592
0.000143849403546
0.00015843258844
0.000191488983185
0.000342031060586
0.000132533308193
0.000132703524991
0.000132916914365
0.00013327901242
0.000134169455368
0.000136674653968
0.000143120113247
0.000157506683572
0.00019185171224
0.000340375868998
0.000132596510118
0.000132775824117
0.000132994101057
0.000133341727542
0.000134148234276
0.000136399722133
0.000142464150849
0.000157975527356
0.000200102865376
0.000349994306627
0.000132653549161
0.00013284390322
0.000133069886191
0.000133408590453
0.000134146068669
0.000136143456911
0.000141727462237
0.000158650384498
0.00021007968691
0.000360536785092
0.000132703529274
0.000132906723176
0.00013314271079
0.000133476555
0.000134154042663
0.000135932009292
0.000140860913152
0.000156484718596
0.000215531947479
0.000370965863446
0.000132745596054
0.000132963378009
0.000133211277401
0.000133543179718
0.000134166976088
0.00013574069209
0.000140192486626
0.000155683296686
0.000217805151628
0.000378636319392
0.000132779058614
0.000133013351803
0.000133275140741
0.000133607819872
0.000134182721729
0.00013555636026
0.000139405202018
0.000153002561122
0.000205779543613
0.000285750782347
0.000132803444803
0.000133056603796
0.000133334908033
0.000133672644215
0.000134210972611
0.000135448207228
0.000139394314201
0.000161659991956
0.000218013636697
0.000380330365221
0.000132818469101
0.000133093386883
0.000133391741278
0.000133741268338
0.000134261213489
0.000135388079194
0.000138920055459
0.000156569425433
0.000230690057147
0.000381558294801
0.000132823972349
0.000133123923283
0.000133445696831
0.000133810905269
0.000134317176017
0.000135326274548
0.000138341359087
0.000152413298267
0.000212995943949
0.000382426570981
0.000132820048183
0.000133148688269
0.000133496833065
0.000133878610947
0.000134366699867
0.00013523766018
0.000137698602188
0.000149441126184
0.000201949476417
0.000284520907977
0.000132807451553
0.000133169218252
0.00013354786647
0.000133949925887
0.000134428316729
0.000135241668899
0.000138368135664
0.00016323631675
0.000228420897925
0.000379362978513
)
;
    }
    sides
    {
        type            nutkWallFunction;
        blending        stepwise;
        Cmu             0.09;
        kappa           0.41;
        E               9.8;
        value           nonuniform List<scalar> 0();
    }
    bottom
    {
        type            nutkWallFunction;
        blending        stepwise;
        Cmu             0.09;
        kappa           0.41;
        E               9.8;
        value           nonuniform List<scalar> 0();
    }
    front
    {
        type            nutkWallFunction;
        blending        stepwise;
        Cmu             0.09;
        kappa           0.41;
        E               9.8;
        value           nonuniform List<scalar> 
164
(
0.00013190829997
0.000132020924916
0.000132148562423
0.000132304623438
0.000132549543997
0.000133109185359
0.000134669083716
0.000138839127968
0.000148262492579
0.000165813004485
0.000195985097107
0.000325936130973
0.000131988331747
0.000132103527126
0.000132233163224
0.000132387833895
0.000132617577629
0.000133116169735
0.000134496567762
0.000138255301025
0.0001469473978
0.000163421225002
0.000190871084519
0.000305965960914
0.000132314276009
0.000132469683168
0.000132689189094
0.000133139732194
0.000134368022842
0.000137756304984
0.000145770798276
0.000161333589917
0.000188621586192
0.000315128534223
0.000132391589427
0.00013254982718
0.00013276349077
0.000133176444028
0.000134274583988
0.000137332249908
0.000144742219479
0.00015975613973
0.000190609935042
0.000335574379597
0.000132464779175
0.000132627954444
0.000132839669284
0.000133223416628
0.000134209899033
0.000136973706592
0.000143849403546
0.00015843258844
0.000191488983185
0.000342031060586
0.000132533308193
0.000132703524991
0.000132916914365
0.00013327901242
0.000134169455368
0.000136674653968
0.000143120113247
0.000157506683572
0.00019185171224
0.000340375868998
0.000132596510118
0.000132775824117
0.000132994101057
0.000133341727542
0.000134148234276
0.000136399722133
0.000142464150849
0.000157975527356
0.000200102865376
0.000349994306627
0.000132653549161
0.00013284390322
0.000133069886191
0.000133408590453
0.000134146068669
0.000136143456911
0.000141727462237
0.000158650384498
0.00021007968691
0.000360536785092
0.000132703529274
0.000132906723176
0.00013314271079
0.000133476555
0.000134154042663
0.000135932009292
0.000140860913152
0.000156484718596
0.000215531947479
0.000370965863446
0.000132745596054
0.000132963378009
0.000133211277401
0.000133543179718
0.000134166976088
0.00013574069209
0.000140192486626
0.000155683296686
0.000217805151628
0.000378636319392
0.000132779058614
0.000133013351803
0.000133275140741
0.000133607819872
0.000134182721729
0.00013555636026
0.000139405202018
0.000153002561122
0.000205779543613
0.000285750782347
0.000132803444803
0.000133056603796
0.000133334908033
0.000133672644215
0.000134210972611
0.000135448207228
0.000139394314201
0.000161659991956
0.000218013636697
0.000380330365221
0.000132818469101
0.000133093386883
0.000133391741278
0.000133741268338
0.000134261213489
0.000135388079194
0.000138920055459
0.000156569425433
0.000230690057147
0.000381558294801
0.000132823972349
0.000133123923283
0.000133445696831
0.000133810905269
0.000134317176017
0.000135326274548
0.000138341359087
0.000152413298267
0.000212995943949
0.000382426570981
0.000132820048183
0.000133148688269
0.000133496833065
0.000133878610947
0.000134366699867
0.00013523766018
0.000137698602188
0.000149441126184
0.000201949476417
0.000284520907977
0.000132807451553
0.000133169218252
0.00013354786647
0.000133949925887
0.000134428316729
0.000135241668899
0.000138368135664
0.00016323631675
0.000228420897925
0.000379362978513
)
;
    }
    atmosphere
    {
        type            calculated;
        value           nonuniform List<scalar> 
16
(
0.009
0.009
0.009
0.009
0.009
0.009
0.009
0.009
0.009
0.009
0.00319939706743
0.009
0.009
0.009
0.00319612519177
0.009
)
;
    }
    floatingObject
    {
        type            nutkWallFunction;
        blending        stepwise;
        Cmu             0.09;
        kappa           0.41;
        E               9.8;
        value           nonuniform List<scalar> 0();
    }
    procBoundary5to0
    {
        type            processor;
        value           nonuniform List<scalar> 
12
(
0.00135811172209
0.0013593765216
0.00136082313865
0.00136265282589
0.00136572689682
0.00137311381554
0.00139367939848
0.00144718271047
0.00156341645074
0.00177578475003
0.00215406125269
0.00303501193504
)
;
    }
    procBoundary5to3
    {
        type            processor;
        value           nonuniform List<scalar> 10(0.00136886115623 0.00137341590131 0.00137815079444 0.00138311647738 0.00138880222676 0.00139807338478 0.00143258749809 0.00166725814954 0.00250665673118 0.0033503575711);
    }
    procBoundary5to4
    {
        type            processor;
        value           nonuniform List<scalar> 
18
(
0.00135793325071
0.0013588032591
0.00136080688221
0.00136215633274
0.00136215633274
0.00136297162005
0.00136372498173
0.00136440823631
0.00136501250888
0.00136552733664
0.0013659414709
0.00136624377075
0.00136642392054
0.00136647272366
0.0013663821458
0.00136614514211
0.00136575651187
0.00136521514314
)
;
    }
}


// ************************************************************************* //
