/*--------------------------------*- C++ -*----------------------------------*\
| =========                 |                                                 |
| \\      /  F ield         | OpenFOAM: The Open Source CFD Toolbox           |
|  \\    /   O peration     | Version:  v2012                                 |
|   \\  /    A nd           | Website:  www.openfoam.com                      |
|    \\/     M anipulation  |                                                 |
\*---------------------------------------------------------------------------*/
FoamFile
{
    version     2.0;
    format      ascii;
    class       surfaceScalarField;
    location    "1.3";
    object      phi;
}
// * * * * * * * * * * * * * * * * * * * * * * * * * * * * * * * * * * * * * //

dimensions      [0 3 -1 0 0 0 0];
oriented        oriented;


internalField   nonuniform List<scalar> 
300
(
-2.27125656229e-05
0.00054002146459
-2.58331801487e-05
0.000550667066523
-2.87932751611e-05
0.000561559875432
-3.13110813372e-05
0.000572241322068
-3.29408165634e-05
0.000582153654163
-3.32671276253e-05
0.000590775777242
-3.12182593026e-05
0.000595406332533
-2.38939694457e-05
0.000596949732916
-1.61433681333e-05
0.000585906791804
-1.45154463154e-06
0.000580142298473
-1.47941149228e-05
0.000259553340928
0.00031530254078
-1.18955445744e-05
-1.47127726566e-05
-1.78333923449e-05
0.000564680449091
-2.11008567285e-05
0.000575508898463
-2.41887216517e-05
0.000585241758529
-2.65899936335e-05
0.000593177370767
-2.84139425588e-05
0.000597230622102
-2.53157374469e-05
0.000593851814568
-2.10725767672e-05
0.000581663817931
-1.28831568919e-05
0.000571952938789
-4.01263122687e-05
0.000286782233758
0.000358332471507
-7.19297946663e-06
0.00056815492021
-1.1544397605e-05
0.000579860449665
-1.67285754178e-05
0.000590426192913
-2.23795840122e-05
0.000598828715221
-2.86528165614e-05
0.000603504212114
-3.37623467345e-05
0.000598961646485
-3.78594093109e-05
0.000585761084587
-4.08312690661e-05
0.000574924991405
-8.47167912031e-05
0.000330651012194
0.000421436725147
4.39297317437e-06
0.000571943047373
-9.95382689546e-07
0.000585249007921
-8.48110619175e-06
0.000597912251767
-1.79581354448e-05
0.000608306166804
-3.04427856672e-05
0.000615989303978
-4.55334870894e-05
0.000614052736709
-6.30108058128e-05
0.000603238677882
-8.285249147e-05
0.00059476700347
-0.000151618500985
0.000399379035036
0.000515786195377
1.75832148403e-05
0.000575754140063
1.13780049458e-05
0.000591454526173
2.12447070355e-06
0.000607166252948
-1.1495829695e-05
0.000621927040101
-2.99820827487e-05
0.000634476155206
-5.5762203857e-05
0.000639833387741
-9.00715950444e-05
0.000637548449542
-0.000135803236937
0.000640498940438
-0.00023583956872
0.000499383525191
0.000656132446251
3.31369031525e-05
0.000579087830445
2.68739392818e-05
0.000597717935612
1.6576813838e-05
0.000617464026129
3.40538080479e-07
0.00063816410242
-2.49269960432e-05
0.000659744512034
-6.27703961882e-05
0.000677677517338
-0.000123391842598
0.000698170408746
-0.000212837019537
0.000729944663417
-0.000397275836835
0.000683763567089
0.000868633406097
5.16347599026e-05
0.000581218132846
4.63808055314e-05
0.000602972495567
3.68838604316e-05
0.00062696183902
2.12207532183e-05
0.000653828258061
-3.96518105445e-06
0.000684931540583
-4.64526803944e-05
0.00072016598874
-0.000113290077738
0.000765008452637
-0.000222357519006
0.000839012622986
-0.000461047354374
0.000922409968234
0.00130520202333
7.32742129872e-05
0.000581430576027
7.01799934607e-05
0.000606067483692
6.34144460356e-05
0.000633728487917
5.16674519519e-05
0.000665576578393
3.24089693523e-05
0.000704191398929
-1.15008853986e-06
0.000753726259481
-6.09424480032e-05
0.000824801581923
-0.000166342760949
0.000944413578453
-0.000494987593712
0.00125101269196
0.00239437325994
9.78612500248e-05
0.000579128774481
9.77597689758e-05
0.000606169866054
9.51022278053e-05
0.000636387335098
9.00159114138e-05
0.000670664463332
8.30086049233e-05
0.000711200323606
7.4108604566e-05
0.000762627668202
6.51209137812e-05
0.000833790152226
0.000114739801253
0.000894794848048
-0.000411703326305
0.00177747203513
0.00507082146407
0.000124920616991
0.000574014127582
0.000128063972088
0.000603027471915
0.000129612756307
0.000634839974698
0.000131055581987
0.000669223346078
0.00013653236677
0.000705725282251
0.0001600646111
0.000739096902393
0.000180242981124
0.000813612714395
0.000343087030246
0.00073194990407
-0.000397517426609
0.00251819785347
0.00933026975618
0.000153987130405
0.000566041371499
0.000160049551912
0.000596965956638
0.000164566935516
0.000630323985618
0.00016894390084
0.000664848046864
0.000178904827891
0.000695766014296
0.000201660328378
0.000716342772599
0.00029854248607
0.0007167314442
0.000368485248313
0.000662007525091
0.00309148327107
-0.00020480088506
-0.00538741127524
0.000184937473124
0.000555238210926
0.000193481539319
0.000588422603144
0.000199483823208
0.000624322869005
0.000201182400758
0.000663150835511
0.000188547941784
0.000708401773824
0.00013046974163
0.00077442198103
-1.08963987857e-05
0.000858098092575
-0.000372550167335
0.00102366220939
-0.000360221250572
-0.000217217770035
-0.00132958984331
0.000218107838681
0.000541450269413
0.000229237711006
0.000577293122823
0.000237289690931
0.00061627161288
0.00024106770583
0.000659373604452
0.00023950380267
0.000709966314864
0.000241841460965
0.000772084670143
0.000290611440556
0.000809328163778
0.000490138986347
0.000824134653874
-0.000988479533671
0.00126139369657
0.00326120981211
0.000253918805301
0.000524370987013
0.000268042352397
0.000563169571004
0.000279605478618
0.000604708457975
0.000291032638543
0.000647946106622
0.000309407963658
0.000691590283562
0.000348952647729
0.000732539030667
0.000371209478782
0.000787070391858
0.000483293254922
0.000712051108396
-0.000205152299063
0.00194977293724
0.00796701316228
0.000292737313735
0.000503658980484
0.000309809652352
0.000546096615398
0.000323563887355
0.000590952883856
0.000337112983943
0.000634394973802
0.000359947776501
0.000668752863507
0.000404451373441
0.000688032857223
0.000514502908692
0.000677016936403
0.000661636658455
0.000564916467312
0.00348951245142
-0.000878098672072
-0.00695756783221
0.000335166557334
0.000355033796007
0.000369029876737
0.000373865681959
0.000353720269131
0.000280279118055
0.000133991115719
-0.000114617536038
-0.000349837000433
)
;

boundaryField
{
    back
    {
        type            calculated;
        value           uniform 0;
    }
    sides
    {
        type            calculated;
        value           nonuniform List<scalar> 0();
    }
    bottom
    {
        type            calculated;
        value           nonuniform List<scalar> 0();
    }
    front
    {
        type            calculated;
        value           uniform 0;
    }
    atmosphere
    {
        type            calculated;
        value           nonuniform List<scalar> 
16
(
-4.28638889077e-05
-8.31428473741e-05
-0.000147804190735
-0.000245930307958
-0.000376152990222
-0.000609718279913
-0.000897572630413
-0.00158411772162
-0.00308816473227
-0.00465704557991
0.0178091022501
-0.00441793386726
-0.00557927094856
-0.00491083470064
0.018413975576
-0.00408348521362
)
;
    }
    floatingObject
    {
        type            calculated;
        value           nonuniform List<scalar> 0();
    }
    procBoundary5to0
    {
        type            processor;
        value           nonuniform List<scalar> 
12
(
-0.000536898638167
-0.00054754672794
-0.00055859977159
-0.000569723239722
-0.000580523414203
-0.000590448808204
-0.000597454509039
-0.000604273436138
-0.000593657056603
-0.000594834178768
-0.000246192662166
-0.000287249844803
)
;
    }
    procBoundary5to3
    {
        type            processor;
        value           nonuniform List<scalar> 10(0.000478868913767 0.000526228347527 0.000576954751522 0.000629555941596 0.00068889454104 0.000761470480206 0.000823302519503 0.000813525545835 -0.000642980807267 -0.00322377425312);
    }
    procBoundary5to4
    {
        type            processor;
        value           nonuniform List<scalar> 
18
(
1.9588878031e-05
9.3567865742e-06
0.000542559529194
0.000553484075936
3.71834310303e-06
-8.18114997951e-06
-2.13942267128e-05
-3.64703761736e-05
-5.3764714843e-05
-7.34862103546e-05
-9.5558975873e-05
-0.000119805587229
-0.000146014228338
-0.000174134540512
-0.000204320556825
-0.000236840427964
-0.000272026260776
-0.000310376791256
)
;
    }
}


// ************************************************************************* //
