/*--------------------------------*- C++ -*----------------------------------*\
| =========                 |                                                 |
| \\      /  F ield         | OpenFOAM: The Open Source CFD Toolbox           |
|  \\    /   O peration     | Version:  v2012                                 |
|   \\  /    A nd           | Website:  www.openfoam.com                      |
|    \\/     M anipulation  |                                                 |
\*---------------------------------------------------------------------------*/
FoamFile
{
    version     2.0;
    format      ascii;
    class       surfaceScalarField;
    location    "4.8";
    object      alphaPhi0.water;
}
// * * * * * * * * * * * * * * * * * * * * * * * * * * * * * * * * * * * * * //

dimensions      [0 3 -1 0 0 0 0];
oriented        oriented;


internalField   nonuniform List<scalar> 
306
(
-4.86400757204e-05
5.50832384199e-06
-5.39176241292e-05
5.25465881255e-06
-5.85837522339e-05
4.64092538462e-06
-6.2668890494e-05
4.0584301508e-06
-6.58489284493e-05
3.15332661663e-06
-6.76404057253e-05
1.7689578164e-06
-6.884371494e-05
1.18363865633e-06
-7.43337835783e-05
5.49811464827e-06
-8.50209005287e-05
1.0802922078e-05
-0.000101711620883
1.87713682665e-05
7.73404998282e-06
-6.57668426386e-05
-1.09347195134e-07
-5.04630825007e-05
1.12298688547e-05
-5.59709912407e-05
1.07367257982e-05
-6.11769085962e-05
9.82060893808e-06
-6.56927887284e-05
8.54760343986e-06
-6.91605190662e-05
6.59595455745e-06
-7.11151066756e-05
3.70190402866e-06
-7.02817254597e-05
3.32422249025e-07
-6.60196008279e-05
1.23119276326e-06
-5.75995123067e-05
2.48053321053e-06
-4.05237010011e-05
-1.97254639698e-06
1.98941106728e-07
-6.49808279497e-05
9.34385216514e-08
-5.32208498287e-05
-5.93146550771e-05
1.68034700112e-05
-6.52267815515e-05
1.57070990473e-05
-7.06445661711e-05
1.39415477371e-05
-7.52482754651e-05
1.11772560713e-05
-7.82214876003e-05
6.65638277533e-06
-7.80337087561e-05
1.3024186881e-07
-7.15415652405e-05
-5.26208270374e-06
-5.38096309698e-05
-1.51756590506e-05
-2.46144657572e-06
-4.81656705625e-05
-1.9245240575e-07
-5.35254178534e-05
-4.58927144962e-07
-6.17819668566e-05
-6.85236637927e-05
2.24255552894e-05
-7.50663332527e-05
2.04629536559e-05
-8.11802344659e-05
1.72731344794e-05
-8.67270599357e-05
1.21881461969e-05
-9.01061738315e-05
3.49822455109e-06
-8.91138507339e-05
-6.23789447635e-06
-8.35287987628e-05
-2.07543336704e-05
-4.85948729933e-05
-7.68758788736e-05
1.47096780547e-06
-3.03566093177e-05
-1.06893206011e-07
-7.1020227382e-05
2.99588320533e-05
-7.89326144672e-05
2.8359962163e-05
-8.72174449687e-05
2.55436611579e-05
-9.55312001677e-05
2.0490893462e-05
-0.000104406746718
1.23656031952e-05
-0.000114805370218
4.16707146151e-06
-0.000125937555687
-9.62347049557e-06
-0.000100231890748
-6.5762495323e-05
1.28002302126e-06
-9.68484177209e-06
8.89838557852e-09
-7.29771121692e-05
3.83422867237e-05
-8.20547022878e-05
3.74257196399e-05
-9.17921895705e-05
3.52721969952e-05
-0.000102546767403
3.1237841464e-05
-0.000114885164396
2.46985194443e-05
-0.000127120859116
1.63991702397e-05
-0.000143387585679
6.62711998972e-06
-0.000121772017404
-3.52094580665e-05
-2.34769961721e-07
-6.52850589464e-06
-2.8240095514e-08
-7.4070358429e-05
4.74497720823e-05
-8.41983884576e-05
4.75466887634e-05
-9.56089350946e-05
4.66762126702e-05
-0.000108479337281
4.41032505376e-05
-0.000122478097582
3.86939969775e-05
-0.000136178410431
3.01061013637e-05
-0.000150282452797
2.0716554353e-05
-0.000121232165966
-8.52860748917e-06
8.95408901894e-08
2.51376089752e-06
-1.09391387508e-08
-7.41037650775e-05
5.70187186598e-05
-8.49751019291e-05
5.8413490325e-05
-9.75529809328e-05
5.92511174927e-05
-0.000112435681694
5.8983257975e-05
-0.000130912415475
5.71689937521e-05
-0.000154212296448
5.34100278235e-05
-0.000184417468535
5.09294692038e-05
-0.0001337870765
1.60390377851e-05
-1.04163587268e-07
1.55942682708e-05
-8.88842210762e-08
-7.27877222991e-05
6.67860364765e-05
-8.4036293734e-05
6.9660486354e-05
-9.72747185227e-05
7.2488274713e-05
-0.000113423694168
7.51317653181e-05
-0.000133728881602
7.74732208606e-05
-0.000163321865068
8.30047942843e-05
-0.000197175555714
8.47854593874e-05
-0.000133039861049
3.95207203625e-05
3.47188918146e-07
3.1116560384e-05
-1.64451538606e-08
-7.01221579535e-05
7.64044369428e-05
-8.12057465619e-05
8.07430115116e-05
-9.4162180987e-05
8.54442599141e-05
-0.000109756618516
9.07259741067e-05
-0.000129286911332
9.70038315185e-05
-0.000154365701567
0.000108085829177
-0.00018532081412
0.00011574164655
-0.000112993200719
5.44713875856e-05
-7.28684845259e-08
3.93534316683e-05
-1.67881576763e-08
-6.60277868435e-05
8.54282811658e-05
-7.64079481824e-05
9.11226762421e-05
-8.85144904791e-05
9.75509957003e-05
-0.000102767554864
0.000104980248562
-0.000119875823543
0.000114116802311
-0.000140329114382
0.000128540371644
-0.000161327668083
0.000136740976753
-8.66619844902e-05
6.11400030388e-05
-5.1095904946e-09
3.56204303893e-05
1.0309134377e-09
-6.06094943601e-05
9.37458744597e-05
-7.00162480329e-05
0.000100529977666
-8.07090346233e-05
0.000108244666833
-9.28112141789e-05
0.000117083732441
-0.00010584936019
0.000127161408125
-0.000118328112464
0.000141020770373
-0.000128326576364
0.000146739252744
-6.54815969554e-05
6.93905551962e-05
-1.53940130426e-07
3.75902079197e-05
2.14351573525e-09
-5.3988124911e-05
0.0001009975631
-6.22295697621e-05
0.000108772057216
-7.15133052037e-05
0.000117529575067
-8.16152702066e-05
0.000127187254493
-9.17592905207e-05
0.000137310915534
-0.00010020736688
0.000149469388635
-0.000106647281099
0.000153178884412
-5.42389237028e-05
8.21765794505e-05
-8.79589159414e-09
4.24711237268e-05
2.53404337357e-08
-4.65582430657e-05
0.000107211550107
-5.34427887586e-05
0.000115657370972
-6.1184209102e-05
0.000125272272841
-6.96712798527e-05
0.000135675921127
-7.86629295666e-05
0.000146307531429
-8.72249565448e-05
0.000158030014399
-9.64584954911e-05
0.000162412707778
-4.65234590668e-05
9.71422436748e-05
-3.77986006669e-07
4.08192567285e-05
4.53171263549e-09
-3.81562388014e-05
0.000112050090569
-4.36639074244e-05
0.000121165564277
-4.97881586227e-05
0.000131397395922
-5.65988301226e-05
0.000142487964858
-6.41922455073e-05
0.000153904695655
-7.25091015419e-05
0.000166344789471
-8.54193751953e-05
0.000175323029948
-3.88956510193e-05
0.000112646087928
-1.3549776123e-07
3.78257813267e-05
1.21358680318e-08
-2.9264189673e-05
-3.32290742686e-05
-3.75516484339e-05
-4.23663365708e-05
-4.77442026969e-05
-5.33402890317e-05
-6.29327728076e-05
-2.84085527639e-05
-9.8388389368e-08
)
;

boundaryField
{
    back
    {
        type            calculated;
        value           uniform 0;
    }
    sides
    {
        type            calculated;
        value           uniform 0;
    }
    bottom
    {
        type            calculated;
        value           nonuniform List<scalar> 0();
    }
    front
    {
        type            calculated;
        value           uniform 0;
    }
    atmosphere
    {
        type            calculated;
        value           nonuniform List<scalar> 
16
(
7.66106767323e-06
-1.87872982083e-07
1.13724692171e-07
-1.8938327689e-08
4.67481042391e-08
1.1089379492e-07
8.08577417786e-09
-1.38002028593e-08
1.55569815604e-08
-6.59394114806e-08
1.14084407466e-09
-1.43668759864e-07
-3.17251358966e-08
-3.58367443695e-07
-1.43415404783e-07
-9.24352928463e-08
)
;
    }
    floatingObject
    {
        type            calculated;
        value           nonuniform List<scalar> 0();
    }
    procBoundary1to0
    {
        type            processor;
        value           nonuniform List<scalar> 10(0.000115749396578 0.000125130218385 0.00013572041099 0.000147303096407 0.000159284733749 0.00017194071336 0.000184915707953 0.000126335999156 3.66105507171e-05 6.14174216381e-09);
    }
    procBoundary1to2
    {
        type            processor;
        value           nonuniform List<scalar> 
18
(
4.31025283308e-05
4.47096188385e-05
4.70152437486e-05
1.74060961876e-05
5.50611602808e-05
2.34916584768e-05
6.34586373146e-05
6.45743192953e-05
6.49517404711e-05
6.45310737385e-05
6.30161608947e-05
6.05049976647e-05
5.70037422675e-05
5.2291819049e-05
4.67366090297e-05
4.03448112307e-05
3.33172569179e-05
2.55645337401e-05
)
;
    }
}


// ************************************************************************* //
