/*--------------------------------*- C++ -*----------------------------------*\
| =========                 |                                                 |
| \\      /  F ield         | OpenFOAM: The Open Source CFD Toolbox           |
|  \\    /   O peration     | Version:  v2012                                 |
|   \\  /    A nd           | Website:  www.openfoam.com                      |
|    \\/     M anipulation  |                                                 |
\*---------------------------------------------------------------------------*/
FoamFile
{
    version     2.0;
    format      ascii;
    class       volVectorField;
    location    "4.8";
    object      U;
}
// * * * * * * * * * * * * * * * * * * * * * * * * * * * * * * * * * * * * * //

dimensions      [0 1 -1 0 0 0 0];


internalField   nonuniform List<vector> 
167
(
(0.00036493871904 -0.00917286957275 4.61814404877e-22)
(0.000330081740048 -0.0102615175218 4.43709852347e-22)
(0.000279801321763 -0.0112727408114 2.51048608708e-22)
(0.000185631699949 -0.012177247433 -2.758019137e-23)
(4.86443608397e-05 -0.0129553375603 -9.21184728098e-23)
(-0.000134759121928 -0.0134898413253 -1.07475174027e-21)
(-3.68084188317e-05 -0.014227525254 -1.9361761932e-21)
(0.00100570222641 -0.0135446394152 -2.69567456337e-21)
(0.00179436000199 -0.019009819102 -4.437279665e-21)
(0.00229656428615 -0.0123998573383 2.31877457354e-21)
(-0.0478262476733 -0.0148679866205 2.09090841259e-19)
(-0.633540417818 0.510932738215 1.23404554966e-19)
(0.00169252564641 -0.00952490693001 2.85100215364e-23)
(0.00161796396517 -0.0106611913038 2.23170016044e-22)
(0.00148973306139 -0.0117496569239 -5.07867600953e-23)
(0.0012841407074 -0.0127444898249 -6.75839738105e-23)
(0.000973016481156 -0.01358188968 -1.76621270695e-22)
(0.000547151049291 -0.0141654876207 -1.0222053945e-21)
(0.000170761910256 -0.0146633072573 -2.72298333741e-21)
(0.000804577424865 -0.0131561625914 -7.0334211392e-21)
(0.00184648247327 -0.0168466290934 -8.33458941672e-21)
(0.00475624177393 -0.000559620119352 -5.99872156586e-21)
(-0.0367459974576 -0.00104744557896 -1.08731449876e-19)
(-0.680632297017 -0.328530455435 -7.37550694411e-20)
(0.00285751729569 -0.0100274438873 2.43617615362e-23)
(0.002745404126 -0.0112747648412 -4.90550859672e-23)
(0.00253701834563 -0.0124917609779 -1.27543471851e-22)
(0.00222315484543 -0.0136338493057 -1.08419600262e-22)
(0.00175382379072 -0.0146642534886 -2.95396475426e-22)
(0.00101618015334 -0.0154669999372 -1.68658724672e-21)
(4.15823081314e-05 -0.0161479982603 -7.69910882804e-23)
(-0.000351947593466 -0.0145123563611 -5.97525144831e-21)
(-0.00105688016444 -0.0172219412543 -1.23619076889e-20)
(-0.00496356738858 0.00195322455376 -2.06687273723e-20)
(-0.0362783979334 0.0106592534765 -2.26222772884e-19)
(-0.226529707104 -0.134622678005 -1.9051038125e-19)
(0.00400215779133 -0.011691290323 -1.22439754966e-24)
(0.00377616889631 -0.0130458782869 -7.16403746436e-23)
(0.00338922959897 -0.0143872931724 -9.20923393496e-23)
(0.00278828011611 -0.0157142887261 -3.14929980878e-22)
(0.0018244202852 -0.0168975762501 -8.13628386769e-22)
(0.000269533502794 -0.018136333177 -8.98814806372e-22)
(-0.00126971095858 -0.0172530042965 2.73142397153e-22)
(-0.0038246236468 -0.0223937775756 -5.19179568326e-21)
(-0.0133949599661 -0.00631605332035 -7.90776473728e-21)
(-0.0258614367496 -0.00617007076309 -1.77933575432e-20)
(-0.0760437494181 -0.0774245648897 -1.57485459045e-20)
(0.00520210740916 -0.0134581078579 -3.47893800489e-23)
(0.00483191177583 -0.0150103755558 -7.50802612717e-23)
(0.00420652449293 -0.0166368562988 -4.17053892568e-22)
(0.00320615041147 -0.0182941199746 -1.50138976622e-21)
(0.00148788926167 -0.0203407361367 -1.59965927525e-21)
(-0.000404441247783 -0.0204479066654 -2.40080365303e-21)
(-0.00355899275567 -0.0282759158537 -7.94275525629e-21)
(-0.0160624620582 -0.0172033142433 -8.67467542873e-21)
(-0.0129140244451 -0.0262237495731 -4.69719325492e-21)
(-0.0270505173939 -0.0661951138465 -1.64300935855e-21)
(0.00679842082235 -0.0137592145757 -3.87337781834e-23)
(0.00653439044079 -0.0155122283146 -1.07600262247e-22)
(0.00601340826436 -0.0173980676221 -5.62440670423e-22)
(0.00509056732796 -0.0194296727708 -1.98268856663e-21)
(0.00364379174471 -0.0219952825567 -2.53434047123e-21)
(0.0019487035047 -0.0228997053614 -6.91027263139e-21)
(-0.000582010784147 -0.0290544488648 -1.24352044509e-20)
(-0.0110895504382 -0.0226614219768 3.65693883226e-21)
(-0.00262665122416 -0.0376071644286 1.24959401533e-19)
(-0.00915663306315 -0.0469779344991 1.14396961031e-19)
(0.00854954861825 -0.0139015660165 -5.04808389959e-23)
(0.00846336016377 -0.0158297527091 -2.10839010534e-22)
(0.008157253274 -0.0179818332459 -6.59906127983e-22)
(0.0074613509636 -0.0202689391953 -1.91054037146e-21)
(0.00619271926787 -0.023268400311 -2.40049834835e-21)
(0.00459979588546 -0.0247290731885 -1.48545787626e-20)
(0.00287081792776 -0.0305395963892 -1.79964583292e-20)
(-0.00468549398954 -0.0237189727103 -4.53535671967e-21)
(-0.0054571440162 -0.0375076919604 7.27735155298e-20)
(-0.00446100505177 -0.0543282016359 6.6822432463e-20)
(0.0104192409731 -0.0138503738383 -6.05345466637e-23)
(0.0105655269091 -0.0159012460557 -2.45723053905e-22)
(0.0105613980253 -0.0182478372057 -6.18632741357e-22)
(0.0102764149984 -0.0209664938426 -1.47752452886e-21)
(0.00944598836774 -0.0245416000136 -3.10656105105e-22)
(0.00826502842278 -0.0268876091833 -6.77629011483e-21)
(0.00725523316359 -0.0368487551598 -1.17656122357e-20)
(0.00111093023043 -0.0281324703946 -1.5339324237e-20)
(0.00684476050921 -0.0429958441125 -2.11028006103e-20)
(0.0072391936033 -0.0705689179171 -1.74098003835e-20)
(0.0123541568837 -0.0135702817143 -4.47951624993e-23)
(0.0127786517844 -0.0156728439483 -1.95101797614e-22)
(0.0131447674437 -0.0181156251033 -4.65351158593e-22)
(0.0133819850565 -0.0209972593703 -7.96448616748e-22)
(0.0134368931224 -0.0249943938638 -1.36573467535e-21)
(0.0136038175224 -0.0276968466791 1.76828909161e-23)
(0.0135546139573 -0.0397884295895 -6.95848154434e-21)
(0.00598663149562 -0.0290729918614 -1.01869645628e-20)
(0.0275816107666 -0.0458525629154 -1.88073380942e-20)
(0.016556257488 -0.0818923836038 -1.74494958043e-20)
(0.0142901436525 -0.0130438081766 -5.29734934544e-23)
(0.0150095659791 -0.0151067398963 -1.91520748904e-22)
(0.0157596593965 -0.0175071617875 -4.02995408686e-22)
(0.0165475770079 -0.0203509804526 -6.84267872352e-22)
(0.017464941102 -0.0241596282774 -1.24296596014e-21)
(0.0190862697987 -0.0267054198788 -1.43431275668e-21)
(0.0200364802506 -0.0381071975031 -6.74386430041e-21)
(0.0108764960292 -0.0262947159256 -1.45262510491e-20)
(0.0465672474283 -0.0432368551184 -4.429309519e-20)
(0.0247234830468 -0.0741931637838 -3.8728843399e-20)
(0.0161539606773 -0.012273986315 -5.9810048203e-23)
(0.0171520834818 -0.0142197465227 -2.11249418637e-22)
(0.0182588104468 -0.0164603089728 -4.47705232748e-22)
(0.0195261582038 -0.0190389170849 -5.44682363816e-22)
(0.0211154373579 -0.022496074833 -2.14401478507e-21)
(0.0236294230495 -0.0244580002677 1.07293520345e-21)
(0.0251713522618 -0.0339111092393 -6.58249106248e-21)
(0.0135271255528 -0.0227614331242 -1.07752715373e-20)
(0.0594371093127 -0.0389110936839 -1.27051783917e-20)
(0.035156342278 -0.050471582217 -1.13803678284e-20)
(0.0178904317795 -0.0112634537321 -6.37151995242e-23)
(0.0191316835145 -0.013023675881 -1.83333391108e-22)
(0.0205404147094 -0.0150276566179 -2.78992867949e-22)
(0.0221679734229 -0.0172800939254 -5.00756003653e-22)
(0.0240884744389 -0.0201375740003 -1.56807153465e-21)
(0.0269539046383 -0.0212132041379 -3.47409546388e-21)
(0.0284408178071 -0.0276500399937 -9.91306692833e-21)
(0.0158239336134 -0.0183599023366 -1.26535312569e-20)
(0.0688639088056 -0.0342747409575 -1.4383611833e-20)
(0.0456303158416 -0.052763229523 -1.09316295703e-20)
(0.0194477077048 -0.0100391000556 -6.19030855516e-23)
(0.0209022123219 -0.011583835387 -1.59402651305e-22)
(0.022546972573 -0.0133213662901 -2.78143562579e-22)
(0.0243998389195 -0.0152377908818 -4.83174989366e-22)
(0.026423341047 -0.0175553880263 -8.54121227331e-22)
(0.0290306734377 -0.0182049338455 -6.08386334321e-21)
(0.0300160629852 -0.0230617619437 -6.23438974886e-21)
(0.0188813910034 -0.0160302483883 -9.93963709485e-21)
(0.0862563917531 -0.0314782310795 -6.96967731067e-21)
(0.0577163852258 -0.0624003351748 -4.81481714207e-21)
(0.0207986045264 -0.00864549263793 -5.94817367987e-23)
(0.0224215319656 -0.00994279370275 -1.17727487356e-22)
(0.0242651810963 -0.011415405387 -2.55846303016e-22)
(0.026282072862 -0.013022947248 -2.66149413975e-22)
(0.0283669322457 -0.0149186086935 -1.69282761181e-21)
(0.0307572601153 -0.0155500176804 3.23084340892e-21)
(0.0315211755624 -0.0208315411947 -1.51077556111e-21)
(0.0230616254791 -0.0152345911817 -2.34833149083e-21)
(0.108615088375 -0.0304311289313 4.23380568718e-21)
(0.0668138690305 -0.0531856850688 3.63627404049e-21)
(0.021942283485 -0.00711218164263 -4.19563389739e-23)
(0.0236710112134 -0.00813438527535 -6.86527233651e-23)
(0.0256584570021 -0.00930384449679 -1.12835779921e-22)
(0.0278137987686 -0.0105774739117 -3.69090562101e-23)
(0.0300220919422 -0.0121112084162 7.25905115797e-23)
(0.0324645517516 -0.0127584341114 4.53170339252e-21)
(0.0338477625128 -0.0182268431878 3.22325741161e-22)
(0.0279743222539 -0.0139965660926 -2.78269407104e-21)
(0.126208703315 -0.0284393927104 -4.17199053769e-22)
(0.0777065623025 -0.0450969975622 -5.16022558481e-22)
(0.0228111078135 -0.0054507988196 -3.3164771453e-23)
(0.0246230807938 -0.00619958338496 -6.67939572263e-23)
(0.0266991055128 -0.00702603065865 -1.89037018844e-22)
(0.0289662553463 -0.00791844274072 -3.50881867573e-22)
(0.0313064384289 -0.00910311851219 -1.39670323131e-21)
(0.033867378789 -0.00930550048353 2.56260622961e-21)
(0.0362137858871 -0.0138324926112 -4.93339208787e-22)
(0.0328024580125 -0.0104188756383 -4.81897495998e-21)
(0.142179241767 -0.0231803772221 -6.6660705305e-21)
(0.0871650856504 -0.0435671942674 -5.19081787526e-21)
)
;

boundaryField
{
    back
    {
        type            noSlip;
    }
    sides
    {
        type            noSlip;
    }
    bottom
    {
        type            noSlip;
    }
    front
    {
        type            noSlip;
    }
    atmosphere
    {
        type            pressureInletOutletVelocity;
        value           nonuniform List<vector> 
16
(
(-0.633540417818 0.510932738215 1.23404554966e-19)
(0 -0.328530455435 0)
(0 -0.134622678005 0)
(0 -0.0774245648897 0)
(0 -0.0661951138465 0)
(0 -0.0469779344991 0)
(0 -0.0543282016359 0)
(0 -0.0705689179171 0)
(0 -0.0818923836038 0)
(0 -0.0741931637838 0)
(0 -0.050471582217 0)
(0 -0.052763229523 0)
(0 -0.0624003351748 0)
(0 -0.0531856850688 0)
(0 -0.0450969975622 0)
(0 -0.0435671942674 0)
)
;
    }
    floatingObject
    {
        type            movingWallVelocity;
        value           nonuniform List<vector> 0();
    }
    procBoundary1to0
    {
        type            processor;
        value           nonuniform List<vector> 10((0.0233739542993 -0.00369389711142 -6.57102481477e-24) (0.025241236002 -0.00412485920301 -5.87811275433e-23) (0.0273729369795 -0.00457038207321 -1.44697030916e-22) (0.0296984855361 -0.00499078684904 -5.89117215305e-22) (0.0320595032324 -0.00573082726896 -2.21374674334e-21) (0.0345036957131 -0.00504185278172 -1.51881099716e-21) (0.0374777612746 -0.00783597213217 -7.37874947157e-21) (0.0373094889242 -0.005169288072 -9.15606877232e-21) (0.160357071652 -0.0161669133033 -1.07304215944e-20) (0.0968873494803 -0.0374761997456 -7.43119288797e-21));
    }
    procBoundary1to2
    {
        type            processor;
        value           nonuniform List<vector> 
18
(
(0.000391374279549 -0.00805080527353 -3.74460583313e-23)
(0.00173229969987 -0.00836608037726 -1.67382461373e-22)
(0.00290438087466 -0.00878416999749 -1.05558888822e-22)
(0.00411335213344 -0.0103540612188 -1.39313565685e-23)
(0.00411335213344 -0.0103540612188 -1.39313565685e-23)
(0.00539332897475 -0.0119670161612 9.98290817307e-24)
(0.00539332897475 -0.0119670161612 9.98290817307e-24)
(0.00689883553123 -0.0121311639809 7.47165933693e-24)
(0.00851107897034 -0.0121587460223 -7.59431008968e-24)
(0.0102008598713 -0.0120324164449 -1.58175048265e-23)
(0.011922826281 -0.0117323935114 -1.35997217734e-23)
(0.0136305551137 -0.0112443347789 -6.13159365014e-24)
(0.015278391668 -0.010566191222 -8.78413078427e-24)
(0.0168192644953 -0.00970608036613 -2.17032768539e-23)
(0.0182115162044 -0.00866543531573 -2.46400802135e-23)
(0.0194237854985 -0.00748994021417 -1.40003646247e-23)
(0.020441688172 -0.00618298229939 1.52418110861e-23)
(0.0212449060417 -0.0047486104984 3.16798222911e-23)
)
;
    }
}


// ************************************************************************* //
