/*--------------------------------*- C++ -*----------------------------------*\
| =========                 |                                                 |
| \\      /  F ield         | OpenFOAM: The Open Source CFD Toolbox           |
|  \\    /   O peration     | Version:  v2012                                 |
|   \\  /    A nd           | Website:  www.openfoam.com                      |
|    \\/     M anipulation  |                                                 |
\*---------------------------------------------------------------------------*/
FoamFile
{
    version     2.0;
    format      ascii;
    class       volScalarField;
    location    "1.2";
    object      nut;
}
// * * * * * * * * * * * * * * * * * * * * * * * * * * * * * * * * * * * * * //

dimensions      [0 2 -1 0 0 0 0];


internalField   nonuniform List<scalar> 
164
(
0.000904446314533
0.00133297157896
0.00137104777799
0.00138541484056
0.00139161758632
0.00139396820577
0.00138877027891
0.00136080178723
0.000993768585123
0.000986422075836
0.000990101283216
0.00100218070087
0.00138205674349
0.00141580118552
0.000907257734301
0.00133577389331
0.00137389166622
0.00138852592692
0.00139532527704
0.00139956719778
0.00140224782032
0.00140139524497
0.00140407332895
0.0014087634079
0.00141557437946
0.00142439137837
0.00143538621948
0.00144708048422
0.000910308528979
0.00133922797497
0.00137731806458
0.00139201709244
0.00139896575068
0.0014036504712
0.00140798066585
0.00141250069402
0.0014179858203
0.001424227154
0.00143101723342
0.00143828067486
0.00144597049764
0.00145389982433
0.000913444853103
0.00134311835015
0.00138109847094
0.00139568724181
0.00140252956486
0.00140711542905
0.00141142388528
0.00141614864693
0.00142153872301
0.00142744681309
0.00143368256197
0.0014401517949
0.00144684179563
0.00145375841947
0.000916532115171
0.00134720904929
0.0013850037056
0.00139934407845
0.0014059365408
0.00141025360039
0.00141423488516
0.00141853986493
0.00142336150621
0.00142863486289
0.00143423296524
0.00144006470557
0.00144611343927
0.00145242320205
0.000919467625033
0.00135129709091
0.00138884436385
0.00140283595483
0.00140909579133
0.00141308705617
0.00141670300235
0.00142056627335
0.00142485023199
0.0014295363248
0.00143454269734
0.00143979142435
0.00144524951715
0.00145097012755
0.00092218249557
0.00135523099863
0.00139248330882
0.00140605970359
0.00141194313046
0.00141559305568
0.00141885606091
0.00142231964848
0.00142614116507
0.00143032063682
0.00143480323252
0.00143952473503
0.0014444457651
0.00144962003427
0.000924637319314
0.00135890979385
0.00139583242142
0.00140895515084
0.00141444580194
0.00141776008073
0.00142069544463
0.00142380381044
0.00142722764949
0.00143097332408
0.00143500297524
0.00143926788539
0.00144373995011
0.00144849844001
0.000926815760146
0.00136227491434
0.00139884315877
0.00141149494394
0.00141659542802
0.00141959218117
0.00142223005622
0.00142502488753
0.00142810489932
0.00143147752378
0.00143511701903
0.00143899055007
0.00144309759078
0.00144760369913
0.000928717300146
0.00136529823285
0.00140149510122
0.00141367421631
0.00141839974722
0.00142110402868
0.00142347603428
0.00142599563176
0.00142877807776
0.00143182786225
0.00143513015759
0.00143866478273
0.00144245474455
0.00144674859181
0.000930350227115
0.00136796862939
0.0014037844218
0.0014155009141
0.00141987471727
0.00142231473695
0.00142445188593
0.00142673108601
0.00142925477764
0.00143202528852
0.00143503522773
0.00143827479178
0.00144178333793
0.0014458834555
0.00142954596483
0.00143207405053
0.00143482997341
0.00143781205653
0.00144107932487
0.0014450339523
0.00143727325848
0.00144033856947
0.00144421596336
0.00144339768086
)
;

boundaryField
{
    back
    {
        type            nutkWallFunction;
        blending        stepwise;
        Cmu             0.09;
        kappa           0.41;
        E               9.8;
        value           nonuniform List<scalar> 
164
(
0.000118568054994
0.000129833848312
0.000133168866797
0.000134413780547
0.000134948175983
0.000135151832502
0.000134698096077
0.000132229574796
0.000129093611569
0.00012822122157
0.000128639980034
0.000130050070515
0.00013407239526
0.000137033797018
0.000118898617408
0.000130077991276
0.000133416141201
0.000134683940777
0.000135269606287
0.000135636736176
0.000135871735653
0.000135798830363
0.000136035160458
0.000136444258964
0.000137036729924
0.000137804114471
0.000138761991199
0.000139778798788
0.000119256771983
0.000130378636899
0.000133713630055
0.000134986610427
0.00013558476125
0.000135989473808
0.000136366438748
0.000136762145073
0.000137242094661
0.000137787206311
0.000138379359198
0.0001390123208
0.000139682189866
0.000140372259531
0.000119624540327
0.000130717102199
0.000134041488173
0.000135304353565
0.000135892932155
0.000136288650764
0.000136662964216
0.00013707524057
0.000137546087983
0.000138062020366
0.000138606270978
0.000139170741742
0.00013975447127
0.000140357938172
0.000119986202553
0.000131072919933
0.000134379883567
0.000135620561206
0.000136187201902
0.000136559421716
0.000136905042933
0.000137280342397
0.000137701325168
0.000138161876975
0.000138650780608
0.00013916016678
0.00013968868917
0.000140240070342
0.00012032976404
0.000131428455097
0.000134712440462
0.00013592216698
0.000136459755579
0.0001368036544
0.000137117460562
0.000137454181131
0.000137828214305
0.000138237609665
0.000138675140604
0.000139134113681
0.000139611734719
0.000140112428814
0.000120647179127
0.000131770524
0.000135027302642
0.000136200298907
0.000136705095842
0.000137019399413
0.000137302547985
0.000137604450776
0.000137938169333
0.000138303450173
0.000138695475083
0.000139108788774
0.000139540081095
0.00013999391902
0.000120933849906
0.000132090318376
0.000135316848713
0.000136449792464
0.000136920430739
0.000137205679947
0.000137460403307
0.000137731388587
0.000138030447401
0.00013835793077
0.000138710526655
0.000139084130831
0.000139476436647
0.000139894429888
0.000121187883682
0.00013238271044
0.000135576871485
0.000136668303015
0.000137105054636
0.000137362848062
0.000137591775238
0.000137835472176
0.000138104555968
0.000138399495334
0.000138718046551
0.000139057442621
0.000139417662531
0.000139813052537
0.000121409258104
0.000132645229731
0.000135805601381
0.000136855428299
0.00013725965411
0.000137492179882
0.000137698056651
0.00013791779522
0.000138160910303
0.000138427640846
0.000138716702289
0.000139026379966
0.000139358591343
0.000139734617162
0.000121598986292
0.000132876895763
0.000136002715376
0.000137011882722
0.000137385636543
0.000137595349616
0.000137780857626
0.000137979646937
0.00013820015876
0.000138442455689
0.000138705901686
0.000138989642991
0.000139296962603
0.000139655526925
0.000138223242724
0.00013844433349
0.000138685471854
0.00013894652341
0.000139232397946
0.000139577672815
0.00013889679751
0.000139164587799
0.000139502109297
0.000139426697428
)
;
    }
    sides
    {
        type            nutkWallFunction;
        blending        stepwise;
        Cmu             0.09;
        kappa           0.41;
        E               9.8;
        value           nonuniform List<scalar> 0();
    }
    bottom
    {
        type            nutkWallFunction;
        blending        stepwise;
        Cmu             0.09;
        kappa           0.41;
        E               9.8;
        value           nonuniform List<scalar> 
11
(
6.31024982309e-05
6.32783388695e-05
6.34688537415e-05
6.36644790097e-05
6.38568528319e-05
6.40395954318e-05
6.42084278674e-05
6.43609052279e-05
6.44960215164e-05
6.46137654899e-05
6.47146765559e-05
)
;
    }
    front
    {
        type            nutkWallFunction;
        blending        stepwise;
        Cmu             0.09;
        kappa           0.41;
        E               9.8;
        value           nonuniform List<scalar> 
164
(
0.000118568054994
0.000129833848312
0.000133168866797
0.000134413780547
0.000134948175983
0.000135151832502
0.000134698096077
0.000132229574796
0.000129093611569
0.00012822122157
0.000128639980034
0.000130050070515
0.00013407239526
0.000137033797018
0.000118898617408
0.000130077991276
0.000133416141201
0.000134683940777
0.000135269606287
0.000135636736176
0.000135871735653
0.000135798830363
0.000136035160458
0.000136444258964
0.000137036729924
0.000137804114471
0.000138761991199
0.000139778798788
0.000119256771983
0.000130378636899
0.000133713630055
0.000134986610427
0.00013558476125
0.000135989473808
0.000136366438748
0.000136762145073
0.000137242094661
0.000137787206311
0.000138379359198
0.0001390123208
0.000139682189866
0.000140372259531
0.000119624540327
0.000130717102199
0.000134041488173
0.000135304353565
0.000135892932155
0.000136288650764
0.000136662964216
0.00013707524057
0.000137546087983
0.000138062020366
0.000138606270978
0.000139170741742
0.00013975447127
0.000140357938172
0.000119986202553
0.000131072919933
0.000134379883567
0.000135620561206
0.000136187201902
0.000136559421716
0.000136905042933
0.000137280342397
0.000137701325168
0.000138161876975
0.000138650780608
0.00013916016678
0.00013968868917
0.000140240070342
0.00012032976404
0.000131428455097
0.000134712440462
0.00013592216698
0.000136459755579
0.0001368036544
0.000137117460562
0.000137454181131
0.000137828214305
0.000138237609665
0.000138675140604
0.000139134113681
0.000139611734719
0.000140112428814
0.000120647179127
0.000131770524
0.000135027302642
0.000136200298907
0.000136705095842
0.000137019399413
0.000137302547985
0.000137604450776
0.000137938169333
0.000138303450173
0.000138695475083
0.000139108788774
0.000139540081095
0.00013999391902
0.000120933849906
0.000132090318376
0.000135316848713
0.000136449792464
0.000136920430739
0.000137205679947
0.000137460403307
0.000137731388587
0.000138030447401
0.00013835793077
0.000138710526655
0.000139084130831
0.000139476436647
0.000139894429888
0.000121187883682
0.00013238271044
0.000135576871485
0.000136668303015
0.000137105054636
0.000137362848062
0.000137591775238
0.000137835472176
0.000138104555968
0.000138399495334
0.000138718046551
0.000139057442621
0.000139417662531
0.000139813052537
0.000121409258104
0.000132645229731
0.000135805601381
0.000136855428299
0.00013725965411
0.000137492179882
0.000137698056651
0.00013791779522
0.000138160910303
0.000138427640846
0.000138716702289
0.000139026379966
0.000139358591343
0.000139734617162
0.000121598986292
0.000132876895763
0.000136002715376
0.000137011882722
0.000137385636543
0.000137595349616
0.000137780857626
0.000137979646937
0.00013820015876
0.000138442455689
0.000138705901686
0.000138989642991
0.000139296962603
0.000139655526925
0.000138223242724
0.00013844433349
0.000138685471854
0.00013894652341
0.000139232397946
0.000139577672815
0.00013889679751
0.000139164587799
0.000139502109297
0.000139426697428
)
;
    }
    atmosphere
    {
        type            calculated;
        value           nonuniform List<scalar> 0();
    }
    floatingObject
    {
        type            nutkWallFunction;
        blending        stepwise;
        Cmu             0.09;
        kappa           0.41;
        E               9.8;
        value           nonuniform List<scalar> 4(6.87001350515e-05 6.82362901658e-05 6.84589439767e-05 6.92086580526e-05);
    }
    procBoundary8to3
    {
        type            processor;
        value           nonuniform List<scalar> 8(0.000902060517852 0.00133099832669 0.00136901345185 0.00138289160282 0.00138780222403 0.00138629550374 0.0013679721284 0.000952524145215);
    }
    procBoundary8to6
    {
        type            processor;
        value           nonuniform List<scalar> 
16
(
0.0010006247851
0.00138819686513
0.00143905669446
0.00145822755119
0.00146220274043
0.00146123885784
0.00145937460789
0.0014573750441
0.001455529937
0.00145414361377
0.00145335687365
0.00145267393051
0.00145194789783
0.00145130619575
0.00145088428585
0.00145057466274
)
;
    }
    procBoundary8to7
    {
        type            processor;
        value           nonuniform List<scalar> 
17
(
0.000931728607298
0.00137028797926
0.00140571989543
0.00141699261402
0.00142104261487
0.0014232473718
0.00142517841234
0.00142724755831
0.00142724755831
0.00142966236683
0.00143198140795
0.00143451569032
0.00143451569032
0.0014366549359
0.00143955196532
0.00143955196532
0.00144256597869
)
;
    }
}


// ************************************************************************* //
