/*--------------------------------*- C++ -*----------------------------------*\
| =========                 |                                                 |
| \\      /  F ield         | OpenFOAM: The Open Source CFD Toolbox           |
|  \\    /   O peration     | Version:  v2012                                 |
|   \\  /    A nd           | Website:  www.openfoam.com                      |
|    \\/     M anipulation  |                                                 |
\*---------------------------------------------------------------------------*/
FoamFile
{
    version     2.0;
    format      ascii;
    class       volScalarField;
    location    "5.8";
    object      epsilon;
}
// * * * * * * * * * * * * * * * * * * * * * * * * * * * * * * * * * * * * * //

dimensions      [0 2 -3 0 0 0 0];


internalField   nonuniform List<scalar> 
164
(
0.000410212116606
0.000427494216233
0.000470252918352
0.000487136942477
0.000494040258404
0.000497427778629
0.000499796180757
0.000502066181079
0.000410174335456
0.000427423190625
0.00047026470356
0.000487224502018
0.000494181307907
0.000497604412317
0.000499997760963
0.000502286682388
0.000409955960825
0.000427180227889
0.000470086212301
0.000487118322671
0.000494132505876
0.000497596719881
0.00050002139871
0.000502335658684
0.000504905667752
0.000508008603949
0.000409554088625
0.000426757394583
0.000469710531769
0.00048681212938
0.000493888314931
0.000497400587603
0.000499863978474
0.000502211966386
0.000504812226478
0.000507937933955
0.000408962377236
0.00042614790861
0.000469128255471
0.000486298183155
0.000493442605201
0.000497011500272
0.000499523034522
0.000501915478321
0.000504558984278
0.00050772486462
0.000408185814562
0.000425349097136
0.000468334802554
0.000485570789689
0.000492790398941
0.000496426157863
0.00049899664212
0.000501445362487
0.000504146574986
0.000507377400992
0.000407216614482
0.000424351346599
0.000467320722548
0.000484621860789
0.000491926060905
0.000495641283602
0.000498283964483
0.000500803322222
0.000503581107813
0.000506911549153
0.000406031693167
0.00042313339551
0.000466075722338
0.000483444550165
0.000490844950191
0.000494654304714
0.000497384969675
0.000499992402325
0.000502870331547
0.000506343077761
0.000404613340593
0.000421694191339
0.000464593952785
0.000482034035001
0.000489543275425
0.000493462585356
0.000496298919097
0.000499014454394
0.000502017909195
0.00050567479038
0.000402975385843
0.000420032886338
0.000462869029064
0.000480384334082
0.000488016237551
0.000492062987162
0.000495023975084
0.000497867869833
0.00050101955103
0.000504889721978
0.000401095934586
0.000418145132669
0.000460899658306
0.000478492880872
0.00048626085219
0.000490452951516
0.00049355769148
0.000496550123611
0.000499867969575
0.000503959968282
0.000398981832207
0.000416025198135
0.000458683993882
0.000476358057155
0.000484274696442
0.00048863026346
0.000491899793883
0.00049506068316
0.00049855913062
0.000502866577899
0.000396624439954
0.000413679164395
0.000456225014776
0.000473980952277
0.000482058111092
0.00048659554776
0.000490050769777
0.000493401609594
0.000497098249926
0.000501616236661
0.000394028151155
0.000411110690375
0.000453529654465
0.000471366815493
0.000479614905014
0.000484351310005
0.000488014491751
0.000491579850273
0.000495495465849
0.00050022729908
0.000391192724612
0.00040833211567
0.000450610288444
0.000468526346804
0.00047695223046
0.000481903755736
0.000485798957925
0.000489604711369
0.000493763994274
0.000498703704806
0.00038812211802
0.000405364991496
0.000447488623885
0.000465474941585
0.000474081675847
0.000479262961522
0.000483410419652
0.000487486997568
0.000491905120541
0.00049707326062
0.000384861370681
0.000402243979279
0.000444196199796
0.000462241907404
0.000471021022997
0.000476433769666
0.00048085133031
0.000467787074679
)
;

boundaryField
{
    back
    {
        lowReCorrection 0;
        blending        stepwise;
        n               2;
        type            epsilonWallFunction;
        value           nonuniform List<scalar> 
164
(
0.000410212116606
0.000427494216233
0.000470252918352
0.000487136942477
0.000494040258404
0.000497427778629
0.000499796180757
0.000502066181079
0.000410174335456
0.000427423190625
0.00047026470356
0.000487224502018
0.000494181307907
0.000497604412317
0.000499997760963
0.000502286682388
0.000409955960825
0.000427180227889
0.000470086212301
0.000487118322671
0.000494132505876
0.000497596719881
0.00050002139871
0.000502335658684
0.000504905667752
0.000508008603949
0.000409554088625
0.000426757394583
0.000469710531769
0.00048681212938
0.000493888314931
0.000497400587603
0.000499863978474
0.000502211966386
0.000504812226478
0.000507937933955
0.000408962377236
0.00042614790861
0.000469128255471
0.000486298183155
0.000493442605201
0.000497011500272
0.000499523034522
0.000501915478321
0.000504558984278
0.00050772486462
0.000408185814562
0.000425349097136
0.000468334802554
0.000485570789689
0.000492790398941
0.000496426157863
0.00049899664212
0.000501445362487
0.000504146574986
0.000507377400992
0.000407216614482
0.000424351346599
0.000467320722548
0.000484621860789
0.000491926060905
0.000495641283602
0.000498283964483
0.000500803322222
0.000503581107813
0.000506911549153
0.000406031693167
0.00042313339551
0.000466075722338
0.000483444550165
0.000490844950191
0.000494654304714
0.000497384969675
0.000499992402325
0.000502870331547
0.000506343077761
0.000404613340593
0.000421694191339
0.000464593952785
0.000482034035001
0.000489543275425
0.000493462585356
0.000496298919097
0.000499014454394
0.000502017909195
0.00050567479038
0.000402975385843
0.000420032886338
0.000462869029064
0.000480384334082
0.000488016237551
0.000492062987162
0.000495023975084
0.000497867869833
0.00050101955103
0.000504889721978
0.000401095934586
0.000418145132669
0.000460899658306
0.000478492880872
0.00048626085219
0.000490452951516
0.00049355769148
0.000496550123611
0.000499867969575
0.000503959968282
0.000398981832207
0.000416025198135
0.000458683993882
0.000476358057155
0.000484274696442
0.00048863026346
0.000491899793883
0.00049506068316
0.00049855913062
0.000502866577899
0.000396624439954
0.000413679164395
0.000456225014776
0.000473980952277
0.000482058111092
0.00048659554776
0.000490050769777
0.000493401609594
0.000497098249926
0.000501616236661
0.000394028151155
0.000411110690375
0.000453529654465
0.000471366815493
0.000479614905014
0.000484351310005
0.000488014491751
0.000491579850273
0.000495495465849
0.00050022729908
0.000391192724612
0.00040833211567
0.000450610288444
0.000468526346804
0.00047695223046
0.000481903755736
0.000485798957925
0.000489604711369
0.000493763994274
0.000498703704806
0.00038812211802
0.000405364991496
0.000447488623885
0.000465474941585
0.000474081675847
0.000479262961522
0.000483410419652
0.000487486997568
0.000491905120541
0.00049707326062
0.000384861370681
0.000402243979279
0.000444196199796
0.000462241907404
0.000471021022997
0.000476433769666
0.00048085133031
0.000467787074679
)
;
    }
    sides
    {
        lowReCorrection 0;
        blending        stepwise;
        n               2;
        type            epsilonWallFunction;
        value           nonuniform List<scalar> 0();
    }
    bottom
    {
        lowReCorrection 0;
        blending        stepwise;
        n               2;
        type            epsilonWallFunction;
        value           nonuniform List<scalar> 
17
(
0.000410212116606
0.000410174335456
0.000409955960825
0.000409554088625
0.000408962377236
0.000408185814562
0.000407216614482
0.000406031693167
0.000404613340593
0.000402975385843
0.000401095934586
0.000398981832207
0.000396624439954
0.000394028151155
0.000391192724612
0.00038812211802
0.000384861370681
)
;
    }
    front
    {
        lowReCorrection 0;
        blending        stepwise;
        n               2;
        type            epsilonWallFunction;
        value           nonuniform List<scalar> 
164
(
0.000410212116606
0.000427494216233
0.000470252918352
0.000487136942477
0.000494040258404
0.000497427778629
0.000499796180757
0.000502066181079
0.000410174335456
0.000427423190625
0.00047026470356
0.000487224502018
0.000494181307907
0.000497604412317
0.000499997760963
0.000502286682388
0.000409955960825
0.000427180227889
0.000470086212301
0.000487118322671
0.000494132505876
0.000497596719881
0.00050002139871
0.000502335658684
0.000504905667752
0.000508008603949
0.000409554088625
0.000426757394583
0.000469710531769
0.00048681212938
0.000493888314931
0.000497400587603
0.000499863978474
0.000502211966386
0.000504812226478
0.000507937933955
0.000408962377236
0.00042614790861
0.000469128255471
0.000486298183155
0.000493442605201
0.000497011500272
0.000499523034522
0.000501915478321
0.000504558984278
0.00050772486462
0.000408185814562
0.000425349097136
0.000468334802554
0.000485570789689
0.000492790398941
0.000496426157863
0.00049899664212
0.000501445362487
0.000504146574986
0.000507377400992
0.000407216614482
0.000424351346599
0.000467320722548
0.000484621860789
0.000491926060905
0.000495641283602
0.000498283964483
0.000500803322222
0.000503581107813
0.000506911549153
0.000406031693167
0.00042313339551
0.000466075722338
0.000483444550165
0.000490844950191
0.000494654304714
0.000497384969675
0.000499992402325
0.000502870331547
0.000506343077761
0.000404613340593
0.000421694191339
0.000464593952785
0.000482034035001
0.000489543275425
0.000493462585356
0.000496298919097
0.000499014454394
0.000502017909195
0.00050567479038
0.000402975385843
0.000420032886338
0.000462869029064
0.000480384334082
0.000488016237551
0.000492062987162
0.000495023975084
0.000497867869833
0.00050101955103
0.000504889721978
0.000401095934586
0.000418145132669
0.000460899658306
0.000478492880872
0.00048626085219
0.000490452951516
0.00049355769148
0.000496550123611
0.000499867969575
0.000503959968282
0.000398981832207
0.000416025198135
0.000458683993882
0.000476358057155
0.000484274696442
0.00048863026346
0.000491899793883
0.00049506068316
0.00049855913062
0.000502866577899
0.000396624439954
0.000413679164395
0.000456225014776
0.000473980952277
0.000482058111092
0.00048659554776
0.000490050769777
0.000493401609594
0.000497098249926
0.000501616236661
0.000394028151155
0.000411110690375
0.000453529654465
0.000471366815493
0.000479614905014
0.000484351310005
0.000488014491751
0.000491579850273
0.000495495465849
0.00050022729908
0.000391192724612
0.00040833211567
0.000450610288444
0.000468526346804
0.00047695223046
0.000481903755736
0.000485798957925
0.000489604711369
0.000493763994274
0.000498703704806
0.00038812211802
0.000405364991496
0.000447488623885
0.000465474941585
0.000474081675847
0.000479262961522
0.000483410419652
0.000487486997568
0.000491905120541
0.00049707326062
0.000384861370681
0.000402243979279
0.000444196199796
0.000462241907404
0.000471021022997
0.000476433769666
0.00048085133031
0.000467787074679
)
;
    }
    atmosphere
    {
        type            inletOutlet;
        inletValue      nonuniform List<scalar> 0();
        value           nonuniform List<scalar> 0();
    }
    floatingObject
    {
        lowReCorrection 0;
        blending        stepwise;
        n               2;
        type            epsilonWallFunction;
        value           nonuniform List<scalar> 0();
    }
    procBoundary4to0
    {
        type            processor;
        value           nonuniform List<scalar> 8(0.000410056182815 0.000427389738713 0.000470053395261 0.000486859950537 0.000493713074942 0.000497071206302 0.000499421894525 0.00050168046253);
    }
    procBoundary4to3
    {
        type            processor;
        value           nonuniform List<scalar> 
13
(
0.000485220128119
0.000489959447666
0.000495371320697
0.000381421699874
0.000399009757192
0.000440778157074
0.000458856717395
0.00047340880049
0.000485220128119
0.000478085598988
0.000458856717395
0.00047340880049
0.000464390221803
)
;
    }
    procBoundary4to5
    {
        type            processor;
        value           nonuniform List<scalar> 
18
(
0.000504603944985
0.000504837267859
0.000504837267859
0.000507932815625
0.000512248796378
0.000512174703853
0.000511993474301
0.000511736275613
0.000511449520586
0.000511170669884
0.000510890016314
0.000510538110757
0.000510005606525
0.000509221202604
0.000508199070115
0.000506987834966
0.000505583231751
0.000503973881605
)
;
    }
}


// ************************************************************************* //
