/*--------------------------------*- C++ -*----------------------------------*\
| =========                 |                                                 |
| \\      /  F ield         | OpenFOAM: The Open Source CFD Toolbox           |
|  \\    /   O peration     | Version:  v2012                                 |
|   \\  /    A nd           | Website:  www.openfoam.com                      |
|    \\/     M anipulation  |                                                 |
\*---------------------------------------------------------------------------*/
FoamFile
{
    version     2.0;
    format      ascii;
    class       surfaceVectorField;
    location    "4.5";
    object      Uf_0;
}
// * * * * * * * * * * * * * * * * * * * * * * * * * * * * * * * * * * * * * //

dimensions      [0 1 -1 0 0 0 0];


internalField   nonuniform List<vector> 
300
(
(0.0191539311197 -0.00158549937062 -3.17908762515e-22)
(0.0205070651547 -0.00088476888259 -2.23251411563e-22)
(0.0180367519157 -0.00316665804438 -2.62747417975e-22)
(0.0193806119089 -0.00237425918698 -2.8706896646e-22)
(0.0171439597713 -0.00474071761236 -5.84410764328e-23)
(0.0182565765372 -0.00393488299099 -1.04363864397e-22)
(0.0166523801032 -0.00632511528393 1.05745430137e-22)
(0.0175940618615 -0.00552987449923 5.95424687494e-23)
(0.0164112157554 -0.00793866431679 1.62709026375e-22)
(0.0172939480835 -0.00713933044858 1.42250238558e-22)
(0.0162616056578 -0.00959337954465 1.52384646644e-22)
(0.0171517072395 -0.00878700637807 1.42315123308e-22)
(0.0161130287951 -0.0113065785583 1.33374259552e-22)
(0.0170487781737 -0.010487578216 1.19724433137e-22)
(0.0169285047235 -0.0122628541755 9.53422775486e-23)
(0.0207344479028 -0.00157010013468 -1.92411615508e-22)
(0.0220771523157 -0.000864366009189 -5.6562284076e-23)
(0.0196188017305 -0.00314890402436 -1.28685412882e-22)
(0.0209593951228 -0.00235160213292 -1.24686717579e-22)
(0.0187345879903 -0.0047314968677 1.3619680785e-23)
(0.0198391408231 -0.00391208637696 -3.39368047025e-24)
(0.018268145464 -0.00633954178047 9.60472771706e-23)
(0.0192020707708 -0.00551555181597 6.6983977253e-23)
(0.0180673664218 -0.00798096712559 1.21856335491e-22)
(0.0189353316033 -0.00714353893854 1.05399253666e-22)
(0.0179725002728 -0.00967281271196 1.09654909801e-22)
(0.0188435063585 -0.00881808246115 9.76529420597e-23)
(0.0178993804492 -0.0114342951856 8.16924511336e-23)
(0.0188102106798 -0.0105508827557 8.2475315211e-23)
(0.0178086581042 -0.013292514437 5.94813904859e-23)
(0.018786669907 -0.0123672073652 4.9347481355e-23)
(0.0176806702619 -0.0152775777546 4.36156272138e-23)
(0.0187435122735 -0.0142991830075 4.29799788419e-23)
(0.0175009009528 -0.0174527892916 -1.4871531992e-23)
(0.0186838878075 -0.0163851494375 1.06107068227e-23)
(0.0185965461933 -0.0186788307279 -1.06943292255e-22)
(0.0223025762055 -0.00154871565241 1.11626138532e-23)
(0.0236258501574 -0.000839346694086 5.43479385895e-23)
(0.0211986417252 -0.00311627098765 6.05014833203e-25)
(0.0225269244984 -0.00231869073975 -4.29331118766e-23)
(0.0203303045049 -0.00470038583133 4.99706159977e-23)
(0.0214232228929 -0.00387092567309 1.97174575082e-23)
(0.0198968751071 -0.00631171310992 7.63359537482e-23)
(0.0208133595084 -0.0054688566841 5.56680929911e-23)
(0.0197477587943 -0.00796727690403 8.11958602348e-23)
(0.02059085263 -0.00709745378857 7.34129820878e-23)
(0.0197227962168 -0.00968696613708 7.047334747e-23)
(0.0205631503307 -0.00877949033642 5.86547177549e-23)
(0.0197359485847 -0.0114635567206 5.01303454324e-23)
(0.0205867546821 -0.0105263981824 4.96291391465e-23)
(0.0197585762293 -0.0133567398023 3.2846069711e-23)
(0.0206798061039 -0.01235759006 4.42521580044e-23)
(0.0197884066121 -0.0153825819715 9.97505845086e-24)
(0.0207693092148 -0.014300462284 3.22823230892e-23)
(0.0198341798896 -0.0175868524788 -8.146105344e-23)
(0.0208881189686 -0.0163863775289 5.35737208918e-24)
(0.0198863048084 -0.0200393507271 -3.64993701759e-22)
(0.0210490183741 -0.0186584501066 -1.51790278801e-22)
(0.0198406841729 -0.0228501054141 -1.27506940271e-21)
(0.0212581042795 -0.0211913179067 -5.85156024541e-22)
(0.0213508410614 -0.0240890150287 -1.77863461049e-21)
(0.0238503232375 -0.00152182525271 2.52212859689e-25)
(0.0251476480157 -0.000813467396696 -8.19715523733e-24)
(0.0227654741948 -0.00307202641009 -2.38206692016e-23)
(0.0240770900114 -0.00227555201502 -8.29581682772e-23)
(0.0219207674944 -0.00464150885111 2.54149345016e-23)
(0.0229926640781 -0.00380814288247 -1.937152651e-23)
(0.0215250860756 -0.00624484646156 5.27451213307e-23)
(0.0224166519375 -0.00538782755359 3.71181599454e-23)
(0.0214284223072 -0.00789443382701 5.08718396079e-23)
(0.0222403927156 -0.00700227162747 5.60489087892e-23)
(0.0214758114778 -0.00960111291232 3.78105094314e-23)
(0.0222697821739 -0.00867048283915 4.41853374948e-23)
(0.0215815219821 -0.0114015532173 4.37509517185e-23)
(0.022387149686 -0.0104079520185 3.59173177042e-23)
(0.0217201161145 -0.0132799348689 4.36884113826e-23)
(0.0225581463051 -0.0122260744683 4.83018623283e-23)
(0.0218992882914 -0.0152810402209 2.76646367275e-23)
(0.0227703805101 -0.0141402758576 2.81336518888e-23)
(0.022141299439 -0.0174355829055 -6.49718532713e-23)
(0.0230426390034 -0.0161711562132 2.22022511024e-23)
(0.0224695929228 -0.0197908618925 -3.71952601582e-22)
(0.0234042927534 -0.0183426294133 -1.4932950534e-22)
(0.0228070709669 -0.0224082501295 -1.08872123233e-21)
(0.0238755255403 -0.0206968149482 -5.60776041435e-22)
(0.0227506214297 -0.0253758717645 -2.59592743957e-21)
(0.0243185577232 -0.0232731469055 -1.61440655917e-21)
(0.0240992531079 -0.0261070867394 -3.69265645049e-21)
(0.0253697358199 -0.00148967813098 -9.14075363742e-23)
(0.0266372874587 -0.000787301070702 -1.15068641154e-22)
(0.024310155398 -0.00300872183523 -7.85090255857e-23)
(0.0255960872028 -0.00221893221132 -1.36847170968e-22)
(0.0234958579851 -0.00455248459433 -7.66830106634e-24)
(0.0245363760667 -0.00371862494431 -6.9392068266e-23)
(0.0231418823253 -0.00613382679863 4.04219474039e-23)
(0.0239979413039 -0.00526877683481 1.20156353681e-23)
(0.0230969031638 -0.00776398525489 4.93624066761e-23)
(0.0238704984786 -0.00685825092638 4.02648124919e-23)
(0.0232073421938 -0.00945346414266 4.22921457676e-23)
(0.0239592111743 -0.00849925756365 4.29592502172e-23)
(0.0233964011863 -0.0112172393773 4.04682283141e-23)
(0.0241508803827 -0.010203596342 4.249947571e-23)
(0.0236407107967 -0.0130631876067 3.27471028345e-23)
(0.0244040586091 -0.0119822022755 4.13636337425e-23)
(0.0239436026764 -0.0150093201248 2.26712662636e-23)
(0.0247164896589 -0.0138452365064 3.24407639262e-23)
(0.0243309174901 -0.0170599200442 -6.21554009662e-23)
(0.025093233484 -0.0157943654113 4.808045936e-23)
(0.0248352567546 -0.0192394623444 -3.38152945193e-22)
(0.0255838531639 -0.0178325280211 -8.2346312896e-23)
(0.0254106810603 -0.0215560143778 -1.08646136828e-21)
(0.0261921360749 -0.0199719012769 -3.83619558058e-22)
(0.0256896146095 -0.0240497657975 -2.71113557009e-21)
(0.0268124273502 -0.0221906008289 -1.28096380786e-21)
(0.0268995903658 -0.024454008483 -3.25591532644e-21)
(0.026852563098 -0.00144715442518 -1.60508275747e-22)
(0.0280843926846 -0.00075325968701 -1.63768128464e-22)
(0.0258230181323 -0.00292376112577 -1.27730213648e-22)
(0.027072637745 -0.00214549246052 -1.60303783052e-22)
(0.0250431652377 -0.00443175126521 -4.97081318316e-23)
(0.0260443070499 -0.00360113611171 -8.21796163584e-23)
(0.024733109671 -0.00598116183406 1.18585004561e-23)
(0.0255472921226 -0.00511128473396 -4.05258409003e-24)
(0.0247405794899 -0.00757859128089 3.38616560329e-23)
(0.0254678701309 -0.0066646546372 1.96894279969e-23)
(0.0249118734442 -0.00923227830437 4.31665801595e-23)
(0.0256128455521 -0.00826711701881 3.59817582154e-23)
(0.0251719242301 -0.0109498839655 4.33948811384e-23)
(0.0258684419825 -0.00992656647613 4.74719734307e-23)
(0.0254969812282 -0.0127428012234 4.10572948342e-23)
(0.0261969442998 -0.0116542266899 3.73144842958e-23)
(0.0258905114036 -0.0146045518187 5.78499570225e-23)
(0.0265782259909 -0.0134547463104 4.43280089251e-23)
(0.0263702656676 -0.0165555426389 2.78895474302e-23)
(0.0270442324186 -0.0153202561166 6.68914666001e-23)
(0.026954506125 -0.0185609375964 -1.2781292576e-22)
(0.0275892834303 -0.0172417144447 2.37496712718e-24)
(0.0276089035292 -0.0205984536202 -5.78121997639e-22)
(0.0282297319797 -0.0192069567065 -1.52547492995e-22)
(0.028040383346 -0.0226684467509 -1.82574356422e-21)
(0.0288825626689 -0.0211680833536 -6.95444140531e-22)
(0.0291015999958 -0.023045895517 -2.14131958517e-21)
(0.0282894262813 -0.00138687461245 -1.63563635769e-22)
(0.0294712102834 -0.00071163620297 -1.65734485403e-22)
(0.0272943651295 -0.00281514058084 -1.14753185762e-22)
(0.0285008407998 -0.00205590836117 -1.32212148007e-22)
(0.0265519416652 -0.00427977818681 -3.65240686168e-23)
(0.0275088795543 -0.00345819567063 -6.09233752158e-23)
(0.0262861100736 -0.00578665456644 3.7783434508e-24)
(0.0270541034928 -0.0049181888991 1.93588191566e-24)
(0.0263454696589 -0.00734009444997 2.18095301794e-23)
(0.0270212478541 -0.00642346170513 1.36882713849e-23)
(0.0265762432213 -0.00894657914168 4.02871514865e-23)
(0.0272192746063 -0.0079770171374 2.49702605119e-23)
(0.0268996839191 -0.0106128800575 4.1391576588e-23)
(0.027534698013 -0.00958641307638 3.33549532928e-23)
(0.0272896929874 -0.0123418665026 4.05851983867e-23)
(0.0279259011411 -0.0112611127812 2.29197630843e-23)
(0.0277471003849 -0.014145808602 5.33695185027e-23)
(0.0283821587833 -0.0130003266821 3.49895544491e-23)
(0.0282772873289 -0.0159974096189 4.13768862971e-23)
(0.0288958489853 -0.0147972716549 4.53065064004e-23)
(0.0288823562108 -0.0178802358535 -2.23596001075e-23)
(0.0294721539389 -0.0166402491993 2.13774126965e-23)
(0.0295267744636 -0.0197620045673 -2.69869635887e-22)
(0.0301115925089 -0.0185081951293 -4.0922675072e-23)
(0.0299865947089 -0.0216215264422 -1.01102016149e-21)
(0.03074224169 -0.0203600500446 -3.7895810817e-22)
(0.0310505281443 -0.0221085764875 -1.33399950903e-21)
(0.0296670956081 -0.00131888336806 -1.34382997642e-22)
(0.0307900327502 -0.000669221572478 -1.70052660398e-22)
(0.0287125727735 -0.00268785707178 -7.83823374606e-23)
(0.0298697485817 -0.00195315125597 -1.02641156721e-22)
(0.028009876002 -0.00409696591125 -2.24634246833e-23)
(0.028917920303 -0.00329263938409 -3.97785092817e-23)
(0.0277883440682 -0.00554723220399 1.18458098498e-23)
(0.0285043014398 -0.00469117050885 9.99946097312e-24)
(0.0278984352717 -0.00704629249085 1.68490017173e-23)
(0.0285202424058 -0.00613717776261 1.16532492378e-23)
(0.0281865868924 -0.00860048354248 1.80380623181e-23)
(0.0287734066323 -0.00763327825454 9.28108860237e-24)
(0.028571309938 -0.010216157057 1.48831397891e-23)
(0.0291503240509 -0.00918772350267 9.29787609904e-24)
(0.0290244368955 -0.011895279067 1.73241191468e-23)
(0.0296049921782 -0.0108074318627 3.51433206218e-24)
(0.0295382141308 -0.0136346957309 2.69265423469e-23)
(0.0301215658402 -0.0124922561645 1.04776730421e-23)
(0.0301064671676 -0.0154298865471 2.53070327998e-23)
(0.0306910555152 -0.0142402407088 2.10191155439e-23)
(0.0307201232434 -0.017256472419 2.81433773203e-24)
(0.0312987840107 -0.0160421249767 2.18366235073e-23)
(0.0313429580017 -0.0190955991748 -1.50011147354e-22)
(0.0319508123421 -0.017880256724 -1.56271302354e-23)
(0.0318158592051 -0.0209260013302 -7.01937455711e-22)
(0.0325728063072 -0.0197282077994 -2.70181549198e-22)
(0.0329656381518 -0.0215065876539 -1.09800221761e-21)
(0.0309769632238 -0.0012503153453 -1.38310819477e-22)
(0.0320402875173 -0.000623020034747 -1.99437155972e-22)
(0.0300650010232 -0.00254512820103 -6.4037328542e-23)
(0.0311644961268 -0.00183598801428 -1.12511532335e-22)
(0.0294047822919 -0.00388364823433 -7.31562362522e-24)
(0.0302563718879 -0.00310325840353 -3.26342196294e-23)
(0.0292301793675 -0.00526978767713 9.80690036119e-24)
(0.0298903707853 -0.00442938906725 4.18051793712e-24)
(0.0293919052799 -0.00670668108818 4.08533612286e-24)
(0.0299570670577 -0.00580674770682 1.83106633168e-24)
(0.0297375685499 -0.00820077014641 5.40902383282e-25)
(0.0302674327731 -0.00723723780874 -8.72168284344e-25)
(0.0301861348878 -0.00975832994723 -2.07093162791e-24)
(0.0307078320783 -0.00872958871481 -3.51681645019e-24)
(0.0307057845494 -0.0113838348154 -3.33211404246e-24)
(0.0312304615642 -0.0102913126741 -9.21444433432e-24)
(0.0312815671578 -0.0130788766552 4.57024623918e-24)
(0.0318165929828 -0.0119258485265 -3.08741979614e-24)
(0.0319007841676 -0.0148389150837 1.75487062514e-23)
(0.0324511033709 -0.0136362159241 9.17036255075e-24)
(0.0325462234064 -0.0166600866066 3.39515553986e-24)
(0.0331199917934 -0.0154200886969 1.80809188431e-23)
(0.0331831123942 -0.0185152865265 -1.35797532079e-22)
(0.0338060985508 -0.0172683362587 2.52561567418e-24)
(0.0337010258596 -0.0204054499744 -6.66246311096e-22)
(0.0344631024777 -0.0191699807578 -1.77331505935e-22)
(0.0349384379063 -0.0210591816926 -9.71418746221e-22)
(0.0322078226027 -0.00116851125566 -1.7363786883e-22)
(0.0332087357764 -0.000567791720831 -2.4442091131e-22)
(0.0313408559012 -0.00238077399486 -8.11084234222e-23)
(0.0323766906761 -0.00170166855626 -1.41102253797e-22)
(0.030728142206 -0.003641376593 -2.1138078067e-23)
(0.0315169000196 -0.00288721667059 -5.8493797116e-23)
(0.0306045705701 -0.00495272918893 -3.79531609239e-24)
(0.0312016434266 -0.00413091936304 -2.45230671585e-24)
(0.0308217303531 -0.00631806355578 -3.12643807552e-24)
(0.0313223195643 -0.0054297328912 -3.84402636764e-24)
(0.0312292887314 -0.00774398876655 -4.92988711782e-24)
(0.0316932801197 -0.00678521988256 -4.68755530935e-24)
(0.0317467697022 -0.00923856178057 -1.06603291566e-23)
(0.032202338058 -0.0082070135912 -9.71439710439e-24)
(0.0323398348084 -0.0108092071652 -8.969750088e-24)
(0.0328010566618 -0.00970510160301 -1.05050109797e-23)
(0.0329903163844 -0.0124618513077 1.51269651544e-24)
(0.0334692079977 -0.0112872948373 -5.68978429128e-24)
(0.0336820358228 -0.0142006665296 9.70257514247e-24)
(0.0341899132762 -0.0129616275406 4.57773498626e-24)
(0.0343954550891 -0.0160260711378 1.72113789774e-23)
(0.0349454174996 -0.0147339545963 2.11343429681e-23)
(0.0350988247291 -0.0179335578408 -3.90083581817e-23)
(0.0357136407971 -0.0166071974817 4.24380804228e-23)
(0.0357042832156 -0.0199267765424 -4.8250394106e-22)
(0.0364564251899 -0.0185915314117 -5.71835847101e-24)
(0.0358886398136 -0.0220394187914 -1.85750667206e-21)
(0.0370512481677 -0.0206420825341 -6.89115183828e-22)
(0.034976168646 -0.0244048388584 -5.02123997926e-21)
(0.037004548472 -0.0227021507858 -2.85805364537e-21)
(0.0355476959641 -0.0261488187637 -6.01275164443e-21)
(0.033349411345 -0.00107237864718 -2.11885296277e-22)
(0.0342810460248 -0.000507431041833 -2.99642241235e-22)
(0.0325319264832 -0.00219359123915 -1.18487627491e-22)
(0.0334978248692 -0.00155083826304 -1.88842535559e-22)
(0.0319709909046 -0.00336627945669 -3.98080257648e-23)
(0.0326894977505 -0.00264286466451 -9.73674131886e-23)
(0.0319014029661 -0.00459276603903 -2.50101699109e-24)
(0.0324280292072 -0.00379307328793 1.23952565957e-23)
(0.0321776486668 -0.00587600142068 -5.40514360146e-24)
(0.0326054495447 -0.0050019429579 5.55660651218e-24)
(0.0326524329625 -0.00722371596421 -9.47206529592e-24)
(0.0330408934118 -0.00627102556976 -6.13503028736e-24)
(0.0332463049697 -0.00864617181616 -9.55907892747e-24)
(0.0336247054173 -0.00761125729683 -1.55964931446e-23)
(0.0339244448202 -0.0101553821875 -7.22504518297e-24)
(0.0343101976289 -0.00903554849557 -3.10362206229e-24)
(0.0346680837112 -0.0117608657267 -2.62474582046e-24)
(0.0350746447963 -0.0105557969728 -7.84532809432e-24)
(0.0354601322896 -0.013474102142 1.60095028119e-23)
(0.0359031277939 -0.0121854361265 -8.51780835039e-24)
(0.036281027209 -0.0153059987125 4.63610444135e-23)
(0.0367773216764 -0.0139389129201 4.17390025022e-23)
(0.0371036411261 -0.0172683208896 7.57280801335e-23)
(0.0376760100126 -0.0158317846481 7.34752524011e-23)
(0.0378579238143 -0.0193849209849 -2.12329601239e-22)
(0.0385731270237 -0.0178929551727 1.41978754376e-22)
(0.0382658821044 -0.0217064630848 -1.68966215713e-21)
(0.0393729587424 -0.0201091629704 -3.71063471528e-22)
(0.0377119938554 -0.0243607347814 -3.84956531053e-21)
(0.0396590364451 -0.0223870618875 -2.31561824454e-21)
(0.0386896031873 -0.0262423933126 -2.10750663184e-21)
(0.0343930336376 -0.000967574173906 -2.76599480517e-22)
(0.033627754594 -0.00198431046669 -1.67722321256e-22)
(0.033121363409 -0.00305694118005 -4.51641308281e-23)
(0.0331083168052 -0.00418595265911 2.0452880099e-23)
(0.0334468771823 -0.00537477056865 4.82671982629e-24)
(0.0339939449597 -0.00663204492916 -1.2259458136e-23)
(0.0346725133071 -0.0079704782502 -9.1410362794e-24)
(0.0354486709593 -0.0094037892229 -3.72390497364e-24)
(0.0363042088644 -0.0109489044949 -1.37383906243e-23)
(0.0372238068842 -0.0126213389316 1.72116913399e-23)
(0.0381910776306 -0.0144438497931 6.88532104899e-23)
(0.0391847236112 -0.0164440729965 1.39725926644e-22)
(0.0401632552562 -0.0186566984473 -1.67551159131e-23)
(0.0409088994405 -0.021169699626 -9.97019558936e-22)
(0.0408616367035 -0.0242060695769 -5.73559565843e-22)
)
;

boundaryField
{
    back
    {
        type            calculated;
        value           uniform (0 0 0);
    }
    sides
    {
        type            calculated;
        value           nonuniform List<vector> 0();
    }
    bottom
    {
        type            calculated;
        value           uniform (0 0 0);
    }
    front
    {
        type            calculated;
        value           uniform (0 0 0);
    }
    atmosphere
    {
        type            calculated;
        value           nonuniform List<vector> 0();
    }
    floatingObject
    {
        type            calculated;
        value           nonuniform List<vector> 0();
    }
    procBoundary7to6
    {
        type            processor;
        value           nonuniform List<vector> 
11
(
(0.0213287136593 -0.0287156836156 -5.88458586108e-21)
(0.0245292734728 -0.0268499558472 -5.73063243596e-21)
(0.0271818455421 -0.0248702826625 -4.47648773244e-21)
(0.0294161175643 -0.0235702647348 -2.5525989961e-21)
(0.0315400967252 -0.0228409093525 -1.94076211254e-21)
(0.0336875790262 -0.0223780653219 -1.98652627227e-21)
(0.0346388164401 -0.0229710533418 -2.87261419811e-21)
(0.0327551443082 -0.0262427110143 -6.0827224588e-21)
(0.0336835762982 -0.0271971387137 -3.68219001119e-21)
(0.0366994485272 -0.0275024822163 -2.27077561119e-21)
(0.0401689627947 -0.0279834046059 3.00671269936e-21)
)
;
    }
    procBoundary7to8
    {
        type            processor;
        value           nonuniform List<vector> 
17
(
(0.0189216023547 -0.000900851563734 -2.4387178399e-22)
(0.0177994989792 -0.00237972831328 -4.13105864762e-22)
(0.0166825757454 -0.00392818859939 -2.01801557737e-22)
(0.0160097367081 -0.00550162643443 3.76994889075e-23)
(0.0156804820202 -0.00707854142509 1.74572121328e-22)
(0.0154970839854 -0.00868640322017 1.815437934e-22)
(0.0153356700095 -0.0103373891432 1.54544575891e-22)
(0.0151334247945 -0.0120505232577 1.41370153751e-22)
(0.0159200580348 -0.0131017482872 1.17260249025e-22)
(0.016758540206 -0.0141433760527 8.1399361962e-23)
(0.0165087524331 -0.016168263213 6.23734206899e-23)
(0.0161643349369 -0.0183834626617 -4.46751576947e-23)
(0.017223250464 -0.0198850575125 -2.95676284647e-22)
(0.0184473500342 -0.0212707615727 -5.53726694151e-22)
(0.0180789965397 -0.0242875542933 -2.09581290811e-21)
(0.0193722689677 -0.026121889712 -3.24849750486e-21)
(0.0207592966605 -0.0274123005467 -4.06579033394e-21)
)
;
    }
    procBoundary7to9
    {
        type            processor;
        value           nonuniform List<vector> 
16
(
(0.035248551195 -0.000445564418045 -3.6448072187e-22)
(0.0345144773216 -0.00138510839601 -2.28847297579e-22)
(0.0337620293599 -0.00236983127518 -1.17196038859e-22)
(0.0335569294167 -0.00341350823741 2.79327064154e-23)
(0.0337941514608 -0.00451901919039 1.82699366371e-23)
(0.0342980568014 -0.00568767757572 2.59475928094e-24)
(0.0349630414655 -0.00693154168535 -1.08409281484e-23)
(0.0357434308782 -0.00826644232704 -5.63271903601e-26)
(0.0366197045 -0.00970791355242 -5.5454169044e-24)
(0.0375755320181 -0.0112732923115 -9.85333354036e-24)
(0.0385998354803 -0.0129838901548 3.42704925584e-23)
(0.0396762830861 -0.0148710339089 5.83098943877e-23)
(0.0407858611271 -0.0169724890983 1.31262552629e-22)
(0.0418861388 -0.0193020672385 -1.88576296698e-22)
(0.0426956010029 -0.0218078481206 -1.63234302997e-21)
(0.0424671141307 -0.0260253455037 5.45834459862e-22)
)
;
    }
}


// ************************************************************************* //
