/*--------------------------------*- C++ -*----------------------------------*\
| =========                 |                                                 |
| \\      /  F ield         | OpenFOAM: The Open Source CFD Toolbox           |
|  \\    /   O peration     | Version:  v2012                                 |
|   \\  /    A nd           | Website:  www.openfoam.com                      |
|    \\/     M anipulation  |                                                 |
\*---------------------------------------------------------------------------*/
FoamFile
{
    version     2.0;
    format      ascii;
    class       volScalarField;
    location    "1.7";
    object      ddt0(epsilon);
}
// * * * * * * * * * * * * * * * * * * * * * * * * * * * * * * * * * * * * * //

dimensions      [0 2 -4 0 0 0 0];


internalField   nonuniform List<scalar> 
166
(
-0.0117733035941
-0.0117996192987
-0.0118278300234
-0.0118593714452
-0.0119071906918
-0.0120342238359
-0.0124639408577
-0.0138264754787
-0.0176093926109
-0.0266631626839
-0.0440341028655
-0.0693476982802
-0.118516139929
-0.0117784974437
-0.0117975359626
-0.0118190909575
-0.0118428974254
-0.0118682191245
-0.0118949752288
-0.0119309245461
-0.0120207921758
-0.0123382541982
-0.0133945536189
-0.0163926681469
-0.0234139704456
-0.0341290209614
-0.0443569982016
-0.0399436937579
-0.010924990909
-0.0109052774001
-0.0118111234084
-0.0118279957172
-0.0118450852223
-0.0118645787875
-0.0118861380561
-0.0119088162255
-0.0119316132763
-0.0119576454187
-0.012016898658
-0.0122436066047
-0.0130647841556
-0.015452324315
-0.0202564388033
-0.0219324784736
-0.0193304408114
-0.000648964844873
-0.0109626087741
-0.0109463489205
-0.0116588124944
-0.011825078663
-0.0118611330583
-0.0118764499866
-0.0118917185803
-0.0119093133277
-0.0119289485266
-0.0119493589467
-0.011968830245
-0.011986626088
-0.0120196924216
-0.0121663149112
-0.0127744718809
-0.0145945126887
-0.0174981900149
-0.0120862852673
0.0177616460344
0.0206661911198
-0.0109987421447
-0.0109860116124
-0.0117057380504
-0.0118737801137
-0.0119091865159
-0.0119231209105
-0.0119368395983
-0.0119528651749
-0.0119706808787
-0.0119893083037
-0.0120061716844
-0.0120173131093
-0.0120280966624
-0.0121034607696
-0.0125020490076
-0.0137331685574
-0.0147609960435
-0.00304853759106
0.0424483321959
0.0295585676989
-0.0110332909071
-0.0110238297677
-0.0117501042459
-0.0119198284547
-0.011954662678
-0.0119673499013
-0.0119796847848
-0.0119943754162
-0.01201125465
-0.0120287084606
-0.0120434267493
-0.0120495833563
-0.0120422037193
-0.012054915836
-0.0122581893883
-0.012897245909
-0.0119818463143
0.00606259010592
0.0628246121978
0.0357304356015
-0.0110665923563
-0.011059730778
-0.0117903387394
-0.0119615360911
-0.0119961681148
-0.0120081422143
-0.0120198978545
-0.0120340474142
-0.0120501083287
-0.0120666586511
-0.0120803627832
-0.0120829973785
-0.0120623422444
-0.0120227650168
-0.0120487145694
-0.0121223158124
-0.00921727069707
0.0147161036621
0.0761774415972
0.0370316169683
-0.0110969577494
-0.0110904779978
-0.0118235859904
-0.0119971845645
-0.0120326154807
-0.012044786694
-0.0120565469399
-0.012070733377
-0.0120867337026
-0.0121033389192
-0.0121169241055
-0.0121181734589
-0.0120884485879
-0.0120093936812
-0.0118867060316
-0.0114229393483
-0.00662170988327
0.021797501138
0.0798521065819
0.0323602994566
-0.0111252553785
-0.0111114251606
-0.011849777906
-0.0120272066024
-0.0120641818526
-0.0120769831255
-0.0120890664626
-0.0121034955261
-0.0121201233482
-0.0121375004278
-0.0121520660849
-0.0121539104228
-0.0121205273068
-0.0120154682762
-0.0117755302894
-0.0108453233363
-0.00451171185744
0.0261265744499
0.0744649858641
0.0229691070129
)
;

boundaryField
{
    back
    {
        type            calculated;
        value           nonuniform List<scalar> 
166
(
-0.0117733035941
-0.0117996192987
-0.0118278300234
-0.0118593714452
-0.0119071906918
-0.0120342238359
-0.0124639408577
-0.0138264754787
-0.0176093926109
-0.0266631626839
-0.0440341028655
-0.0693476982802
-0.118516139929
-0.0117784974437
-0.0117975359626
-0.0118190909575
-0.0118428974254
-0.0118682191245
-0.0118949752288
-0.0119309245461
-0.0120207921758
-0.0123382541982
-0.0133945536189
-0.0163926681469
-0.0234139704456
-0.0341290209614
-0.0443569982016
-0.0399436937579
-0.010924990909
-0.0109052774001
-0.0118111234084
-0.0118279957172
-0.0118450852223
-0.0118645787875
-0.0118861380561
-0.0119088162255
-0.0119316132763
-0.0119576454187
-0.012016898658
-0.0122436066047
-0.0130647841556
-0.015452324315
-0.0202564388033
-0.0219324784736
-0.0193304408114
-0.00064896484487
-0.0109626087741
-0.0109463489205
-0.0116588124944
-0.011825078663
-0.0118611330583
-0.0118764499866
-0.0118917185803
-0.0119093133277
-0.0119289485266
-0.0119493589467
-0.011968830245
-0.011986626088
-0.0120196924216
-0.0121663149112
-0.0127744718809
-0.0145945126887
-0.0174981900149
-0.0120862852673
0.0177616460344
0.0206661911198
-0.0109987421447
-0.0109860116124
-0.0117057380504
-0.0118737801137
-0.0119091865159
-0.0119231209105
-0.0119368395983
-0.0119528651749
-0.0119706808787
-0.0119893083037
-0.0120061716844
-0.0120173131093
-0.0120280966624
-0.0121034607696
-0.0125020490076
-0.0137331685574
-0.0147609960435
-0.00304853759106
0.0424483321959
0.0295585676989
-0.0110332909071
-0.0110238297677
-0.0117501042459
-0.0119198284547
-0.011954662678
-0.0119673499013
-0.0119796847848
-0.0119943754162
-0.01201125465
-0.0120287084606
-0.0120434267493
-0.0120495833563
-0.0120422037193
-0.012054915836
-0.0122581893883
-0.012897245909
-0.0119818463143
0.00606259010592
0.0628246121978
0.0357304356015
-0.0110665923563
-0.011059730778
-0.0117903387394
-0.0119615360911
-0.0119961681148
-0.0120081422143
-0.0120198978545
-0.0120340474142
-0.0120501083287
-0.0120666586511
-0.0120803627832
-0.0120829973785
-0.0120623422444
-0.0120227650168
-0.0120487145694
-0.0121223158124
-0.00921727069707
0.0147161036621
0.0761774415972
0.0370316169683
-0.0110969577494
-0.0110904779978
-0.0118235859904
-0.0119971845645
-0.0120326154807
-0.012044786694
-0.0120565469399
-0.012070733377
-0.0120867337026
-0.0121033389192
-0.0121169241055
-0.0121181734589
-0.0120884485879
-0.0120093936812
-0.0118867060316
-0.0114229393483
-0.00662170988327
0.021797501138
0.0798521065819
0.0323602994566
-0.0111252553785
-0.0111114251606
-0.011849777906
-0.0120272066024
-0.0120641818526
-0.0120769831255
-0.0120890664626
-0.0121034955261
-0.0121201233482
-0.0121375004278
-0.0121520660849
-0.0121539104228
-0.0121205273068
-0.0120154682762
-0.0117755302894
-0.0108453233363
-0.00451171185744
0.0261265744499
0.0744649858641
0.0229691070129
)
;
    }
    sides
    {
        type            calculated;
        value           nonuniform List<scalar> 0();
    }
    bottom
    {
        type            calculated;
        value           nonuniform List<scalar> 7(-0.010924990909 -0.0109626087741 -0.0109987421447 -0.0110332909071 -0.0110665923563 -0.0110969577494 -0.0111252553785);
    }
    front
    {
        type            calculated;
        value           nonuniform List<scalar> 
166
(
-0.0117733035941
-0.0117996192987
-0.0118278300234
-0.0118593714452
-0.0119071906918
-0.0120342238359
-0.0124639408577
-0.0138264754787
-0.0176093926109
-0.0266631626839
-0.0440341028655
-0.0693476982802
-0.118516139929
-0.0117784974437
-0.0117975359626
-0.0118190909575
-0.0118428974254
-0.0118682191245
-0.0118949752288
-0.0119309245461
-0.0120207921758
-0.0123382541982
-0.0133945536189
-0.0163926681469
-0.0234139704456
-0.0341290209614
-0.0443569982016
-0.0399436937579
-0.010924990909
-0.0109052774001
-0.0118111234084
-0.0118279957172
-0.0118450852223
-0.0118645787875
-0.0118861380561
-0.0119088162255
-0.0119316132763
-0.0119576454187
-0.012016898658
-0.0122436066047
-0.0130647841556
-0.015452324315
-0.0202564388033
-0.0219324784736
-0.0193304408114
-0.00064896484487
-0.0109626087741
-0.0109463489205
-0.0116588124944
-0.011825078663
-0.0118611330583
-0.0118764499866
-0.0118917185803
-0.0119093133277
-0.0119289485266
-0.0119493589467
-0.011968830245
-0.011986626088
-0.0120196924216
-0.0121663149112
-0.0127744718809
-0.0145945126887
-0.0174981900149
-0.0120862852673
0.0177616460344
0.0206661911198
-0.0109987421447
-0.0109860116124
-0.0117057380504
-0.0118737801137
-0.0119091865159
-0.0119231209105
-0.0119368395983
-0.0119528651749
-0.0119706808787
-0.0119893083037
-0.0120061716844
-0.0120173131093
-0.0120280966624
-0.0121034607696
-0.0125020490076
-0.0137331685574
-0.0147609960435
-0.00304853759106
0.0424483321959
0.0295585676989
-0.0110332909071
-0.0110238297677
-0.0117501042459
-0.0119198284547
-0.011954662678
-0.0119673499013
-0.0119796847848
-0.0119943754162
-0.01201125465
-0.0120287084606
-0.0120434267493
-0.0120495833563
-0.0120422037193
-0.012054915836
-0.0122581893883
-0.012897245909
-0.0119818463143
0.00606259010592
0.0628246121978
0.0357304356015
-0.0110665923563
-0.011059730778
-0.0117903387394
-0.0119615360911
-0.0119961681148
-0.0120081422143
-0.0120198978545
-0.0120340474142
-0.0120501083287
-0.0120666586511
-0.0120803627832
-0.0120829973785
-0.0120623422444
-0.0120227650168
-0.0120487145694
-0.0121223158124
-0.00921727069707
0.0147161036621
0.0761774415972
0.0370316169683
-0.0110969577494
-0.0110904779978
-0.0118235859904
-0.0119971845645
-0.0120326154807
-0.012044786694
-0.0120565469399
-0.012070733377
-0.0120867337026
-0.0121033389192
-0.0121169241055
-0.0121181734589
-0.0120884485879
-0.0120093936812
-0.0118867060316
-0.0114229393483
-0.00662170988327
0.021797501138
0.0798521065819
0.0323602994566
-0.0111252553785
-0.0111114251606
-0.011849777906
-0.0120272066024
-0.0120641818526
-0.0120769831255
-0.0120890664626
-0.0121034955261
-0.0121201233482
-0.0121375004278
-0.0121520660849
-0.0121539104228
-0.0121205273068
-0.0120154682762
-0.0117755302894
-0.0108453233363
-0.00451171185744
0.0261265744499
0.0744649858641
0.0229691070129
)
;
    }
    atmosphere
    {
        type            calculated;
        value           nonuniform List<scalar> 9(-0.118516203913 -0.0399432036997 0 0 0 0 0 0 0);
    }
    floatingObject
    {
        type            calculated;
        value           nonuniform List<scalar> 0();
    }
    procBoundary0to1
    {
        type            processor;
        value           nonuniform List<scalar> 10(-0.0118247977608 -0.0118864207759 -0.0120562729513 -0.0126127366389 -0.0143044322156 -0.0188561433953 -0.029300368741 -0.0492630545628 -0.0810557277712 -0.116167093658);
    }
    procBoundary0to2
    {
        type            processor;
        value           nonuniform List<scalar> 
14
(
-0.0117274300334
-0.0117564161421
-0.0117878997624
-0.0117282571265
-0.0117493539049
-0.0117493539049
-0.0108845511414
-0.0108640467176
-0.0117598274011
-0.0117598274011
-0.0116099178353
-0.0116099178353
-0.0117741932632
-0.0117741932632
)
;
    }
    procBoundary0to4
    {
        type            processor;
        value           nonuniform List<scalar> 8(-0.0111495568097 -0.011123452839 -0.01186971182 -0.0120517663213 -0.0120910267025 -0.0121052448455 -0.0121184964836 -0.0121340806903);
    }
    procBoundary0to5
    {
        type            processor;
        value           nonuniform List<scalar> 
12
(
-0.0121517611963
-0.0121702979053
-0.012186389416
-0.0121902044778
-0.01215729596
-0.0120410362726
-0.01173013752
-0.0104838420992
-0.00320059870295
0.0276600980327
0.0642054242746
0.0111714457408
)
;
    }
}


// ************************************************************************* //
