/*--------------------------------*- C++ -*----------------------------------*\
| =========                 |                                                 |
| \\      /  F ield         | OpenFOAM: The Open Source CFD Toolbox           |
|  \\    /   O peration     | Version:  v2012                                 |
|   \\  /    A nd           | Website:  www.openfoam.com                      |
|    \\/     M anipulation  |                                                 |
\*---------------------------------------------------------------------------*/
FoamFile
{
    version     2.0;
    format      ascii;
    class       volScalarField;
    location    "1.8";
    object      p;
}
// * * * * * * * * * * * * * * * * * * * * * * * * * * * * * * * * * * * * * //

dimensions      [1 -1 -2 0 0 0 0];


internalField   nonuniform List<scalar> 
164
(
2761.44200455
2275.82004519
1793.41650406
1313.25102949
826.629989202
335.92204493
6.1880198524
-37.439803957
2765.1234815
2278.2651007
1795.66494343
1320.28957213
836.824046409
376.68357651
-114.7505702
-118.254953639
2765.12160628
2278.26381028
1795.66474539
1320.28936405
836.823938208
376.683627305
-114.752295355
-118.258513519
2761.43622037
2275.81553259
1793.41387882
1313.25007377
826.629190094
335.920235022
6.18603217695
-37.4412133324
1791.20221953
1313.09809643
831.283488888
366.054154178
42.2744744521
-31.8804322742
1787.90523612
1309.7470368
829.513157015
374.109520437
-96.662406117
-78.1974043971
1783.53628295
1304.44682072
824.919280289
353.087007235
32.9244405507
-23.9877112901
1778.34249337
1298.77324688
818.276245425
339.122948315
42.2612434761
-14.3007407863
1772.72356366
1293.271759
811.344673956
333.696471888
41.5568259566
-11.6004167296
1766.60772351
1288.21912451
806.364128944
329.772012226
39.9685561498
-11.2895309406
1762.22006454
1283.65645486
803.401893544
325.138391457
36.6558559819
-12.4859107185
1757.1401432
1280.33741153
802.50789231
329.216745288
34.2277645714
-15.7409589656
1750.73167135
1277.69336234
810.178489982
357.821576307
-13.155057891
-40.8162992326
1739.63393357
1265.15002306
793.382428643
333.242539919
38.8629318856
-15.6421875276
1725.80634645
1248.78591902
774.298740563
310.811455897
33.9516387623
-12.2326691456
1710.0556773
1228.69662098
747.209452807
284.857941927
28.401243793
-10.4513508585
1696.92513183
1214.6742166
726.286281669
259.669682393
17.641836498
-9.90002066411
1678.72148573
1195.32572123
712.144796117
255.127717292
9.15181183173
-9.59763778949
1661.15215049
1177.73715455
696.636361966
245.377090688
7.62871089554
-9.57064380956
1641.56821386
1155.10194628
668.714235968
221.652800037
3.97023491526
-9.61787432323
1622.31262668
1133.50797267
644.157979278
203.970500345
1.05259035701
-9.60271544032
1603.45270282
1112.56975959
620.538925666
188.053992206
-1.64213794066
-9.58107220354
1585.30550533
1092.57197949
598.342789153
173.306693626
-4.31205086438
-9.56505066795
1568.12281657
1073.78578001
577.604491176
159.370904676
-6.81796548262
-9.5547792217
558.520913891
147.03529255
-8.67250117815
-9.55837764074
541.40752987
137.972163371
-9.06872818656
-9.58560158443
527.319477515
131.5209733
-9.10538485831
-9.56815864319
)
;

boundaryField
{
    back
    {
        type            calculated;
        value           nonuniform List<scalar> 
164
(
2761.44200455
2275.82004519
1793.41650406
1313.25102949
826.629989202
335.92204493
6.1880198524
-37.439803957
2765.1234815
2278.2651007
1795.66494343
1320.28957213
836.824046409
376.68357651
-114.7505702
-118.254953639
2765.12160628
2278.26381028
1795.66474539
1320.28936405
836.823938208
376.683627305
-114.752295355
-118.258513519
2761.43622037
2275.81553259
1793.41387882
1313.25007377
826.629190094
335.920235022
6.18603217695
-37.4412133324
1791.20221953
1313.09809643
831.283488888
366.054154178
42.2744744521
-31.8804322742
1787.90523612
1309.7470368
829.513157015
374.109520437
-96.662406117
-78.1974043971
1783.53628295
1304.44682072
824.919280289
353.087007235
32.9244405507
-23.9877112901
1778.34249337
1298.77324688
818.276245425
339.122948315
42.2612434761
-14.3007407863
1772.72356366
1293.271759
811.344673956
333.696471888
41.5568259566
-11.6004167296
1766.60772351
1288.21912451
806.364128944
329.772012226
39.9685561498
-11.2895309406
1762.22006454
1283.65645486
803.401893544
325.138391457
36.6558559819
-12.4859107185
1757.1401432
1280.33741153
802.50789231
329.216745288
34.2277645714
-15.7409589656
1750.73167135
1277.69336234
810.178489982
357.821576307
-13.155057891
-40.8162992326
1739.63393357
1265.15002306
793.382428643
333.242539919
38.8629318856
-15.6421875276
1725.80634645
1248.78591902
774.298740563
310.811455897
33.9516387623
-12.2326691456
1710.0556773
1228.69662098
747.209452807
284.857941927
28.401243793
-10.4513508585
1696.92513183
1214.6742166
726.286281669
259.669682393
17.641836498
-9.90002066411
1678.72148573
1195.32572123
712.144796117
255.127717292
9.15181183173
-9.59763778949
1661.15215049
1177.73715455
696.636361966
245.377090688
7.62871089554
-9.57064380956
1641.56821386
1155.10194628
668.714235968
221.652800037
3.97023491526
-9.61787432323
1622.31262668
1133.50797267
644.157979278
203.970500345
1.05259035701
-9.60271544032
1603.45270282
1112.56975959
620.538925666
188.053992206
-1.64213794066
-9.58107220354
1585.30550533
1092.57197949
598.342789153
173.306693626
-4.31205086438
-9.56505066795
1568.12281657
1073.78578001
577.604491176
159.370904676
-6.81796548262
-9.5547792217
558.520913891
147.03529255
-8.67250117815
-9.55837764074
541.40752987
137.972163371
-9.06872818656
-9.58560158443
527.319477515
131.5209733
-9.10538485831
-9.56815864319
)
;
    }
    sides
    {
        type            calculated;
        value           nonuniform List<scalar> 0();
    }
    bottom
    {
        type            calculated;
        value           nonuniform List<scalar> 0();
    }
    front
    {
        type            calculated;
        value           nonuniform List<scalar> 
164
(
2761.44200455
2275.82004519
1793.41650406
1313.25102949
826.629989202
335.92204493
6.1880198524
-37.439803957
2765.1234815
2278.2651007
1795.66494343
1320.28957213
836.824046409
376.68357651
-114.7505702
-118.254953639
2765.12160628
2278.26381028
1795.66474539
1320.28936405
836.823938208
376.683627305
-114.752295355
-118.258513519
2761.43622037
2275.81553259
1793.41387882
1313.25007377
826.629190094
335.920235022
6.18603217695
-37.4412133324
1791.20221953
1313.09809643
831.283488888
366.054154178
42.2744744521
-31.8804322742
1787.90523612
1309.7470368
829.513157015
374.109520437
-96.662406117
-78.1974043971
1783.53628295
1304.44682072
824.919280289
353.087007235
32.9244405507
-23.9877112901
1778.34249337
1298.77324688
818.276245425
339.122948315
42.2612434761
-14.3007407863
1772.72356366
1293.271759
811.344673956
333.696471888
41.5568259566
-11.6004167296
1766.60772351
1288.21912451
806.364128944
329.772012226
39.9685561498
-11.2895309406
1762.22006454
1283.65645486
803.401893544
325.138391457
36.6558559819
-12.4859107185
1757.1401432
1280.33741153
802.50789231
329.216745288
34.2277645714
-15.7409589656
1750.73167135
1277.69336234
810.178489982
357.821576307
-13.155057891
-40.8162992326
1739.63393357
1265.15002306
793.382428643
333.242539919
38.8629318856
-15.6421875276
1725.80634645
1248.78591902
774.298740563
310.811455897
33.9516387623
-12.2326691456
1710.0556773
1228.69662098
747.209452807
284.857941927
28.401243793
-10.4513508585
1696.92513183
1214.6742166
726.286281669
259.669682393
17.641836498
-9.90002066411
1678.72148573
1195.32572123
712.144796117
255.127717292
9.15181183173
-9.59763778949
1661.15215049
1177.73715455
696.636361966
245.377090688
7.62871089554
-9.57064380956
1641.56821386
1155.10194628
668.714235968
221.652800037
3.97023491526
-9.61787432323
1622.31262668
1133.50797267
644.157979278
203.970500345
1.05259035701
-9.60271544032
1603.45270282
1112.56975959
620.538925666
188.053992206
-1.64213794066
-9.58107220354
1585.30550533
1092.57197949
598.342789153
173.306693626
-4.31205086438
-9.56505066795
1568.12281657
1073.78578001
577.604491176
159.370904676
-6.81796548262
-9.5547792217
558.520913891
147.03529255
-8.67250117815
-9.55837764074
541.40752987
137.972163371
-9.06872818656
-9.58560158443
527.319477515
131.5209733
-9.10538485831
-9.56815864319
)
;
    }
    atmosphere
    {
        type            calculated;
        value           nonuniform List<scalar> 
27
(
-11.0285091729
-1338.45086502
-1338.51513816
-11.028582321
-10.4438549382
-1143.10209297
-10.0713598172
-9.96008132863
-9.87695346308
-9.87446103703
-9.93062846627
-9.95044834439
-389.123908965
-9.93351325997
-9.92881985183
-9.83416959759
-9.85236636076
-9.81000163624
-9.81
-9.81281509786
-9.81415024034
-9.81351541484
-9.81236960655
-9.81092088427
-9.81
-9.81
-9.81128596289
)
;
    }
    floatingObject
    {
        type            calculated;
        value           nonuniform List<scalar> 4(3006.25125531 3009.93286824 3009.93112489 3006.24578464);
    }
    procBoundary6to3
    {
        type            processor;
        value           nonuniform List<scalar> 8(2753.08514696 2271.26250441 1791.21088546 1313.1029679 831.287080836 366.057902446 42.2795421461 -31.8787275313);
    }
    procBoundary6to7
    {
        type            processor;
        value           nonuniform List<scalar> 
11
(
2145.43818482
2128.15824079
2110.81610765
2093.69366419
2077.08059179
2061.21657599
1552.12990903
1056.46233444
1056.46233444
1040.86736504
1027.37578718
)
;
    }
    procBoundary6to8
    {
        type            processor;
        value           nonuniform List<scalar> 
16
(
2753.07227612
2271.25109076
2271.25109076
2267.55785572
2263.14965653
2258.20517657
2253.04743172
2248.02355283
2241.86858058
2235.47403164
2227.7272699
2217.47800317
2205.24811324
2191.75836411
2178.48381598
2161.65106167
)
;
    }
    procBoundary6to9
    {
        type            processor;
        value           nonuniform List<scalar> 4(516.698963222 127.136715318 -9.08025399072 -9.55035116068);
    }
}


// ************************************************************************* //
