/*--------------------------------*- C++ -*----------------------------------*\
| =========                 |                                                 |
| \\      /  F ield         | OpenFOAM: The Open Source CFD Toolbox           |
|  \\    /   O peration     | Version:  v2012                                 |
|   \\  /    A nd           | Website:  www.openfoam.com                      |
|    \\/     M anipulation  |                                                 |
\*---------------------------------------------------------------------------*/
FoamFile
{
    version     2.0;
    format      ascii;
    class       surfaceVectorField;
    location    "5.1";
    object      Uf;
}
// * * * * * * * * * * * * * * * * * * * * * * * * * * * * * * * * * * * * * //

dimensions      [0 1 -1 0 0 0 0];


internalField   nonuniform List<vector> 
305
(
(0.00188114444979 -0.00377576332726 6.7077392458e-22)
(0.0037758111221 -0.00187327263744 7.87426215409e-22)
(0.00203955001928 -0.00775276917546 5.4489477501e-22)
(0.00397706260356 -0.00584895251239 8.65031485615e-22)
(0.00214730621872 -0.0119373541931 7.05659658114e-23)
(0.00418464395142 -0.00991101966773 4.57695010224e-22)
(0.00222107368591 -0.0162777732903 -4.65912739738e-22)
(0.00434047168189 -0.0141577858801 -1.89757893797e-22)
(0.00230330510185 -0.020781484026 -7.12258125755e-22)
(0.00450373454323 -0.0185642204087 -6.00340313337e-22)
(0.00241351084272 -0.0254937015486 -6.07766619996e-22)
(0.00471211592285 -0.0231656186614 -7.1406488628e-22)
(0.00256057099671 -0.0304974809763 -2.60937885186e-22)
(0.00500348088635 -0.028013727966 -4.65245231886e-22)
(0.00535867357174 -0.0331747422324 -7.70574009712e-23)
(0.00587045006234 -0.00391133813818 9.81683776443e-22)
(0.0076872055786 -0.00196847462488 1.142723301e-21)
(0.00614742775352 -0.00794305667576 7.77831720828e-22)
(0.00800884493856 -0.00596598278398 1.14519276848e-21)
(0.00640190824018 -0.0120794386853 1.97371150615e-22)
(0.00832109082044 -0.0099972387816 6.87786963872e-22)
(0.00664901709618 -0.0163714166529 -3.24185467396e-22)
(0.008632500584 -0.0141887994581 3.702639625e-24)
(0.00693846179012 -0.0208525652968 -6.02147073862e-22)
(0.00898489258861 -0.0185409880608 -4.16615519901e-22)
(0.00730645744854 -0.0255584941383 -5.7154349817e-22)
(0.00941793147421 -0.0230959339349 -5.74428279449e-22)
(0.00777508129539 -0.0305287127778 -2.81364747671e-22)
(0.00997340955558 -0.0278925206962 -3.92148997892e-22)
(0.0106808820817 -0.0329822739313 -1.18352150223e-22)
(0.00982694289715 -0.00397730443314 1.30623229303e-21)
(0.011664572754 -0.00197059227897 1.32886714315e-21)
(0.0101741969258 -0.007966504292 1.05514801152e-21)
(0.0119981171819 -0.0059355233066 1.32237870819e-21)
(0.0105493768054 -0.0120568161196 4.94118452882e-22)
(0.0124114767612 -0.00990756389363 9.17780525253e-22)
(0.0109572458118 -0.0162874673349 -8.87274128797e-23)
(0.0128632124775 -0.0140158338244 2.66355023425e-22)
(0.0114431918445 -0.0206897341178 -3.88896725488e-22)
(0.0133871731575 -0.0182742569806 -1.73341846015e-22)
(0.0120578630195 -0.0253159653685 -3.95033779172e-22)
(0.0140440604653 -0.0227196947263 -3.13867646129e-22)
(0.0128356408558 -0.0301949185865 -2.29136400443e-22)
(0.0148520221451 -0.0273889920907 -2.43274539628e-22)
(0.0158759814238 -0.0323282789855 -7.90871060933e-23)
(0.0137767258661 -0.0039024438175 1.34501355832e-21)
(0.0155670861633 -0.0019044565165 1.23067908218e-21)
(0.0141730998809 -0.00781602592459 1.18501122192e-21)
(0.0159117807972 -0.00576924610667 1.26797092132e-21)
(0.0146587861625 -0.0118156366067 6.90017095796e-22)
(0.0164111723176 -0.00963224521955 9.95165965541e-22)
(0.0152176912277 -0.0159394347415 1.81740590291e-22)
(0.0169870815379 -0.0136174103424 4.4687411298e-22)
(0.0158900859962 -0.0202215820126 -9.83127666547e-23)
(0.0176693397575 -0.0177356965039 6.11020726174e-23)
(0.0167288911488 -0.0246889460497 -1.62108406585e-22)
(0.0185113506563 -0.0220169056308 -8.6532568176e-23)
(0.0177777560221 -0.0293972652189 -9.32252452783e-23)
(0.019560068782 -0.0264935287644 -9.11250451409e-23)
(0.0190744888658 -0.0343817740573 -1.50880085107e-23)
(0.0208597970585 -0.0312064466944 -1.9472692505e-23)
(0.022459178323 -0.0361996783974 3.99754144916e-24)
(0.0176183152049 -0.00374739953399 1.15363644519e-21)
(0.019314563539 -0.00180686081075 1.03484473698e-21)
(0.01806620658 -0.00752713932401 1.07812566494e-21)
(0.0196916127754 -0.00551684524247 1.10282657473e-21)
(0.0186511566603 -0.0113877957765 7.52022982725e-22)
(0.0202719255085 -0.00922003069993 9.45318120275e-22)
(0.019341856335 -0.0153580351954 3.26235595307e-22)
(0.0209574028654 -0.0130395557505 4.97628896702e-22)
(0.0201786977681 -0.0194621436872 7.28822710961e-23)
(0.0217734732977 -0.0169719487859 1.68956663073e-22)
(0.0212146974195 -0.0237299628052 -1.55492067319e-23)
(0.0227790896104 -0.0210418323655 2.62935350963e-23)
(0.0224974268206 -0.028196727281 -1.73724923677e-23)
(0.0240266040697 -0.0252743267796 -1.1646790844e-23)
(0.024075046318 -0.0328986277657 -3.87142545125e-25)
(0.025561170402 -0.0297024946328 -2.2352998605e-24)
(0.026003279845 -0.0378775353762 -8.39052403758e-25)
(0.0274370274907 -0.0343582549642 4.25493226801e-25)
(0.0297228332557 -0.0392780259393 -3.99380533953e-24)
(0.0212914202237 -0.00355475004662 9.84034866523e-22)
(0.0228694020455 -0.00169673501623 8.67261212216e-22)
(0.0217993947637 -0.00715706069443 9.70019030067e-22)
(0.0232940287819 -0.00521599067496 1.03874950587e-21)
(0.0224736435902 -0.0108351835109 6.90924034252e-22)
(0.0239501590981 -0.0087192903699 8.53286099573e-22)
(0.0232765231428 -0.0146080589316 3.40349964468e-22)
(0.0247303721533 -0.0123360881988 4.67978895833e-22)
(0.0242499162323 -0.0184930140685 1.22367927073e-22)
(0.0256584651069 -0.0160458852474 1.86038172123e-22)
(0.025450631985 -0.0225146320031 3.01959509842e-23)
(0.0268006301436 -0.0198665096438 5.80794712466e-23)
(0.0269279397469 -0.0266947915228 3.49040166317e-24)
(0.0282065386197 -0.0238167442998 7.21188902049e-24)
(0.0287329734414 -0.0310655257848 -1.42266408857e-24)
(0.0299314005228 -0.0279197037201 -2.79524923018e-24)
(0.0309273436844 -0.0356479474979 -2.72925970897e-24)
(0.0320185974136 -0.0321967035301 -8.55651461068e-24)
(0.0345445664668 -0.0366639938832 -9.14257530156e-24)
(0.0247629351227 -0.00333963552102 9.21975851564e-22)
(0.0262091400915 -0.00157948612387 8.69181486983e-22)
(0.0253341245969 -0.00673164038503 9.22016575376e-22)
(0.0266861561005 -0.00488379208595 9.73966594167e-22)
(0.0260892218717 -0.0101947466326 6.30340961154e-22)
(0.0274133936575 -0.00815820788654 8.14019133458e-22)
(0.0269865704002 -0.0137390625323 3.13667103487e-22)
(0.028274797885 -0.0115437645918 4.55302980492e-22)
(0.0280708765759 -0.0173749527436 1.21749716296e-22)
(0.0292944048228 -0.0150034317733 1.88424053454e-22)
(0.029402597791 -0.021114939534 3.50954092829e-23)
(0.030540559685 -0.0185483380914 6.51619313479e-23)
(0.0310324013172 -0.024980249175 9.26238127143e-25)
(0.0320716410025 -0.0221910771668 1.42732930985e-23)
(0.0330104391478 -0.0289827594224 -9.92909975228e-24)
(0.0339334783723 -0.0259453417446 -3.00873103097e-24)
(0.0353961684459 -0.0331429689159 -1.49698302033e-23)
(0.0361780416923 -0.0298217035225 -8.53292514064e-24)
(0.0388601796784 -0.0338244515479 -1.97816604524e-23)
(0.0280110455232 -0.00310828768552 9.21172229586e-22)
(0.0293175488498 -0.00145830506137 8.8382697412e-22)
(0.0286433401148 -0.0062662023705 8.65969152249e-22)
(0.0298442154706 -0.00452735144992 9.26146972077e-22)
(0.0294709565802 -0.00949130695661 6.38981152796e-22)
(0.0306386499227 -0.00755204533297 7.99925353688e-22)
(0.0304457100551 -0.012783659139 3.30059930458e-22)
(0.0315672815358 -0.0106869966565 4.59528456602e-22)
(0.0316166223158 -0.0161464946335 1.31836268505e-22)
(0.032657311901 -0.0138770713555 1.96305283096e-22)
(0.0330470780831 -0.0195880793181 4.43398151635e-23)
(0.0339821078031 -0.017129396291 7.46413297505e-23)
(0.0347893725953 -0.0231179943994 1.03383239404e-23)
(0.0356013902044 -0.0204497963345 2.41260231213e-23)
(0.0368911231744 -0.0267450130424 -1.61255641933e-24)
(0.0375601104873 -0.0238444228141 3.47899885467e-24)
(0.0394039334153 -0.0304731116832 -1.33447553898e-23)
(0.0399055873378 -0.0273156118272 -1.62052835004e-24)
(0.0426864183438 -0.0308612638515 -2.08344177863e-23)
(0.0310197420447 -0.0028616390751 8.8880171661e-22)
(0.0321793333479 -0.0013351234414 7.26604208522e-22)
(0.0317088684649 -0.00577061559908 8.60103173516e-22)
(0.0327533659171 -0.00415115116019 7.81404588311e-22)
(0.0325995348021 -0.00874176158384 6.20472657494e-22)
(0.0336099783758 -0.00691229974278 7.07192973288e-22)
(0.0336352404046 -0.0117668648929 3.2577380924e-22)
(0.0345925474636 -0.00978457194513 4.19301834086e-22)
(0.0348694409828 -0.0148442067231 1.39110344341e-22)
(0.0357347542454 -0.0126925738828 1.80556334096e-22)
(0.0363688839208 -0.0179737117174 5.44275377083e-23)
(0.0371116160755 -0.0156423743855 6.77248237147e-23)
(0.0381864069943 -0.0211587766846 1.72666980356e-23)
(0.0387863328271 -0.0186338681348 2.1923791332e-23)
(0.040367115486 -0.0244037339362 3.47102692395e-24)
(0.0408048038481 -0.0216666716048 5.27919419093e-24)
(0.042955854945 -0.0277022765711 -9.11019074657e-24)
(0.0432036810299 -0.0247385326641 -1.03447983526e-24)
(0.0460367013795 -0.0278426689638 -1.60353616344e-23)
(0.033778937863 -0.00260363898735 6.19207080222e-22)
(0.0347831498113 -0.001208111185 4.24441487157e-22)
(0.0345192851808 -0.00526583859264 6.28494388083e-22)
(0.0354157776211 -0.00375976799986 5.80048462649e-22)
(0.0354595858926 -0.00796455605387 5.0602214988e-22)
(0.0363089194435 -0.0062527638915 5.47950330306e-22)
(0.036541984837 -0.0107063510263 2.74084358942e-22)
(0.0373345470201 -0.00885126647516 3.41094887543e-22)
(0.0378189598299 -0.013486123262 1.0917081347e-22)
(0.0385146731442 -0.0114707772852 1.46008533356e-22)
(0.0393607623673 -0.0162990935044 3.52210773385e-23)
(0.0399246336746 -0.0141139230911 4.64799767728e-23)
(0.0412213373139 -0.0191418613974 9.93628748739e-24)
(0.0416290481647 -0.0167757583167 1.20744568441e-23)
(0.0434421740053 -0.0220104652056 7.73687431717e-25)
(0.0436732191455 -0.0194534401712 3.05448602922e-25)
(0.0460654415611 -0.0248995315302 -7.95965072306e-24)
(0.0460925617432 -0.022138915437 -2.8154365981e-24)
(0.0489336942596 -0.0248211603114 -1.36565643026e-23)
(0.0362782628444 -0.00234084202419 3.85282869584e-22)
(0.0371242115357 -0.00107570451638 2.01141411403e-22)
(0.0370642216443 -0.00472764131628 4.99504404872e-22)
(0.037802839022 -0.00335836857377 4.56976636448e-22)
(0.0380436381002 -0.00715721363601 3.83023067969e-22)
(0.0387387693672 -0.00558333494608 4.51435962536e-22)
(0.0391596339706 -0.00961826525577 2.13019061958e-22)
(0.0397958614048 -0.00790007476217 2.89377068022e-22)
(0.0404622098088 -0.0121013185056 8.33176966595e-23)
(0.0409979325599 -0.0102291949194 1.2053058198e-22)
(0.0420240858978 -0.0145983152151 2.33333562785e-23)
(0.0424217528082 -0.0125668362299 3.47902078394e-23)
(0.0439016830313 -0.0171000907854 2.44361795967e-24)
(0.0441308469598 -0.0149020671191 8.96187793144e-24)
(0.0461339836173 -0.0196100619255 -3.28367542689e-24)
(0.0461831693749 -0.0172349817073 -9.35735752136e-24)
(0.0487564157751 -0.0221123132179 -8.51235017765e-24)
(0.0485947316601 -0.0195525944626 -9.31284151042e-24)
(0.0514079556581 -0.0218316591995 -1.50568360214e-23)
(0.0385074621514 -0.00207403015885 2.72835178267e-22)
(0.0391985159449 -0.000939980452407 1.46556748859e-22)
(0.0393354847864 -0.00418724431043 4.08908194112e-22)
(0.0399163787964 -0.00295129331957 3.21141815401e-22)
(0.0403494882032 -0.00634089671058 3.57789962589e-22)
(0.0408927701311 -0.00490833658377 4.10694917292e-22)
(0.0414872262883 -0.0085204851745 1.96888588044e-22)
(0.04197578943 -0.00694287715402 2.70575134852e-22)
(0.0428015288982 -0.0107050669714 7.20030931598e-23)
(0.0431828072761 -0.00898224860679 1.09282438721e-22)
(0.0443669941091 -0.0128942615287 2.04187294923e-23)
(0.0446111551721 -0.0110192475734 2.82729423169e-23)
(0.0462374540577 -0.0150773628349 -2.83909754959e-24)
(0.0463140856757 -0.013039482054 8.44823499949e-24)
(0.048453909174 -0.0172252239369 -1.53865236049e-23)
(0.0483311093471 -0.0150371462947 -1.29475245263e-23)
(0.0510451491641 -0.0193412803336 -1.58573273542e-23)
(0.0507110061008 -0.0169984794636 -1.18079902174e-23)
(0.0534622290419 -0.0188915094619 -1.90930060213e-23)
(0.0404655172002 -0.00180845342184 1.94863385993e-22)
(0.0410073105741 -0.000804471812777 2.47740741967e-23)
(0.041331636613 -0.00364744451986 3.22928538581e-22)
(0.0417557730347 -0.00254300011118 1.94525556909e-22)
(0.0423765372713 -0.00552483287515 3.23480089555e-22)
(0.0427705939272 -0.00423192182338 2.97426404325e-22)
(0.0435276935114 -0.00742303139828 1.82968985529e-22)
(0.0438744252345 -0.00598774666828 2.12902284543e-22)
(0.0448402573408 -0.00932192915435 6.55522878778e-23)
(0.0450821009925 -0.00774374019247 8.50257533234e-23)
(0.0463940266933 -0.0111988359008 1.63024478241e-23)
(0.0464883913874 -0.00948753578165 2.13293256574e-23)
(0.0482391740569 -0.0130514825499 -1.66019197726e-24)
(0.0481669813145 -0.011204368201 5.76293907847e-24)
(0.0504145855406 -0.0148671558774 -9.36899113887e-24)
(0.0501470543264 -0.0128773803354 -1.26353958172e-23)
(0.052946016753 -0.0166264681623 -1.50436688845e-23)
(0.0524706137658 -0.0144961463674 -1.19966997466e-23)
(0.0551321381124 -0.0160325238805 -1.57940169332e-23)
(0.0421551356862 -0.00153835418397 2.44362451127e-23)
(0.0425460816022 -0.000673182556022 -2.29472946388e-22)
(0.0430557779941 -0.00310877063475 1.69023422653e-22)
(0.0433266776668 -0.00213781639496 -4.36157980368e-23)
(0.0441269102025 -0.00471568183266 1.86848599313e-22)
(0.0443780368145 -0.00355996446188 8.0517596179e-23)
(0.0452843565873 -0.00633105535102 1.14959052338e-22)
(0.0454903421483 -0.00504389240149 8.44874507455e-23)
(0.0465852844927 -0.00794114023142 4.0802791103e-23)
(0.0466926942253 -0.0065229695742 3.09737659027e-23)
(0.0481132953425 -0.00952855481474 1.07898169118e-23)
(0.0480762251209 -0.00797919530077 5.83847431583e-24)
(0.0499203746304 -0.0110813032254 -5.21226476145e-24)
(0.0497200709022 -0.00939940636916 6.04214290217e-25)
(0.0520366657149 -0.0125808292532 -1.52631044249e-23)
(0.0516470136374 -0.0107671938618 -1.33580244049e-23)
(0.0544853601403 -0.0139899739264 -1.27470477953e-23)
(0.05388053725 -0.0120684866825 -9.64237536657e-24)
(0.0564486885154 -0.0132814580748 3.35635994301e-24)
(0.0435795056002 -0.00127055484517 -2.97524989537e-22)
(0.0438171275223 -0.000544237581883 -5.22372464756e-22)
(0.0445125947325 -0.00258207683614 -1.32121624511e-22)
(0.0446387668209 -0.00174047463506 -3.11635890598e-22)
(0.0456039937524 -0.0039141637813 -2.18435523889e-23)
(0.0457107404304 -0.00289927907125 -1.45247668169e-22)
(0.0467618943983 -0.00525743617178 5.02164310485e-25)
(0.0468342393861 -0.00411319556276 -5.27294020764e-23)
(0.0480448992024 -0.00659048876725 -3.99055088451e-24)
(0.0480263029313 -0.00531654405107 -2.25969908817e-23)
(0.04953762334 -0.00789387595952 -4.34712830571e-24)
(0.0493801976266 -0.00649222332424 -7.33881066221e-24)
(0.0512951376669 -0.00914195455724 -7.54154535327e-24)
(0.0509690345761 -0.00762835545768 1.54929447289e-24)
(0.0533420642801 -0.0103343010209 -7.73729534661e-24)
(0.0528402154499 -0.00871076958852 -9.92478357118e-25)
(0.0556994459948 -0.011446574603 6.46103237171e-24)
(0.0549939213706 -0.00971682871129 1.45286715895e-23)
(0.0574565528316 -0.0106299823959 2.9324453987e-23)
(0.0447400757757 -0.00101108396731 -5.36483365817e-22)
(0.0448288890412 -0.00041659712173 -6.59451167355e-22)
(0.0457029946816 -0.00205375466137 -3.24761934256e-22)
(0.0456821887705 -0.00135177987963 -3.98890680103e-22)
(0.0468100443077 -0.0031226803986 -1.76133517857e-22)
(0.0467803650655 -0.00224945536609 -2.32556354223e-22)
(0.0479650309517 -0.00419525876247 -7.58285572686e-23)
(0.0479074473249 -0.00319198241619 -1.03040804944e-22)
(0.0492262233799 -0.00524920511485 -2.59452506594e-23)
(0.0490813552966 -0.0041224918315 -4.08840197177e-23)
(0.050679229445 -0.00627201201392 -1.44238788362e-24)
(0.0504041750303 -0.00502515908598 -6.78668718447e-24)
(0.0523832228479 -0.00724859243378 8.09836146904e-24)
(0.0519463808055 -0.00588974719032 1.65928480429e-23)
(0.0543663788711 -0.00816329165986 2.1273488579e-23)
(0.0566293752029 -0.00898026122352 3.73920932048e-23)
(0.0456381834208 -0.000757758678314 -5.21858481642e-22)
(0.0455875678041 -0.000292534353503 -4.7954968118e-22)
(0.0466273971626 -0.00154015816109 -3.06685100071e-22)
(0.0464654196729 -0.000969968899676 -2.62296783938e-22)
(0.0477466536095 -0.00234159330501 -1.5946364131e-22)
(0.047582633857 -0.00161374303275 -1.34028773626e-22)
(0.0488942812865 -0.00314334808713 -6.80962673926e-23)
(0.0487108090574 -0.00229440347167 -5.43060512398e-23)
(0.0501314491928 -0.00392735518754 -2.17254562427e-23)
(0.0498663120838 -0.00296093337306 -2.24367767048e-23)
(0.0515494831722 -0.00467928816687 1.12485487421e-23)
(0.0462823084471 -0.000509314095336 -2.19987983477e-22)
(0.0472945066749 -0.00103855322016 -8.9640457493e-23)
(0.0484228686608 -0.00158879477409 -2.88711835551e-23)
(0.0481344338637 -0.00100087582713 3.26239475628e-23)
(0.0495600765248 -0.00213468647531 -8.6465605519e-24)
(0.0492575497882 -0.00143552070813 3.94309389971e-23)
(0.0488526486688 -0.00086610513468 1.00926070115e-22)
)
;

boundaryField
{
    back
    {
        type            calculated;
        value           uniform (0 0 0);
    }
    sides
    {
        type            calculated;
        value           uniform (0 0 0);
    }
    bottom
    {
        type            calculated;
        value           uniform (0 0 0);
    }
    front
    {
        type            calculated;
        value           uniform (0 0 0);
    }
    atmosphere
    {
        type            calculated;
        value           nonuniform List<vector> 0();
    }
    floatingObject
    {
        type            calculated;
        value           nonuniform List<vector> 0();
    }
    procBoundary2to0
    {
        type            processor;
        value           nonuniform List<vector> 
14
(
(0.0537560749878 -0.00670106657256 1.71355935458e-23)
(0.0558120380878 -0.00743934067299 2.5468636749e-23)
(0.0581790356463 -0.00808149273776 2.79267365174e-23)
(0.0511571332255 -0.00359936436778 -1.26503618413e-24)
(0.0532048424073 -0.00539290259099 2.56300801197e-23)
(0.0526612107749 -0.00420330064459 1.44545931725e-23)
(0.0460978402427 -0.000167527033233 -1.5491257964e-22)
(0.0469957803104 -0.000598201602674 -1.47370830844e-23)
(0.0507740324096 -0.00266055330551 -1.97635664615e-24)
(0.0503936489277 -0.00185420522448 1.28767672855e-23)
(0.0477183494876 -0.000555952682871 1.07527321971e-22)
(0.0484461687504 -0.000419081119208 1.02724137177e-22)
(0.049979134802 -0.00117301394732 6.09542668344e-23)
(0.0495658730517 -0.00062330496349 8.72798363412e-23)
)
;
    }
    procBoundary2to1
    {
        type            processor;
        value           nonuniform List<vector> 
18
(
(0.0027564763553 -0.0358565794052 1.86347517862e-22)
(0.00836329455202 -0.0358515730685 -2.40454213513e-23)
(0.0138004463663 -0.0353905200024 -6.56341120182e-23)
(0.0171396417112 -0.0375987820592 -1.63501443571e-24)
(0.0206607174445 -0.039702440797 -2.32152654663e-23)
(0.0244147014086 -0.0415347965566 -2.80518593192e-23)
(0.0283473533796 -0.0431872328311 -2.86496790657e-23)
(0.0335809616467 -0.0404707276309 -2.76217504292e-23)
(0.0382537372521 -0.0374594281191 -4.57180418976e-23)
(0.0423812047164 -0.0343000635502 -5.79866448035e-23)
(0.0459972445972 -0.0310529847384 -4.35192584019e-23)
(0.0491319063022 -0.0277967981809 -4.30099635202e-23)
(0.0518063459382 -0.0245865269394 -4.57372711561e-23)
(0.0540384244026 -0.0213953802228 -4.94271453438e-23)
(0.0558501304816 -0.0182958490293 -4.58905909069e-23)
(0.0572779508648 -0.0153057167871 -4.55250835595e-23)
(0.0583772773718 -0.0124532969269 -2.23502177674e-23)
(0.0591726435433 -0.00970126932558 -4.29188275177e-24)
)
;
    }
}


// ************************************************************************* //
