/*--------------------------------*- C++ -*----------------------------------*\
| =========                 |                                                 |
| \\      /  F ield         | OpenFOAM: The Open Source CFD Toolbox           |
|  \\    /   O peration     | Version:  v2012                                 |
|   \\  /    A nd           | Website:  www.openfoam.com                      |
|    \\/     M anipulation  |                                                 |
\*---------------------------------------------------------------------------*/
FoamFile
{
    version     2.0;
    format      ascii;
    class       volVectorField;
    location    "1";
    object      ddt0(rho,U);
}
// * * * * * * * * * * * * * * * * * * * * * * * * * * * * * * * * * * * * * //

dimensions      [1 -2 -2 0 0 0 0];


internalField   nonuniform List<vector> 
167
(
(0.175877826709 -0.132112224221 5.01328036935e-19)
(1.14990550528 0.489513773759 3.89413521786e-19)
(1.2768632938 -0.843119022231 7.35653219269e-20)
(1.28228745248 -1.84892539443 -2.93015263112e-19)
(1.35739628231 -2.97551122186 -6.89255435132e-19)
(1.50294242425 -4.34969040892 -4.19059285891e-19)
(1.70712190754 -6.07389803096 2.27953003828e-19)
(1.96470004683 -8.23638201044 4.47550395666e-18)
(-0.426915407667 -1.11870878035 2.64766991689e-19)
(0.772071323151 -0.585071530468 8.85076210612e-19)
(1.08388102667 -1.77441730025 -1.29500535161e-19)
(1.28670524839 -2.85232771457 -1.25393427727e-18)
(1.62404731615 -4.13852579034 -4.31781756009e-18)
(2.10427704434 -5.73296428857 -1.59027977901e-18)
(2.71502392141 -7.70914278596 -4.2286743846e-18)
(3.45300491944 -10.1414695689 -5.68104932557e-19)
(0.612204464086 -1.22588734863 6.29073965092e-19)
(1.68947459604 -0.653757474217 7.88470399852e-18)
(2.14779178235 -1.76588188317 5.12957044821e-19)
(2.60002163018 -2.75769090094 -3.65691782897e-19)
(3.21171289082 -3.96281009793 -1.04846428957e-18)
(4.0126405632 -5.47751095797 4.30849849489e-20)
(5.00952951474 -7.37048464161 -4.00218785071e-19)
(6.20948659506 -9.7149823993 6.2406572639e-19)
(1.38770023688 -1.05601795125 1.86134466267e-18)
(2.47411184859 -0.325924892128 3.31234031502e-18)
(3.0683838797 -1.33158574488 5.23830565436e-19)
(3.75455335361 -2.15547593283 1.39730151247e-20)
(4.65398043925 -3.17076380532 -9.97046558787e-20)
(5.80178457773 -4.4806525613 3.16288861719e-19)
(7.21501958807 -6.15633227747 1.68400221452e-19)
(8.90905345589 -8.27067092262 -1.92093201338e-19)
(10.8999878987 -10.9078237929 1.74850747636e-19)
(1.73860885582 -0.844330460142 1.99312097511e-19)
(2.93929921291 0.117210073212 4.03200645047e-18)
(3.65650883623 -0.682588753508 1.44388151165e-18)
(4.53743243498 -1.25892618362 1.08097716545e-19)
(5.69529566221 -2.00657637158 1.2587122255e-20)
(7.16586200049 -3.02911902287 6.99788557577e-20)
(8.97151508568 -4.39844483196 6.5446007171e-20)
(11.1346166801 -6.18738211435 -3.92955144302e-20)
(13.6781350786 -8.47779646988 1.0331194763e-20)
(16.6283335191 -11.3483722572 4.36566143266e-20)
(1.74222303222 -0.625855985266 -4.09471680309e-19)
(3.11256350794 0.615479600344 -1.17477800637e-19)
(3.95064122296 0.113043025423 1.11422681813e-18)
(5.00289410685 -0.14272493956 1.25297466718e-19)
(6.39420492782 -0.55426947657 3.45989154779e-20)
(8.16263119654 -1.21887320769 8.28552359337e-22)
(10.3348072225 -2.20628401781 1.72370298989e-20)
(12.9389745107 -3.58718492528 -1.60667243458e-20)
(16.0060237232 -5.44131832572 1.01588537471e-20)
(19.5696272712 -7.84353523309 -1.77961361403e-20)
(1.3983011055 -0.391836967441 7.40261690405e-20)
(2.96405627278 1.17224415036 1.05121791301e-18)
(3.92173273529 1.03788285756 8.64020275342e-19)
(5.12978175472 1.16732558367 2.91505723635e-20)
(6.73329464889 1.15555292279 -1.92855716497e-20)
(8.77516746264 0.915305478331 -2.09364101559e-20)
(11.2865437491 0.381175608177 -4.1545657307e-20)
(14.3015925947 -0.513652462033 -5.32852536622e-20)
(17.8587438687 -1.84510999409 7.5282957168e-21)
(22.00030606 -3.68440387759 -6.51455778221e-20)
(0.659555425513 -0.137209949307 -2.08749202652e-19)
(2.42599423871 1.78861255477 1.04221453729e-19)
(3.49711319179 2.07929856385 4.52131093899e-19)
(4.8447477103 2.65095020886 7.92773549532e-20)
(6.63721353203 3.09710215694 -1.03335208088e-20)
(8.92393659855 3.34297548701 -4.10985317436e-20)
(11.7411443904 3.32918688923 -1.63300317478e-20)
(15.1292622867 2.99429969157 8.89205798993e-21)
(19.1343034583 2.26739693831 3.14999954849e-20)
(23.80728402 1.08168840698 -4.64974866172e-20)
(-0.516120376587 0.138907526517 4.68127373136e-19)
(1.44489032387 2.45976456729 4.83270686579e-18)
(2.61920841868 3.22260454244 4.36920598144e-19)
(4.08736581065 4.28576902346 7.38140557889e-20)
(6.04192802361 5.24135625087 3.85770638457e-21)
(8.53984680593 6.02910665011 3.84538118935e-20)
(11.6229676526 6.59716102028 -9.71320807676e-20)
(15.3383667632 6.89078293769 -1.14068027923e-20)
(19.7400166271 6.84545315746 -9.18273680183e-21)
(24.8881680644 6.39963428056 -1.24024550779e-20)
(-2.16145837465 0.435093254979 2.7479359868e-18)
(-0.0178510398252 3.17758301309 2.69315638252e-18)
(1.24648412833 4.45086224175 6.7445268373e-19)
(2.81293480797 6.04666914099 9.49806137595e-20)
(4.89871728613 7.55555438654 6.82282430827e-21)
(7.56893710306 8.93376754583 2.23927777122e-22)
(10.8714583 10.1383753977 -1.93244989476e-20)
(14.860389284 11.1227925481 9.37532239728e-21)
(19.598135916 11.8302016857 -6.77157189447e-21)
(25.1549508433 12.2056844147 -9.24262251637e-20)
(-4.30380049027 0.748174831435 1.16829632966e-19)
(-1.99301567704 3.93113491766 -2.7304451946e-18)
(-0.654418841959 5.74424160966 4.49208571232e-19)
(0.984737012058 7.90496942531 -3.36168641077e-20)
(3.1665104755 10.0023567632 1.71069141318e-20)
(5.96455381398 12.0112009116 2.12399376299e-20)
(9.43299196783 13.8989774475 -1.60206260179e-21)
(13.6332429478 15.628731849 -1.95739280313e-21)
(18.6366076538 17.1530772837 3.53694416516e-21)
(24.5241406655 18.4252378857 -3.88146689352e-20)
(-6.96343289952 1.07373049976 8.03078531952e-19)
(-4.5033467321 4.70703241597 1.0309514033e-18)
(-3.10859597466 7.07979854054 -1.49254609421e-19)
(-1.4257038984 9.82796528948 -1.62599121711e-19)
(0.812332967614 12.5392496342 -5.01262265315e-20)
(3.68792995275 15.2091503894 -2.39600849016e-20)
(7.26152142096 17.817088102 -3.25848949304e-20)
(11.6019349357 20.3374684116 7.60432045846e-21)
(16.7896708139 22.7341670308 -6.09397897651e-20)
(22.9172274515 24.9707250374 -2.79498475124e-20)
(-10.1511835997 1.40647581545 -1.35837323812e-18)
(-7.56167221921 5.48990027899 8.55456278711e-18)
(-6.13097477021 8.43167362823 -4.45232766057e-20)
(-4.43652953007 11.7789724324 2.11941542239e-20)
(-2.18636289489 15.1185177519 -2.59064015985e-20)
(0.71075631805 18.4687045249 -1.96650495833e-20)
(4.32138367664 21.82255265 -6.69479932395e-20)
(8.72159835061 25.1676326335 5.44956572779e-21)
(14.0010600596 28.4813140319 -1.09730019064e-19)
(20.2641200257 31.7399120481 -5.033457012e-20)
(-13.8671068419 1.74047228039 -1.12891188646e-18)
(-11.1697584663 6.26271009186 1.39842314753e-18)
(-9.72516096557 9.77136714299 5.93515575486e-19)
(-8.05425046473 13.7175785632 5.37898204237e-20)
(-5.84016412705 17.6874601791 -6.04466393049e-20)
(-2.98300990319 21.7244840545 -2.17647591864e-20)
(0.589405196435 25.8369200066 -3.90109782772e-20)
(4.95967720086 30.0274282911 -5.05397153277e-20)
(10.2264723162 34.2893015046 -4.73807160368e-20)
(16.5056341303 38.6145654345 1.78792636831e-20)
(-18.0995598011 2.06927182744 -1.57028009579e-19)
(-15.3174088455 7.00704863895 1.43686784988e-18)
(-13.8825168311 11.0680763643 -3.25529966097e-19)
(-12.2726625422 15.6000632889 -2.95522054674e-19)
(-10.1463127845 20.1888260663 -3.97659494033e-20)
(-7.39585383235 24.9048944309 -3.16479930356e-20)
(-3.94416562216 29.7733576703 -1.06800186359e-20)
(0.29791701392 34.8142730341 -2.58091989827e-20)
(5.43597637033 40.039343264 -4.40900548533e-20)
(11.5977686766 45.459686401 -4.4015099523e-20)
(-22.8255227323 2.38592562641 -8.68988401605e-19)
(-19.9825345031 7.70325356964 -7.85996169768e-19)
(-18.5815324337 12.2890618697 -6.45889359596e-19)
(-17.0718039079 17.3799194288 -3.54230526322e-19)
(-15.0888864186 22.560974262 -8.19180275898e-21)
(-12.5159516236 27.9320240645 -2.82693245988e-20)
(-9.27235647942 33.5379286517 -2.52484094383e-22)
(-5.26410412926 39.4165965699 4.1211571145e-21)
(-0.38013297462 45.6008516216 -3.4700976631e-20)
(5.51584443602 52.1231214783 1.35354386967e-20)
(-28.009337977 2.68347813591 -2.72648338583e-18)
(-25.1297343842 8.33174358669 -1.06509767238e-18)
(-23.7874866769 13.4009217613 -5.78781732724e-19)
(-22.4197846395 19.007502072 -2.04165800495e-19)
(-20.6360228943 24.7387671065 -8.031479495e-20)
(-18.312974405 30.7258063034 8.15125002676e-21)
(-15.3693311191 37.0317987772 2.35069736668e-20)
(-33.601125783 2.95517177017 -1.76985066386e-18)
(-30.7097415355 8.87229020902 -2.74068556266e-18)
(-29.4522252511 14.3674756911 -4.33800599781e-19)
(-28.2667921637 20.4337673685 -1.54529919913e-19)
(-26.7382395882 26.659011203 1.51498406704e-20)
(-35.5123823618 15.1557479839 -6.44676039598e-22)
(-34.5461294214 21.6102280398 1.11900768759e-19)
)
;

boundaryField
{
    back
    {
        type            calculated;
        value           uniform (0 0 0);
    }
    sides
    {
        type            calculated;
        value           uniform (0 0 0);
    }
    bottom
    {
        type            calculated;
        value           uniform (0 0 0);
    }
    front
    {
        type            calculated;
        value           uniform (0 0 0);
    }
    atmosphere
    {
        type            calculated;
        value           nonuniform List<vector> 0();
    }
    floatingObject
    {
        type            calculated;
        value           nonuniform List<vector> 0();
    }
    procBoundary2to0
    {
        type            processor;
        value           nonuniform List<vector> 
14
(
(-11.7082310925 43.7150016857 -1.50054092773e-21)
(-7.21239994323 50.8306611795 -3.20775225971e-20)
(-1.74195426954 58.4367452774 1.01369800269e-20)
(-24.7419420395 33.2020061647 -1.63282787515e-20)
(-11.7082310925 43.7150016857 -1.50054092773e-21)
(-22.1898403247 40.1490046859 -1.76805150937e-20)
(-39.5398541476 3.19320458389 -7.77926171193e-19)
(-36.6614247377 9.30361868763 2.3268931001e-18)
(-24.7419420395 33.2020061647 -1.63282787515e-20)
(-33.3313144949 28.2519589207 2.29887722191e-20)
(-36.6614247377 9.30361868763 2.3268931001e-18)
(-41.8856448158 15.7355683239 4.84746825241e-19)
(-33.3313144949 28.2519589207 2.29887722191e-20)
(-41.1761135994 22.4889262321 1.92650204034e-19)
)
;
    }
    procBoundary2to1
    {
        type            processor;
        value           nonuniform List<vector> 
18
(
(2.27373090372 -10.9241337389 5.11645717547e-19)
(4.31915819831 -13.1123898024 1.55023088069e-19)
(7.62086288193 -12.5940447975 -2.34123855762e-19)
(7.62086288193 -12.5940447975 -2.34123855762e-19)
(13.2037147729 -14.1462421409 8.49934971401e-19)
(13.2037147729 -14.1462421409 8.49934971401e-19)
(20.0132290502 -14.895836645 -5.6088167974e-20)
(23.670745259 -10.8888994758 -3.30373411181e-20)
(26.7760728907 -6.12323554695 4.44872930735e-20)
(29.207759739 -0.650609866549 -2.81520726405e-20)
(30.8530923023 5.47011700656 4.78586589355e-20)
(31.6129521817 12.1717219391 -1.4706353451e-20)
(31.391032621 19.3750581681 -2.80772233312e-20)
(30.0940035264 26.9866600674 2.47008674631e-20)
(27.6349691318 34.8956419855 -5.88387695311e-20)
(23.9368932003 42.9717627622 -6.06158705884e-20)
(18.9354404348 51.0636012658 -2.85386213209e-20)
(12.5878064452 58.9968963422 1.23120397391e-20)
)
;
    }
}


// ************************************************************************* //
