/*--------------------------------*- C++ -*----------------------------------*\
| =========                 |                                                 |
| \\      /  F ield         | OpenFOAM: The Open Source CFD Toolbox           |
|  \\    /   O peration     | Version:  v2012                                 |
|   \\  /    A nd           | Website:  www.openfoam.com                      |
|    \\/     M anipulation  |                                                 |
\*---------------------------------------------------------------------------*/
FoamFile
{
    version     2.0;
    format      ascii;
    class       surfaceScalarField;
    location    "2.6";
    object      alphaPhi0.water;
}
// * * * * * * * * * * * * * * * * * * * * * * * * * * * * * * * * * * * * * //

dimensions      [0 3 -1 0 0 0 0];
oriented        oriented;


internalField   nonuniform List<scalar> 
306
(
-1.4205427266e-05
4.6660159891e-06
-2.04920163979e-05
6.28762296817e-06
-2.86981071108e-05
8.20757018404e-06
-3.951686134e-05
1.08211424259e-05
-5.36009340036e-05
1.40872864036e-05
-7.15284205162e-05
1.7931106384e-05
-9.48256546363e-05
2.33010985936e-05
-0.000126580413937
3.17573784613e-05
-0.000157074271613
3.04974495405e-05
-9.9958303926e-05
3.87566762992e-05
-1.10527826452e-06
1.14354437235e-05
1.31730892909e-07
-1.65914063791e-05
9.48647825158e-06
-2.27988498406e-05
1.24975801462e-05
-3.0892813236e-05
1.63040712717e-05
-4.12327045954e-05
2.11640647092e-05
-5.46101164285e-05
2.74686458078e-05
-7.19548607029e-05
3.52797277703e-05
-9.42301260842e-05
4.55796149017e-05
-0.000124639681198
6.2169918956e-05
-0.000167125742211
7.29860575297e-05
-9.87340710869e-05
6.69613678449e-05
-1.57634546147e-07
1.43386210696e-05
7.06761604048e-09
-1.67339602178e-05
-2.24493339486e-05
1.82144908224e-05
-2.97591298899e-05
2.36171789528e-05
-3.91622808904e-05
3.05710532792e-05
-5.09426656733e-05
3.92529169367e-05
-6.67260607596e-05
5.10671649395e-05
-8.62598502666e-05
6.51164298268e-05
-0.000111326410824
8.72399342073e-05
-0.000147530465692
0.000109191432767
-8.84252488797e-05
9.12611991975e-05
-5.88993214474e-09
2.05211001953e-05
4.04893330178e-10
-1.83140481999e-05
-2.42617719645e-05
2.95688171713e-05
-3.15867480925e-05
3.78999522707e-05
-4.09073063764e-05
4.8577479466e-05
-5.24998922057e-05
6.26630520776e-05
-6.69958726429e-05
7.96145591526e-05
-8.51246094195e-05
0.000105368780587
-0.000107778030261
0.000131845681562
-6.55272150019e-05
0.000107786086171
-9.19233188487e-09
2.77183113228e-05
8.34216225365e-10
-1.6105602409e-05
3.36618817291e-05
-2.10271993106e-05
4.28257191913e-05
-2.71338402523e-05
5.468682881e-05
-3.43222930583e-05
6.98531195415e-05
-4.23540509119e-05
8.76468449759e-05
-5.25066562295e-05
0.00011552049942
-6.16518779786e-05
0.00014099157671
-3.9403222261e-05
0.000119202354051
-6.05567087151e-08
3.63569877674e-05
3.91397060264e-09
-6.55519738154e-06
3.56105414478e-05
-9.23241376538e-06
4.55054233059e-05
-1.19458255834e-05
5.7400619212e-05
-1.45517307786e-05
7.24578113796e-05
-1.57201275799e-05
8.88131597792e-05
-1.71222186479e-05
0.000116918932866
-1.17855920375e-05
0.000135655641533
-9.07939095411e-06
0.000122965722041
-4.01690813471e-08
4.54700801155e-05
1.30149031129e-09
2.95417123682e-06
3.60377133147e-05
2.86820775062e-06
4.55908780575e-05
3.26858534246e-06
5.69969290609e-05
5.03654686244e-06
7.0684844886e-05
7.57513970948e-06
8.62693020438e-05
1.60309567461e-05
0.000108459275107
2.02640410758e-05
0.000131421967875
1.41676319207e-05
0.000118477234174
-1.48628695361e-07
4.96082020181e-05
-1.50841444276e-07
1.26262800023e-05
3.44662978021e-05
1.47356773896e-05
4.34764269765e-05
1.7770571165e-05
5.39540037841e-05
2.21394670518e-05
6.63067807552e-05
2.8938172943e-05
7.94627683147e-05
4.00005863546e-05
9.73917529804e-05
5.01797447221e-05
0.000121241581941
3.51619973718e-05
0.000105559294361
-7.47258896464e-07
5.09229456156e-05
-8.88800045784e-07
2.15359872194e-05
3.1635578758e-05
2.53125199849e-05
3.96893409282e-05
3.0556148793e-05
4.86975046338e-05
3.76372724008e-05
5.92133383957e-05
4.72074924383e-05
6.98832247204e-05
6.00998908331e-05
8.44945608427e-05
7.53109631645e-05
0.000106029680308
5.25535159608e-05
8.65920342864e-05
-1.19343975901e-06
4.90905202825e-05
-1.55560554239e-06
2.97494694732e-05
2.74782508112e-05
3.49680885314e-05
3.44549015744e-05
4.14790687183e-05
4.217006663e-05
5.01968936653e-05
5.0481552981e-05
6.13768644155e-05
5.86946641907e-05
7.58285966768e-05
7.00401456131e-05
9.11858922195e-05
9.06732851019e-05
5.56914551724e-05
7.8306269933e-05
-4.27081214193e-06
4.76098228256e-05
-3.45113888066e-06
3.68260960795e-05
2.23115818408e-05
4.29975471792e-05
2.82637203615e-05
5.06516228325e-05
3.44977787701e-05
6.06211020202e-05
4.04989152187e-05
7.29302477016e-05
4.63798339556e-05
8.80737411487e-05
5.48975817154e-05
0.00010544783476
7.33022530166e-05
6.3363508351e-05
7.51308810412e-05
-4.64940244328e-06
6.06718924428e-05
-4.5982384248e-06
4.27788077867e-05
1.66207922469e-05
4.95693770392e-05
2.14519375372e-05
5.78190781125e-05
2.62306235609e-05
6.79387308567e-05
3.03690493468e-05
8.12992931113e-05
3.30179417937e-05
9.93174418278e-05
3.68845432372e-05
0.000127468554367
4.51565118835e-05
9.21510730737e-05
4.97451341704e-05
-9.65819335488e-06
7.05356097175e-05
1.80487700182e-06
4.76667744333e-05
1.06317298518e-05
5.45146396324e-05
1.45837351803e-05
6.25955191632e-05
1.81346966314e-05
7.24816045209e-05
2.04765134526e-05
8.5488272572e-05
2.00141800957e-05
0.000104871122013
1.75103817454e-05
0.000137781061126
1.22534849226e-05
0.000117532916783
-7.97095577034e-06
-4.08861468201e-05
7.00300825388e-06
-8.5925080805e-07
5.16417726786e-05
4.61585461709e-06
5.82459827879e-05
7.95936190711e-06
6.55940134092e-05
1.07714684961e-05
7.3891950621e-05
1.21729761851e-05
8.35766337579e-05
1.0335410753e-05
9.66011408e-05
4.49902550437e-06
0.00011938259141
-1.05169628876e-05
9.81122473221e-05
-4.90826067807e-05
-3.11454487327e-05
-3.80613305789e-05
-2.01758194915e-07
5.49862723679e-05
-1.35454744753e-06
6.1208866047e-05
1.71351417832e-06
6.76269124997e-05
4.33552323582e-06
7.41199252965e-05
5.67572990546e-06
8.03302452552e-05
4.13623076547e-06
8.58051923265e-05
-9.55729882059e-07
8.97698148914e-05
-1.44679157831e-05
4.27110880794e-05
-3.12760465756e-05
-5.49587585467e-06
-1.37349656571e-05
3.49923831923e-06
5.80397022458e-05
6.39073786473e-05
6.95438208386e-05
7.46080157159e-05
7.86604797211e-05
8.19430412421e-05
8.09128887261e-05
4.13705502639e-05
-3.61217547177e-07
)
;

boundaryField
{
    back
    {
        type            calculated;
        value           uniform 0;
    }
    sides
    {
        type            calculated;
        value           uniform 0;
    }
    bottom
    {
        type            calculated;
        value           nonuniform List<scalar> 0();
    }
    front
    {
        type            calculated;
        value           uniform 0;
    }
    atmosphere
    {
        type            calculated;
        value           nonuniform List<scalar> 
16
(
-1.43261937558e-06
1.02056405125e-09
3.45741181738e-11
-1.12320220206e-10
-6.38410028009e-08
-3.75751550589e-08
-2.92479018677e-09
-1.91739909656e-08
-8.38731850698e-08
2.33544244013e-07
2.1975555065e-07
-2.203991765e-06
6.48262941682e-06
3.0157883085e-06
-4.57140982951e-06
2.40418833628e-07
)
;
    }
    floatingObject
    {
        type            calculated;
        value           nonuniform List<scalar> 0();
    }
    procBoundary1to0
    {
        type            processor;
        value           nonuniform List<scalar> 10(-7.25293115673e-06 -4.17770848526e-06 -1.318100928e-06 6.08686078059e-07 9.73105656046e-08 -4.2183983925e-06 -1.34240573133e-05 -2.25747412814e-05 4.64814558044e-06 2.81110951309e-06);
    }
    procBoundary1to2
    {
        type            processor;
        value           nonuniform List<scalar> 
18
(
9.54076341552e-06
1.17709347105e-05
1.2258834459e-05
1.39669827772e-05
1.3578820309e-05
2.29582007163e-05
1.20209065881e-05
4.61416309611e-06
-3.3757813681e-06
-1.10545842069e-05
-1.87122312315e-05
-2.56080270574e-05
-3.16836992633e-05
-3.71176732451e-05
-4.1708856602e-05
-4.56545459969e-05
-4.90442209212e-05
-5.21639059557e-05
)
;
    }
}


// ************************************************************************* //
