/*--------------------------------*- C++ -*----------------------------------*\
| =========                 |                                                 |
| \\      /  F ield         | OpenFOAM: The Open Source CFD Toolbox           |
|  \\    /   O peration     | Version:  v2012                                 |
|   \\  /    A nd           | Website:  www.openfoam.com                      |
|    \\/     M anipulation  |                                                 |
\*---------------------------------------------------------------------------*/
FoamFile
{
    version     2.0;
    format      ascii;
    class       volVectorField;
    location    "2.6";
    object      ddtCorrDdt0(U);
}
// * * * * * * * * * * * * * * * * * * * * * * * * * * * * * * * * * * * * * //

dimensions      [0 1 -2 0 0 0 0];


internalField   nonuniform List<vector> 
167
(
(0.00278969250067 -0.0543735304524 -5.66209527991e-22)
(0.00259720931947 -0.0584084456831 -4.74017634443e-22)
(0.00188801726423 -0.062248031497 -2.07707628714e-22)
(0.00139315761923 -0.0654799531098 -1.06782239012e-22)
(0.000558565993923 -0.0662256885714 -2.80984216666e-22)
(-0.000745704515894 -0.0651080755122 -2.32148238883e-22)
(-0.00361942197415 -0.0558964717343 -1.16025636886e-21)
(-0.0116076438357 -0.0495010294915 -1.23179082522e-21)
(-0.028032047287 -0.000242273534014 1.39656000213e-20)
(-0.0175918909172 -0.00361990946421 4.4458611613e-20)
(0.131918167473 0.039204556507 -1.79962689466e-19)
(-0.414886708678 0.042808993194 -2.0459426156e-19)
(0.00759226796528 -0.0548745241496 -1.48589930187e-22)
(0.00662221613604 -0.0593646670496 2.0516263043e-22)
(0.00491555247438 -0.0635860198223 3.93787144115e-22)
(0.00319984457471 -0.0670480246987 3.86420481094e-22)
(0.000648065355042 -0.069060297802 -1.33327612833e-23)
(-0.00315917670169 -0.0703527950715 -1.25512393009e-21)
(-0.0101946798528 -0.0667159571283 -4.57279107747e-21)
(-0.0249151377494 -0.0756517601915 -5.45061758935e-21)
(-0.052227728873 -0.066633522616 3.90269586531e-21)
(-0.0461395703817 -0.100486628921 -3.88610810367e-21)
(0.00603973278241 -0.0856767645059 1.15138067007e-19)
(0.139286328116 -0.0463808116247 1.12950283929e-19)
(0.0129868499684 -0.0559721257412 -4.91498340537e-22)
(0.0112503250444 -0.0608998968554 2.053980042e-22)
(0.00904662631565 -0.0655368538034 1.13595359114e-22)
(0.00655962933763 -0.0696959091825 -1.30019183699e-22)
(0.00313334888597 -0.0728658767923 -8.33468360251e-22)
(-0.00154940523615 -0.0762452684458 2.528929175e-23)
(-0.007662987598 -0.0780555915963 -7.64016458285e-21)
(-0.0198552126293 -0.0927740740772 -1.73495379028e-20)
(-0.0414243836373 -0.0956228311044 2.17918220389e-20)
(-0.0275819651671 -0.122303568097 -1.91628379768e-20)
(-0.0100452567138 -0.139672804496 3.97955250275e-20)
(-0.0329066390905 0.0233606565344 9.17130847431e-20)
(0.0166291309993 -0.0632984713646 -7.46888140202e-23)
(0.0139052861785 -0.0682987433172 -1.63277117006e-22)
(0.0107292188541 -0.0730290521423 1.49219083773e-23)
(0.00690645993183 -0.0773856700229 -2.07872173987e-22)
(0.001968830071 -0.081447353535 -3.43948494496e-22)
(-0.00169663503213 -0.085895239169 3.48197697241e-21)
(-0.0110248022068 -0.100760836834 -2.47316963682e-21)
(-0.02081494923 -0.10457462607 6.8948217915e-22)
(-0.00948841040996 -0.120034183069 -1.93191502776e-20)
(-0.0783666399767 -0.119389463752 -8.65649144899e-20)
(-0.0419074433752 -0.001649264423 -9.57962882141e-20)
(0.0193940609811 -0.071607342829 -1.85816286609e-23)
(0.0156088145395 -0.0769265133395 5.45702737123e-23)
(0.0113684557769 -0.0818925997401 -5.77068087105e-22)
(0.00644040243046 -0.0853905271264 -2.25889498439e-21)
(0.00181525594743 -0.0920340499789 -4.67442864661e-23)
(-0.00488452536227 -0.102098930136 1.35789004505e-21)
(0.00236003315931 -0.103403171259 8.27765952637e-22)
(0.00126575909823 -0.110672190762 -3.19590027982e-21)
(-0.117243085374 -0.103561391477 -2.54659488571e-20)
(-0.109457033733 -0.0505179100484 1.50159577575e-20)
(0.0253468325981 -0.075214245633 -2.1663768069e-23)
(0.0212537242232 -0.0811836091586 5.73653299166e-23)
(0.0164683619842 -0.0866037098366 -6.10940463503e-22)
(0.0110038498423 -0.0915561619621 -1.0376732719e-21)
(0.00454009530325 -0.0977753361838 -1.31930594408e-21)
(0.00249227294132 -0.0911099370953 4.23244829579e-21)
(0.000885797544582 -0.0983741912044 1.90979820226e-20)
(0.00405183548955 -0.106943526964 2.19423983495e-22)
(-0.124452968885 -0.0868367067333 -1.84477779673e-20)
(-0.246955388275 0.00317290596598 7.26378316446e-22)
(0.0320382545764 -0.0791390988441 8.21295485089e-25)
(0.0275155227807 -0.0858657347332 5.57443510045e-24)
(0.0220099447902 -0.0920788844657 -6.59627151832e-22)
(0.0154080322819 -0.0976810587513 3.4096808846e-22)
(0.00850855707978 -0.100838564265 -2.42746381969e-21)
(0.00418411189396 -0.0993280584268 7.67999839166e-21)
(-0.0163620365146 -0.0996943411968 2.26411401499e-20)
(-0.00178430178262 -0.0958962902256 -3.19770945305e-22)
(-0.129020269393 -0.0608641329019 -1.32876071182e-19)
(-0.352883321028 0.122979010699 9.68589012271e-20)
(0.0395423527967 -0.0834153634451 7.72798380245e-23)
(0.0346008445561 -0.0912609495174 3.34591871078e-22)
(0.0284282604076 -0.0986546872556 -5.92715003446e-22)
(0.020577156941 -0.105395908205 3.1846054926e-22)
(0.0113900184438 -0.109300522727 -1.17969196348e-21)
(-0.000467082107284 -0.11183126363 -8.15334897025e-22)
(-0.0226383190641 -0.108766955632 3.95733019433e-20)
(-0.0193795457341 -0.0974152674637 1.25718269299e-21)
(-0.11069677387 -0.054486596399 -8.00245928603e-19)
(0.202117805127 -0.396950777696 2.17272427144e-20)
(0.0480295947086 -0.0879303822401 -1.1147179569e-23)
(0.0428879350902 -0.0970212071202 -3.05806801127e-23)
(0.0362667407641 -0.106067836281 -1.38812819497e-22)
(0.0276066770387 -0.115096737617 -7.63759503354e-22)
(0.0165048209669 -0.122310313817 -3.43228683147e-22)
(0.000114107596165 -0.129927763518 -5.23206062696e-21)
(-0.0281322585025 -0.130121141162 -1.80639908307e-23)
(-0.044668949986 -0.110152327952 -6.48259476759e-21)
(-0.137257593553 -0.0643192358197 -3.17966053731e-20)
(-0.745503667521 -3.74043549775 1.07273005695e-18)
(0.0577061700973 -0.0924910902777 -1.06744292656e-23)
(0.0525956921964 -0.10306470241 4.0718275508e-25)
(0.0460020994409 -0.113929936046 -2.65656677494e-22)
(0.0373842558437 -0.125554975742 9.97130889574e-23)
(0.0262883559119 -0.137309643748 3.76672845299e-22)
(0.00975571789575 -0.153527642868 -5.92033259246e-22)
(-0.0199217777502 -0.166687515008 8.94370388365e-21)
(-0.0442672598912 -0.148173435314 7.44352289937e-21)
(-0.0598651786317 -0.116421008757 -9.73590147008e-19)
(12.0064505777 -6.51369719577 8.27317872066e-20)
(0.0683603760339 -0.0971608007453 -1.02909327925e-23)
(0.0636980328977 -0.108774787467 4.46814359876e-23)
(0.057700765408 -0.121305106213 -5.00329470148e-22)
(0.0500188036401 -0.135190209566 -8.35206424192e-22)
(0.0410474357237 -0.15047190928 -1.17558644614e-22)
(0.0302490221155 -0.173624575409 -4.41838000737e-21)
(0.0171636074667 -0.204823410362 2.0139943243e-21)
(0.0432876278212 -0.198503795244 9.2696761186e-21)
(0.562851944016 -0.280886288317 -4.96458134424e-20)
(37.7975007535 -13.6220822629 5.96550617778e-19)
(0.0798089659187 -0.100608492772 -5.16781357936e-23)
(0.076045981552 -0.113773437246 2.7923105985e-22)
(0.0709297079533 -0.127666456546 -2.44877081736e-22)
(0.0643574030098 -0.142559572987 2.7980890755e-24)
(0.0571810581619 -0.157606774832 -4.15644513635e-22)
(0.0510332917318 -0.175148954167 -2.34595971685e-22)
(0.0522664765482 -0.186094896476 9.94588110175e-21)
(0.117495131526 -0.13894060619 -2.29918749226e-21)
(1.04682606404 -0.201140984339 6.89488979079e-19)
(51.9964490645 -6.3108145665 -5.17007273997e-19)
(0.0923123427938 -0.103317904836 4.12658047206e-24)
(0.0896586899549 -0.117699808429 2.25652027202e-22)
(0.0855554954209 -0.133071993268 -1.22449401745e-22)
(0.0796074978892 -0.149207279323 1.08479947273e-21)
(0.071612176975 -0.164306102346 -5.33400722869e-22)
(0.061303528311 -0.176651392609 5.8589802292e-21)
(0.0505029723154 -0.170267544409 2.89108414058e-20)
(0.0596648151724 -0.0935298573455 -7.14389669751e-21)
(0.350446383015 -0.0937544647299 8.06393305878e-19)
(20.2668140987 31.5678963824 2.21888916861e-19)
(0.106025327386 -0.104961534569 -8.41997713635e-24)
(0.104724753589 -0.120576956379 9.20187158553e-24)
(0.102002701715 -0.137802731055 -2.45003127303e-22)
(0.0970181890341 -0.156690691252 -1.42831029996e-22)
(0.0883389208949 -0.176414958782 2.2618596434e-23)
(0.0725030148878 -0.194933634481 -7.97398989133e-21)
(0.0437632880742 -0.199260394384 -1.09716931073e-20)
(-0.044576767747 -0.131353096177 7.83816746101e-21)
(-0.792729447641 -0.150456851368 7.73854654282e-20)
(-25.5235427036 21.6335025921 8.42066012156e-19)
(0.120593449785 -0.105104151762 -1.24561078364e-23)
(0.121184543808 -0.121777946313 -4.1722167902e-23)
(0.120710092145 -0.140869501419 -7.69217406455e-23)
(0.118301470567 -0.16302852902 -3.44169121317e-22)
(0.11232914379 -0.189109021517 -1.71157685818e-22)
(0.098818580241 -0.220884013961 -5.95196683921e-21)
(0.0707779062581 -0.25626083059 2.55570503761e-20)
(-0.0288545689255 -0.231981595895 4.35598298992e-20)
(-1.01300423581 -0.387083949909 2.82341358737e-19)
(-40.9815158558 -1.84662449878 -2.64266594079e-18)
(0.13570051173 -0.103321345332 6.67138878312e-23)
(0.138649210634 -0.120508290562 -1.30285765463e-23)
(0.141315338568 -0.140761178279 1.71880305829e-22)
(0.143212383017 -0.165208557363 2.82691561118e-23)
(0.143441699862 -0.195888057324 1.60612487858e-22)
(0.140070047507 -0.237341267257 -3.37999626077e-21)
(0.129675265254 -0.291031774987 -1.42934956023e-20)
(0.0990399739737 -0.274368910385 -3.93491201209e-21)
(-0.289654537818 -0.362481534456 1.65041932569e-19)
(-40.1954135133 -16.3503344804 -1.11077931859e-18)
)
;

boundaryField
{
    back
    {
        type            calculated;
        value           uniform (0 0 0);
    }
    sides
    {
        type            calculated;
        value           uniform (0 0 0);
    }
    bottom
    {
        type            calculated;
        value           nonuniform List<vector> 0();
    }
    front
    {
        type            calculated;
        value           uniform (0 0 0);
    }
    atmosphere
    {
        type            calculated;
        value           nonuniform List<vector> 
16
(
(-0.465315276947 0.042808993194 6.35889102749e-19)
(-0.128499742017 -0.0463808116247 -2.02981888319e-20)
(-0.0272224903198 0.0233606565344 -1.91441498629e-21)
(-0.000711695565761 -0.001649264423 1.14598079283e-23)
(-0.00183018797437 -0.0505179100484 -2.3847604334e-22)
(-0.00148484554329 0.00317290596598 5.98575178835e-23)
(-0.00135366774556 0.122979010699 -1.59674061889e-22)
(-1.06594730294 -0.396950777696 7.94606431241e-19)
(-1.0005422123 -3.74043549775 2.71332513432e-19)
(-6.75390917047 -6.51369719577 3.225918646e-19)
(0.673704724952 -13.6220822629 3.60435604232e-19)
(0.0204431551874 -6.3108145665 -4.92692009428e-21)
(20.910002093 31.5678963824 -2.49911978011e-18)
(-26.4789245496 21.6335025921 1.39522127878e-18)
(-1.23555030132 -1.84662449878 1.54214140817e-18)
(10.6087190134 -16.3503344804 5.16112329899e-19)
)
;
    }
    floatingObject
    {
        type            calculated;
        value           nonuniform List<vector> 0();
    }
    procBoundary1to0
    {
        type            processor;
        value           nonuniform List<vector> 10((0.150774911618 -0.0992992350596 1.25171376798e-23) (0.156287045523 -0.116204019828 -1.00116215408e-22) (0.162564282049 -0.136379716616 -5.09646654454e-23) (0.169667654671 -0.161036773471 -4.69247988845e-22) (0.177701897832 -0.192238306801 -7.56705791231e-22) (0.187188433867 -0.234588577749 -4.16703353919e-21) (0.197979600563 -0.284925027129 -1.16746927738e-20) (0.203830351396 -0.256248924402 -1.55078551071e-21) (0.0134978811177 -0.336972316559 5.11923423756e-19) (-13.8596424289 -6.43570245818 -5.99132973751e-19));
    }
    procBoundary1to2
    {
        type            processor;
        value           nonuniform List<vector> 
18
(
(0.00309188024394 -0.0491183914922 -3.31490336273e-22)
(0.00844100512126 -0.0497952673662 4.7220581216e-22)
(0.0141613167321 -0.0504759267366 -5.21345106176e-22)
(0.0187764522046 -0.057768268443 -8.67449045057e-23)
(0.0187764522046 -0.057768268443 -8.67449045057e-23)
(0.0224423527051 -0.0659121922743 -1.01362722598e-22)
(0.0224423527051 -0.0659121922743 -1.01362722598e-22)
(0.0287574263535 -0.0688524913479 3.69987944261e-23)
(0.0356991890357 -0.0721292096682 7.17561449441e-23)
(0.0433753702294 -0.0754383255388 -1.16070354934e-24)
(0.0519426751302 -0.0788716675344 -1.17105491141e-23)
(0.0618006375684 -0.0828616394136 -1.50518909389e-23)
(0.0717868712229 -0.0858157248252 2.89223248946e-24)
(0.0821709783259 -0.0882143360441 1.01701074909e-22)
(0.0939799453118 -0.0900628984905 7.11961330134e-23)
(0.106472265946 -0.0909121068162 2.81138845386e-23)
(0.119513622035 -0.0904895741857 -6.14444211694e-25)
(0.132827311192 -0.0885416036835 -3.58702556207e-23)
)
;
    }
}


// ************************************************************************* //
