/*--------------------------------*- C++ -*----------------------------------*\
| =========                 |                                                 |
| \\      /  F ield         | OpenFOAM: The Open Source CFD Toolbox           |
|  \\    /   O peration     | Version:  v2012                                 |
|   \\  /    A nd           | Website:  www.openfoam.com                      |
|    \\/     M anipulation  |                                                 |
\*---------------------------------------------------------------------------*/
FoamFile
{
    version     2.0;
    format      ascii;
    class       volScalarField;
    location    "0.2";
    object      p;
}
// * * * * * * * * * * * * * * * * * * * * * * * * * * * * * * * * * * * * * //

dimensions      [1 -1 -2 0 0 0 0];


internalField   nonuniform List<scalar> 
1984
(
9451.27329878
8961.88433569
8472.85312129
7984.13296339
7495.71528564
7007.59763031
6519.77710005
6032.25045962
5545.01395467
5058.06321117
4571.39309551
4084.99766188
3598.87005678
3113.00240002
2627.38553671
2142.00858518
1656.85904118
1171.91724688
687.122123613
217.257012184
9451.04045988
8961.65114834
8472.62522732
7983.91037314
7495.49481703
7007.37834668
6519.55883322
6032.03331984
5544.7981905
5057.84920091
4571.18130775
4084.78866699
3598.66457284
3112.80142206
2627.19072325
2141.82357698
1656.69193494
1171.78715564
687.148541708
217.682545375
9450.4442365
8961.04975699
8472.02555275
7983.31487527
7494.90391612
7006.79278628
6518.97959203
6031.46153051
5544.23517772
5057.29637989
4570.6402747
4084.26112656
3598.15234722
3112.30644275
2626.71497072
2141.36877833
1656.25857308
1171.37036502
686.694907038
217.303851814
9449.52962803
8960.13021064
8471.10731002
7982.40097998
7493.99617293
7005.89290155
6518.0893405
6030.58284842
5543.37012158
5056.447276
4569.80956204
4083.45144563
3597.36646374
3111.5472251
2625.98531067
2140.67139975
1655.59577507
1170.74512301
686.107027987
217.014883174
9448.30263353
8958.90161426
8469.8814299
7981.18054948
7492.78347617
7004.69025428
6516.89916877
6029.40774502
5542.21292403
5055.31098035
4568.69749048
4082.3671132
3596.31355816
3110.52957715
2625.00682319
2139.7359136
1654.70690265
1169.90672572
685.321144343
216.628775818
9446.76162011
8957.36008811
8468.34371554
7979.64952455
7491.26180595
7003.18076698
6515.40487984
6027.9319026
5540.75905496
5053.88292025
4567.299332
4081.00328978
3594.98874313
3109.24865512
2623.77483276
2138.55796165
1653.58807602
1168.85240635
684.335879805
216.150860658
9444.90457093
8955.50281638
8466.49108488
7977.80471991
7489.42784871
7001.36094201
6513.60274153
6026.15131695
5539.0042405
5052.15847063
4565.61022064
4079.35486897
3593.38670882
3107.69900483
2622.28381409
2137.13200559
1652.23373792
1167.5766036
683.145253444
215.576263656
9442.7288123
8953.32684238
8464.32037181
7975.64277567
7487.27801916
6999.22692199
6511.48857744
6024.06145545
5536.94356632
5050.13234599
4563.62447852
4077.4158253
3591.50112086
3105.87403447
2620.52697351
2135.45109133
1650.63677419
1166.07199936
681.741322019
214.899712177
9440.23118656
8950.8288376
8461.82804256
7973.15990965
7484.80823525
6996.77426972
6509.05754545
6021.65702747
5534.57127414
5047.79829788
4561.33538628
4075.17898555
3589.32439523
3103.76580262
2618.49607157
2133.50673511
1648.78849009
1164.32970784
680.114909812
214.116141048
9437.4082083
8948.0051805
8459.01025735
7970.35198431
7482.01398716
6993.99803373
6506.30419009
6018.93202636
5531.88076457
5045.1491347
4558.7351468
4072.63598602
3586.84764367
3101.36495748
2616.18136686
2131.28888628
1646.67860564
1162.33931189
678.255545123
213.220153115
9434.25618706
8944.85204833
8455.86294857
7967.21457983
7478.8904056
6990.89280643
6503.22249012
6015.87975388
5528.86462797
5042.17669837
4555.81487382
4069.77722784
3584.06060818
3098.66065632
2613.57152706
2128.78583509
1644.29515844
1160.0887461
676.151230836
212.205705297
9430.77135233
8941.36552767
8452.38192044
7963.74308496
7475.43234274
6987.45279503
6499.80591242
6012.49286267
5525.51463925
5038.87187231
4552.56453802
4066.59181058
3580.9515729
3095.64045673
2610.65350165
2125.98406792
1641.62434026
1157.56410679
673.788197595
211.065919269
9426.94999344
8937.54174726
8448.56297293
7959.93281072
7471.63447427
6983.67190633
6496.04748
6008.76339444
5521.82179712
5035.22455499
4548.97294699
4063.06746504
3577.50726145
3092.29018217
2607.41235875
2122.86807825
1638.65028198
1154.74941137
671.150633397
209.792916846
9422.78862143
8933.37703587
8444.40205175
7955.77912946
7467.49142361
6979.54385477
6491.93985533
6004.68284332
5517.77633152
5031.22367019
4545.0276807
4059.1904632
3573.71271015
3088.59375686
2603.83108364
2119.42013091
1635.35478809
1151.62630661
668.220372947
208.377648926
9418.2841583
8928.86810896
8439.89542737
7951.27764182
7462.99791234
6975.0622884
6487.4754414
6000.24223681
5513.36778373
5026.85718453
4540.71508313
4054.94556086
3569.55115631
3084.53304443
2599.89035858
2115.61999115
1631.71701341
1148.17370998
664.976516204
206.809696372
9413.43415907
8924.01228848
8435.03990754
7946.42437595
7458.14893887
6970.22096592
6482.64657709
5995.4322591
5508.58506014
5022.11208428
4536.02025657
4050.31588774
3565.00387203
3080.08759177
2595.56825768
2111.44454413
1627.71305261
1144.36735761
661.394989606
205.077039491
9408.23709543
8918.80778239
8429.83309562
7941.21602656
7452.94006092
6965.01399257
6477.445599
5990.24330744
5503.41638755
5016.97439136
4530.92684169
4045.28274717
3560.04987158
3075.23432847
2590.83984768
2106.86739073
1623.31545623
1140.1793266
657.448007477
203.165776791
9402.69264682
8913.25396808
8424.27369314
7935.65032686
7447.36756322
6959.43591731
6471.86511757
5984.66578515
5497.84967498
5011.42925972
4525.41717471
4039.82566968
3554.66592311
3069.9473752
2585.67691949
2101.85836713
1618.49267698
1135.57732647
653.10337202
201.059763559
9396.80203759
8907.35176194
8418.3618657
7929.72617713
7441.4288327
6953.48227953
6465.8982232
5978.68993442
5491.87216051
5005.4607048
4519.47186888
4033.92181001
3548.82578446
3064.19730766
2580.04719398
2096.38284864
1613.20835909
1130.52405684
648.323757027
198.740212551
9390.5685146
8901.10405887
8412.09958481
7923.44422679
7435.12274218
6947.14950706
6459.53872254
5972.30656377
5485.47118802
4999.0522752
4513.07043313
4027.54647856
3542.50057168
3057.95121292
2573.91408139
2090.4011222
1607.42042074
1124.97603834
643.065498486
196.185082072
9383.99752035
8894.51594294
8405.49106227
7916.80720322
7428.44989949
6940.43579989
6452.78178069
5965.50727792
5478.63431937
4992.18705137
4506.19111333
4020.67284506
3535.65830466
3051.17208454
2567.23591124
2083.86747617
1601.08000087
1118.88245052
637.277335365
193.368389201
9377.09754462
8887.59550221
8398.54325729
7909.82043867
7421.41350662
6933.34154
6445.62433605
5958.28494133
5471.34972964
4984.84794394
4498.81105811
4013.27192459
3528.26367517
3043.8183412
2559.9651736
2076.72915819
1594.13014595
1112.18359399
630.89873217
190.259297814
9369.88060467
8880.35436781
8391.26668387
7902.49266999
7414.01987226
6925.86991758
6438.06572704
5950.63427557
5463.60674793
4977.0181344
4490.90661341
4005.31266601
3520.27787344
3035.84333454
2552.04766634
2068.92513755
1586.50419607
1104.80895435
623.857732726
186.82093469
9362.36287668
8872.80834602
8383.67596515
7894.83663328
7406.27912583
6918.02767179
6430.10845013
5942.55261379
5455.39657263
4968.68170306
4482.45380062
3996.76220461
3511.65853038
3027.19489462
2543.42156849
2060.38465812
1578.12380888
1096.67475711
616.068192706
183.008832772
9354.56535779
8864.97810167
8375.79055604
7886.86983392
7398.20604683
6909.8259785
6421.75909177
5934.04085402
5446.71321828
4959.82450749
4473.42904358
3987.58633357
3502.35981632
3017.81493362
2534.01643483
2051.02553609
1568.89652038
1087.68084644
607.426160912
178.768846999
9346.51455391
8856.88987989
8367.63552012
7878.6153986
7389.8210097
6901.28149738
6413.02946462
5925.10466292
5437.55473277
4950.43535984
4463.81020226
3977.75027131
3492.33278899
3007.63920204
2523.75217874
2040.75220998
1558.71275578
1077.70668554
597.805110608
174.034319135
9338.24321366
8848.57628012
8359.24236637
7870.10300163
7381.15102313
6892.41754652
6403.93794289
5915.75595048
5427.92477447
4940.50764024
4453.57813661
3967.22000183
3481.52628565
2996.59746445
2512.53824796
2029.45364531
1547.44225126
1066.60626942
587.049596714
168.722133049
9329.79090354
8840.07688291
8350.64978502
7861.36976323
7372.23083566
6883.26544057
6394.51103341
5906.01466833
5417.83458444
4930.04132294
4442.71863418
3955.96395289
3469.88810299
2984.61386643
2500.27279853
2017.00090122
1534.92961053
1054.20146653
574.966615117
162.727040624
9321.20469363
8831.43898546
8341.90447375
7852.46121643
7363.1040981
6873.86591238
6384.78511011
5895.91091186
5407.30549362
4919.0458478
4431.22550656
3943.95603407
3457.36763569
2971.60867118
2486.84292796
2003.2451912
1520.98949056
1040.27382988
561.314023359
155.913346267
9312.53948694
8822.71803006
8333.06173271
7843.43214586
7353.82451505
6864.27064419
6374.80839502
5885.48737607
5396.37184124
4907.54348193
4419.10430339
3931.17949436
3443.91946092
2957.50097693
2472.12573953
1988.01633203
1505.40128339
1024.55442387
545.784760085
148.102228043
9303.8582476
8813.97785256
8324.1858638
7834.34725474
7344.45689305
6854.54378761
6364.64304773
5874.80212937
5385.08452904
4895.57369721
4406.37739057
3917.63243376
3429.50884502
2942.21351442
2455.9913824
1971.12268147
1487.90425849
1006.71228339
527.986174729
139.052216024
9295.23186251
8805.29065139
8315.35032382
7825.28159712
7335.07797008
6844.76334136
6354.36725212
5863.93158266
5373.51504208
4883.19834363
4393.0903307
3903.33522228
3414.11970045
2925.68027978
2438.30901828
1952.35366441
1468.19447319
986.343215998
507.415248931
128.429927363
9286.73846378
8796.73642879
8306.63745793
7816.32063897
7325.77687021
6835.02218452
6344.07706909
5852.97343272
5361.75977997
4870.507651
4379.31974055
3888.34019801
3397.76567797
2907.85800985
2418.95702848
1931.4863302
1445.92519369
962.962591343
483.435842838
115.772775994
9278.46202389
8788.4018815
8298.13776713
7807.55975092
7316.65489362
6825.42840687
6333.88767872
5842.04921091
5349.94435266
4857.62677186
4365.18252381
3872.74384601
3380.50512519
2888.74286579
2397.83919123
1908.29743902
1420.71156252
936.003758181
455.276372074
100.477435305
9270.4897625
8780.37922578
8289.94888676
7799.10273912
7307.82413469
6816.10445919
6323.93347844
5831.30585775
5338.22725228
4844.72230401
4350.84610101
3856.70152514
3362.46063543
2868.39398279
2374.90927003
1882.58315629
1392.1386041
904.793751081
422.088614179
82.0079280639
9262.91446546
8772.7668199
8282.17342867
7791.05812242
7299.40413647
6807.18462979
6314.36658779
5820.91568051
5326.80205881
4832.00787457
4336.53874864
3840.44417089
3343.84348695
2846.96596354
2350.20842117
1854.19230189
1359.79103387
868.551304945
382.976166644
60.3084207626
9255.82663508
8765.66006104
8274.91053714
7783.53132894
7291.5166395
6798.8108884
6305.35363944
5811.07410317
5315.89697096
4819.74728169
4322.55831368
3824.29541981
3324.98242559
2824.75213694
2323.92217579
1823.08793004
1323.31488545
826.479320442
337.149939527
36.2156729709
9249.32578663
8759.12581307
8268.23223903
7776.63006595
7284.28575136
6791.12885789
6297.07064938
5801.9943038
5305.77025742
4808.2533318
4309.27623901
3808.68590105
3306.35385635
2802.23747858
2296.46329796
1789.46085544
1282.32179871
776.813042951
286.870738905
13.8498643589
9243.44740397
8753.2441074
8262.23617746
7770.4437694
7277.82225516
6784.27745431
6289.6863972
5793.89205357
5296.69986813
4797.87993407
4297.13256881
3794.15855041
3288.60512217
2780.15413162
2268.58969912
1753.99669159
1237.00070877
718.285001783
231.608277132
-4.00130150705
9238.24260421
8748.07029451
8256.98595306
7765.05298665
7272.22425177
6778.38186985
6283.36970892
5786.98497055
5288.96486681
4788.98082011
4286.61638955
3781.35968423
3272.56569947
2759.5325972
2241.52052948
1718.13061418
1188.69368014
649.470144012
171.679183646
-10.6404222599
9233.76345899
8743.64302753
8252.52262639
7760.51108954
7267.56245672
6773.53752929
6278.2503572
5781.45386326
5282.81693769
4781.92188834
4278.22083712
3770.96867798
3259.18417082
2741.62817901
2216.82148719
1683.77035203
1139.4073094
575.772862899
125.615673805
-11.0616397953
9230.01532394
8739.96819142
8248.8565291
7756.83748802
7263.87031507
6769.79769276
6274.4084706
5777.41981692
5278.43526786
4776.97312661
4272.37509729
3763.67929159
3249.52807092
2728.07035942
2196.7618698
1653.190473
1093.77817179
495.498075396
80.577109486
-10.9172769358
9226.97260738
8737.01903499
8245.96291957
7754.01238671
7261.13539436
6767.16152783
6271.85836388
5774.92032879
5275.87549234
4774.24088663
4269.3188957
3759.96983421
3244.4681339
2720.36425358
2183.77618271
1629.24636921
1066.54809865
412.37911061
42.4090590533
-10.786523971
9224.58409998
8734.73847139
8243.78217335
7751.97460584
7259.29608039
6765.56673229
6270.53217364
5773.88040956
5275.009319
4773.57573441
4268.96287283
3759.92539332
3244.43332838
2719.74141847
2181.95445765
1623.98493725
1053.95742112
354.320384373
19.3647873019
-11.0978641573
9222.77629086
8733.04406475
8242.22445987
7750.62637143
7258.24487823
6764.89396407
6270.27942097
5774.09525572
5275.45865267
4774.48795113
4270.77584026
3763.02039417
3248.91062684
2725.92122571
2191.34327641
1633.41466042
1056.76431194
367.580544073
15.4838277505
-11.9946126857
9221.4598739
8731.83553114
8241.17776104
7749.84029861
7257.83808969
6764.98723112
6270.90450808
5775.23906869
5276.39085651
4775.91518845
4273.50431924
3767.65030113
3255.75791497
2737.0721001
2210.92215454
1663.45342811
1104.44077501
450.044337271
34.1167635248
-15.6140625965
9220.54115993
8731.00781259
8240.5214466
7749.47533001
7257.92359195
6765.79142439
6272.66523883
5777.96486582
5277.83528646
4777.35466141
4276.16641683
3770.91092891
3258.92237936
2750.72478413
2238.77812992
1706.8630411
1163.52781268
556.047162686
70.4596927074
-39.902826522
9219.93212857
8730.45991268
8240.11691984
7749.30866086
7258.09585772
6766.1988062
6272.71945878
5775.76813704
5272.39516652
4777.62801989
4278.80916199
3773.39604827
3239.61592115
2769.00184769
2270.39021595
1751.96529662
1217.67132062
658.757147477
110.06935154
-185.693272332
9219.58163369
8730.1576545
8239.98320952
7749.51657828
7259.0405257
6768.70864363
6278.86543554
5793.19264878
3164.6031498
2797.81318905
2306.09757445
1790.46320247
1251.63654075
688.889225219
-48.6945968798
-865.499450811
9219.40506115
8729.99067558
8239.85872227
7749.44018593
7258.92058666
6768.49492619
6278.61823543
5790.51020245
3264.23558819
2837.15446687
2344.76777415
1821.76973048
1272.7991526
615.638753132
-468.654800745
-2219.79149035
9219.40592054
8729.99155292
8239.85962754
7749.44112056
7258.92158223
6768.49603535
6278.6195233
5790.51168887
3264.23662341
2837.15547886
2344.76934788
1821.77199928
1272.80154627
615.639914225
-468.654810557
-2219.79239313
9219.5841576
8730.16022022
8239.98585109
7749.51934207
7259.0434991
6768.71194875
6278.86938707
5793.19729855
3164.60633924
2797.81629805
2306.10229085
1790.47015969
1251.64432762
688.894731454
-48.6941691217
-865.499406787
9219.93627599
8730.46412612
8240.12125344
7749.3132016
7258.10077744
6766.2044305
6272.72614879
5775.77664251
5272.40717544
4777.642005
4278.82346361
3773.40838477
3239.62405213
2769.00819701
2270.39741626
1751.97376172
1217.67989113
658.76275361
110.069874406
-185.693309202
9220.54647651
8731.01319901
8240.52700448
7749.48121699
7257.93006348
6765.79886934
6272.67415143
5777.97580862
5277.84856415
4777.36945055
4276.18124801
3770.92357582
3258.93157039
2750.73195666
2238.78555126
1706.87110084
1163.53540719
556.051097976
70.4598396094
-39.9028046485
9221.4665308
8731.84223128
8241.18461429
7749.84749336
7257.84591996
6764.9961126
6270.91491238
5775.25138386
5276.40511518
4775.9307047
4273.519788
3767.66402759
3255.76868716
2737.08040604
2210.92941298
1663.46014252
1104.44622886
450.046262691
34.1168289513
-15.6140524734
9222.78437523
8733.0521456
8242.2326306
7750.63482101
7258.25389768
6764.90398099
6270.29086352
5774.10842507
5275.47352009
4774.50394181
4270.79184903
3763.03504537
3248.92288255
2725.93095129
2191.35100009
1633.42069378
1056.76820923
367.581561213
15.4838839165
-11.9946030152
9224.59356489
8734.74788557
8243.79161392
7751.98423898
7259.30614243
6765.57771701
6270.54443518
5773.89418085
5275.02458436
4773.59203465
4268.97930456
3759.94080394
3244.44675632
2719.75241021
2181.96296474
1623.99097004
1053.96037472
354.321653282
19.3648342674
-11.0978557181
9226.98328423
8737.02963369
8245.97352804
7754.0230948
7261.14656519
6767.17345544
6271.8714567
5774.93471349
5275.8911971
4774.25754812
4269.33578855
3759.98595712
3244.4825963
2720.37643269
2183.78573277
1629.25325912
1066.5521048
412.380497919
42.409099973
-10.7865185501
9230.02721996
8739.98002636
8248.86832658
7756.84944407
7263.8825738
6769.81064079
6274.42241091
5777.43498906
5278.45165431
4776.99040303
4272.392696
3763.69623084
3249.54354298
2728.08366156
2196.77251862
1653.19836986
1093.78309569
495.499958082
80.577136856
-10.9172717171
9233.77638219
8743.65590454
8252.5354924
7760.52404949
7267.57574077
6773.55139287
6278.26504787
5781.46962458
5282.8337139
4781.93953699
4278.23882282
3770.98601532
3259.20018868
2741.64222136
2216.83299239
1683.7790592
1139.41297342
575.775330949
125.615699785
-11.0616296044
9238.25637429
8748.08403148
8256.99969017
7765.06682382
7272.23835935
6778.39647933
6283.38508497
5787.00127903
5288.98214947
4788.99879472
4286.6347229
3781.37739518
3272.58222703
2759.5472821
2241.53280191
1718.14002495
1188.7000253
649.47328164
171.679427583
-10.6403574093
9243.46181885
8753.2585106
8262.25061262
7770.45833035
7277.83708973
6784.29275805
6289.70238521
5793.90890209
5296.71760443
4797.89832252
4297.1511836
3794.17663273
3288.62211469
2780.16939659
2268.60264586
1754.00675528
1237.00769896
718.288855655
231.609155878
-4.00108000629
9249.34064649
8759.14069081
8268.24719381
7776.64519515
7284.30119031
6791.14478086
6297.08724617
5802.01172646
5305.7885294
4808.27222734
4309.2953376
3808.70449017
3306.37139252
2802.25332916
2296.47688131
1789.47153568
1282.32940769
776.817565773
286.87230089
13.8503713551
9255.84179897
8765.67526826
8274.92585875
7783.5468712
7291.53252511
6798.8272803
6305.37071165
5811.09200811
5315.91574511
4819.76670335
4322.57796527
3824.31458541
3325.00054543
2824.76858178
2323.93636484
1823.09919608
1323.32307109
826.484426864
337.152069701
36.2163968536
9262.92972104
8772.78213774
8282.18889517
7791.07384861
7299.42025788
6807.20130608
6314.38398279
5820.93392646
5326.82115926
4832.02762156
4336.55877148
3840.46376532
3343.86204595
2846.9828787
2350.22309854
1854.20405797
1359.79971366
868.556896502
382.978747208
60.3093045362
9270.50502324
8780.39455713
8289.96438144
7799.11851087
7307.84032054
6816.1212127
6323.95094974
5831.32416084
5338.24638169
4844.74205466
4350.86612392
3856.72116544
3362.47935927
2868.41112987
2374.92418947
1882.59521433
1392.14763663
904.799710724
422.091544163
82.0089300464
9278.47719891
8788.41712819
8298.15317603
7807.57543183
7316.67097722
6825.44503576
6333.90498708
5842.0672946
5349.96319591
4857.64617172
4365.20213614
3872.76305337
3380.52345153
2888.7597816
2397.85399318
1908.30954579
1420.72076345
936.009951744
455.27955201
100.478518443
9286.75345668
8796.75148852
8306.65266698
7816.33609727
7325.79269624
6835.0385058
6344.09400223
5852.9910563
5361.77806923
4870.52641044
4379.33864193
3888.35868092
3397.78329961
2907.87427101
2418.97139555
1931.49823953
1445.93437199
962.968877101
483.439175265
115.773907318
9295.2465722
8805.30541897
8315.36522036
7825.29670908
7335.0934001
6844.77919917
6354.38363614
5863.94855545
5373.53257306
4883.21624991
4393.10830983
3903.35277822
3414.13643505
2925.6957518
2438.32276859
1952.36519014
1468.20346381
986.349462849
507.418643351
128.431076498
9303.87257085
8813.9922229
8324.20033968
7834.36190771
7344.47180826
6854.55905578
6364.65874906
5874.81831214
5385.10115981
4895.5906093
4406.39431283
3917.64893643
3429.52458004
2942.22809676
2456.0044057
1971.13369534
1487.91293275
1006.71838038
527.989551653
139.053356583
9312.55332291
8822.73190244
8333.07568778
7843.44624046
7353.83881674
6864.28522453
6374.8233162
5885.50267348
5396.3874809
4907.55931514
4419.12009138
3931.19487217
3443.93413043
2957.51460464
2472.13796441
1988.02673863
1505.40954214
1024.56028001
545.788051577
148.103337707
9321.21794898
8831.45226809
8341.91781936
7852.47466836
7363.11770715
6873.87973139
6384.79918356
5895.92526269
5407.32008849
4919.06055681
4431.24011995
3943.97024814
3457.38119491
2971.62128989
2486.85429044
2003.25491799
1520.9972553
1040.27936807
561.317170359
155.914405791
9329.80349647
8840.08949675
8350.66244697
7861.3825049
7372.24369246
6883.27844738
6394.52421733
5906.02803863
5417.84810736
4930.05489227
4442.73205719
3955.97698407
3469.900524
2984.62543449
2500.28324267
2017.00988364
1534.93681867
1054.20661744
574.969564686
162.728032775
9338.25508734
8848.58816978
8359.25429243
7870.11498565
7381.1630869
6892.4297086
6403.95021508
5915.76832639
5427.93721438
4940.52005985
4453.59037174
3967.23186003
3481.53756934
2996.60795855
2512.54770722
2029.46178598
1547.44880539
1066.61096214
587.052299835
168.72304168
9346.52567908
8856.90101536
8367.64667932
7878.62659422
7389.83225232
6901.29279363
6413.04081352
5925.11604989
5437.56611741
4950.446671
4463.82130446
3977.76100171
3492.34296881
3007.64863551
2523.76064756
2040.75947897
1558.71859852
1077.71087272
597.807533645
174.035133005
9354.57568161
8864.98843226
8375.80090534
7886.88021032
7398.21645284
6909.83640921
6421.76953162
5934.05127597
5446.72357475
4959.83472571
4473.43900797
3987.59590783
3502.3688465
3017.82325275
2534.02386589
2051.0318839
1568.90159604
1087.68448711
607.428275268
178.769556908
9362.37239998
8872.81787225
8383.6855008
7894.8461804
7406.28867921
6918.03721856
6430.11796803
5942.56206792
5455.40591364
4968.69085917
4482.46267299
3996.77067339
3511.66646011
3027.20214014
2543.42798178
2060.39009065
1578.12812592
1096.67785141
616.06999679
183.009438506
9369.88931077
8880.36307591
8391.27539806
7902.50138723
7414.02858041
6925.87859612
6438.07434644
5950.64279533
5463.61511425
4977.02627747
4490.91444588
4005.32008561
3520.28476767
3035.84958554
2552.05315782
2068.92975988
1586.50785469
1104.8115757
623.859267667
186.821449959
9377.10542601
8887.60338717
8398.55114944
7909.82832902
7421.42137617
6933.34936244
6445.6320769
5958.29255614
5471.35716309
4984.85512867
4498.81791633
4013.27837106
3528.26962158
3043.8236984
2559.96985653
2076.7330885
1594.13325643
1112.18582878
630.900048172
190.259739092
9384.004575
8894.52300567
8405.49814067
7916.81427654
7428.45694021
6940.44277843
6452.78866103
5965.51401456
5478.64085787
4992.19332783
4506.19705928
4020.67839202
3535.66339001
3051.17664737
2567.23989464
2083.87082563
1601.08266572
1118.88438064
637.278482624
193.36877316
9390.57473411
8901.11029377
8412.10586363
7923.45049541
7435.1289637
6947.15565423
6459.54476099
5972.31244813
5485.47686587
4999.05768489
4513.075513
4027.55117597
3542.50485587
3057.95505361
2573.91744631
2090.40397471
1607.42271759
1124.97772656
643.066516413
196.185422161
9396.80739893
8907.3571287
8418.36724411
7929.73156146
7441.43424727
6953.48761704
6465.90344875
5978.69500435
5491.87702194
5005.46529711
4519.47611784
4033.92570559
3548.82932891
3064.20049727
2580.05001
2096.38526678
1613.21033455
1130.52553259
648.324657091
198.740513028
9402.6970078
8913.25832986
8424.27810061
7935.65476273
7447.37207926
6959.4404725
6471.86958209
5984.67009788
5497.85379665
5011.43309987
4525.42070286
4039.82883689
3554.66881009
3069.94998432
2585.67924507
2101.86037586
1618.49433319
1135.57856807
653.104134452
201.060018345
9408.24049048
8918.81117767
8429.83653231
7941.21951843
7452.94365935
6965.01765255
6477.44925102
5990.24692019
5503.41984565
5016.97762401
4530.92973223
4045.28527148
3560.05216582
3075.23641807
2590.84170973
2106.86899234
1623.3167625
1140.18029535
657.448598162
203.165974394
9413.43669337
8924.01477362
8435.04247993
7946.42706248
7458.15173339
6970.22383002
6482.64945536
5995.43513162
5508.5878352
5022.11469055
4536.02259255
4050.3178158
3565.00557655
3080.08919171
2595.5696838
2111.44575955
1627.71401937
1144.36805844
661.395406594
205.077179782
9418.28598453
8928.86990457
8439.89729449
7951.27957376
7462.99989944
6975.06432181
6487.47751282
6000.24432165
5513.36983285
5026.85907813
4540.71680183
4054.94693456
3569.55233129
3084.53413795
2599.89132855
2115.6207972
1631.71763982
1148.1741451
664.976770148
206.809783027
9422.78978542
8933.3781926
8444.40323782
7955.78033352
7467.49263841
6979.54508082
6491.94109808
6004.68410762
5517.77758103
5031.22481292
4545.0286599
4059.191149
3573.7133347
3088.59432013
2603.83156086
2119.42050615
1635.35505674
1151.62647846
668.220465077
208.377681843
9426.95051351
8937.5422718
8448.56348927
7959.93330705
7471.63494801
6983.67236558
6496.04793966
6008.76386738
5521.82225641
5035.22493345
4548.97324276
4063.06756043
3577.50732863
3092.29021159
2607.41233842
2122.86800886
1638.65017993
1154.74930628
671.150559222
209.792894137
9430.77125416
8941.36541651
8452.38177824
7963.74290043
7475.43211606
6987.4525387
6499.805646
6012.49259959
5525.51435124
5038.87157007
4552.56418969
4066.59136489
3580.95112526
3095.63999013
2610.65301178
2125.98357205
1641.62387526
1157.56372556
673.787953939
211.065839877
9434.25546997
8944.85131235
8455.86217375
7967.21375555
7478.8895338
6990.8919016
6503.22157152
6015.87882707
5528.86371389
5042.17577466
4555.81394329
4069.77632371
3584.05970681
3098.65974414
2613.57061095
2128.78494763
1644.29435751
1160.08810665
676.150827227
212.205572626
9437.40689919
8948.00385388
8459.00889485
7970.35057729
7482.01253936
6993.99656024
6506.30270837
6018.93055497
5531.87932425
5045.14769418
4558.73382077
4072.63468993
3586.84635122
3101.36366001
2616.18008031
2131.28765734
1646.6775104
1162.33844537
678.25500044
213.21997365
9440.22933621
8950.8269752
8461.82615397
7973.15798957
7484.80628959
6996.77231512
6509.05560065
6021.65512485
5534.56942253
5047.79650947
4561.33371189
4075.17735321
3589.32277442
3103.76418511
2618.49447895
2133.50522477
1648.78715237
1164.32865436
680.114248858
214.115923134
9442.72648774
8953.32451307
8464.31802931
7975.64041878
7487.27565632
6999.22457159
6511.48626307
6024.05920534
5536.94140296
5050.13024994
4563.6225004
4077.41391518
3591.49923601
3105.87216429
2620.525143
2135.44936458
1650.63525146
1166.07080386
681.74057301
214.899465262
9444.90184725
8955.50009553
8466.4883645
7977.80200299
7489.42514589
7001.35827294
6513.60013236
6026.14879679
5539.00183179
5052.15617343
4565.60802459
4079.35274635
3593.38462276
3107.69694758
2622.28181273
2137.13012786
1652.23208886
1167.57531266
683.144445971
215.575997703
9446.75857347
8957.3570512
8468.34069167
7979.64652053
7491.25883407
7003.17784686
6515.40203841
6027.92916816
5540.75644784
5053.88044419
4567.29696484
4081.00100566
3594.98651112
3109.24647007
2623.77272283
2138.55599446
1653.58635682
1168.85106508
684.335043003
216.150585615
9448.29933639
8958.89833254
8469.8781718
7981.17732502
7492.78029884
7004.68714354
6516.89614996
6029.40483987
5542.21014832
5055.30836964
4568.69497855
4082.36470425
3596.31122463
3110.5273146
2625.00465806
2139.7339108
1654.70516299
1169.90537469
685.320304671
216.628500784
9449.52614639
8960.1267488
8471.10388004
7982.39759448
7493.99284646
7005.88965347
6518.08619162
6030.57980301
5543.36723498
5056.44451284
4569.8069302
4083.44894483
3597.36406679
3111.54492565
2625.98313331
2140.669404
1655.59405503
1170.74379512
686.106207175
217.014615487
9450.44062891
8961.04617259
8472.02200627
7983.3113811
7494.90048963
7006.78944706
6518.97634997
6031.45840416
5544.23217084
5057.29350486
4570.63756985
4084.25857119
3598.14991997
3112.30413901
2626.71281234
2141.36682028
1656.25690054
1171.36908359
686.694120456
217.303596615
9451.03678091
8961.64749425
8472.62161456
7983.90681726
7495.4913341
7007.37495628
6519.55554505
6032.03013552
5544.79514634
5057.84628194
4571.1785676
4084.7860923
3598.6621466
3112.79913998
2627.18860635
2141.82167472
1656.6903248
1171.78593146
687.147795479
217.682304632
9451.26959959
8961.88066175
8472.8494894
7984.12938962
7495.71178661
7007.59422607
6519.77379801
6032.24727585
5545.01090464
5058.06029633
4571.39036565
4084.99510708
3598.86766216
3113.00016315
2627.38347599
2142.00674637
1656.85749359
1171.91607604
687.121411941
217.256781204
)
;

boundaryField
{
    back
    {
        type            calculated;
        value           nonuniform List<scalar> 
1984
(
9451.27329878
8961.88433569
8472.85312129
7984.13296339
7495.71528564
7007.59763031
6519.77710005
6032.25045962
5545.01395467
5058.06321117
4571.39309551
4084.99766188
3598.87005678
3113.00240002
2627.38553671
2142.00858518
1656.85904118
1171.91724688
687.122123613
217.257012184
9451.04045988
8961.65114834
8472.62522732
7983.91037314
7495.49481703
7007.37834668
6519.55883322
6032.03331984
5544.7981905
5057.84920091
4571.18130775
4084.78866699
3598.66457284
3112.80142206
2627.19072325
2141.82357698
1656.69193494
1171.78715564
687.148541708
217.682545375
9450.4442365
8961.04975699
8472.02555275
7983.31487527
7494.90391612
7006.79278628
6518.97959203
6031.46153051
5544.23517772
5057.29637989
4570.6402747
4084.26112656
3598.15234722
3112.30644275
2626.71497072
2141.36877833
1656.25857308
1171.37036502
686.694907038
217.303851814
9449.52962803
8960.13021064
8471.10731002
7982.40097998
7493.99617293
7005.89290155
6518.0893405
6030.58284842
5543.37012158
5056.447276
4569.80956204
4083.45144563
3597.36646374
3111.5472251
2625.98531067
2140.67139975
1655.59577507
1170.74512301
686.107027987
217.014883174
9448.30263353
8958.90161426
8469.8814299
7981.18054948
7492.78347617
7004.69025428
6516.89916877
6029.40774502
5542.21292403
5055.31098035
4568.69749048
4082.3671132
3596.31355816
3110.52957715
2625.00682319
2139.7359136
1654.70690265
1169.90672572
685.321144343
216.628775818
9446.76162011
8957.36008811
8468.34371554