/*--------------------------------*- C++ -*----------------------------------*\
| =========                 |                                                 |
| \\      /  F ield         | OpenFOAM: The Open Source CFD Toolbox           |
|  \\    /   O peration     | Version:  v2012                                 |
|   \\  /    A nd           | Website:  www.openfoam.com                      |
|    \\/     M anipulation  |                                                 |
\*---------------------------------------------------------------------------*/
FoamFile
{
    version     2.0;
    format      ascii;
    class       volVectorField;
    location    "0.2";
    object      U;
}
// * * * * * * * * * * * * * * * * * * * * * * * * * * * * * * * * * * * * * //

dimensions      [0 1 -1 0 0 0 0];


internalField   nonuniform List<vector> 
1984
(
(0.000845251515784 -0.000846614540215 5.63048296928e-24)
(0.000921016661986 -0.00229706349238 8.15816403148e-23)
(0.000916446055475 -0.00393826578623 -6.73420520137e-24)
(0.000898312741613 -0.00552106290372 -1.0032444493e-24)
(0.000879129244498 -0.00707044989333 -7.50468120054e-24)
(0.000857215171473 -0.00858607453503 -4.18746000819e-24)
(0.000831757057196 -0.0100616463625 -2.5147763353e-23)
(0.00080249232826 -0.0114906715903 4.50575491714e-23)
(0.000769362342627 -0.0128664596367 2.70705048046e-23)
(0.00073239356989 -0.0141823099163 7.61399854885e-23)
(0.000691648799602 -0.0154316021549 3.08686310355e-24)
(0.000647202364455 -0.0166078415875 1.02877320822e-23)
(0.000599089812211 -0.0177046581621 -5.5215006457e-25)
(0.000547187092454 -0.0187156585701 1.1796946345e-23)
(0.000490838312463 -0.0196341113901 1.34996749654e-24)
(0.000427787920867 -0.0204529172599 8.51128068969e-25)
(0.000352151466496 -0.0211534415712 2.53098671322e-23)
(0.000247288773009 -0.0216951736242 5.48049215737e-23)
(0.000182870555379 -0.0221315418153 3.03374023829e-22)
(0.00194823146474 -0.0228248353214 6.58742630767e-23)
(0.00229855057982 -0.000929354399805 1.73653510875e-24)
(0.0023715182547 -0.00238683914447 1.95452658071e-23)
(0.00235307677116 -0.00401807295557 9.86476077525e-25)
(0.00231446989148 -0.00562060211895 -8.37931389233e-24)
(0.00226930869588 -0.00719061774419 -1.28493429661e-22)
(0.00221547962039 -0.00872946590587 -3.96045105122e-23)
(0.00215202061139 -0.0102287456249 -1.03287789789e-22)
(0.00207862020674 -0.0116811328308 -4.21028764697e-23)
(0.00199523683801 -0.0130795700951 4.52915569452e-23)
(0.00190197020782 -0.0144171450364 -7.31703862468e-23)
(0.00179900571516 -0.0156871049017 -1.62660221485e-23)
(0.00168657452641 -0.0168828989333 -3.89034643729e-23)
(0.00156490866831 -0.0179982558688 -3.56169365277e-23)
(0.00143411767443 -0.0190273208144 1.61988396265e-24)
(0.00129388797873 -0.019965224157 1.88520569374e-23)
(0.00114269629415 -0.020809541678 -1.14208289325e-23)
(0.000976558811082 -0.0215576640789 -1.8862532301e-24)
(0.000782858030511 -0.0222465713158 -4.03083257674e-23)
(0.000544101104379 -0.0229360717662 5.35665829527e-22)
(0.000211436978843 -0.0227777915772 1.03111856525e-24)
(0.00396107931463 -0.000941301265943 3.24176979292e-24)
(0.00401225238068 -0.00240905360962 2.01934949034e-22)
(0.00398269083623 -0.00405774522757 1.32961434662e-23)
(0.00392744427889 -0.00567594375123 -8.43977485651e-26)
(0.00385454980877 -0.0072598468881 -7.25606773074e-24)
(0.00376429622129 -0.00881286684644 1.01689027376e-23)
(0.00365667882797 -0.0103264408159 -2.99283184262e-24)
(0.00353175949236 -0.0117930807418 1.90542816831e-23)
(0.00338970576415 -0.0132055974149 8.71454405129e-24)
(0.00323079533867 -0.0145569740806 -1.43557668633e-23)
(0.00305540787608 -0.0158403651521 -5.97588250253e-25)
(0.00286403329794 -0.0170491433947 1.30714890169e-23)
(0.00265727835932 -0.0181769718428 5.94418647102e-25)
(0.00243587787742 -0.0192178993127 2.03942363777e-23)
(0.00220075337229 -0.020166713692 1.50680241547e-23)
(0.00195343249097 -0.0210194310733 1.86264704566e-23)
(0.00169718544222 -0.0217664680922 5.96662152123e-23)
(0.00143576269457 -0.0224098159527 2.11758982768e-22)
(0.00121492397732 -0.0229961888993 1.09147754588e-21)
(0.000867025214074 -0.0231167518202 1.46394800769e-22)
(0.00560130142554 -0.000948295552581 2.80349581351e-23)
(0.00566103292313 -0.00243323066445 7.19058288331e-23)
(0.0056190851738 -0.00410966528885 6.67686359045e-24)
(0.00554400593508 -0.0057516045352 8.80170311157e-25)
(0.00544294588095 -0.00735731505974 1.73730378683e-25)
(0.00531666012594 -0.00893166510794 5.41004133613e-24)
(0.00516545410498 -0.0104663245113 9.2514580987e-24)
(0.00498959049753 -0.0119538198273 -1.1912171725e-24)
(0.0047893916455 -0.0133868813337 -3.3184420895e-24)
(0.00456529957506 -0.0147583706673 7.17571923935e-24)
(0.00431789030976 -0.0160613152985 -1.66010836164e-24)
(0.00404789430668 -0.0172889435554 3.09355982746e-24)
(0.00375624551918 -0.0184347397711 -2.05914810951e-24)
(0.00344411775329 -0.0194925105781 1.80269938537e-24)
(0.00311298048506 -0.020456630347 1.75433504323e-24)
(0.0027648940435 -0.0213222918705 -9.36272571232e-25)
(0.00240264560955 -0.0220791691297 7.35475409537e-24)
(0.00202274957076 -0.0227246061879 4.14527876968e-23)
(0.00163713055592 -0.0233155604487 1.93300487169e-22)
(0.000946725587275 -0.023468577697 9.99533055765e-23)
(0.0072576277812 -0.000962615560601 -5.2095218129e-23)
(0.00732781653602 -0.00247200134469 1.76714189008e-22)
(0.00727195454657 -0.00418001085174 3.01494607848e-23)
(0.00717541237893 -0.0058521134231 1.8791990276e-24)
(0.00704562508425 -0.00748702602374 1.56375142399e-25)
(0.00688319326615 -0.00909016972043 1.26201956129e-24)
(0.00668843089802 -0.010653289959 8.89032221826e-25)
(0.00646167354251 -0.0121688898991 -1.67493471119e-25)
(0.00620333790717 -0.0136296139686 -6.88974321911e-25)
(0.00591398378736 -0.0150281877691 1.24703923308e-24)
(0.00559435910621 -0.0163574501564 2.35640038572e-25)
(0.00524540875809 -0.0176104176927 1.53544264759e-24)
(0.00486833761272 -0.0187803320519 2.62567951684e-25)
(0.00446465769232 -0.019860693491 1.71683120047e-24)
(0.00403621317586 -0.0208454615669 3.94714724289e-25)
(0.00358538053795 -0.021729231671 1.2501517799e-24)
(0.00311485410067 -0.0225015690589 1.81454783042e-23)
(0.0026201712177 -0.023157249348 7.35374564077e-23)
(0.0021074422929 -0.0237601865169 4.59702479279e-22)
(0.00119502806407 -0.0239420040662 5.64292159554e-23)
(0.0089443576129 -0.000982611445639 -1.91466151231e-23)
(0.00902854632439 -0.00252322842973 1.11790554552e-22)
(0.0089591365485 -0.00426896974718 2.41466817487e-23)
(0.00884067030719 -0.00597808808041 1.26795562336e-24)
(0.00868172809582 -0.00764945134862 -8.38913168299e-25)
(0.00848277759352 -0.00928877186773 9.11510907037e-25)
(0.00824407084729 -0.0108877445065 3.72516228378e-25)
(0.00796594454307 -0.0124387951246 2.85294722481e-25)
(0.00764886101234 -0.0139344348932 9.30645836738e-25)
(0.00729345614009 -0.01536721455 1.58239611107e-24)
(0.00690059657668 -0.0167297587995 4.85510308464e-25)
(0.00647141317043 -0.0180148174629 1.91379205022e-24)
(0.00600733894281 -0.0192153243651 5.30034342572e-25)
(0.00551016243049 -0.0203244398483 2.01780651445e-24)
(0.00498203388567 -0.0213357358065 4.18149725278e-25)
(0.00442559915566 -0.0222433664022 1.67997259414e-24)
(0.00384363295819 -0.023037044498 1.66727227683e-23)
(0.00323160321041 -0.0237098734 6.5845899777e-23)
(0.00258984511035 -0.0243320802688 4.52711349611e-22)
(0.00145554868896 -0.0245326354182 3.37310232564e-23)
(0.0106694506398 -0.00100740933821 -1.06245381088e-24)
(0.0107693843597 -0.00258588497938 2.13557536084e-23)
(0.0106867307088 -0.00437645192388 -9.53751448604e-24)
(0.0105462237819 -0.00612975430035 -9.50543947291e-26)
(0.0103579049166 -0.00784487045015 3.35579591054e-24)
(0.0101221581557 -0.00952778549742 1.63479335161e-25)
(0.00983914968835 -0.0111700770343 1.24151484574e-24)
(0.00950917179053 -0.0127640475368 1.29628057681e-24)
(0.00913268007608 -0.0143020382703 -4.86943117559e-25)
(0.00871034532495 -0.0157763782459 3.73663302601e-24)
(0.00824310982733 -0.017179422871 8.94591129983e-25)
(0.0077322374461 -0.0185036086853 1.84072545246e-24)
(0.00717935746887 -0.0197415138672 6.49616993352e-25)
(0.00658650595721 -0.0208859145022 2.411789411e-24)
(0.00595613097396 -0.0219299787459 1.28515021155e-24)
(0.00529119882438 -0.0228674436917 6.45467985295e-24)
(0.0045948213528 -0.0236881279573 1.51059449668e-23)
(0.00386301686178 -0.0243837750415 -2.42879010571e-24)
(0.00309030411384 -0.0250295984877 4.49137698678e-22)
(0.00173256045974 -0.0252449195102 -1.66891591856e-22)
(0.0124406367674 -0.00103669508931 -1.23653622432e-23)
(0.012557450306 -0.00265956280773 2.03512659177e-22)
(0.012461772389 -0.00450236319337 2.76061720878e-23)
(0.0122992315353 -0.00630719840624 1.83332505949e-24)
(0.012081437454 -0.00807346942926 6.33545960383e-25)
(0.0118087030454 -0.00980749028227 5.92831619039e-25)
(0.0114810830727 -0.0115006911885 8.96730974127e-25)
(0.0110987813533 -0.0131452198153 1.98220943246e-24)
(0.0106621945558 -0.0147332112351 -5.37002839609e-25)
(0.010171973529 -0.0162567299943 1.66692018971e-24)
(0.00962908797132 -0.0177078099865 1.58335418463e-24)
(0.00903488982326 -0.0190785147693 3.83718427505e-24)
(0.0083911653859 -0.0203610044454 7.95100647647e-25)
(0.00770017895092 -0.0215476080627 3.51652208825e-24)
(0.0069646840622 -0.0226310328116 2.5336493358e-24)
(0.00618802359774 -0.0236045452441 7.36201035305e-24)
(0.00537381595408 -0.0244578847485 4.22083382073e-23)
(0.0045189361161 -0.0251814624733 2.24942892907e-22)
(0.00361197143857 -0.025854478087 9.45291759399e-22)
(0.00202479469336 -0.0260841109404 1.20994511326e-22)
(0.0142653728131 -0.00107033684929 5.30078088296e-24)
(0.0144000938511 -0.00274405253266 1.05171376833e-22)
(0.0142915912048 -0.004646603299 1.06489139858e-23)
(0.0141071014371 -0.00651042098343 -1.36316639916e-24)
(0.0138598407797 -0.00833534540129 -2.1278564885e-25)
(0.0135500303311 -0.0101280993101 -1.66861334438e-24)
(0.0131775726839 -0.0118799554781 2.40048183958e-24)
(0.0127425290886 -0.0135828875696 -3.90814841855e-26)
(0.012245175786 -0.0152287928166 5.58497166947e-25)
(0.0116860800278 -0.0168094276126 9.47345709205e-25)
(0.0110661793391 -0.0183164483822 -8.80284900823e-25)
(0.0103868602912 -0.0197414771489 1.31803132296e-24)
(0.00965002403694 -0.0210761782415 -9.16123620487e-25)
(0.00885814026202 -0.0223123482742 6.02213141963e-25)
(0.00801427129775 -0.0234421430419 5.29846925715e-25)
(0.00712217588079 -0.0244582638314 -6.70929579124e-25)
(0.00618605668523 -0.0253501215963 7.07580416066e-24)
(0.00520373778798 -0.0261068056087 4.88495623935e-23)
(0.00415805227271 -0.0268106673783 2.27432913939e-22)
(0.00233270711587 -0.0270560068314 2.47413943832e-22)
(0.0161509590211 -0.00110826155809 -1.03378141715e-23)
(0.0163046682734 -0.00283919981771 2.27544960627e-22)
(0.0161835730074 -0.00480903363743 3.11366277159e-23)
(0.0159773134867 -0.00673932782855 1.59844731287e-24)
(0.0157007255401 -0.0086304805096 3.42526505771e-25)
(0.015353893282 -0.0104897136609 1.01408255754e-24)
(0.0149365081485 -0.0123081450107 5.78701868428e-25)
(0.0144484191336 -0.0140775639613 -2.26597256572e-26)
(0.0138897059188 -0.0157896028924 -2.32572353874e-25)
(0.0132607740577 -0.0174356657635 1.4360011021e-24)
(0.0125624544042 -0.0190069693782 3.41833701161e-25)
(0.0117961016741 -0.0204946160136 2.20950998928e-24)
(0.0109636786903 -0.0218896807165 1.0180258913e-25)
(0.0100678270678 -0.0231833191135 2.0365809514e-24)
(0.00911190899822 -0.0243670168742 1.35314539479e-25)
(0.00810012142626 -0.0254327845708 1.2062421762e-24)
(0.007037288425 -0.026369445316 2.16327764675e-23)
(0.00592215697538 -0.0271648053321 1.02565701789e-22)
(0.00473206796876 -0.0279036493552 5.72747712674e-22)
(0.00265788505449 -0.0281671365339 1.02556267226e-22)
(0.0181045780345 -0.0011504032694 -5.38261406324e-23)
(0.0182784784684 -0.00294483184887 -7.00561738682e-23)
(0.0181451032856 -0.00498943482139 -1.82357851957e-23)
(0.0179173880014 -0.00699369489587 -6.35224463744e-24)
(0.0176117895185 -0.00895869874272 5.53815395265e-25)
(0.0172281902533 -0.0108922677964 1.09191996959e-24)
(0.0167659921538 -0.012785377903 5.28762129658e-25)
(0.016224743162 -0.0146296325604 5.35011046082e-25)
(0.015604230714 -0.0164163760375 1.76691386582e-24)
(0.0149046012271 -0.0181366144691 2.03235070328e-24)
(0.0141264846678 -0.0197810576766 3.89596780418e-25)
(0.013271118878 -0.0213401978338 1.70264079006e-24)
(0.0123404582704 -0.0228044096927 -2.36755373303e-24)
(0.0113372668296 -0.0241640779996 2.15988097107e-25)
(0.0102651820457 -0.025409873292 -1.7253549178e-24)
(0.00912884543261 -0.0265329615344 -2.40007256823e-24)
(0.00793372521232 -0.027521319321 1.67029126003e-23)
(0.00667945534428 -0.0283614949726 1.15884736117e-22)
(0.00533812301457 -0.0291400522182 1.11844667328e-22)
(0.00300266504452 -0.0294249287304 5.40393274337e-23)
(0.0201332742277 -0.00119667578111 -8.3168619072e-23)
(0.0203287293844 -0.00306070901547 9.84273277454e-23)
(0.02018351407 -0.00518745850277 6.91913221765e-24)
(0.0199348465813 -0.00727311560332 -2.29306860201e-24)
(0.0196007970445 -0.0093196041507 7.94916198717e-25)
(0.0191809630713 -0.0113354578532 8.28809009951e-25)
(0.0186743578294 -0.0133115359632 2.45913576322e-24)
(0.0180801166447 -0.0152392632465 2.49034275805e-24)
(0.0173976151569 -0.0171096777387 3.57768506805e-24)
(0.0166266180986 -0.0189133420927 2.81246163931e-24)
(0.0157674354964 -0.020640384411 -5.35207696633e-25)
(0.0148210788636 -0.022280584579 3.20732112603e-24)
(0.0137894014841 -0.0238234878308 3.0437001513e-25)
(0.012675219882 -0.0252585534667 1.90100530947e-24)
(0.0114824050399 -0.0265754644689 -1.68789822691e-25)
(0.0102160357914 -0.0277643580186 -6.91065040698e-25)
(0.00888224078703 -0.0288120954321 1.33689325924e-23)
(0.00748153591041 -0.0297039566254 5.89202894463e-23)
(0.00598096221796 -0.0305276022295 3.18652233202e-22)
(0.00336993581441 -0.0308378813634 3.40823562601e-22)
(0.0222438984403 -0.00124695382354 -8.26132700533e-23)
(0.022462460091 -0.00318648461241 2.35605510703e-22)
(0.0223060205321 -0.00540257303002 3.29152969868e-23)
(0.0220371608584 -0.00757693345742 1.85577799811e-24)
(0.0216755452611 -0.0097125004437 3.17626059792e-24)
(0.0212203838029 -0.0118186493571 1.96878124758e-24)
(0.0206701778693 -0.0138861633419 2.32695683167e-24)
(0.0200235117902 -0.0159063074267 3.51668505655e-24)
(0.0192792005789 -0.0178698011918 4.88372112339e-24)
(0.0184364743175 -0.0197667179435 2.46168422433e-24)
(0.0174951720985 -0.0215865238198 7.16096955612e-25)
(0.0164559388034 -0.0233181694941 4.78285255545e-24)
(0.0153204052095 -0.024950219757 6.60014617834e-25)
(0.0140913452411 -0.0264710275888 4.43892937504e-24)
(0.0127728016999 -0.0278690833253 2.85220232707e-24)
(0.0113702704495 -0.0291332745048 5.66697057183e-24)
(0.00989055368713 -0.0302490524742 3.20618566814e-23)
(0.00833508128576 -0.0312003779135 9.34414374238e-23)
(0.00666603469287 -0.032075213007 5.71097289582e-22)
(0.00376310718828 -0.0324157576173 6.18991700964e-23)
(0.0244430239114 -0.00130105592915 -1.01043657453e-22)
(0.0246864573836 -0.00332166399408 2.12633845088e-23)
(0.0245196407585 -0.00563400049069 8.39338468193e-25)
(0.0242316856522 -0.00790415943105 -6.77310895612e-24)
(0.0238438162308 -0.0101362909123 1.05272737518e-24)
(0.0233547299632 -0.012340762436 3.05081813294e-24)
(0.0227622659948 -0.0145083410101 2.91411558543e-24)
(0.0220642879384 -0.016630165288 2.85932597773e-25)
(0.0212588661386 -0.0186966336977 3.44101687845e-24)
(0.020344504428 -0.0206972862527 2.59649090118e-24)
(0.0193203811841 -0.0226208389489 -5.4940992594e-25)
(0.0181865964497 -0.0244552823824 1.91429474955e-24)
(0.0169443990844 -0.0261880263289 -4.24916200563e-24)
(0.0155963944837 -0.0278061023215 1.29413857417e-24)
(0.0141467106181 -0.029296563577 -4.16241101063e-24)
(0.0126012251517 -0.0306467813112 -5.13107703386e-24)
(0.0109674226221 -0.0318404593005 -5.97092402804e-25)
(0.00924771669845 -0.0328601458052 2.14662039739e-23)
(0.00739961310807 -0.0337931247897 -2.52495403926e-22)
(0.00418616381235 -0.0341698030817 -2.20749296573e-22)
(0.0267368325122 -0.0013587260608 -5.25671676031e-23)
(0.0270071431093 -0.00346555893048 1.01653976939e-22)
(0.026831092107 -0.0058806425607 -4.10387880138e-23)
(0.0265255710708 -0.00825337220805 -5.99358483293e-24)
(0.0261133108752 -0.010589356361 -2.19609101371e-24)
(0.0255923456744 -0.0129001310531 7.01216376609e-25)
(0.0249596698894 -0.0151765310213 1.63749003298e-24)
(0.0242122187975 -0.017409623214 -9.18741377565e-25)
(0.0233470921784 -0.0195894938333 9.48467767221e-25)
(0.0223618301523 -0.0217051097142 1.85494193921e-24)
(0.0212547122988 -0.0237443440557 -1.69122327977e-24)
(0.0200250641983 -0.0256940766249 2.57121120139e-24)
(0.0186735513373 -0.0275403593616 -1.96105500614e-24)
(0.017202441866 -0.0292686510692 2.2851355441e-24)
(0.0156158308358 -0.0308642743692 -2.02779580947e-24)
(0.0139199209606 -0.0323127589448 -3.86450450278e-24)
(0.0121228820891 -0.0335956629685 3.34575155807e-23)
(0.0102282169363 -0.0346939824951 2.03046820592e-22)
(0.00818895939705 -0.0356930898077 7.61548619568e-22)
(0.00464377046435 -0.0361130008681 5.2723290279e-22)
(0.0291309683454 -0.00141961325928 -1.13009932514e-22)
(0.0294304297992 -0.00361723565116 -1.18193129373e-22)
(0.0292466579177 -0.00614099352034 -3.46646611118e-23)
(0.0289256486515 -0.00862260017862 -6.56459844329e-24)
(0.0284915609721 -0.0110694082201 -6.34394756223e-25)
(0.0279415830936 -0.0134943286404 1.61939812593e-24)
(0.0272716492673 -0.015888385688 2.36786844433e-24)
(0.0264775131388 -0.0182426514814 7.39500870981e-25)
(0.0255550266768 -0.020546925763 2.55072670536e-24)
(0.0245004731222 -0.0227895684716 3.20819161976e-24)
(0.0233109353381 -0.0249575111124 -4.31361546247e-24)
(0.0219846768784 -0.027036361192 -2.66451529916e-25)
(0.0205215154982 -0.0290105780135 -5.68053722076e-24)
(0.0189231630068 -0.0308637460994 -1.91795090445e-24)
(0.0171935188623 -0.0325791048094 -5.2872897687e-24)
(0.015339026432 -0.034139944539 -6.83648251892e-24)
(0.0133685300891 -0.0355251983509 4.03633729946e-24)
(0.0112867679148 -0.0367141161194 9.22644883326e-23)
(0.00904254525345 -0.0377885991981 3.12655401204e-23)
(0.00514142437508 -0.0382603751772 -6.22595122311e-23)
(0.0316303519016 -0.00148324511041 -1.00066742327e-22)
(0.0319615381359 -0.00377545037355 -1.2205623098e-23)
(0.0317720199559 -0.00641303623426 -3.21580904337e-24)
(0.0314382837494 -0.00900917388364 -3.55569373618e-24)
(0.0309858061989 -0.0115733027913 -1.76001491947e-24)
(0.0304107210138 -0.0141199628618 2.51150631637e-24)
(0.0297076365918 -0.0166405152023 2.9056961774e-24)
(0.0288708256197 -0.0191261497354 2.16052282945e-24)
(0.0278945518916 -0.0215664342834 1.28427842953e-24)
(0.0267734799718 -0.0239491024549 1.9011500822e-24)
(0.0255031259169 -0.0262600452008 4.57984322772e-25)
(0.0240803292449 -0.0284834097791 5.79004980065e-24)
(0.0225037203543 -0.0306017939426 8.37018518647e-26)
(0.0207741656266 -0.0325965573255 1.27662528945e-24)
(0.018895148721 -0.0344484296484 -6.6655265653e-24)
(0.016873228615 -0.0361379733699 -8.21313606809e-24)
(0.0147178910744 -0.0376409148394 -1.5376291304e-23)
(0.0124352979172 -0.0389344927212 -9.44925337017e-23)
(0.00997033468866 -0.0400951596545 -5.64343566423e-22)
(0.00568565900634 -0.0406293495051 -3.42815108711e-22)
(0.0342389477361 -0.00154900080306 -3.65010348547e-23)
(0.0346047695629 -0.00393857874914 6.75507938509e-23)
(0.0344120423387 -0.0066941108184 5.14875999452e-24)
(0.0340691833398 -0.0094095554001 1.75117472675e-25)
(0.0336028444902 -0.0120968411536 2.56594305309e-24)
(0.0330078517088 -0.0147724171492 2.24595712981e-24)
(0.0322771769047 -0.0174281976475 2.21171668114e-24)
(0.0314032502424 -0.02005564666 3.76944210222e-24)
(0.0303783404321 -0.0226441762717 2.97156724457e-24)
(0.0291950519262 -0.0251808949358 2.3611363011e-24)
(0.0278468737524 -0.0276505630129 2.04234904043e-24)
(0.0263287597117 -0.0300356722919 8.73507373802e-24)
(0.0246377224181 -0.0323166504742 1.68914247046e-24)
(0.0227733990406 -0.0344722126319 5.89190844275e-24)
(0.0207385602424 -0.036480065422 4.17264652816e-24)
(0.018539696436 -0.0383174401602 1.55680480239e-24)
(0.0161868681687 -0.0399561409248 2.79628644404e-23)
(0.0136878966813 -0.0413710437978 1.54307820459e-22)
(0.0109841502862 -0.0426306571244 9.82142941542e-22)
(0.00628431080743 -0.0432402455031 -1.84011320615e-22)
(0.0369594828386 -0.00161607721774 7.67904217002e-24)
(0.0373632226626 -0.00410452790902 1.87650814431e-22)
(0.0371705059151 -0.00698078765691 9.8627185832e-24)
(0.0368231614032 -0.0098191475689 -1.06376995616e-23)
(0.0363488264117 -0.0126344951671 2.04108722876e-24)
(0.0357407215732 -0.0154455473246 9.33426662594e-25)
(0.0349898266045 -0.0182450338029 7.2288035019e-25)
(0.0340862954252 -0.0210248983886 1.18936725998e-24)
(0.033019914119 -0.0237745358058 4.22452684349e-24)
(0.0317806901065 -0.0264804636166 1.96635533301e-24)
(0.0303595142981 -0.0291262272737 2.95675462383e-24)
(0.0287488782508 -0.0316924522044 5.97657210172e-24)
(0.0269436180425 -0.0341570475856 -1.1230735399e-24)
(0.0249416421334 -0.0364955950422 3.2975901794e-24)
(0.0227446026613 -0.0386821597838 -7.53421007884e-24)
(0.0203586562225 -0.0406898993945 7.69858428424e-25)
(0.0177943155748 -0.0424858170014 3.4846431496e-23)
(0.0150613553567 -0.0440419576759 1.31081594316e-22)
(0.0120981521691 -0.0454157361169 1.31390857717e-21)
(0.00694687757209 -0.0461168084651 -1.71904830119e-21)
(0.0397930931017 -0.00168344098601 -9.62686326068e-23)
(0.0402384513358 -0.00427063431681 2.46672658913e-22)
(0.0400497879994 -0.00726867698336 -4.47022124348e-23)
(0.0397038414885 -0.0102320388474 -1.34509976639e-23)
(0.0392289928711 -0.0131791258224 1.10672445151e-24)
(0.0386165311095 -0.0161313262203 1.18653250945e-24)
(0.037855018365 -0.0190825338352 1.19850469207e-24)
(0.0369318297144 -0.022025459477 -1.52556024339e-24)
(0.0358336849555 -0.0249496717661 4.1257792368e-24)
(0.0345473424078 -0.0278411776516 4.4933595001e-24)
(0.0330603936351 -0.0306822537159 -4.14910452757e-24)
(0.0313621424289 -0.0334514472748 8.78594831621e-24)
(0.0294445356364 -0.0361237625627 -7.44150998505e-24)
(0.0273030960919 -0.0386710786982 3.37498719031e-24)
(0.0249378086728 -0.0410630770854 -1.22742246375e-23)
(0.0223541125314 -0.0432679250528 -1.42939886194e-23)
(0.0195627670942 -0.0452467375126 9.82742986268e-23)
(0.0165758546301 -0.0469681035493 5.35181037241e-22)
(0.0133294500179 -0.0484743732303 9.94528987826e-22)
(0.00768498686331 -0.0492869903761 -1.95410778631e-21)
(0.0427389123238 -0.00174980567043 -1.30692210788e-22)
(0.0432300489731 -0.00443357254197 -1.93338553454e-22)
(0.0430504560381 -0.00755226338649 -4.50592461545e-23)
(0.0427132898126 -0.0106407614677 -1.48694169525e-23)
(0.0422473639294 -0.0137216352992 -3.60867116371e-25)
(0.0416416689382 -0.0168194252627 4.54415084315e-25)
(0.0408818701869 -0.0199296375065 1.30881849812e-24)
(0.0399519799266 -0.0230461235902 7.6441494544e-26)
(0.0388349611017 -0.0261589044717 3.1616119333e-24)
(0.0375135399358 -0.0292536276859 2.89799929954e-24)
(0.0359711487577 -0.0323112938381 -3.10055725052e-24)
(0.0341929962087 -0.0353081738604 2.25955116188e-24)
(0.0321672275541 -0.0382159499507 -1.36651399957e-23)
(0.0298861174833 -0.0410021453152 -4.65620315124e-24)
(0.0273472387078 -0.0436311717395 -1.12524460597e-23)
(0.0245547621706 -0.0460650768635 -1.63686864822e-23)
(0.021519361963 -0.0482577395372 1.18029782087e-23)
(0.0182558504325 -0.0501734563797 1.56376078069e-22)
(0.0146989002065 -0.051834502899 -9.21889844982e-23)
(0.0085130188458 -0.0527838671458 -3.5703678139e-22)
(0.0457935841594 -0.00181355967276 -1.21106349109e-22)
(0.0463351511268 -0.00458921533569 -1.92542136288e-23)
(0.0461707927047 -0.00782467742083 -2.68159528013e-24)
(0.0458515503321 -0.0110359652416 -1.17381764423e-23)
(0.0454063196105 -0.0142505694168 1.06768389116e-25)
(0.0448213693135 -0.0174967238438 4.51907332899e-26)
(0.0440789199622 -0.0207721234904 5.83025808816e-25)
(0.0431589665941 -0.0240722568654 2.60872993013e-25)
(0.0420399139708 -0.0273879874023 4.47874580518e-24)
(0.0406995195129 -0.0307048541407 1.00266606511e-24)
(0.0391160077678 -0.034002651856 -1.7871397825e-24)
(0.0372693615196 -0.0372552158932 8.50227359331e-24)
(0.0351427591931 -0.0404304748103 -1.69658472639e-23)
(0.0327240951505 -0.0434908597655 1.28357498221e-24)
(0.0300075184353 -0.046394465543 -1.78406416622e-23)
(0.0269951428195 -0.0490958320215 -1.92497248662e-23)
(0.0236970346002 -0.0515399295434 -3.80234879176e-24)
(0.0201312285954 -0.0536856388373 3.92234493709e-23)
(0.0162321587933 -0.0555288288772 -5.55270921602e-22)
(0.00944895601172 -0.0566468546618 2.5908551859e-23)
(0.0489506733081 -0.0018727229277 -1.33754904778e-22)
(0.0495478544389 -0.00473249441642 1.03489797368e-22)
(0.0494062395141 -0.00807746500414 7.39843763655e-23)
(0.0491161143789 -0.0114060788885 3.19169989099e-24)
(0.0487060767031 -0.0147516353895 3.16717828932e-25)
(0.0481592215646 -0.0181467363881 4.01533855415e-25)
(0.0474537534792 -0.0215919468308 1.36632234374e-24)
(0.0465648660642 -0.0250850194171 1.81003127043e-24)
(0.0454654792927 -0.0286182249744 3.61638500833e-24)
(0.0441273064272 -0.0321773916606 2.77018169405e-24)
(0.0425220904056 -0.0357412949883 2.30552858068e-24)
(0.0406231837328 -0.039281253137 1.09420294848e-23)
(0.0384073141303 -0.0427610248581 2.35196616428e-25)
(0.0358565110721 -0.0461371430917 1.49805079262e-23)
(0.0329601264116 -0.0493601635618 7.7805763452e-24)
(0.029717088513 -0.0523754205248 -3.10392024972e-25)
(0.0261360479954 -0.0551169026 3.96387870316e-23)
(0.0222388167135 -0.0575365621505 1.70187634826e-22)
(0.0179610800227 -0.0595958343365 1.00708564224e-21)
(0.0105155499154 -0.0609232933492 -1.82179934515e-22)
(0.0521999856238 -0.00192488332388 -7.49473209659e-23)
(0.0528585251495 -0.0048572508539 1.52901267528e-23)
(0.0527486978792 -0.00830032032193 5.3530931822e-24)
(0.0525012674391 -0.0117369736301 -1.6907163308e-23)
(0.0521440950619 -0.0152072855039 -1.34456209786e-24)
(0.0516566442825 -0.0187489725142 2.40858910365e-25)
(0.0510124850901 -0.022366399938 7.12803777468e-25)
(0.0501811951191 -0.0260604329837 1.76948676157e-24)
(0.0491291669657 -0.0298254254213 5.14429110151e-24)
(0.0478207277327 -0.033648099091 2.83530321476e-24)
(0.0462196839513 -0.0375066094174 6.45297000292e-24)
(0.0442910168907 -0.0413698070205 1.59955680602e-23)
(0.0420031188401 -0.0451969286858 -1.26874879298e-24)
(0.0393302119903 -0.0489377644642 1.90575322608e-23)
(0.036254987235 -0.0525339336029 -2.17612420684e-23)
(0.03277157726 -0.0559195047218 -2.25722483272e-23)
(0.0288859826792 -0.0590149238401 -1.25228256965e-23)
(0.0246243828728 -0.0617631757356 -1.02098127189e-22)
(0.0199255978996 -0.0640810437032 -2.50732822347e-23)
(0.0117419566644 -0.0656705456021 -2.27979935555e-21)
(0.0555267893006 -0.00196713998759 -1.48395091765e-22)
(0.0562530050609 -0.00495610078143 1.74502373767e-22)
(0.0561857296796 -0.00848083029432 -2.484473337e-23)
(0.0559972758837 -0.0120115197304 -1.3690323473e-23)
(0.0557143001386 -0.0155961021275 -1.97983482291e-24)
(0.0553121705511 -0.0192783049669 9.46928671898e-26)
(0.054759165723 -0.0230673456309 -1.27349516013e-24)
(0.0540184087805 -0.0269682640024 2.01508431668e-25)
(0.0530486319799 -0.0309785913622 2.36696735273e-24)
(0.0518053245585 -0.0350867400815 3.62780232262e-24)
(0.0502424569051 -0.0392708383659 7.08793656856e-25)
(0.0483146212532 -0.0434976190334 1.1005959362e-23)
(0.0459794820647 -0.0477215798603 -1.43531506459e-24)
(0.0432009184724 -0.0518849438874 2.86088437402e-23)
(0.0399524362493 -0.0559188442906 -1.9650750628e-23)
(0.0362210799198 -0.0597436159444 -1.21428194385e-23)
(0.0320083308622 -0.0632630221052 6.85626734986e-23)
(0.0273453022337 -0.0664083320542 3.70925255398e-22)
(0.0221762905632 -0.0690386064321 1.00211672105e-21)
(0.0131660780384 -0.0709588225328 -2.41021897888e-21)
(0.0589109436979 -0.00199604439861 -2.21329282162e-23)
(0.0597117150838 -0.00502029148711 -7.85132245122e-23)
(0.0596996556098 -0.00860422201221 -5.68500284984e-23)
(0.0595894653233 -0.0122092265499 -2.25816525255e-23)
(0.059406118487 -0.0158922718107 -1.77841041983e-24)
(0.0591204744516 -0.0197041231382 1.98388624282e-24)
(0.0586949145274 -0.023660166981 2.29365553845e-25)
(0.0580852050056 -0.0277709356178 4.371274742e-25)
(0.0572411870451 -0.0320384405144 5.07453690796e-25)
(0.0561079667219 -0.0364541619085 9.71200019415e-25)
(0.0546275636587 -0.0409971499657 -2.86748237866e-24)
(0.052741526992 -0.0456325685693 -1.20145118509e-24)
(0.0503939242017 -0.0503103440558 -2.0786559472e-23)
(0.0475349847484 -0.0549644217664 -6.33401777364e-24)
(0.0441256209046 -0.0595138083427 -2.87369112908e-23)
(0.0401425370204 -0.0638622043147 -3.40793422402e-23)
(0.0355798875264 -0.0678928927024 3.89388765095e-23)
(0.0304741425921 -0.071521740429 3.07597522282e-22)
(0.0247779229348 -0.0745332749958 3.60079196942e-22)
(0.0148379995325 -0.0768750657276 -1.64826189998e-21)
(0.0623259100928 -0.00200754553761 -1.53367882385e-22)
(0.0632086467231 -0.00503957546551 1.34891674358e-22)
(0.0632665204007 -0.00865312419414 -8.39159813447e-23)
(0.0632571487811 -0.0123058682969 -1.72140313484e-23)
(0.0632033805738 -0.0160650466694 -4.44529320742e-24)
(0.0630712517299 -0.0199896177199 -6.13984042613e-24)
(0.0628167368953 -0.0241027144011 -3.34136113861e-24)
(0.0623874199619 -0.0284220476383 6.99614996229e-25)
(0.0617229869454 -0.0329558302167 9.88178990401e-25)
(0.0607563576403 -0.0377003025788 2.07930664707e-24)
(0.0594154117818 -0.0426371415261 1.12836241726e-24)
(0.0576254814823 -0.0477310403335 1.17467836985e-23)
(0.0553133399875 -0.0529277923766 -9.59195207284e-24)
(0.0524114073145 -0.0581527891423 1.59343213701e-23)
(0.048863412236 -0.0633112973086 -1.32817169953e-23)
(0.0446311297857 -0.0682870738481 -2.96806104213e-23)
(0.0396972077972 -0.0729384334351 1.22471263596e-22)
(0.0341035410404 -0.0771609368418 6.32994380229e-22)
(0.0278144330037 -0.0806428533202 1.66015571463e-21)
(0.0168252059957 -0.0835284197022 -4.96600959421e-21)
(0.065737880231 -0.00199695350136 -1.9173553687e-22)
(0.0667103619975 -0.00500210603697 1.41429728287e-22)
(0.0668549704299 -0.00860738360043 3.05604169821e-23)