/*--------------------------------*- C++ -*----------------------------------*\
| =========                 |                                                 |
| \\      /  F ield         | OpenFOAM: The Open Source CFD Toolbox           |
|  \\    /   O peration     | Version:  v2012                                 |
|   \\  /    A nd           | Website:  www.openfoam.com                      |
|    \\/     M anipulation  |                                                 |
\*---------------------------------------------------------------------------*/
FoamFile
{
    version     2.0;
    format      ascii;
    class       surfaceVectorField;
    location    "0.2";
    object      Uf_0;
}
// * * * * * * * * * * * * * * * * * * * * * * * * * * * * * * * * * * * * * //

dimensions      [0 1 -1 0 0 0 0];


internalField   nonuniform List<vector> 
3840
(
(0.000851950703995 -0.00145767001716 4.09092307525e-23)
(0.00145767091189 -0.000856793565344 3.33997410427e-24)
(0.000885220064938 -0.0029877491762 3.4764817639e-23)
(0.00153008024128 -0.00226302414477 4.7044048002e-23)
(0.000874030297454 -0.0045049442435 -4.00078550297e-24)
(0.00151719638754 -0.00384257963243 -3.14980966439e-24)
(0.000855854637726 -0.00599348840104 -3.70014407776e-24)
(0.00148854574849 -0.00537949499078 -4.08634458626e-24)
(0.000835728616121 -0.00745120263516 -5.10423368529e-24)
(0.00145771598187 -0.0068843870269 -6.0958168864e-23)
(0.000812466696666 -0.00887309022429 -1.44902513626e-23)
(0.00142188933729 -0.00835724583627 -2.13216037621e-23)
(0.000785576816434 -0.0102530736219 9.59125027094e-24)
(0.0013799846849 -0.0097908100342 -5.90277383621e-23)
(0.000754918997508 -0.011584738519 3.41034687519e-23)
(0.00133166580035 -0.0111782776327 2.2700538676e-24)
(0.000720488894527 -0.0128616052264 4.73918434886e-23)
(0.0012768667275 -0.0125128889622 3.0786713801e-23)
(0.000682340077919 -0.0140772520518 3.6913608529e-23)
(0.00121564512226 -0.0137879649535 -5.68487047519e-25)
(0.000640550044455 -0.0152253736456 6.63329590912e-24)
(0.00114811854214 -0.0149969589989 -5.5178913575e-24)
(0.000595185300535 -0.0162998086514 5.03302032364e-24)
(0.0010744307739 -0.0161335006512 -1.10840905978e-23)
(0.000546222373512 -0.0172945021751 5.13089654252e-24)
(0.000994688644781 -0.0171914336969 -1.55474366264e-23)
(0.000493320964594 -0.0182033186912 5.93565591707e-24)
(0.000908811734521 -0.0181648133512 6.07687767564e-24)
(0.000435160261292 -0.0190194266137 9.42019028171e-25)
(0.000816103950394 -0.0190480172183 8.66821821632e-24)
(0.000368021495381 -0.0197334004424 1.20708423647e-23)
(0.000713971121826 -0.0198364935149 -5.06632348549e-24)
(0.000281495124978 -0.0203294216428 3.84063800591e-23)
(0.000596019881911 -0.0205198532202 1.06095510069e-23)
(0.00020024086756 -0.0207758711746 1.92157609013e-22)
(0.000446449312386 -0.0210954294415 6.50174642894e-24)
(0.00100433220848 -0.0210538478503 1.97526163295e-22)
(0.000277976896764 -0.0216394582878 4.26998118383e-22)
(0.00084895965302 -0.0218309542649 4.63435583425e-23)
(0.00225608213574 -0.00154129158244 9.47479135376e-24)
(0.00299896346862 -0.000901652577406 2.62672078756e-24)
(0.00228094742503 -0.00307706819929 9.12942069863e-24)
(0.00306585800892 -0.00231641023199 1.02409965062e-22)
(0.00225272442833 -0.00460360437199 -3.23536874767e-24)
(0.00304373398423 -0.00389992340134 6.28479312903e-24)
(0.00221156963981 -0.00611368243554 -6.13443693725e-23)
(0.00299862551391 -0.00545405317671 -3.6916690985e-24)
(0.00216277996735 -0.00759681834696 -7.71755389408e-23)
(0.00294085373312 -0.00697566528478 -6.08389236754e-23)
(0.00210489747824 -0.00904503806298 -6.58590907617e-23)
(0.00287011087054 -0.00846658355126 -1.44421535193e-23)
(0.00203735044769 -0.0104511487705 -6.63489347654e-23)
(0.00278609706957 -0.0099184627103 -4.75975098034e-23)
(0.00195999792376 -0.0118082335081 -1.04670108334e-24)
(0.00268875086638 -0.011324035503 -1.10311443868e-23)
(0.00187289393012 -0.0131095315425 -1.71736167352e-23)
(0.00257816513213 -0.0126763056361 2.32624317646e-23)
(0.0017762021309 -0.0143484393837 -4.29999869341e-23)
(0.00245455057377 -0.0139684422099 -4.23253184312e-23)
(0.00167015149365 -0.0155185376261 -2.32352778644e-23)
(0.00231821324335 -0.0151937890663 -7.12125163548e-24)
(0.00155499683906 -0.016613643493 -3.16645475478e-23)
(0.00216953218813 -0.0163459094776 -1.0114490275e-23)
(0.00143093997346 -0.0176279171125 -1.46014554933e-23)
(0.00200895741992 -0.017418658853 -1.50105529985e-23)
(0.00129793264349 -0.0185560870313 8.80943997489e-24)
(0.0018369771845 -0.0184062943399 1.03067086187e-23)
(0.00115517009743 -0.0193940907097 2.65987570266e-24)
(0.00165410422649 -0.0193038995175 1.51320201555e-23)
(0.00100016736939 -0.0201412329333 -6.52761484335e-24)
(0.00146111143732 -0.0201083759897 2.71782643083e-24)
(0.000825253008957 -0.0208052902845 -2.12950826233e-23)
(0.00126007678883 -0.0208135020622 2.61841643475e-23)
(0.000616206476986 -0.021413496585 2.41342255799e-22)
(0.00105465622666 -0.0214361539723 8.25107069744e-23)
(0.000343537322546 -0.0220172822574 2.75815513431e-22)
(0.000881763324924 -0.022051049242 7.99749865172e-22)
(0.000609035929142 -0.0219738397462 8.46503432559e-23)
(0.00385100105695 -0.00155532596623 9.55618944962e-23)
(0.0045542903133 -0.000910975798446 1.36927200483e-23)
(0.00385980350308 -0.00310905906184 9.95653374928e-23)
(0.00461959217122 -0.00233938469126 1.25643440848e-22)
(0.00381764348667 -0.00465126630583 5.8284927782e-24)
(0.00458594261855 -0.00394501383284 8.75958152656e-24)
(0.00375439131567 -0.00617535591235 -3.18622340142e-24)
(0.00452271687706 -0.00551847696734 3.85233441761e-25)
(0.00367386205238 -0.00767251469261 1.89446174611e-24)
(0.00443801447801 -0.00705766079783 -3.06323250895e-24)
(0.00357619765784 -0.00913489110728 3.81942743895e-24)
(0.0043324893787 -0.00856603756706 7.54693223474e-24)
(0.00346145837012 -0.0105551583283 7.72028057522e-24)
(0.00420636577157 -0.010035285652 2.81717682762e-24)
(0.00332979026448 -0.0119262524542 1.32779884611e-23)
(0.00405984634997 -0.0114580633788 8.33354291788e-24)
(0.00318144592041 -0.013241300263 -1.88926993144e-24)
(0.00389321189051 -0.0128272696865 2.72514424613e-24)
(0.00301678347743 -0.0144936004268 -6.44658313264e-24)
(0.00370684887705 -0.014135961884 -2.75944715973e-24)
(0.00283626690822 -0.0156766451024 5.99953595391e-24)
(0.00350125442206 -0.015377374694 -8.90478598017e-25)
(0.00264047220365 -0.0167841841718 6.53950427431e-24)
(0.00327706704366 -0.0165449623621 7.70093298801e-24)
(0.00243009479107 -0.0178103087862 9.89761111347e-24)
(0.00303507770238 -0.0176324613076 -6.88941177278e-25)
(0.00220597984823 -0.0187495955831 1.66292887993e-23)
(0.00277626029283 -0.018633968223 1.04073064831e-23)
(0.00196933938431 -0.0195973209385 1.51899708836e-23)
(0.00250182725129 -0.0195442175539 7.84923769947e-24)
(0.00172250792337 -0.0203497387231 3.54296056217e-23)
(0.00221352857614 -0.0203589993222 7.58710109671e-24)
(0.00146872814205 -0.0210038089332 1.29989953945e-22)
(0.00191414791444 -0.021068527479 3.04507985162e-23)
(0.00123178234387 -0.0215513550237 6.40918316348e-22)
(0.00160220411014 -0.0216716552809 1.21513902219e-22)
(0.000961551162095 -0.0219639889588 6.08584694998e-22)
(0.00129439875388 -0.0222397524448 6.29803047087e-22)
(0.000783770175775 -0.0223112779427 1.20027930183e-22)
(0.0054391868156 -0.00156807390741 4.37742663998e-23)
(0.00612236490554 -0.000921679896799 -1.26346702029e-23)
(0.00544575696196 -0.00314753368561 3.48376848814e-23)
(0.00619905284333 -0.00237081350689 1.11483724247e-22)
(0.00538751941276 -0.00471383438193 3.31632219012e-24)
(0.00615224460854 -0.00400554730195 1.58732092019e-23)
(0.00530044556112 -0.00625969185053 5.08224334236e-25)
(0.00606857611067 -0.00560552888639 1.23715894916e-24)
(0.00518815139394 -0.00777777487625 2.58923797968e-24)
(0.00595609958332 -0.00716985511988 1.61219241846e-25)
(0.0050511471822 -0.00926073824803 6.54468162341e-24)
(0.00581545493554 -0.00870292818302 3.11628201227e-24)
(0.00488974150658 -0.0107013467486 3.43043917028e-24)
(0.00564697625551 -0.0101965587082 4.45549147238e-24)
(0.0047042610107 -0.0120924990148 -2.21930129713e-24)
(0.00545099912663 -0.0116433918261 -6.99859628176e-25)
(0.00449512520497 -0.0134272117561 1.85496701784e-24)
(0.00522792502717 -0.0130362396364 -1.95207779409e-24)
(0.00426288119682 -0.0146986585047 2.79665737489e-24)
(0.00497829253749 -0.0143680300855 4.06023049596e-24)
(0.00400822042463 -0.0159002062821 8.10918436082e-25)
(0.00470279913528 -0.0156318411138 -5.45765451859e-25)
(0.00373201090116 -0.0170254472497 4.72487536427e-25)
(0.00440230438999 -0.0168209511848 2.22635284719e-24)
(0.00343533577681 -0.0180682773184 -1.79245807603e-25)
(0.00407790427798 -0.0179288917394 -8.69831534985e-25)
(0.00311953486096 -0.0190229786753 1.62725538335e-24)
(0.00373095910441 -0.0189494968247 1.65402905863e-24)
(0.00278636576474 -0.0198842859165 2.4636791255e-25)
(0.00336313356809 -0.0198771110705 9.87574963247e-25)
(0.00243824224439 -0.0206473744784 2.60829399115e-24)
(0.00297661811245 -0.020706844034 -2.88697357505e-26)
(0.00207483677751 -0.0213073486381 2.19747467902e-23)
(0.00257412459712 -0.0214285016227 1.16146408059e-23)
(0.00170152458916 -0.0218571560337 1.10398632958e-22)
(0.00215201465658 -0.0220376722645 5.35157692586e-23)
(0.00119107430316 -0.0222847307461 1.41246282272e-22)
(0.00172197575071 -0.0226141057916 3.21293212974e-22)
(0.000981086925737 -0.0227129704524 7.60600671791e-23)
(0.00704485068491 -0.00159256246647 5.50747876443e-23)
(0.00771492781993 -0.000938701255902 -3.39115002588e-23)
(0.00704928464679 -0.00320146423331 9.25192485675e-23)
(0.0078079553024 -0.00241551163438 1.31207054985e-22)
(0.00697346905878 -0.00479730513632 1.3794045961e-23)
(0.00774808669462 -0.00408440771998 2.40133129248e-23)
(0.00686152826512 -0.0063718819949 8.90153856768e-25)
(0.00764315474769 -0.00571751571471 1.35844795259e-24)
(0.00671712154314 -0.00791814509802 6.88263274442e-25)
(0.00750236490366 -0.00731422152502 -3.66523200682e-25)
(0.00654069595141 -0.00942890722798 1.02709186124e-24)
(0.00732621940358 -0.00887931276855 1.07645467198e-24)
(0.00633260960798 -0.0108969569403 3.25192673925e-25)
(0.0071150281226 -0.0104045982615 5.84340460342e-25)
(0.00609328176463 -0.012315123029 -4.32636125138e-25)
(0.00686916645087 -0.0118826644319 5.40384499921e-26)
(0.00582324889462 -0.0136763177026 2.53185684031e-25)
(0.00658911896729 -0.0133062085231 1.01209022987e-25)
(0.00552321449337 -0.014973551669 7.17807669206e-25)
(0.00627552445157 -0.0146680008578 1.37542290981e-24)
(0.00519407410277 -0.0161999885995 8.69668959252e-25)
(0.00592923237776 -0.0159609192363 3.42770996725e-25)
(0.00483694962443 -0.0173490090297 8.8403377578e-25)
(0.00555132197079 -0.0171780058403 1.67784345603e-24)
(0.00445323969521 -0.0184142472016 9.63443331246e-25)
(0.00514313998757 -0.0183125231009 3.79026888157e-25)
(0.00404465217833 -0.019389645113 1.01434863853e-24)
(0.0047063557728 -0.0193579926579 1.81908133657e-24)
(0.00361330832202 -0.0202694842734 7.12337314946e-25)
(0.00424297337663 -0.0203083756447 3.69520129109e-25)
(0.00316176477037 -0.0210483385058 8.97747707896e-24)
(0.00375547502084 -0.0211582770305 1.2610854914e-24)
(0.00268918167191 -0.0217207724098 4.31556632743e-23)
(0.00324656267314 -0.0218975333885 1.63759779886e-23)
(0.00219830275803 -0.0222808046137 2.64410349274e-22)
(0.00271205133696 -0.0225197140192 6.56833817413e-23)
(0.00152263106094 -0.022717692023 2.56106997881e-22)
(0.0021588661813 -0.0231115394521 4.53013802294e-22)
(0.00120775114724 -0.0232309224124 4.25879274993e-23)
(0.00868237425093 -0.0016259657467 4.2220767082e-23)
(0.00934089377254 -0.000960839166982 -9.94249792554e-24)
(0.00868650353652 -0.00327047886624 6.27011193423e-23)
(0.00945246892146 -0.00247197811401 6.12230796234e-23)
(0.0085930415289 -0.00490221763333 1.15777149164e-23)
(0.00937982655155 -0.00418165034532 5.85558532005e-24)
(0.00845578571627 -0.0065124368112 1.01770895138e-25)
(0.00925337573708 -0.00585484869146 5.03905503874e-25)
(0.0082788478004 -0.00809402514594 2.16681968594e-26)
(0.00908395563739 -0.00749113568333 1.22753462235e-24)
(0.00806258828804 -0.00963977636669 6.3370327108e-25)
(0.00887197323273 -0.00909555368786 5.14802681162e-25)
(0.00780734839214 -0.0111424224729 3.13186236409e-25)
(0.00861767661505 -0.0106598175832 7.91582205635e-25)
(0.00751358378773 -0.0125946850112 5.87883598117e-25)
(0.00832143058534 -0.0121764056368 7.79627973142e-25)
(0.00718190515841 -0.0139893152968 1.22344624876e-24)
(0.00798374935227 -0.0136378582938 1.92626008593e-25)
(0.0068131280182 -0.0153191352785 1.00038623732e-24)
(0.00760534340422 -0.0150367445537 2.62714135951e-24)
(0.00640831481252 -0.0165770758594 1.1509454935e-24)
(0.00718717059217 -0.0163657006577 6.51120461965e-25)
(0.00596880838308 -0.0177562327686 1.1728365684e-24)
(0.00673047688702 -0.0176174821573 1.82404710406e-24)
(0.00549627470007 -0.01884992913 1.23466489349e-24)
(0.00623683494222 -0.0187850257631 5.48684704806e-25)
(0.00499272949218 -0.0198517581685 1.17425282715e-24)
(0.00570818487041 -0.0198615002217 2.14431876754e-24)
(0.00446060279479 -0.0207556234023 9.18268305566e-25)
(0.00514684075639 -0.0208404839879 7.89473514701e-25)
(0.00390265251543 -0.0215557365907 8.65958640109e-24)
(0.00455559247023 -0.0217161597191 3.78108708579e-24)
(0.00331808033114 -0.0222465416893 3.89036964556e-23)
(0.00393737342148 -0.0224784991248 1.465013919e-23)
(0.00270732417466 -0.0228228023588 2.54286834761e-22)
(0.00328831763025 -0.0231195788682 2.72511317806e-23)
(0.00186523093704 -0.0232746490826 2.39494731913e-22)
(0.0026107165486 -0.0237324160066 4.46369440364e-22)
(0.00145308089659 -0.0238652093455 -6.55282227116e-23)
(0.0103587437182 -0.00166714186921 9.05981461588e-24)
(0.0110080356347 -0.000987548890761 -7.1151702427e-24)
(0.0103635094364 -0.0033542053014 4.37754560112e-24)
(0.0111395327027 -0.00253956442548 1.06005254556e-22)
(0.0102524563917 -0.00502871682908 -5.21822409244e-24)
(0.0110543391201 -0.00429721996101 7.83143919045e-24)
(0.0100896860758 -0.00668163549988 1.62966923108e-24)
(0.010906296293 -0.00601771425333 7.85399091879e-25)
(0.00987992978555 -0.0083057358392 1.72066910665e-24)
(0.0107080585841 -0.00770086811616 1.96177754129e-24)
(0.00962347193005 -0.00989372526623 6.72681615717e-25)
(0.0104599656089 -0.00935199502008 3.58546345504e-25)
(0.00932060368773 -0.0114382278412 1.25802394237e-24)
(0.0101621819605 -0.0109626680809 1.04879674961e-24)
(0.00897177078197 -0.012931816476 3.84370383617e-25)
(0.00981502125397 -0.0125252184078 1.63811639378e-24)
(0.00857761423892 -0.0143670463268 1.59632111934e-24)
(0.00941898007473 -0.0140319923296 -5.45847528747e-25)
(0.00813902168033 -0.0157364948934 2.27787558415e-24)
(0.00897479167106 -0.0154753124632 2.67081295995e-24)
(0.00765717749744 -0.0170328074183 1.32422207252e-24)
(0.00848348202636 -0.0168475193229 1.18457373839e-24)
(0.00713360680323 -0.0182487547222 1.19989524046e-24)
(0.00794642306338 -0.0181410281352 2.76371716803e-24)
(0.00657021510053 -0.0193772977288 1.45833857886e-24)
(0.00736537754461 -0.0193483946271 6.74777386824e-25)
(0.00596930923541 -0.0204116487274 1.75953945509e-24)
(0.00674253709203 -0.0204623804898 2.8478654594e-24)
(0.00533364822236 -0.0213453349305 3.65229229492e-24)
(0.00608053039908 -0.0214761432628 1.79198771556e-24)
(0.00466633749216 -0.0221722480218 9.77163987472e-24)
(0.00538251114221 -0.0223834273535 6.41059396859e-24)
(0.00396705613422 -0.0228867161329 2.99757451498e-24)
(0.00465184837628 -0.0231742274825 2.63667623541e-23)
(0.00323417171982 -0.0234838146819 2.19333737384e-22)
(0.00388542271692 -0.0238392749375 1.06079837809e-22)
(0.00222387317277 -0.0239539079949 1.4134648574e-22)
(0.00308081398514 -0.0244769855354 7.02110032514e-22)
(0.00171293071493 -0.0246207048361 -2.35699756494e-23)
(0.0120813299741 -0.00171569014876 8.98302696973e-23)
(0.0127237256249 -0.00101863108717 -4.27957414643e-24)
(0.0120873516615 -0.00345245559485 1.09459148145e-22)
(0.0128762984201 -0.00261800317477 1.44826789419e-22)
(0.0119587782085 -0.00517684884853 1.38350623748e-23)
(0.0127787334362 -0.00443105996233 1.77309697709e-23)
(0.0117704023192 -0.00687965604594 1.11750740209e-24)
(0.0126091055094 -0.00620620111914 3.38081931241e-25)
(0.0115276290364 -0.00855355283809 5.99654780149e-25)
(0.0123819582322 -0.00794361439831 1.97802373559e-25)
(0.0112306591973 -0.0101911417004 7.34661479398e-25)
(0.0120975577807 -0.00964894661202 -5.63240355774e-25)
(0.0108797003463 -0.0117849102785 1.42888920103e-24)
(0.0117559537316 -0.0113136075708 1.65345791878e-24)
(0.010475142317 -0.0133272486995 7.0789848142e-25)
(0.0113573622431 -0.0129297547007 9.55356229404e-25)
(0.0100176056576 -0.0148104764788 5.28644311859e-25)
(0.0109022093873 -0.0144895050787 -1.21864409524e-26)
(0.00950800163568 -0.0162268801566 1.57751111419e-24)
(0.0103911959374 -0.0159848907999 1.27998630186e-24)
(0.00894759294363 -0.0175687633939 2.6240688339e-24)
(0.00982536535586 -0.0174079019319 3.00530398048e-25)
(0.00833804790018 -0.0188285113944 2.23859931439e-24)
(0.00920617073347 -0.0187505490672 2.4945821442e-24)
(0.00768148506995 -0.0199986619067 2.06430426736e-24)
(0.00853552851656 -0.0200049370797 -8.41560472183e-26)
(0.00698049810977 -0.0210719871187 2.88031371988e-24)
(0.00781586448254 -0.0211633470011 1.97290025812e-24)
(0.00623820601293 -0.0220415825105 4.55028938923e-24)
(0.00705013024869 -0.0222184423249 1.42856851829e-24)
(0.00545816966073 -0.0229009557595 2.3005716448e-23)
(0.00624189097515 -0.0231634578797 3.1287916767e-24)
(0.00464077964616 -0.0236441633977 1.29449025648e-22)
(0.00539506375168 -0.0239881976932 2.26872743058e-23)
(0.00378241459936 -0.0242662008457 5.88856132938e-22)
(0.00450746736537 -0.0246820669142 1.32018129816e-22)
(0.0025993648593 -0.02475735459 5.37193571124e-22)
(0.00357197220132 -0.0253482013655 5.87510453859e-22)
(0.00198670798728 -0.0255028716862 1.86708708585e-22)
(0.0138574899933 -0.00177143454904 5.07169455757e-23)
(0.0144951599554 -0.00105399893837 -3.51016270684e-24)
(0.0138653278142 -0.00356511452083 5.30986110451e-23)
(0.0146699786848 -0.00270714675845 1.51431395797e-22)
(0.0137193282707 -0.00534660851569 4.23398932739e-24)
(0.0145602286062 -0.00458309618965 1.86464678085e-23)
(0.0135053368248 -0.00710659665642 -5.8162309729e-25)
(0.0143690958759 -0.00642031912417 2.30954891355e-25)
(0.0132294383596 -0.00883768538964 -9.65092762364e-25)
(0.0141130501179 -0.00821948249989 6.23534290504e-26)
(0.0128917197964 -0.0105323750239 3.55556083611e-25)
(0.0137922510936 -0.00998664504451 -3.5541241913e-25)
(0.0124922592297 -0.0121830030053 1.17992494716e-24)
(0.0134065853335 -0.0117130469059 1.49934554792e-24)
(0.0120313352204 -0.0137817506823 2.35271307032e-25)
(0.0129561129669 -0.0133906550767 -5.43990616558e-26)
(0.0115094882209 -0.0153206631035 7.39155549049e-25)
(0.0124411241476 -0.0150113263581 1.48551927388e-25)
(0.0109275948072 -0.0167916869374 3.00558571937e-27)
(0.0118622210667 -0.0165667570536 1.19295016962e-24)
(0.0102869428433 -0.0181867224401 1.7104370835e-25)
(0.0112204022443 -0.0180485269723 -3.00307072495e-25)
(0.00958929946885 -0.0194976969834 1.71826782589e-25)
(0.0105171456794 -0.019448168537 1.73107160443e-24)
(0.00883696691957 -0.0207166467006 -1.7556005646e-25)
(0.00975447942143 -0.0207572506927 -4.13691920884e-25)
(0.00803281813388 -0.0218358180939 5.21155056537e-25)
(0.00893503879879 -0.021967478197 1.24065796871e-24)
(0.00718035415756 -0.0228477809235 7.07080576657e-27)
(0.00806209827983 -0.0230709180669 2.959297565e-25)
(0.00628364842673 -0.0237455480981 2.81034953455e-24)
(0.00713966543842 -0.0240601902927 2.7367286531e-25)
(0.00534388374221 -0.0245227367669 2.52563784738e-23)
(0.00617226075758 -0.0249246567712 1.31059294015e-23)
(0.00435560399089 -0.0251739236485 1.30672450736e-22)
(0.00515866189503 -0.0256524309964 7.10353020365e-23)
(0.00299340149768 -0.0256892092409 2.3702559132e-22)
(0.00408726248193 -0.0263508202906 3.96175820343e-22)
(0.0022754061242 -0.0265177842952 1.77352460993e-22)
(0.015694524513 -0.00183427090952 9.72042875144e-23)
(0.016329430704 -0.00109359660235 -3.04525687655e-23)
(0.0157047787151 -0.00369207234345 1.1697925256e-22)
(0.0165277805545 -0.00280686581934 6.98605096466e-23)
(0.0155415038094 -0.0055379281784 1.46434333724e-23)
(0.0164060858346 -0.00475320138607 5.62039925888e-24)
(0.0153019875319 -0.0073624611341 8.74931417696e-25)
(0.0161936313447 -0.00665997743197 -2.08206322875e-24)
(0.0149929770178 -0.00915824361536 6.72033772285e-25)
(0.0159088360912 -0.00852845911512 4.5517663508e-25)
(0.0146143944756 -0.0109176883637 7.88377045183e-25)
(0.015551699901 -0.0103652055553 1.05443399656e-24)
(0.0141661263932 -0.0126329793553 2.65021539108e-25)
(0.0151218803266 -0.0121612918266 5.32974876408e-25)
(0.0136482699941 -0.0142960684822 -1.411184413e-25)
(0.0146192056596 -0.0139084858462 2.39569285553e-25)
(0.0130612119133 -0.015898690633 6.02346547954e-25)
(0.014043749153 -0.0155983567607 7.36984626564e-25)
(0.0124057215226 -0.0174323986326 8.89637511401e-25)
(0.0133959312199 -0.0172222185654 1.71959100742e-24)
(0.0116830453853 -0.018888620146 1.25972082358e-24)
(0.0126766261157 -0.0187711750607 3.45490996684e-25)
(0.0108949937305 -0.0202587409159 1.14555290096e-24)
(0.0118872674473 -0.0202361959953 1.92923805701e-24)
(0.0100440130565 -0.0215341973096 1.00252610428e-24)
(0.0110299375587 -0.0216082128543 -1.09297509692e-24)
(0.00913323780569 -0.022706600086 1.01543266867e-24)
(0.0101074450206 -0.0228782367684 1.1005044025e-24)
(0.00816656040566 -0.0237678701607 5.62531816043e-25)
(0.00912337403316 -0.0240376093829 -7.83019395245e-25)
(0.00714859859654 -0.0247103874631 1.05692527322e-23)
(0.00808219043896 -0.0250782016824 -7.26655569387e-25)
(0.00608132984051 -0.0255271678811 5.88848529641e-23)
(0.0069890498491 -0.0259886770238 1.77494748253e-23)
(0.00495761122327 -0.0262121503993 3.36538671643e-22)
(0.00584365227677 -0.0267559007382 1.05931651865e-22)
(0.0034083462617 -0.0267551034998 3.36502690016e-22)
(0.00463022036444 -0.0274909046206 3.40255156235e-22)
(0.00258085091633 -0.0276723168198 7.66189480404e-23)
(0.0175996729477 -0.00190409779955 -5.77963466333e-23)
(0.0182335285386 -0.00113736218327 -6.38844295972e-23)
(0.0176130393795 -0.00383317381359 -4.14983436548e-23)
(0.0184568572835 -0.00291699171287 1.65032960953e-23)
(0.0174327388671 -0.00575064341669 -1.11050973423e-23)
(0.0183235571664 -0.00494115172746 -5.24733033457e-24)
(0.0171679316686 -0.00764712230243 -2.50181801137e-24)
(0.0180901131148 -0.0069249419604 -3.99915627108e-24)
(0.016825994367 -0.00951519182959 8.37576859359e-25)
(0.0177769094973 -0.00887035878705 7.07182975593e-25)
(0.0164066148429 -0.0113472023303 7.99031827789e-25)
(0.0173837148239 -0.0107845611141 9.44635390352e-25)
(0.0159094071465 -0.0131351898956 5.07522622853e-25)
(0.0169098722401 -0.0126584743848 1.48671340464e-24)
(0.0153341983056 -0.0148708630412 1.11767235342e-24)
(0.0163548827115 -0.0144836668674 1.48876968794e-24)
(0.0146811285386 -0.0165456099881 1.85422908603e-24)
(0.0157184995596 -0.016251396532 2.64223863576e-24)
(0.0139507686513 -0.0181505339266 1.1754444927e-24)
(0.0150008577564 -0.0179525473555 2.3750328307e-24)
(0.0131442391188 -0.0196765116971 1.01500823011e-24)
(0.0142026072123 -0.0195776747248 -1.23650414466e-25)
(0.0122633207336 -0.0211142881933 -3.09289940867e-25)
(0.0133250453879 -0.0211170890305 2.40946224318e-24)
(0.0113105494683 -0.0224545838024 -9.94996798706e-25)
(0.0123702352623 -0.0225609649151 -9.96733574121e-25)
(0.0102892889964 -0.0236882396861 -6.97947661417e-25)
(0.0113411046139 -0.0238994797848 1.07233937266e-24)
(0.00920381831918 -0.0248063794534 -2.07220678067e-24)
(0.0102415196524 -0.0251230946483 -9.70154936036e-25)
(0.00805931819398 -0.025800589167 6.45356652364e-24)
(0.0090764079522 -0.0262227682024 -1.62779750717e-24)
(0.00685855303866 -0.0266631137587 6.47962737266e-23)
(0.00785158314311 -0.0271862044177 1.37705432643e-23)
(0.00559282911309 -0.0273870979277 1.09648136458e-22)
(0.00656764429699 -0.0279990391806 8.45611378384e-23)
(0.00384717896444 -0.0279618068922 8.03714142599e-23)
(0.00520493405229 -0.0287756225826 2.12771969461e-22)
(0.00290542854486 -0.0289743158045 1.92972315425e-22)
(0.019580080057 -0.00198077719736 1.04152131314e-23)
(0.0202143061148 -0.00118520588896 -7.66326315982e-23)
(0.0195973908144 -0.00398817298734 5.27543094155e-23)
(0.0204642542085 -0.00303727418779 1.61621099524e-22)
(0.0194004623807 -0.00598444574755 1.85861073666e-24)
(0.0203198321133 -0.00514657733049 1.69179914727e-23)
(0.0191107995504 -0.00796026768042 -7.90155284123e-25)
(0.0200659383965 -0.00721477715971 -3.7200191251e-25)
(0.018736361762 -0.00990828492464 8.14241506586e-25)
(0.0197249310488 -0.00924475499599 2.01195373626e-24)
(0.0182765137105 -0.0118208227979 1.6323169672e-24)
(0.0192962574855 -0.011244383173 1.37514244837e-24)
(0.0177304948137 -0.0136897854972 2.46796046973e-24)
(0.0187788395629 -0.0132044659724 2.38683356594e-24)
(0.0170977502896 -0.0155066294213 3.01333597028e-24)
(0.0181717308462 -0.0151163810491 2.99632811943e-24)
(0.0163780575277 -0.0172623635484 3.16304238042e-24)
(0.0174742373113 -0.0169710564929 4.21699806398e-24)
(0.0155716732279 -0.0189475797363 1.07593792353e-24)
(0.0166860769167 -0.0187588976901 2.59202451431e-24)
(0.0146794833219 -0.0205525164964 1.2708035986e-24)
(0.0158075476879 -0.0204698322269 3.06282697066e-26)
(0.0137031442578 -0.0220671646394 1.72201860992e-24)
(0.0148396951675 -0.0220934007952 3.91127761266e-24)
(0.0126452065563 -0.0234813899667 1.07060259725e-24)
(0.0137844627422 -0.0236188816998 4.56512635971e-25)
(0.0115092136124 -0.0247851051359 8.00132098046e-25)
(0.0126448234148 -0.0250354530799 3.10946497474e-24)
(0.0102998124364 -0.0259684608584 -5.25745662528e-25)
(0.0114248810222 -0.0263325103034 1.2414919027e-24)
(0.00902275705188 -0.0270220626983 5.68917923348e-24)
(0.0101300173024 -0.0274999032846 2.17556239283e-24)
(0.00768160450737 -0.0279371948122 3.35354073761e-23)
(0.00876672364932 -0.0285240980662 2.05549620423e-23)
(0.00626625058166 -0.0287060517703 1.87684970842e-22)
(0.00733650879348 -0.0293894828896 7.18128557474e-23)
(0.00431343001502 -0.0293172203508 3.25372870627e-22)
(0.00581610712387 -0.0302132784438 4.50015041389e-22)
(0.00325200092468 -0.0304327807339 1.94204417932e-22)
(0.021642739236 -0.00206410551623 7.4573254794e-23)
(0.0222784124923 -0.00123699279222 -8.19525808692e-23)
(0.0216649998623 -0.00415668775214 1.25784781581e-22)
(0.0225568381258 -0.00316734218544 1.21494233081e-22)
(0.0214520454216 -0.00623882451143 1.46873788236e-23)
(0.0224019716276 -0.00536890531237 1.41783807739e-23)
(0.0211382363753 -0.00830132897034 2.43010710787e-24)
(0.0221284467468 -0.00752877311561 -2.18586663722e-24)
(0.0207320529359 -0.0103369857812 2.57285467805e-24)
(0.0217605926243 -0.00965089253801 2.14279824659e-24)
(0.0202324264031 -0.0123381486668 2.12965904711e-24)
(0.0212974254608 -0.0117439813824 2.53607182499e-24)
(0.0196380945503 -0.0142966182173 2.91520121564e-24)
(0.0207373138792 -0.0137987678326 2.6363815864e-24)
(0.018947981704 -0.0162035994154 4.19999021313e-24)
(0.0200787162282 -0.0158064602086 1.86702775328e-24)
(0.0181613568733 -0.0180496896233 3.64598019787e-24)
(0.0193203310197 -0.0177576448764 4.16562709145e-24)
(0.0172780168374 -0.0198249060969 1.54671486049e-24)
(0.0184612962192 -0.0196422001167 2.50188710581e-24)
(0.0162984742658 -0.0215187509984 2.67110228376e-24)
(0.0175013962979 -0.0214493388642 4.66088184851e-26)
(0.0152241379356 -0.0231203281997 2.64577163871e-24)
(0.0164412738486 -0.0231677068262 3.2895853052e-24)
(0.0140574725618 -0.0246184879706 2.49537501346e-24)
(0.0152826242919 -0.0247855234238 -1.79971806117e-24)
(0.0128021308836 -0.0260020259052 3.55082477939e-24)
(0.0140283643848 -0.0262907716082 2.85496183919e-24)
(0.0114630947143 -0.027259911172 3.94279995806e-24)
(0.0126827711885 -0.0276715602735 -6.33019576896e-25)
(0.0100466950881 -0.0283815482731 1.70413452017e-23)
(0.0112516611079 -0.0289163932094 7.24933954339e-26)
(0.00855730503467 -0.029357038333 5.88324104137e-23)
(0.0097422213225 -0.0300101858724 1.39467650766e-23)
(0.00698356302158 -0.0301774401524 3.34142926294e-22)
(0.00815691748639 -0.0309360218673 5.47468756455e-23)
(0.00481119399509 -0.0308304745126 3.18846588694e-22)
(0.00646914556265 -0.0318134311653 1.59010867097e-22)
(0.00362391976556 -0.0320580660551 -8.44571527941e-23)
(0.0237944119398 -0.00215378603014 -3.5031602582e-23)
(0.0244321999653 -0.00129252561689 -6.71857128656e-23)
(0.0238228408399 -0.00433814951805 9.88783227427e-24)
(0.0247412039137 -0.00330666171025 5.85137195146e-23)
(0.0235947326393 -0.006512996918 -2.69486468689e-24)
(0.0245768223996 -0.00560729292166 -1.7668223628e-23)
(0.0232578496647 -0.00866939435859 -2.47317549851e-24)
(0.0242848486278 -0.00786585663169 -5.52775532102e-24)
(0.0228211121504 -0.0108003623294 2.10601539353e-24)
(0.0238915657162 -0.0100875793731 -5.49552256952e-25)
(0.0222828831485 -0.0128983566499 3.04279436427e-24)
(0.0233954249083 -0.0122821794804 1.89902173301e-24)
(0.0216412427849 -0.0149551191106 1.58820812404e-24)
(0.0227940808433 -0.0144403748859 2.31488069475e-24)
(0.0208944226366 -0.0169616133609 1.8326646316e-24)
(0.022085214814 -0.016553242693 -3.92131173313e-25)
(0.0200410015453 -0.0189080004613 3.02153399939e-24)
(0.0212667216772 -0.0186110253048 2.1822139483e-24)
(0.0190801329647 -0.0207836538357 1.00178106381e-24)
(0.0203369522902 -0.0206030270954 2.20051000574e-24)
(0.018011780461 -0.0225772300345 6.65091839917e-25)
(0.019294975297 -0.0225176524073 -1.10183872818e-24)
(0.0168369453965 -0.0242767962448 -1.15590439468e-24)
(0.0181408404894 -0.0243425089777 2.23360237199e-24)
(0.0155578738028 -0.0258699953241 -1.44013123543e-24)
(0.0168758234942 -0.0260645681078 -3.07886789596e-24)
(0.0141782314917 -0.0273442817274 -1.3288825171e-24)
(0.0155026518441 -0.02767038612 1.82384434299e-24)
(0.0127032840013 -0.0286871932984 -4.50332613952e-24)
(0.0140256856389 -0.0291465205358 -2.97172393526e-24)
(0.0111399353866 -0.029886668449 -3.02208672971e-24)
(0.0124511412635 -0.0304798400643 -4.42087803452e-24)
(0.00949341525224 -0.0309313566377 9.86123030837e-24)