/*--------------------------------*- C++ -*----------------------------------*\
| =========                 |                                                 |
| \\      /  F ield         | OpenFOAM: The Open Source CFD Toolbox           |
|  \\    /   O peration     | Version:  v2012                                 |
|   \\  /    A nd           | Website:  www.openfoam.com                      |
|    \\/     M anipulation  |                                                 |
\*---------------------------------------------------------------------------*/
FoamFile
{
    version     2.0;
    format      ascii;
    class       volScalarField;
    location    "3.9";
    object      p_rgh;
}
// * * * * * * * * * * * * * * * * * * * * * * * * * * * * * * * * * * * * * //

dimensions      [1 -1 -2 0 0 0 0];


internalField   nonuniform List<scalar> 
166
(
8584.27141211
8582.33844262
8580.08180049
8577.44860996
8574.38565973
8570.8093118
8566.62520467
8561.75319224
8556.07744467
8549.23352473
4085.2973074
4.15145460955
-0.0064844961328
8595.2367774
8594.18319285
8592.9320438
8591.44713315
8589.71182465
8587.69326531
8585.34237199
8582.59584444
8579.37278621
8575.68566051
8571.25759219
8565.81115619
4387.62282092
20.104755985
-0.0237099647266
8605.16487639
8605.06226728
8604.00725665
8603.41079929
8602.68690095
8601.82875245
8600.81355379
8599.63474451
8598.27094617
8596.68938991
8594.84102571
8592.64763599
8590.03480605
8587.14298636
8583.30113084
4692.53229014
46.5210719216
0.0205394838343
8612.67949428
8612.62769984
8612.50110718
8612.30650965
8612.04792004
8611.72529408
8611.33652551
8610.88194914
8610.35674946
8609.76197299
8609.0879757
8608.32087804
8607.43355402
8606.37434332
8605.1045933
8603.63491328
8601.54756604
5003.56919269
88.9247043526
0.0633424210547
8620.25592304
8620.25561892
8620.23283971
8620.19601096
8620.15216464
8620.10228759
8620.05177083
8620.0101863
8619.98483086
8619.98558838
8620.01998949
8620.09379242
8620.20518151
8620.3326763
8620.46754335
8620.58399525
8620.3537299
5313.22053569
145.466570272
0.0778863586089
8627.8423385
8627.89253749
8627.97160523
8628.09002328
8628.25555695
8628.47580171
8628.76150572
8629.13040764
8629.59890722
8630.19125053
8630.93213675
8631.84926372
8632.96886715
8634.30801336
8635.88921527
8637.71106691
8639.54823824
5626.97702553
218.808318786
0.0106481322053
8635.3880271
8635.4865337
8635.66362767
8635.93122631
8636.29984674
8636.78136023
8637.39233352
8638.15392687
8639.09767144
8640.25927786
8641.6812863
8643.41628844
8645.52234526
8648.05915467
8651.10736971
8654.74483824
8658.89225021
5933.10159798
311.954794455
0.109145527197
8642.84348518
8642.98728803
8643.25670654
8643.66458239
8644.22373436
8644.94972411
8645.8638567
8646.99409256
8648.38044042
8650.07203836
8652.13139781
8654.63226536
8657.6650603
8661.33774387
8665.80490399
8671.26302886
8677.92150067
6228.74816458
449.563757702
0.256060920065
8650.16165556
8650.34695578
8650.70086074
8651.2370509
8651.97028409
8652.91850965
8654.10586839
8655.57040211
8657.35661528
8659.52869675
8662.1675448
8665.36063033
8669.22952666
8673.91314798
8679.61131161
8686.61307271
8695.29525782
6479.38134816
585.863001241
0.239463690343
)
;

boundaryField
{
    back
    {
        type            fixedFluxPressure;
        gradient        uniform 0;
        value           nonuniform List<scalar> 
166
(
8584.27141211
8582.33844262
8580.08180049
8577.44860996
8574.38565973
8570.8093118
8566.62520467
8561.75319224
8556.07744467
8549.23352473
4085.2973074
4.15145460955
-0.0064844961328
8595.2367774
8594.18319285
8592.9320438
8591.44713315
8589.71182465
8587.69326531
8585.34237199
8582.59584444
8579.37278621
8575.68566051
8571.25759219
8565.81115619
4387.62282092
20.104755985
-0.0237099647266
8605.16487639
8605.06226728
8604.00725665
8603.41079929
8602.68690095
8601.82875245
8600.81355379
8599.63474451
8598.27094617
8596.68938991
8594.84102571
8592.64763599
8590.03480605
8587.14298636
8583.30113084
4692.53229014
46.5210719216
0.0205394838343
8612.67949428
8612.62769984
8612.50110718
8612.30650965
8612.04792004
8611.72529408
8611.33652551
8610.88194914
8610.35674946
8609.76197299
8609.0879757
8608.32087804
8607.43355402
8606.37434332
8605.1045933
8603.63491328
8601.54756604
5003.56919269
88.9247043526
0.0633424210547
8620.25592304
8620.25561892
8620.23283971
8620.19601096
8620.15216464
8620.10228759
8620.05177083
8620.0101863
8619.98483086
8619.98558838
8620.01998949
8620.09379242
8620.20518151
8620.3326763
8620.46754335
8620.58399525
8620.3537299
5313.22053569
145.466570272
0.0778863586089
8627.8423385
8627.89253749
8627.97160523
8628.09002328
8628.25555695
8628.47580171
8628.76150572
8629.13040764
8629.59890722
8630.19125053
8630.93213675
8631.84926372
8632.96886715
8634.30801336
8635.88921527
8637.71106691
8639.54823824
5626.97702553
218.808318786
0.0106481322053
8635.3880271
8635.4865337
8635.66362767
8635.93122631
8636.29984674
8636.78136023
8637.39233352
8638.15392687
8639.09767144
8640.25927786
8641.6812863
8643.41628844
8645.52234526
8648.05915467
8651.10736971
8654.74483824
8658.89225021
5933.10159798
311.954794455
0.109145527197
8642.84348518
8642.98728803
8643.25670654
8643.66458239
8644.22373436
8644.94972411
8645.8638567
8646.99409256
8648.38044042
8650.07203836
8652.13139781
8654.63226536
8657.6650603
8661.33774387
8665.80490399
8671.26302886
8677.92150067
6228.74816458
449.563757702
0.256060920065
8650.16165556
8650.34695578
8650.70086074
8651.2370509
8651.97028409
8652.91850965
8654.10586839
8655.57040211
8657.35661528
8659.52869675
8662.1675448
8665.36063033
8669.22952666
8673.91314798
8679.61131161
8686.61307271
8695.29525782
6479.38134816
585.863001241
0.239463690343
)
;
    }
    sides
    {
        type            fixedFluxPressure;
        gradient        nonuniform List<scalar> 0();
        value           nonuniform List<scalar> 0();
    }
    bottom
    {
        type            fixedFluxPressure;
        gradient        uniform 0;
        value           nonuniform List<scalar> 7(8605.16487639 8612.67949428 8620.25592304 8627.8423385 8635.3880271 8642.84348518 8650.16165556);
    }
    front
    {
        type            fixedFluxPressure;
        gradient        uniform 0;
        value           nonuniform List<scalar> 
166
(
8584.27141211
8582.33844262
8580.08180049
8577.44860996
8574.38565973
8570.8093118
8566.62520467
8561.75319224
8556.07744467
8549.23352473
4085.2973074
4.15145460955
-0.0064844961328
8595.2367774
8594.18319285
8592.9320438
8591.44713315
8589.71182465
8587.69326531
8585.34237199
8582.59584444
8579.37278621
8575.68566051
8571.25759219
8565.81115619
4387.62282092
20.104755985
-0.0237099647266
8605.16487639
8605.06226728
8604.00725665
8603.41079929
8602.68690095
8601.82875245
8600.81355379
8599.63474451
8598.27094617
8596.68938991
8594.84102571
8592.64763599
8590.03480605
8587.14298636
8583.30113084
4692.53229014
46.5210719216
0.0205394838343
8612.67949428
8612.62769984
8612.50110718
8612.30650965
8612.04792004
8611.72529408
8611.33652551
8610.88194914
8610.35674946
8609.76197299
8609.0879757
8608.32087804
8607.43355402
8606.37434332
8605.1045933
8603.63491328
8601.54756604
5003.56919269
88.9247043526
0.0633424210547
8620.25592304
8620.25561892
8620.23283971
8620.19601096
8620.15216464
8620.10228759
8620.05177083
8620.0101863
8619.98483086
8619.98558838
8620.01998949
8620.09379242
8620.20518151
8620.3326763
8620.46754335
8620.58399525
8620.3537299
5313.22053569
145.466570272
0.0778863586089
8627.8423385
8627.89253749
8627.97160523
8628.09002328
8628.25555695
8628.47580171
8628.76150572
8629.13040764
8629.59890722
8630.19125053
8630.93213675
8631.84926372
8632.96886715
8634.30801336
8635.88921527
8637.71106691
8639.54823824
5626.97702553
218.808318786
0.0106481322053
8635.3880271
8635.4865337
8635.66362767
8635.93122631
8636.29984674
8636.78136023
8637.39233352
8638.15392687
8639.09767144
8640.25927786
8641.6812863
8643.41628844
8645.52234526
8648.05915467
8651.10736971
8654.74483824
8658.89225021
5933.10159798
311.954794455
0.109145527197
8642.84348518
8642.98728803
8643.25670654
8643.66458239
8644.22373436
8644.94972411
8645.8638567
8646.99409256
8648.38044042
8650.07203836
8652.13139781
8654.63226536
8657.6650603
8661.33774387
8665.80490399
8671.26302886
8677.92150067
6228.74816458
449.563757702
0.256060920065
8650.16165556
8650.34695578
8650.70086074
8651.2370509
8651.97028409
8652.91850965
8654.10586839
8655.57040211
8657.35661528
8659.52869675
8662.1675448
8665.36063033
8669.22952666
8673.91314798
8679.61131161
8686.61307271
8695.29525782
6479.38134816
585.863001241
0.239463690343
)
;
    }
    atmosphere
    {
        type            totalPressure;
        rho             rho;
        psi             none;
        gamma           1;
        p0              uniform 0;
        value           nonuniform List<scalar> 9(0 -3.90672822088e-05 0 0 -0.000120826300479 -0.000701574603741 -0.00741587257031 0 -0.00125483180959);
    }
    floatingObject
    {
        type            fixedFluxPressure;
        gradient        nonuniform List<scalar> 0();
        value           nonuniform List<scalar> 0();
    }
    procBoundary0to1
    {
        type            processor;
        value           nonuniform List<scalar> 10(8567.66230535 8563.95959797 8559.64663574 8554.60014601 8548.68656947 8541.74364441 8495.28629365 3834.60363525 0.130458452791 0.00639603226045);
    }
    procBoundary0to2
    {
        type            processor;
        value           nonuniform List<scalar> 
14
(
8575.92892058
8573.5909055
8570.85023078
8587.26901994
8585.90696067
8585.90696067
8597.76572149
8597.61330445
8596.10137365
8596.10137365
8604.83423821
8604.83423821
8604.48340747
8604.48340747
)
;
    }
    procBoundary0to4
    {
        type            processor;
        value           nonuniform List<scalar> 8(8657.30008711 8657.52233929 8657.95115763 8658.60101304 8659.48765015 8660.63048758 8662.057982 8663.80964646);
    }
    procBoundary0to5
    {
        type            processor;
        value           nonuniform List<scalar> 
12
(
8665.93717101
8668.53227571
8671.67307131
8675.46883524
8680.04836549
8685.57892524
8692.25525476
8700.32166813
8709.87351456
6671.64960027
687.130589656
-0.0683599093901
)
;
    }
}


// ************************************************************************* //
