/*--------------------------------*- C++ -*----------------------------------*\
| =========                 |                                                 |
| \\      /  F ield         | OpenFOAM: The Open Source CFD Toolbox           |
|  \\    /   O peration     | Version:  v2012                                 |
|   \\  /    A nd           | Website:  www.openfoam.com                      |
|    \\/     M anipulation  |                                                 |
\*---------------------------------------------------------------------------*/
FoamFile
{
    version     2.0;
    format      ascii;
    class       volVectorField;
    location    "0.2";
    object      ddt0(rho,U);
}
// * * * * * * * * * * * * * * * * * * * * * * * * * * * * * * * * * * * * * //

dimensions      [1 -2 -2 0 0 0 0];


internalField   nonuniform List<vector> 
164
(
(-693.60860693 -173.476052954 2.0972821891e-14)
(-628.807600064 -331.032532868 3.75710978188e-15)
(-597.352309524 -765.218144066 2.41855758077e-15)
(-970.961209106 -1234.5872748 7.79708739065e-16)
(-1380.93140241 -1861.34460681 1.65097731852e-16)
(-2054.27859123 -3532.03815372 5.73775795846e-16)
(-4391.6622098 -4631.24686739 -1.23194726309e-15)
(-3801.39451473 -3501.9118021 1.64138814454e-16)
(-542.74028168 -314.282721323 4.37834887726e-15)
(-270.322060288 -815.280515798 8.08846067324e-16)
(-186.634831891 -1175.29420535 6.35923094928e-16)
(-376.065826108 -1634.51436674 5.36663857821e-17)
(-197.80266637 -2663.2258458 1.01023894733e-15)
(-836.732562219 -3795.96797963 1.83971576832e-16)
(-1183.35293599 -6133.8476994 -1.30670095629e-15)
(-4338.29363162 -15422.8262599 1.62555407493e-15)
(542.830909894 -314.282545956 4.56464866208e-15)
(270.408748 -815.271691038 5.87959858597e-16)
(186.754199994 -1175.27427467 6.25584179258e-16)
(376.228260665 -1634.5005142 -1.22400649983e-16)
(197.97929079 -2663.23188736 9.16235929953e-16)
(836.867793409 -3795.99631799 -2.88103418383e-16)
(1183.40784925 -6133.87881925 6.2307562247e-15)
(4338.30971341 -15422.8896533 -2.00275707839e-15)
(693.744864435 -173.478551049 2.05817100564e-14)
(628.905752993 -331.011387144 3.62635713119e-15)
(597.451174154 -765.160261334 2.33060474755e-15)
(971.06771125 -1234.54624233 7.11321228016e-16)
(1381.0355205 -1861.37458575 1.23246400054e-16)
(2054.33642595 -3532.13936334 1.08958761194e-15)
(4391.65096926 -4631.33900343 -2.19160472042e-15)
(3801.3965659 -3501.96274591 -2.32523301783e-16)
(964.625451884 -462.270514879 3.60515904137e-15)
(1333.83192476 -711.133935025 1.10076605982e-15)
(1978.18656438 -613.816464177 3.12325839779e-16)
(3232.35251735 -1978.09318099 -1.48479131136e-16)
(6218.78692521 -477.119369907 -2.95760545997e-16)
(157.720698332 -42.9919003725 -1.34480133936e-17)
(968.974167143 -7.66600928317 -9.68687655185e-16)
(1370.22116947 -231.900006189 -2.6978274674e-16)
(1953.18773084 371.743951141 -4.98216031349e-16)
(2933.70135352 -379.329270919 2.81785646392e-16)
(-13.2459451764 2174.18322362 2.58120259492e-16)
(1.62520285294 0.31607001976 -1.53519525768e-18)
(915.226675486 339.646155878 1.30115008245e-16)
(1258.06350992 286.5074136 6.66115175763e-16)
(1816.06866341 858.662267318 -1.16686229492e-16)
(1692.8481743 1415.56541639 3.4205817028e-16)
(-1268.03157486 835.134305679 1.13777014316e-16)
(-14.5476743421 0.313257064058 9.01803899831e-18)
(701.730180502 615.871073664 8.71829403138e-19)
(927.891088213 836.691505954 3.90648253359e-16)
(1408.00483076 1567.17028275 -5.00206084374e-16)
(1684.69637258 1948.95194439 9.46184192826e-16)
(-629.451336744 326.390117026 1.96686092792e-18)
(-3.7530815316 2.28676074536 -4.37685966877e-18)
(425.648985927 742.619629119 1.34798704137e-17)
(518.499136298 1064.63943068 2.1672249837e-16)
(673.70166643 1906.4233681 -2.11999820501e-16)
(1392.86463209 2374.82837597 1.02464407756e-15)
(787.440464336 796.966760843 -4.84351770788e-17)
(-9.48858880612 3.73153061413 -2.04955199299e-18)
(143.591294512 785.221532157 6.20046168812e-19)
(111.802006776 1028.70561842 4.28251017562e-18)
(-32.6295967218 1503.02553151 -1.17431523541e-16)
(261.969715775 2237.10367468 -1.88899831358e-16)
(1417.12773389 1730.0009068 -1.10678654842e-16)
(0.130804569269 1.75415260963 9.16388454591e-20)
(-87.6058284136 720.248270941 1.08665410727e-17)
(-209.107501301 954.067646072 9.35582572502e-17)
(-424.234403046 1203.27152109 -7.56133308379e-17)
(-459.49551684 1425.35391746 1.40700248841e-16)
(1591.72720174 2245.62763888 -1.74878789882e-16)
(-1.394042262 0.423561980337 2.42366262611e-19)
(-245.932597142 611.027449111 6.83166767559e-18)
(-386.906135222 767.182404975 3.39387163387e-17)
(-647.747010398 894.171912065 -4.83560409632e-17)
(-986.111469619 758.986049396 -2.82907046782e-17)
(1070.91213638 2344.5270291 2.41535518766e-16)
(-11.940826379 -7.46322876489 9.19614018748e-19)
(-350.772363297 491.53428875 9.28895805489e-18)
(-489.518572177 577.604820981 -4.53950791191e-18)
(-712.99694119 658.659251218 -1.6168685695e-17)
(-1046.09421894 567.78310753 -3.99408382471e-17)
(95.1729753958 1516.74198996 2.78537609312e-17)
(579.107123843 710.52456362 4.07149973632e-17)
(-408.657241001 375.5899194 -9.35724152577e-18)
(-536.516338116 410.072788653 -8.63851346228e-18)
(-717.57238925 427.87942723 -3.51794087714e-18)
(-982.31677852 370.260426092 -8.01779728661e-17)
(-546.827367864 755.61137077 -2.82424085396e-16)
(479.511973294 957.757794264 -2.16302116088e-16)
(-433.455078732 270.3295705 3.19522669966e-18)
(-542.804880887 272.124150105 2.45564437124e-18)
(-682.315731572 250.322612905 6.64257480961e-18)
(-864.385067942 203.225831494 1.05403317003e-18)
(-754.013876909 303.817511226 -1.91251212034e-16)
(244.242686066 969.308153159 7.2807011599e-17)
(-434.92793102 181.053388943 -3.65182416413e-18)
(-523.590749241 164.711019633 -9.32705003957e-18)
(-627.433795942 121.900496593 4.07205627027e-18)
(-751.26161014 74.704533587 -2.14470114258e-18)
(-760.370205289 52.4347496458 -1.66559901089e-17)
(14.5523159364 815.123767502 2.57263747136e-17)
(-421.939063718 108.274134509 3.73322830472e-18)
(-491.63412723 82.5628490503 4.07482053247e-18)
(-568.27414911 33.5555542712 1.69374841251e-18)
(-654.00050905 -26.9649529595 -7.72225188936e-18)
(-706.135955837 -40.6814097497 -1.17014461005e-16)
(-97.4669179519 582.284185177 -2.65828429536e-17)
(-400.625860974 50.3791107934 4.72390239614e-19)
(-454.375422856 19.9098920174 1.54607531083e-18)
(-510.714844778 -29.4702383875 2.21424323461e-18)
(-570.949931062 -92.1938984397 6.30040813255e-19)
(-621.764692506 -133.170797814 -1.34990734887e-16)
(-130.062070336 431.912149058 1.22766487686e-17)
(-375.067368751 5.20364439247 -1.34461843266e-18)
(-415.823853292 -26.875445069 -1.85952015444e-18)
(-456.396877579 -73.6270911222 7.50497439812e-19)
(-497.376474514 -131.3616895 2.5372046387e-17)
(-527.768746661 -167.238803854 1.94826804598e-17)
(-142.123828554 293.02321359 -1.14560346466e-18)
(-347.912635709 -29.4456865967 1.55578517865e-18)
(-378.280274093 -61.1692676909 5.87904428108e-19)
(-406.875083612 -104.155310582 -3.398957206e-19)
(-433.998430146 -155.807517258 -1.40828268087e-18)
(-448.358234442 -186.150809947 -2.28428724282e-17)
(-137.932407009 192.75586476 -6.96813406527e-19)
(-320.816749557 -55.5654318535 -4.02286030564e-19)
(-343.00345542 -85.7596544379 -4.1115712014e-19)
(-362.589948782 -124.49961688 4.31195044205e-19)
(-379.688314917 -169.751462907 1.22546816976e-17)
(-383.578263053 -194.767710448 4.87690916207e-18)
(-129.243715676 119.434976487 -1.54705497777e-17)
(-294.777369115 -74.8829159626 3.79750697262e-19)
(-310.613393069 -102.932985892 -1.0728124036e-19)
(-323.525248248 -137.389827564 5.7810189288e-19)
(-333.545016901 -176.582017036 -2.1131032069e-18)
(-331.056895117 -196.960028771 -9.82299057653e-18)
(-119.857440424 64.7295118576 -3.48012424377e-18)
(-270.341777719 -88.855207932 -1.39820801696e-19)
(-281.308313625 -114.521060857 7.87016080959e-20)
(-289.343330853 -144.944916395 8.2570748325e-19)
(-294.467512051 -178.752859822 1.59572351385e-18)
(-288.258319903 -195.361262432 8.57697248846e-19)
(-110.744465809 23.5097216139 -4.87345288757e-19)
(-247.752126693 -98.6778614676 7.03603211276e-20)
(-255.022204542 -121.95211617 4.78470584092e-19)
(-259.531052874 -148.738131505 1.66134744069e-18)
(-261.311156608 -177.924023349 3.38714301261e-18)
(-253.02494088 -191.565325398 1.52882202219e-18)
(-102.165846623 -7.7121291465 -6.63340512186e-20)
(-233.522972511 -149.903323554 1.76180057521e-18)
(-233.036670141 -175.18898865 5.51632424633e-18)
(-223.676090731 -186.520282182 -7.09013021115e-18)
(-94.1902798888 -31.4155209545 -4.25012087834e-20)
(-210.77321964 -149.245968196 1.32527026424e-18)
(-208.764337428 -171.263645151 6.13272463963e-18)
(-198.94163967 -180.79776299 -1.89842427593e-18)
(-86.8219955939 -49.4038308646 -2.39674015936e-18)
(-190.790366527 -147.337897411 1.48075953053e-18)
(-187.774152107 -166.620902551 2.94485807079e-18)
(-177.865680231 -174.750245519 -5.13844911269e-18)
(-80.0371120373 -63.0088793988 2.10414213767e-19)
)
;

boundaryField
{
    back
    {
        type            calculated;
        value           uniform (0 0 0);
    }
    sides
    {
        type            calculated;
        value           nonuniform List<vector> 0();
    }
    bottom
    {
        type            calculated;
        value           nonuniform List<vector> 0();
    }
    front
    {
        type            calculated;
        value           uniform (0 0 0);
    }
    atmosphere
    {
        type            calculated;
        value           nonuniform List<vector> 
27
(
(-3801.39451473 -3501.9118021 1.64138814454e-16)
(-4338.29363162 -15422.8262599 1.62555407493e-15)
(4338.30971341 -15422.8896533 -2.00275707839e-15)
(3801.3965659 -3501.96274591 -2.32523301783e-16)
(157.720698332 -42.9919003725 -1.34480133936e-17)
(23.1574567095 1.45855196057 -2.74014889016e-19)
(-4.19566875205 0.313257064058 -1.18147620164e-19)
(-3.36379146646 2.12704896354 1.67474819493e-19)
(0 3.77738630377 0)
(0 0.878085243763 0)
(0 1.29082911652 0)
(0 0.766481011847 0)
(0 3.67263231583 0)
(0 -0.117778588858 0)
(0 -0.43420551504 0)
(0 -0.575399337176 0)
(0 -0.64838440131 0)
(0 -0.533549685239 0)
(0 -0.446310539291 0)
(0 -0.386174472974 0)
(0 -0.343820084651 0)
(0 -0.312231965673 0)
(0 -0.287263283546 0)
(0 -0.266609743226 0)
(0 -0.248964418737 0)
(0 -0.233548712254 0)
(0 -0.219870384178 0)
)
;
    }
    floatingObject
    {
        type            calculated;
        value           nonuniform List<vector> 4((0 0 0) (0 0 0) (-2.23817330393e-13 0 0) (0 0 0));
    }
    procBoundary6to3
    {
        type            processor;
        value           nonuniform List<vector> 8((-475.562255875 -397.671647446 2.55200857505e-14) (-786.063444565 -300.795295563 8.32038136679e-15) (-964.581099688 -462.294795907 3.65900288589e-15) (-1333.81409238 -711.14651232 9.63734944587e-16) (-1978.19292276 -613.762588199 1.54029555453e-16) (-3232.39177809 -1977.96097796 -1.04728776152e-16) (-6218.80258444 -477.015040246 -3.88850499417e-17) (-157.738584911 -42.9836390661 5.04428370975e-17));
    }
    procBoundary6to7
    {
        type            processor;
        value           nonuniform List<vector> 
11
(
(-336.164224102 26.8284843997 -8.52296120117e-19)
(-317.629379449 -6.23994615488 -6.45989133182e-19)
(-297.647885318 -32.186672418 -5.95694079096e-19)
(-277.379220746 -52.2021833615 4.17378350529e-20)
(-257.551028149 -67.3694886377 -1.13485330328e-19)
(-238.595490587 -78.6275272748 -1.22008448469e-19)
(-227.05832107 -105.307464269 5.48678801981e-20)
(-231.544744326 -126.314600648 1.29426515933e-19)
(-231.544744326 -126.314600648 1.29426515933e-19)
(-210.598730226 -128.426627336 1.42676931807e-19)
(-191.891124184 -128.898065362 1.12110853694e-19)
)
;
    }
    procBoundary6to8
    {
        type            processor;
        value           nonuniform List<vector> 
16
(
(475.673922587 -397.799255692 2.55657655233e-14)
(786.13463374 -300.826915349 8.34395229855e-15)
(786.13463374 -300.826915349 8.34395229855e-15)
(753.048281591 -55.602767982 -2.2279539747e-15)
(668.053248158 182.678917065 3.03702701443e-16)
(517.01673016 390.084122028 2.45085254945e-17)
(327.341400475 516.819365634 6.63043422291e-20)
(137.707334391 565.469102934 -1.11457737344e-19)
(-30.2714779678 546.672324893 7.88106327776e-19)
(-162.754274402 489.665164085 -5.82758818867e-20)
(-255.610512208 412.652657529 6.81032537017e-19)
(-314.900415487 330.735879735 -2.11201616634e-18)
(-348.233365086 251.512898865 -2.94052539675e-18)
(-361.665040105 180.317144122 9.29829688196e-20)
(-361.192134358 119.172013952 7.77095408095e-19)
(-351.51923944 68.2531866351 -2.48264041784e-18)
)
;
    }
    procBoundary6to9
    {
        type            processor;
        value           nonuniform List<vector> 4((-173.15085269 -144.584878349 4.38209778188e-19) (-169.486356019 -161.575983994 7.36321030997e-19) (-159.724047464 -168.5999995 7.93620126255e-19) (-73.7977608153 -73.2276022813 5.18207886773e-18));
    }
}


// ************************************************************************* //
