/*--------------------------------*- C++ -*----------------------------------*\
| =========                 |                                                 |
| \\      /  F ield         | OpenFOAM: The Open Source CFD Toolbox           |
|  \\    /   O peration     | Version:  v2012                                 |
|   \\  /    A nd           | Website:  www.openfoam.com                      |
|    \\/     M anipulation  |                                                 |
\*---------------------------------------------------------------------------*/
FoamFile
{
    version     2.0;
    format      ascii;
    class       volVectorField;
    location    "0.2";
    object      U;
}
// * * * * * * * * * * * * * * * * * * * * * * * * * * * * * * * * * * * * * //

dimensions      [0 1 -1 0 0 0 0];


internalField   nonuniform List<vector> 
164
(
(0.244064980374 0.223670090935 2.45894945154e-18)
(0.257935967624 0.223613349879 3.98141100886e-19)
(0.261178682004 0.339049644138 1.82751083707e-19)
(0.279477277906 0.509915434905 3.57291111737e-20)
(0.393287350582 0.63118334497 4.03938861679e-20)
(0.539612452094 0.906216561329 1.63089999173e-20)
(0.96352967623 0.98102221245 -1.39495689331e-19)
(2.51999795472 1.63045312398 -1.76055855283e-19)
(0.00722912997971 0.0694566952152 4.07406265251e-19)
(0.092475940607 0.163146939197 5.99354395409e-20)
(0.106744904768 0.33877810413 3.75907074057e-20)
(0.110978514028 0.542404792526 6.94211355362e-21)
(0.178492244331 0.759975136584 7.31332783511e-20)
(0.183388508215 1.20816989727 -4.96489223894e-20)
(0.51350071981 1.53307398219 1.03688540885e-19)
(1.33548515462 3.83832854982 1.43319722383e-20)
(-0.00722919646739 0.0694567242246 4.43028459979e-19)
(-0.0924759605489 0.163146943482 6.19289855347e-20)
(-0.106745007335 0.338778085966 4.12982880763e-20)
(-0.110978745233 0.542404799838 -2.98538838278e-21)
(-0.17849251565 0.759975289224 1.98293095425e-19)
(-0.183388635775 1.20817016103 -2.23606422689e-19)
(-0.513501224574 1.53307503078 5.72638177911e-19)
(-1.33548509333 3.83832862235 1.85385118306e-19)
(-0.244065132965 0.223670044934 2.60287663092e-18)
(-0.257936082256 0.223613280253 3.81715449767e-19)
(-0.261178800362 0.339049534371 1.81018970949e-19)
(-0.279477501493 0.509915333213 4.12538253409e-20)
(-0.393287579169 0.631183518474 8.0158367992e-20)
(-0.539612782583 0.906216816373 -8.23740783937e-21)
(-0.963529868543 0.981022668686 3.17881921876e-20)
(-2.5199958962 1.63045471954 -6.36141992715e-20)
(-0.315140846052 0.387150158656 3.0199683648e-19)
(-0.375573425456 0.462971016918 7.16561533937e-20)
(-0.492357271955 0.52934454546 1.26537517376e-20)
(-0.633852312624 0.613081721548 -2.54745439604e-20)
(-0.976199429483 0.591480149519 -1.79513362029e-19)
(-2.52302160221 0.68269537584 -3.4428758067e-19)
(-0.363760194958 0.329889370146 -6.32326842994e-20)
(-0.437107037116 0.36629856185 -2.2680767511e-20)
(-0.557032400038 0.443311610585 7.54673214156e-22)
(-0.680719833713 0.410640023214 -1.2296559725e-19)
(-0.806126336016 0.488122344646 -2.25141728315e-19)
(-3.29735215661 -0.301386779047 -2.09675491171e-19)
(-0.382000428964 0.258102509176 8.75569953003e-21)
(-0.468023228567 0.262667433213 1.32434554761e-20)
(-0.603879400343 0.333748825103 -3.47972347319e-20)
(-0.768720495701 0.204167255838 -1.35574995654e-19)
(-0.760288772354 0.397884381309 -1.14714474896e-19)
(-1.85416370089 -0.12043817866 1.62303181361e-19)
(-0.383653516452 0.181308419699 2.22190208466e-21)
(-0.470405423777 0.161479771626 1.10544664969e-20)
(-0.600080026162 0.201449513853 -5.21358842923e-20)
(-0.795994691731 0.0196908428647 -1.14661649046e-19)
(-0.860418697099 0.165195703069 -1.78001157439e-20)
(-0.843823747527 0.105639267603 -9.2654991919e-21)
(-0.369244136347 0.108846294773 1.46407586166e-21)
(-0.445319101735 0.074423072911 5.75652562356e-21)
(-0.547877137741 0.0748465783939 -3.67335458806e-20)
(-0.73727399497 -0.125417666057 -4.31555492609e-20)
(-0.843388218175 -0.171666101044 6.85909814413e-20)
(-0.660296277227 -0.293638961854 1.69419392658e-21)
(-0.344366398259 0.0475490917809 -5.3288797105e-22)
(-0.402096237719 0.0114599886402 -5.08444176597e-21)
(-0.469618360061 -0.0202554831285 7.53637448548e-21)
(-0.607610036066 -0.196684714846 4.28080340132e-20)
(-0.679570346153 -0.329693938247 7.29616224076e-20)
(-0.509439737559 -0.460114524074 5.46341459129e-20)
(-0.314205669101 -0.00139669202246 4.97613576854e-22)
(-0.35756413179 -0.0389488060381 7.53076704725e-21)
(-0.4058068461 -0.0847130712548 -1.2121725661e-20)
(-0.488571859569 -0.200528529928 -4.91794093645e-20)
(-0.524179555449 -0.351564078539 2.72782197148e-20)
(-0.476578281307 -0.426930696615 2.45740056792e-20)
(-0.280503926571 -0.0359587666421 7.44223119143e-22)
(-0.310169330313 -0.0735812642164 5.28153940958e-21)
(-0.340927324833 -0.120511344981 5.23419473265e-22)
(-0.383377721867 -0.210169460188 -3.11574735897e-21)
(-0.395268742111 -0.335246202417 8.81794008149e-21)
(-0.415620263683 -0.371162594562 7.22798304439e-21)
(-0.248159946779 -0.0609309696185 6.36839814791e-22)
(-0.267870435632 -0.0972142305072 -1.17789877917e-22)
(-0.284919114563 -0.141941551157 -3.83655942005e-22)
(-0.304566032811 -0.20506380889 3.19698508644e-21)
(-0.312266037883 -0.309294308215 -8.43503106417e-21)
(-0.411405632476 -0.349606039324 9.89751830237e-21)
(-0.217521349899 -0.0773152709421 -2.26771257653e-22)
(-0.229323297839 -0.110258978291 7.48699494482e-23)
(-0.236756168843 -0.150177185193 8.35854430173e-22)
(-0.24095955682 -0.198421608815 -1.16939978534e-22)
(-0.239486862469 -0.272739771937 6.62263702211e-22)
(-0.298447464769 -0.380719742055 9.20574075202e-20)
(-0.189867927086 -0.0872607819216 1.67675966836e-22)
(-0.195810051431 -0.116171639571 4.74947262742e-23)
(-0.19694381869 -0.15022392204 -3.91132643171e-22)
(-0.193044974373 -0.18824293321 9.24184456751e-22)
(-0.184709309039 -0.238124046341 -1.84941628148e-20)
(-0.214619143844 -0.323738020098 -5.23189643954e-20)
(-0.165439439858 -0.092376063803 1.12792274523e-23)
(-0.167228765284 -0.117212480023 6.63234294552e-23)
(-0.164455187677 -0.145545397637 7.52653162522e-22)
(-0.156732857481 -0.17602163684 2.59502524715e-21)
(-0.144908485125 -0.209511786569 1.69791364853e-21)
(-0.150081082767 -0.2739860821 4.99207304462e-20)
(-0.144222957687 -0.0940564480829 -6.8145771027e-23)
(-0.143214319471 -0.115153571504 -2.24442887334e-23)
(-0.138187400129 -0.138453257999 1.05179338728e-22)
(-0.128876376026 -0.163035312861 4.62998960225e-22)
(-0.115928604937 -0.186311774061 -4.1677389505e-21)
(-0.105110032701 -0.232124777392 -4.19163363121e-20)
(-0.125979377402 -0.0933759360049 1.10880109427e-23)
(-0.123165528293 -0.1112007441 8.01056827832e-23)
(-0.11694062649 -0.130306564826 3.59256599021e-22)
(-0.107156021308 -0.150027880335 2.40470082211e-21)
(-0.0942118376766 -0.167550338943 4.05503410327e-21)
(-0.0760898553968 -0.197775637687 -6.30300884143e-21)
(-0.110378226002 -0.0911282129649 1.20579434957e-22)
(-0.106460631387 -0.10615552279 2.62930980332e-22)
(-0.0996984393457 -0.1218409855 1.10604655595e-22)
(-0.0900245387726 -0.137656098071 6.33855770369e-22)
(-0.0777024606036 -0.151276102757 3.37314972312e-21)
(-0.0575947472133 -0.171616276607 1.72264768418e-20)
(-0.0970664902965 -0.0878865012035 -1.0032898535e-22)
(-0.0925301641343 -0.100559306257 3.39647464411e-23)
(-0.0856476121393 -0.113484600331 1.03537347035e-22)
(-0.076408249589 -0.12623883622 3.12350901432e-22)
(-0.0649704767041 -0.136994654522 1.9278735643e-22)
(-0.0453046333197 -0.15117648603 -1.18111066689e-20)
(-0.0857073092517 -0.0840556004748 9.04471293376e-23)
(-0.0808800167582 -0.0947672633424 2.13706867189e-22)
(-0.0741310158747 -0.105473834587 1.11919813679e-22)
(-0.065483565103 -0.115837406002 5.45572525002e-22)
(-0.0550317486804 -0.124449088989 3.06029362556e-21)
(-0.0367538514938 -0.134698201612 1.0065043375e-20)
(-0.075995731403 -0.0799177926404 -1.11233279388e-22)
(-0.0710950583816 -0.0890057995827 -8.71399614388e-23)
(-0.0646263340566 -0.0979312906935 1.07037604691e-22)
(-0.0566307545084 -0.106426526607 4.19200423751e-22)
(-0.0471618396987 -0.113420311133 2.5468632411e-22)
(-0.0305331225877 -0.121058006711 -7.84534426597e-21)
(-0.0676651224136 -0.0756661938387 -1.35712181833e-23)
(-0.0628321259205 -0.0834142009777 -8.54500255349e-23)
(-0.0567209995142 -0.0909088703437 6.1857931128e-23)
(-0.0493804338596 -0.0979392024728 4.09244148995e-22)
(-0.0408340093053 -0.10370050318 8.09817389482e-22)
(-0.0258281044009 -0.109534216909 -1.17498082392e-21)
(-0.0604881600248 -0.0714300769952 -6.48967987476e-24)
(-0.0558110680229 -0.0780731280788 2.61889485127e-23)
(-0.0500909236666 -0.0844152578342 1.74543528974e-22)
(-0.0433773167143 -0.0902904078816 9.6837410061e-22)
(-0.0356696769567 -0.0951015550093 3.32689511727e-21)
(-0.0221569222771 -0.0996459033417 1.539236079e-21)
(-0.0444824354756 -0.0784345922652 1.98526516316e-22)
(-0.038352858833 -0.0833920696182 1.03622505255e-21)
(-0.031396057391 -0.0874611344863 4.52660165304e-21)
(-0.0192207904641 -0.0910581605328 3.96027083914e-22)
(-0.0396972010735 -0.072938398017 1.20320452602e-22)
(-0.0341035366911 -0.0771608932858 6.31994904876e-22)
(-0.0278144326734 -0.0806428053717 3.72268918342e-21)
(-0.0168252093479 -0.0835283734636 1.01956355232e-21)
(-0.0355798757923 -0.0678928600079 1.49219513019e-22)
(-0.030474134413 -0.071521700282 7.66719610101e-22)
(-0.0247779198653 -0.0745332299818 3.04249174377e-21)
(-0.0148380009837 -0.0768750221759 -1.92293973867e-21)
)
;

boundaryField
{
    back
    {
        type            noSlip;
    }
    sides
    {
        type            noSlip;
    }
    bottom
    {
        type            noSlip;
    }
    front
    {
        type            noSlip;
    }
    atmosphere
    {
        type            pressureInletOutletVelocity;
        value           nonuniform List<vector> 
27
(
(2.51999795472 1.63045312398 -1.76055855283e-19)
(1.33548515462 3.83832854982 1.43319722383e-20)
(-1.33548509333 3.83832862235 1.85385118306e-19)
(-2.5199958962 1.63045471954 -6.36141992715e-20)
(-2.52302160221 0.68269537584 -3.4428758067e-19)
(0 -0.301386779047 0)
(0 -0.12043817866 0)
(0 0.105639267603 0)
(0 -0.293638961854 0)
(0 -0.460114524074 0)
(0 -0.426930696615 0)
(0 -0.371162594562 0)
(0 -0.349606039324 0)
(0 -0.380719742055 0)
(0 -0.323738020098 0)
(0 -0.2739860821 0)
(0 -0.232124777392 0)
(0 -0.197775637687 0)
(0 -0.171616276607 0)
(0 -0.15117648603 0)
(0 -0.134698201612 0)
(0 -0.121058006711 0)
(0 -0.109534216909 0)
(0 -0.0996459033417 0)
(0 -0.0910581605328 0)
(0 -0.0835283734636 0)
(0 -0.0768750221759 0)
)
;
    }
    floatingObject
    {
        type            movingWallVelocity;
        value           nonuniform List<vector> 4((0 0 0) (0 0 0) (-3.61762124886e-16 0 0) (0 0 0));
    }
    procBoundary6to3
    {
        type            processor;
        value           nonuniform List<vector> 8((0.242683535646 0.392419811001 4.62772571985e-18) (0.292629628846 0.352184188754 9.2648186544e-19) (0.315140708875 0.387150252123 3.01723999331e-19) (0.375573295001 0.462971049732 6.63956268009e-20) (0.492357176281 0.529344348174 3.682634114e-20) (0.633852203887 0.613081489561 -4.84926578516e-20) (0.976199135763 0.591479705927 -2.25308911085e-19) (2.52302027565 0.682695304886 -3.14524102954e-19));
    }
    procBoundary6to7
    {
        type            processor;
        value           nonuniform List<vector> 
11
(
(-0.111961227688 -0.0771423844256 4.87639303452e-23)
(-0.099609585732 -0.0758355948742 -1.84387487605e-23)
(-0.088852690975 -0.0736735337422 5.64304145261e-23)
(-0.0794866499458 -0.0709590545694 -3.15386100385e-23)
(-0.0713209765513 -0.0679126770444 1.94766287466e-23)
(-0.0641838061678 -0.0646933422131 3.25198483874e-23)
(-0.054273848521 -0.0672940005855 7.47998180592e-24)
(-0.0498049915396 -0.0730248497748 8.02735253584e-23)
(-0.0498049915396 -0.0730248497748 8.02735253584e-23)
(-0.0446311210683 -0.0682870487344 1.75962934084e-23)
(-0.0401425229936 -0.0638621812105 -4.66549525677e-24)
)
;
    }
    procBoundary6to8
    {
        type            processor;
        value           nonuniform List<vector> 
16
(
(-0.242683686074 0.392419678976 4.65623467747e-18)
(-0.292629770854 0.352184072639 9.32441126374e-19)
(-0.292629770854 0.352184072639 9.32441126374e-19)
(-0.302802964163 0.310586866434 -1.79163495396e-19)
(-0.312766375822 0.248092315192 2.16601290888e-20)
(-0.314587217642 0.18220455129 -4.6230334086e-23)
(-0.307855072673 0.121624823137 6.19745041523e-23)
(-0.293420140261 0.0689437516034 -1.7340823809e-22)
(-0.273654048648 0.0255286136569 -1.00536874513e-22)
(-0.250446515655 -0.00789968705117 -8.0424989967e-23)
(-0.22656048339 -0.033164646405 6.16191504171e-23)
(-0.202972596955 -0.0511822153479 -4.59635972719e-23)
(-0.180781965847 -0.0634223698863 -5.78220651251e-23)
(-0.160465082472 -0.0711325931008 -7.4878038554e-24)
(-0.142240176836 -0.0754190633525 -6.1451729753e-24)
(-0.126111360126 -0.0771850568276 -1.26809350773e-23)
)
;
    }
    procBoundary6to9
    {
        type            processor;
        value           nonuniform List<vector> 4((-0.0320083154447 -0.0632629930087 4.64408793645e-23) (-0.0273452911504 -0.0664082973675 3.45748786454e-22) (-0.0221762852384 -0.0690385681398 6.86601046582e-22) (-0.0131660778258 -0.0709587879483 -6.14556295179e-22));
    }
}


// ************************************************************************* //
