/*--------------------------------*- C++ -*----------------------------------*\
| =========                 |                                                 |
| \\      /  F ield         | OpenFOAM: The Open Source CFD Toolbox           |
|  \\    /   O peration     | Version:  v2012                                 |
|   \\  /    A nd           | Website:  www.openfoam.com                      |
|    \\/     M anipulation  |                                                 |
\*---------------------------------------------------------------------------*/
FoamFile
{
    version     2.0;
    format      ascii;
    class       volVectorField;
    location    "4.7";
    object      ddt0(rho,U);
}
// * * * * * * * * * * * * * * * * * * * * * * * * * * * * * * * * * * * * * //

dimensions      [1 -2 -2 0 0 0 0];


internalField   nonuniform List<vector> 
1984
(
(7.81562382232 -7.76961162842 1.09582484158e-20)
(7.79854229226 -23.1932532078 -4.54822240719e-19)
(7.94022376346 -38.5494567027 -5.87354549756e-22)
(8.1624413966 -54.2732513513 8.09985274497e-20)
(8.44867208102 -70.4215382939 1.30063919482e-19)
(8.79895251477 -87.124457258 6.01805494622e-20)
(9.22655153949 -104.545409592 1.20849891349e-19)
(9.73920254203 -122.915645568 -5.46006866792e-19)
(10.3447414368 -142.424686501 -4.24341828278e-19)
(11.0371366331 -163.566350937 -5.67299215823e-19)
(11.8613423549 -186.763996598 -6.74948909449e-21)
(12.8406882886 -212.17440858 -3.79020415559e-20)
(14.05430013 -240.178445425 4.4019949716e-20)
(15.6320000639 -271.328752841 3.01608276847e-19)
(17.5872207904 -306.040053915 3.37206403929e-19)
(20.391239619 -349.395014081 -2.10261854103e-19)
(26.5068544364 -390.945424259 -2.02565448376e-18)
(42.4342241255 -302.623010142 2.95128008557e-18)
(-60.3790369991 -52.5017482581 1.68149822418e-16)
(-4.86185549982 8.62867351363 7.94539042566e-18)
(23.18014744 -7.63743269782 2.3040444705e-20)
(23.2535437579 -22.8752376848 -1.02091794284e-19)
(23.6427557336 -38.0843169445 2.91697218473e-20)
(24.2675455756 -53.6836334953 1.47719010004e-19)
(25.1092966813 -69.6739844513 7.50653002527e-19)
(26.1802080669 -86.1953592855 2.68408176675e-19)
(27.49952304 -103.414191533 3.69748512795e-19)
(29.0872432529 -121.556116796 6.16108207799e-19)
(30.9527900187 -140.821341733 -4.18264565534e-19)
(33.1101735462 -161.681752887 3.57182065811e-19)
(35.6514451463 -184.522117593 3.18814162979e-19)
(38.6963938397 -209.460970239 8.62657945e-19)
(42.427732312 -236.783243848 2.38809637777e-19)
(47.1531267832 -266.857173456 1.06468245328e-19)
(53.1163489084 -300.171932384 -2.38349514477e-18)
(61.4801660558 -339.811688933 4.01040543501e-18)
(76.2667034427 -373.707005687 -3.05802243128e-18)
(97.7534013907 -285.948913464 -1.61573621015e-17)
(63.590771801 -63.2425218801 -3.13077913914e-17)
(-6.81896095536 -3.73055959665 -1.77426760772e-18)
(38.109606148 -7.52561088675 5.58445259892e-20)
(38.3091248328 -22.4721112413 -6.42024093467e-19)
(38.9377269579 -37.3821801606 -7.61829619765e-20)
(39.9366860234 -52.6894738167 7.38109878394e-20)
(41.3027931945 -68.3601215826 1.40791111504e-19)
(43.0575714328 -84.5392119563 8.49730187744e-20)
(45.2213100975 -101.395194992 6.78216179284e-20)
(47.8178640469 -119.163276742 -1.47821653232e-20)
(50.8862288589 -138.023651338 -4.48345717131e-20)
(54.3922808199 -158.399438518 1.73983583338e-20)
(58.5337464201 -180.637328502 5.73929196177e-20)
(63.4423155794 -204.784968702 9.79537305085e-20)
(69.402948272 -231.004778377 -3.13257359731e-20)
(76.7489205056 -259.441393374 7.42170377403e-19)
(85.7600849842 -290.092266162 -6.13491045074e-21)
(96.8576485297 -323.554028486 6.55746269899e-18)
(109.421699297 -344.281182949 3.26420952846e-17)
(92.2840716913 -247.214543223 -2.34714255222e-17)
(41.0488333265 -55.5900072698 -1.75682624963e-16)
(20.5697684703 16.9401938948 -3.56195432468e-18)
(52.7923838738 -7.36622531234 -1.06829737153e-19)
(53.1483185132 -21.9107911795 -3.98282515009e-19)
(54.0164005069 -36.400122052 -7.57185508252e-20)
(55.3848509865 -51.2883208757 2.9513964557e-20)
(57.2494704924 -66.5097663558 5.95915291598e-20)
(59.6359453042 -82.2126838104 1.88769127815e-20)
(62.5744569214 -98.5710670833 -1.49214706936e-20)
(66.1028635697 -115.789989112 -1.19187284965e-20)
(70.281021195 -134.106035815 -7.01997214997e-21)
(75.0700421633 -153.818738195 -1.73650632195e-21)
(80.6729489937 -175.193850159 2.55154623526e-20)
(87.2379340185 -198.299923667 -7.90265997037e-21)
(95.1166913746 -223.191238433 1.34476476431e-20)
(104.627865558 -249.985481833 -1.64803898023e-19)
(116.150906738 -279.178843689 8.10566065451e-19)
(129.190401157 -313.394905252 -2.54972069647e-18)
(141.26976537 -354.508647359 -1.96381297018e-18)
(79.9355115778 -300.926995974 -1.43118501892e-18)
(-30.1141402094 -89.4358078442 -1.89720116496e-17)
(12.9534013194 4.77632912037 3.472404285e-19)
(67.0015208424 -7.13748569627 1.74003668365e-19)
(67.4925913724 -21.1660633466 -6.35757630506e-19)
(68.580716263 -35.1262059451 -1.29096240671e-19)
(70.2976822516 -49.4722796615 1.22960100787e-20)
(72.6302647595 -64.1234147676 2.30967126301e-20)
(75.602394387 -79.2208479555 1.78786494332e-20)
(79.2546073442 -94.9288216435 6.90252280573e-21)
(83.637210081 -111.456069664 -1.25973658344e-20)
(88.7937059553 -129.047242989 -4.4335133178e-21)
(94.7733963321 -147.953703789 -1.15197088415e-20)
(101.722389127 -168.350368388 3.7171255251e-21)
(109.801746484 -190.200954175 -8.00216577354e-20)
(119.326950578 -213.497843899 -4.70218926825e-20)
(130.660708454 -238.279024773 -5.91873981905e-19)
(144.702969245 -264.865791194 -3.22652126926e-19)
(162.139771398 -296.643298166 -3.5743317094e-18)
(188.217468339 -355.455276213 2.92087398397e-17)
(137.598684683 -347.011878797 2.96854037079e-18)
(-39.0823564359 -123.909382105 2.30387404681e-17)
(4.58718706663 2.48524208042 -5.73519743216e-19)
(80.6215131811 -6.8400745213 6.74217184458e-20)
(81.2201909678 -20.2428824713 -1.02717887441e-19)
(82.5180098265 -33.5748468967 -8.52304409176e-20)
(84.5590195276 -47.2611367357 1.81814894996e-20)
(87.3252430034 -61.2278732163 3.53970991171e-20)
(90.8397279299 -75.605507703 9.88877369644e-21)
(95.1449185662 -90.54791527 8.01286059118e-21)
(100.293600766 -106.26065786 2.75472865127e-21)
(106.339480042 -122.98562646 -1.60516293781e-20)
(113.364921526 -140.902927062 -2.40812547885e-20)
(121.528794598 -160.152367569 4.56384023044e-21)
(130.934642207 -180.657692563 -1.02278822262e-19)
(141.792652141 -202.269118699 -8.04643229445e-20)
(154.352008525 -224.662047313 -3.99098333941e-19)
(169.366876995 -246.953128057 -1.29012089212e-19)
(187.110973318 -268.494423741 -4.64442701122e-18)
(210.406453945 -297.38712994 1.60833967706e-17)
(166.652016456 -355.069885021 4.32331335063e-17)
(28.3931312604 -178.372887086 -1.46501071456e-16)
(2.14224797845 -2.895574351 -3.28483949602e-18)
(93.549161906 -6.49336704238 4.53927518311e-20)
(94.2283664873 -19.1598701662 -1.05328433345e-19)
(95.7244932702 -31.7581501936 5.32251296521e-22)
(98.0638066392 -44.6852582141 2.272154511e-20)
(101.227273913 -57.863493974 1.76887032734e-20)
(105.240892429 -71.4141276066 2.47065291046e-20)
(110.147297999 -85.4809727522 8.40490552836e-21)
(116.004192434 -100.260557112 -5.07463484679e-21)
(122.878977436 -115.977869225 2.5509486498e-20)
(130.875434257 -132.778038888 -1.02679483106e-19)
(140.103199155 -150.794901528 -1.087607427e-20)
(150.650601383 -169.941344907 -5.2633525153e-20)
(162.5688326 -190.041572556 -5.16940741174e-20)
(175.837430766 -210.815393653 -2.85822418212e-19)
(190.599261915 -231.622873509 -1.29366179301e-18)
(206.163750805 -253.933711961 1.77602220448e-18)
(222.289500462 -297.558963317 2.87832498821e-17)
(159.210940489 -278.853943109 2.57470324785e-17)
(103.959640775 -89.8366155778 -7.95281813085e-17)
(-0.131334212652 3.73087645967 5.91726114444e-19)
(105.687009801 -6.10470901619 -5.03648815069e-20)
(106.43410495 -17.9375166641 -6.25732116742e-19)
(108.107853293 -29.7006882285 -1.14772104299e-19)
(110.718241329 -41.7764834125 1.65875873341e-20)
(114.243398861 -54.0694896762 2.66802914036e-20)
(118.710752791 -66.6944072575 7.53562175355e-21)
(124.169451772 -79.7850586177 1.48245553338e-20)
(130.679347117 -93.5214404739 -2.99667930336e-20)
(138.324824109 -108.103392014 5.24317788815e-20)
(147.21756971 -123.669778224 -1.22713387225e-20)
(157.44594847 -140.37705158 -4.17448017028e-20)
(169.072617791 -158.201564528 -1.70174620631e-19)
(181.988640934 -177.051988144 1.98430612123e-21)
(195.879938093 -196.742513066 -1.71492132405e-19)
(210.329962042 -216.551791716 -2.29125404837e-19)
(224.000955431 -235.532956614 -2.32780527071e-18)
(250.174763668 -325.314602002 4.26499159385e-17)
(189.394647855 -366.877683507 -6.16120956962e-18)
(116.70578401 -154.219493777 -2.22034900368e-18)
(1.54467680445 0.0598715567109 -1.8968609692e-20)
(116.944567283 -5.67895806498 -5.06061302325e-20)
(117.762113395 -16.5918242525 -3.74263363773e-19)
(119.589250205 -27.4258760112 -1.12531625852e-19)
(122.44059382 -38.5667694935 -1.65144563893e-20)
(126.289607492 -49.888851806 2.0598687709e-20)
(131.164409197 -61.4948742362 5.90945981134e-20)
(137.121283171 -73.5104075674 -3.63486320922e-20)
(144.230425771 -86.096079966 1.21981479587e-20)
(152.591803047 -99.4288864105 -2.09224205187e-20)
(162.329304268 -113.648677186 -8.436214023e-20)
(173.538440509 -128.943103058 6.19054937144e-20)
(186.297396695 -145.424765244 -7.36916040841e-20)
(200.449277736 -163.241367273 2.71669223148e-20)
(215.504145691 -182.605809578 -3.87412754499e-20)
(230.177523489 -203.632813487 8.7175673616e-19)
(234.173541233 -213.164461345 3.22798190748e-18)
(269.236579443 -334.846383981 -9.13046158793e-19)
(243.389979081 -363.497504486 -3.33849223497e-18)
(146.853364765 -122.636499617 -3.1777097966e-18)
(0.700435621685 -0.95182298305 -1.30221946969e-19)
(127.249116455 -5.20953630477 3.609775051e-20)
(128.143766809 -15.1296769473 -5.54395473959e-19)
(130.096880163 -24.9632816877 -1.29188776271e-19)
(133.155070374 -35.0919734616 -1.31192213825e-20)
(137.28630052 -45.3633211658 2.05960462588e-20)
(142.518807997 -55.8683841971 -7.16117635822e-22)
(148.91453006 -66.7161974869 9.18587551097e-21)
(156.558687063 -78.0449432774 -1.34443207481e-21)
(165.573002131 -90.006317402 1.66077922016e-20)
(176.097555425 -102.743709396 -5.11479710695e-20)
(188.26907936 -116.452716527 -1.53238075073e-20)
(202.248394344 -131.354651318 -1.58375934602e-19)
(218.078622466 -147.903938938 1.52093976476e-20)
(235.754499871 -167.213178521 -5.33157530225e-19)
(257.098541831 -198.000409805 -1.02134768802e-19)
(271.519399117 -194.832037207 -2.27853434842e-18)
(280.767501579 -276.45527188 2.32980117561e-17)
(304.99886848 -292.322422212 -7.32970542194e-18)
(159.361848351 -82.3365064988 1.73236011049e-17)
(0.724114307591 -0.873838372114 9.35768821513e-20)
(136.558713208 -4.69309114064 2.33813709301e-19)
(137.50257266 -13.5679594076 2.36815348744e-19)
(139.563680608 -22.3439753768 2.51084630128e-20)
(142.79407381 -31.3926714404 -8.23701099079e-21)
(147.160087845 -40.5425969103 9.2699733674e-21)
(152.691107244 -49.8713576483 -2.39873710046e-21)
(159.457351313 -59.4682901395 5.47838263761e-21)
(167.556398463 -69.440463666 2.1378673663e-21)
(177.139515456 -79.9152746505 -2.86372734313e-20)
(188.341653134 -91.023427342 -1.57274054391e-20)
(201.391284723 -102.901899956 -1.87783630891e-20)
(216.500701173 -115.719982105 -1.26564941361e-19)
(234.082796913 -129.794230924 2.13434779894e-19)
(254.512265481 -143.782030542 -8.51542318986e-19)
(279.902477354 -167.813471196 -9.09650311225e-19)
(316.559724555 -186.344070438 9.14329076394e-19)
(318.5476647 -220.405573557 2.65319435804e-18)
(335.748404926 -192.919615033 7.15391931015e-18)
(143.0046424 -39.5013805223 -2.4872398691e-19)
(0.540793717037 -0.211710311465 4.78998857982e-20)
(144.819466133 -4.16176767693 9.14831063509e-20)
(145.792544583 -11.9361709527 -3.84508000278e-19)
(147.938910109 -19.5907181057 -6.3874764623e-20)
(151.303242067 -27.5106758286 -1.68725315077e-20)
(155.846843448 -35.4832142735 3.33890874197e-21)
(161.607470173 -43.5742774183 1.38469172945e-20)
(168.663308983 -51.8515120108 -2.65125305305e-20)
(177.111279316 -60.3818123807 -6.20770488366e-20)
(187.170275312 -69.2755943301 -2.3021600794e-20)
(198.871491532 -78.5919179815 -7.61064109258e-20)
(212.65186331 -88.4178831835 1.26664260154e-20)
(228.543383678 -98.7702779268 -1.50809924267e-19)
(247.066074054 -109.91440997 -3.43946052032e-20)
(268.792595446 -121.634470188 -1.09597861366e-18)
(293.397736682 -135.397904392 -3.11268011111e-19)
(331.249020707 -147.717145403 -2.70362327091e-18)
(358.872946787 -153.737036463 3.46800695659e-18)
(340.623061311 -121.853301194 5.5836836659e-18)
(108.855310774 -16.2762357721 -2.45263256519e-18)
(0.505900191577 -0.133712692174 1.60524660547e-21)
(151.985889408 -3.60700965706 8.56422353252e-20)
(152.981192742 -10.2438360813 -5.99132123459e-19)
(155.181081299 -16.7420631549 -1.30406837868e-19)
(158.635619251 -23.4967935688 -3.85979964585e-20)
(163.29908901 -30.254201603 -2.6043727976e-20)
(169.210723359 -37.061849912 -1.80741105184e-20)
(176.472279328 -43.9748963409 -2.20183936958e-20)
(185.085146239 -50.9645603495 -1.14203097548e-20)
(195.635217195 -58.2136926795 -6.68813527363e-20)
(207.62957487 -65.6257389613 -2.81460708472e-20)
(221.653021706 -73.3258063172 -1.23261518082e-20)
(237.922428736 -81.4013389949 -1.88939769527e-19)
(256.704507911 -89.5546116536 5.96445374936e-21)
(278.596461148 -97.697816869 -1.14392420905e-18)
(303.995015339 -104.7510581 2.64451943555e-18)
(334.800470064 -110.739004959 2.79437044094e-18)
(358.784143983 -103.762389138 3.76312711131e-17)
(323.200828333 -73.6915395626 1.1582559465e-17)
(90.4226093668 -2.8209893794 -3.9216615912e-18)
(0.53496523051 -0.104609826658 -2.35541615238e-20)
(158.031717623 -3.0453450055 1.09787045773e-19)
(159.031558158 -8.51981153306 -1.01492926533e-19)
(161.265150862 -13.8357770572 -6.50227601793e-20)
(164.76628461 -19.4042884702 -5.43542871931e-20)
(169.487747329 -24.9258923134 -1.51688408515e-20)
(175.449488006 -30.411546863 -3.11399059735e-20)
(182.922625173 -35.9909364708 -2.64945823825e-20)
(191.708676364 -41.2483534558 3.60757597809e-20)
(202.118889756 -46.7850896977 -4.7271482947e-20)
(214.311552557 -52.6555850517 -1.83844033433e-20)
(228.343871661 -58.2277030433 3.19239372864e-21)
(244.68536801 -63.8310710122 -7.33855806222e-20)
(263.457000649 -69.2701992953 2.54991227119e-19)
(284.900612201 -74.5189458877 -6.86519521853e-19)
(309.086455154 -78.7176698177 -1.02677492154e-18)
(334.954820944 -84.2932199094 1.18178903823e-18)
(352.874885323 -82.7426190843 -1.52231731779e-17)
(309.670397087 -67.6367636683 8.73353026177e-18)
(70.1543149691 -1.30082076669 -4.09133685864e-18)
(0.564792967115 0.0625333611337 -2.64652018532e-20)
(162.950175881 -2.47761426667 1.8809208725e-20)
(163.920965453 -6.77700526484 -8.94120779023e-20)
(166.181527277 -10.9011540905 1.31441539201e-20)
(169.68617437 -15.2860674843 -1.85105811695e-20)
(174.422658867 -19.5864256116 2.85148784116e-20)
(180.428262176 -23.6307598553 2.08110469736e-21)
(187.789206746 -27.7197603649 -1.46889402865e-20)
(196.663951281 -31.7880191316 3.05581471223e-20)
(206.768644098 -35.6600563832 7.83033939074e-21)
(218.930995389 -39.4867813211 -5.6519666487e-20)
(232.935284293 -43.0643436179 1.56026181562e-20)
(249.087662332 -46.3992523943 -1.20720071498e-19)
(267.555705915 -49.3744345193 -4.24832019353e-21)
(288.585064579 -52.1600199747 -5.36116412047e-19)
(312.345608755 -54.3647407495 -3.93169926854e-19)
(338.71322225 -59.0910446224 6.26540661964e-18)
(359.964713204 -67.5694771529 1.34214271764e-17)
(316.152258821 -63.4546816781 1.54444359978e-18)
(51.7745926982 -6.07338196322 -3.06101499969e-18)
(0.56312969319 -0.110175008106 -4.19410053397e-21)
(166.744348019 -1.94017350705 1.7106970574e-19)
(167.660578416 -5.04703760861 1.4356130147e-19)
(169.925414811 -7.95664121573 5.55896355125e-20)
(173.388972426 -11.1657839099 1.14474463336e-20)
(178.057732911 -14.1815677662 9.5600721747e-21)
(184.005571953 -17.0248982144 -1.60766766272e-20)
(191.112140282 -19.7376148013 -7.11057348004e-21)
(199.78191707 -22.2708531271 -1.15370678761e-22)
(209.893071954 -24.5454932777 -1.21196491543e-20)
(221.730830166 -26.5443801017 -5.66019322253e-20)
(235.399052543 -28.1417541052 3.80472836695e-20)
(251.110912078 -29.2707443345 -3.95853239896e-20)
(269.09289912 -29.7758711818 7.14836623402e-20)
(289.670932931 -29.7654050636 -1.26316468327e-19)
(313.397337514 -28.5502163706 1.15262622011e-19)
(341.521783002 -28.8004411668 6.50222211178e-18)
(368.620060019 -30.9696418624 -9.33731345728e-18)
(325.635026593 -31.0876297642 -1.39314680311e-18)
(42.704502811 -0.361161977949 5.15489571537e-18)
(0.535730372387 -0.0717774324118 2.61370526032e-20)
(169.375062578 -1.42426638216 1.82549614245e-19)
(170.374124594 -3.34191111768 6.59530033902e-20)
(172.481605155 -5.04480689402 3.61162964471e-20)
(175.837840576 -7.14267646987 9.51266972746e-21)
(180.380633784 -8.94754175083 5.16330566236e-21)
(186.125560789 -10.5312992031 -1.64937881868e-20)
(193.108539325 -11.9019123911 -1.20841487748e-20)
(201.474773663 -12.9853032256 -1.30723637391e-20)
(211.287593812 -13.7054268847 4.13168513237e-23)
(222.681357937 -13.9817445356 -3.54671631709e-21)
(235.804443518 -13.6821875661 -1.59007662715e-20)
(250.823464112 -12.6827439437 -3.46671375136e-20)
(267.978237789 -10.7475969445 -1.29182282775e-19)
(287.570879077 -7.8125188543 -7.38791764654e-19)
(310.240747474 -2.6225300087 -6.5666782718e-19)
(337.279705835 3.38461314754 -1.84313525339e-18)
(367.96236887 9.43309944695 -7.79319203871e-18)
(316.692771029 -0.709328368817 8.08695262087e-19)
(31.9527949771 2.85922585468 3.3593051844e-19)
(0.511351489725 0.10101522744 -1.94544898443e-20)
(170.856578196 -0.792479378015 8.13917001062e-20)
(172.031245528 -1.66718415536 -4.12911355104e-20)
(173.893830307 -2.35678145514 -3.09471496376e-21)
(177.106210682 -3.26337052126 1.1496478249e-21)
(181.481930315 -3.88753190655 1.32639216672e-20)
(187.003436682 -4.27145757634 8.07486365457e-21)
(193.712639336 -4.35743497036 2.2715695592e-21)
(201.707180946 -4.06320749779 2.58239376134e-21)
(211.052063453 -3.30280930062 -6.73079638279e-21)
(221.863208911 -1.96973347967 1.18613070632e-21)
(234.254332413 0.0825664819483 -9.36022248647e-21)
(248.351574874 3.03401161761 5.48126954347e-20)
(264.313809489 7.15320338879 -1.70929552327e-19)
(282.281724437 12.6992324172 -6.71389958952e-19)
(302.628842869 20.97692215 -1.4482576311e-19)
(325.065621366 33.6187795706 3.24176245179e-20)
(355.470640479 50.2046023504 1.89446961895e-18)
(299.794800923 27.6094843591 7.27458557622e-18)
(21.8115788795 4.19267568674 5.62783349977e-18)
(0.482632185375 0.189439452015 8.20283367144e-20)
(171.379622036 -0.0936401194039 -1.07431871687e-20)
(172.450870311 -0.0237680418486 -1.24700963856e-19)
(174.237724222 0.16262278586 -4.64478300868e-20)
(177.293325165 0.427545018737 -3.54420596884e-20)
(181.430668938 0.914868746901 5.01391868831e-21)
(186.664839158 1.66874769275 3.98826207095e-21)
(193.017112685 2.78372396675 -1.67299564532e-21)
(200.534919325 4.36153601136 -2.44280020041e-21)
(209.302793423 6.48843545389 9.73862783356e-21)
(219.403398236 9.28694033601 -4.8594368476e-21)
(230.916505316 12.9072981588 -2.56198551305e-20)
(243.940973937 17.5412538275 -7.01612871788e-20)
(258.523264611 23.412303019 -1.84018736797e-19)
(274.630508921 30.7796689278 -6.05649201173e-19)
(292.167388201 39.7945367018 1.17264568117e-18)
(307.455684605 57.2634643393 7.95424787719e-19)
(326.928793568 88.8965436387 -8.12321029825e-18)
(278.200454926 54.560049521 1.00735372209e-17)
(15.2352770923 4.33573023473 9.25898915339e-19)
(0.462710702755 0.305931091781 3.91142660244e-20)
(170.962839904 0.431697776071 -8.4438811946e-21)
(171.806535524 1.46332202573 -8.65963226215e-20)
(173.553459763 2.60479612501 1.13205634675e-20)
(176.420056694 3.87870717191 -2.15508333857e-20)
(180.299588092 5.39487028493 4.01702447086e-21)
(185.183028847 7.23598566805 2.28624126314e-20)
(191.098712305 9.4726399394 1.00928465136e-20)
(198.081385717 12.2217361703 -1.33574753683e-20)
(206.191865965 15.5906209807 4.13317470562e-20)
(215.48904735 19.6875988611 7.09952973537e-20)
(226.028055512 24.6920485395 -6.6264612248e-20)
(237.894202188 30.7716297376 6.63373444855e-20)
(251.115384615 38.0496066187 -3.91161687791e-19)
(265.698790422 46.5810585066 -4.38871774664e-19)
(281.594694018 53.1041755928 -1.11222411696e-18)
(292.968639917 67.3921207424 -2.70667536568e-18)
(307.525883842 125.50444137 -1.72998294088e-17)
(248.072496928 85.1895553471 -5.43524999171e-18)
(10.3758584232 2.79275331053 1.05430226128e-19)
(0.401282480419 0.40731394404 -1.01466583707e-19)
(169.552551444 0.908617651448 7.70531985903e-20)
(170.292746226 2.84569486699 1.43282108933e-20)
(171.909997792 4.88643759839 2.07159083078e-20)
(174.564523964 7.10190455749 -1.21034150165e-20)
(178.154273588 9.58052723814 1.93591351528e-20)
(182.649065891 12.3987042981 5.69954575666e-21)
(188.078885874 15.6561966569 4.91391772676e-21)
(194.47694519 19.4605199258 9.3946808486e-22)
(201.863991129 23.9189628931 2.28759250357e-22)
(210.287790385 29.1634046681 4.48682687963e-20)
(219.801950732 35.3782954916 -3.17057436581e-20)
(230.433833613 42.743389407 -3.58896853554e-20)
(242.246555025 51.3920149916 -2.63730147802e-19)
(255.489405198 61.4272063903 -2.36087435602e-19)
(270.377184302 66.2301418654 2.05543691049e-22)
(280.967303458 80.7441181429 2.21766220814e-19)
(299.072497004 146.681672756 5.05244194084e-18)
(211.997982611 96.5277431247 -1.07838003018e-17)
(8.04183030397 2.18526020917 -2.59397129644e-19)
(0.373290526034 0.416015829347 -3.1039311282e-20)
(167.26303076 1.34087216332 1.03543007819e-19)
(167.910457103 4.11911829518 3.17908491798e-20)
(169.379288813 7.00000225157 -3.35687038688e-21)
(171.803949748 10.0709636164 -1.08500082855e-20)
(175.074576808 13.4213374998 -8.71845880243e-21)
(179.164933791 17.1254990722 3.17925098046e-20)
(184.090284625 21.2804970004 -9.31480961369e-23)
(189.857973137 26.0050069016 -1.74751329072e-20)
(196.481475503 31.4187344675 8.99758427233e-21)
(203.983579869 37.6616827238 -6.95053491724e-21)
(212.390026902 44.8978320361 -8.31966475535e-20)
(221.659492856 53.3169440874 7.16261776187e-20)
(231.990571353 63.2399101267 -1.68990619029e-19)
(243.620691011 74.8191524258 -1.45295052633e-19)
(256.423199603 77.7340812867 -8.45596952957e-19)
(264.628732353 93.2845918046 -1.81663191449e-18)
(280.080516412 151.759469972 2.07543530596e-18)
(182.55944987 90.159720235 2.76957026399e-18)
(6.97347668238 1.1292866214 2.70380478841e-19)
(0.404877523553 0.0205969303615 -2.27011111645e-19)
(164.16268524 1.72954507069 8.37938278373e-20)
(164.727667029 5.273408375 2.52556131025e-20)
(166.032037133 8.9201167322 -6.79227264476e-20)
(168.224311586 12.7640164462 -2.21602966278e-20)
(171.173622919 16.8968951931 1.32303681273e-20)
(174.850393514 21.386424731 5.3313997513e-21)
(179.251251535 26.3304588711 3.26027292286e-20)
(184.37489733 31.8450442256 3.39165583587e-20)
(190.210100909 38.0564078744 1.35724455263e-20)
(196.752752914 45.1036716429 6.40696655131e-20)
(203.972916319 53.1121219494 -1.0748834684e-20)
(211.846531439 62.4339690116 8.71724242369e-20)
(220.49152563 73.439992237 -2.44638072098e-20)
(229.969750059 85.9090750571 -7.09683328388e-20)
(239.225668536 86.4624946925 -6.994070663e-19)
(246.142228044 103.18740182 -4.54703130472e-19)
(254.379635349 160.546638724 -1.49545431135e-17)
(149.314710778 92.3572061277 5.75195593315e-19)
(2.35082322815 0.623728571881 -4.09879037133e-20)
(0.163478928447 0.159879777615 6.34919379723e-21)
(160.334469055 2.08418722805 6.65630991336e-20)
(160.814028906 6.3108277005 -1.00135031836e-20)
(161.958435977 10.6418154001 -2.36228815423e-20)
(163.916903804 15.1768413026 -2.74790138574e-20)
(166.546165561 19.9947567508 4.78868504848e-21)
(169.8095509 25.1751217246 3.1351593675e-22)
(173.689643876 30.8062145132 1.68803479141e-21)
(178.171108508 36.9842213907 6.64779791222e-21)
(183.225322587 43.8282228944 6.60435739017e-20)
(188.804406414 51.4648171838 3.65878159723e-21)
(194.846957224 60.0476403423 3.92262487506e-20)
(201.328373497 69.9105100722 9.0630506274e-20)
(208.053222528 81.4128093023 -6.37994120979e-20)
(214.940851815 93.5340708009 -1.39654208145e-19)
(221.085636107 93.373449704 5.64668117356e-19)
(227.848625669 109.636541725 -5.59024108802e-18)
(231.643843172 165.960107153 4.94081198806e-20)
(118.59694533 98.9685354109 -5.64812915692e-18)
(0.518892775185 0.433577359339 -1.08998621276e-19)
(-0.0425200033262 0.332440280067 1.56147348551e-19)
(155.85407304 2.39194417878 2.35877251885e-20)
(156.251863802 7.22863953529 2.27016239354e-20)
(157.243520966 12.1712383877 -3.61597204574e-21)
(158.966027066 17.3123210937 3.79726833649e-22)
(161.280261573 22.7323036454 -5.24330174664e-22)
(164.137385612 28.5060791312 2.06823025816e-21)
(167.517347914 34.7121554494 3.32233485014e-20)
(171.393428148 41.4305150057 -1.33731278993e-20)
(175.715108739 48.7510537983 4.37723214865e-21)
(180.401072765 56.783671327 2.94458162728e-20)
(185.357451865 65.692553378 -7.62242248749e-20)
(190.444058109 75.6958489929 1.43443528857e-19)
(195.330402858 87.0620563158 -5.75989232733e-20)
(199.610896275 98.8632204921 -7.46503544047e-20)
(202.977962764 99.2211594824 2.40219897405e-19)
(211.374456346 117.465750737 -1.33700637898e-18)
(210.333102669 165.409992968 -7.74704849762e-18)
(100.947871263 95.9679174951 5.66363842571e-18)
(0.321158219353 0.303683170116 -1.66358285679e-19)
(-0.0621060788212 0.228649541677 -2.12238129341e-20)
(150.793310391 2.66779453769 3.70501715684e-20)
(151.123811865 8.0386277053 -2.42568526975e-20)
(151.963197968 13.5063324695 9.97231709311e-21)
(153.460113175 19.1735251902 -2.35079642978e-21)
(155.470349849 25.1066348248 -8.81934193409e-21)
(157.94077157 31.3729931669 -1.43531191443e-21)
(160.847191868 38.0438415121 4.53738551069e-22)
(164.160618355 45.1889827898 9.29837163575e-22)
(167.820774352 52.869905878 1.59098415877e-20)
(171.729833269 61.1578914611 3.20284233262e-21)
(175.766847339 70.146321781 -1.52938616722e-20)
(179.725908748 79.9279551723 1.83493247789e-20)
(183.269912223 90.562260071 -1.51034317611e-19)
(185.795685236 101.051726998 -2.25919427849e-19)
(186.8351902 105.269778887 6.61652007719e-19)
(194.010327967 123.332724406 -1.62922527364e-18)
(184.182127326 160.606883344 4.55276151176e-18)
(89.6130730105 89.7204603419 2.55242836414e-19)
(0.294687459134 0.185265109561 -4.50144141939e-20)
(-0.0461034508655 0.278094616955 -6.42694191041e-20)
(145.235862058 2.91373464002 -2.20911766284e-20)
(145.496168443 8.74782000156 6.74491089815e-20)
(146.190586494 14.6612526359 1.91259379233e-20)
(147.472642 20.77837219 9.03433005743e-21)
(149.196279534 27.1465444776 1.13187993283e-20)
(151.305003472 33.8253593226 2.67982484756e-20)
(153.772657691 40.8787083171 3.41412450415e-20)
(156.572544983 48.3646693333 4.34337364496e-22)
(159.65553046 56.3197124732 8.51431280723e-21)
(162.930493926 64.7708693067 2.3643721904e-20)
(166.275786127 73.7461951729 9.01713792933e-21)
(169.533310112 83.2380632419 3.3047970858e-20)
(172.461847496 93.0958827903 -9.00576576076e-20)
(174.621949126 102.254888831 4.1988429147e-20)
(175.854103654 107.805809187 -6.72979092209e-19)
(179.387011464 121.634374759 -1.01562988276e-18)
(170.85565986 155.596239009 -1.07801244925e-17)
(83.5863742456 87.9537110133 2.83424059885e-19)
(0.242059564263 0.144326434125 -4.85616562645e-21)
(-0.0260606235958 0.19257847911 -6.55984946365e-20)
(139.250412716 3.12819800355 2.10139895555e-20)
(139.440352902 9.35464916272 4.56969799615e-20)
(139.995689979 15.6418711487 -5.6091211598e-21)
(141.071932402 22.1400384436 3.16327015041e-22)
(142.524087594 28.8751688076 5.9500769318e-21)
(144.2948406 35.9014458811 9.41858494931e-21)
(146.359739908 43.2761256136 2.49222663244e-21)
(148.697835508 51.0442042153 1.97538608303e-21)
(151.275266562 59.2277691374 2.4849115e-20)
(154.035954607 67.8303665591 2.5449123312e-20)
(156.903218301 76.8246523425 6.08260108704e-21)
(159.777407226 86.1534346952 -3.33074694466e-20)
(162.577009829 95.5961207539 -1.29755021564e-19)
(165.207587585 104.220339418 2.45736010987e-20)
(167.993061105 110.510756541 3.14921394216e-19)
(171.931224513 124.236959329 3.22504328522e-22)
(172.264471087 151.133911502 -8.2320471549e-18)
(81.887850114 82.6892570568 2.58427179807e-18)
(0.184540121362 0.124967575952 -8.32420545355e-21)
(0.0157150845192 0.128109637348 1.21315318129e-20)
(132.904478968 3.30879817589 -3.35443740506e-20)
(133.02480789 9.86264834878 2.90276275278e-21)
(133.448928969 16.4565721997 -8.7492354248e-21)
(134.329147779 23.2709247599 -1.21124425185e-20)
(135.523828769 30.3095153958 7.7819344534e-21)
(136.976723096 37.6225796828 1.81267425031e-21)
(138.667823392 45.2629326214 5.61769842039e-21)
(140.583571277 53.2657553112 5.31326399758e-21)
(142.706600314 61.6458742667 -5.10803824866e-22)
(145.020401616 70.4133545985 2.86449015652e-21)
(147.508644008 79.5327507467 2.02686941729e-21)
(150.145777277 88.9397668208 -6.5219127e-20)
(152.994326733 98.437826005 -2.18820428727e-19)
(156.2786683 107.332929358 6.16140198666e-20)
(160.518965193 115.114657599 -7.77064697237e-19)
(165.708067523 131.858968407 -2.48888787311e-18)
(170.280611713 150.281312073 -4.52087195195e-18)
(81.6085589255 77.7115182935 -1.71044490968e-18)
(0.169878884948 0.141103399209 1.91278127422e-20)
(0.00820584327196 0.126486002715 -6.76125833434e-21)
(126.265517622 3.45445727203 -2.0722208003e-20)
(126.311039029 10.2738937659 1.83175480671e-19)
(126.6124481 17.1134065943 -1.62235006741e-20)
(127.307208946 24.1823049298 -2.26675710881e-20)
(128.256329848 31.4649183354 1.60831412155e-21)
(129.406643409 39.0094278859 5.22076475626e-21)
(130.7427135 46.8675099498 8.04761984614e-21)
(132.259671169 55.0761996455 -1.37256901793e-21)
(133.957510462 63.6555922792 7.75956583712e-21)
(135.843766339 72.6227887406 2.75005896662e-21)
(137.950371621 81.9616051368 1.14670977711e-20)
(140.338481513 91.6479646267 -8.99025202884e-20)
(143.188245292 101.558883455 -1.64327950848e-19)
(146.907046506 111.252580052 5.15547124433e-19)
(151.965077244 120.717200172 4.82056895052e-20)
(157.456404393 140.161835147 3.76008401468e-18)