/*--------------------------------*- C++ -*----------------------------------*\
| =========                 |                                                 |
| \\      /  F ield         | OpenFOAM: The Open Source CFD Toolbox           |
|  \\    /   O peration     | Version:  v2012                                 |
|   \\  /    A nd           | Website:  www.openfoam.com                      |
|    \\/     M anipulation  |                                                 |
\*---------------------------------------------------------------------------*/
FoamFile
{
    version     2.0;
    format      ascii;
    class       surfaceVectorField;
    location    "4.7";
    object      ddtCorrDdt0(Uf);
}
// * * * * * * * * * * * * * * * * * * * * * * * * * * * * * * * * * * * * * //

dimensions      [0 1 -2 0 0 0 0];


internalField   nonuniform List<vector> 
3840
(
(0.00782116425296 -0.01540820109 -2.22340349073e-22)
(0.0154758634923 -0.00771741522698 1.70218187944e-23)
(0.00788357935569 -0.0308230448867 -2.28124543978e-22)
(0.0155097295234 -0.0230757875824 -2.78972046282e-22)
(0.00806586335121 -0.0464012630303 4.02772101495e-23)
(0.0157259604451 -0.0383860141879 1.4306582854e-23)
(0.00832055645154 -0.0623260270246 1.05738288359e-22)
(0.0161467677724 -0.0540758744458 1.14570463576e-22)
(0.0086394046975 -0.0787428619018 9.53260706089e-23)
(0.0167169869659 -0.0701742773767 4.41177938591e-22)
(0.00902907237088 -0.0957837081538 9.07130887977e-23)
(0.0174553183531 -0.0868166149815 1.64628409747e-22)
(0.00950006757681 -0.113634159869 -2.12947161798e-22)
(0.0183553190337 -0.104168068121 2.45773312109e-22)
(0.0100602058176 -0.13257440603 -4.8606678099e-22)
(0.0194394099185 -0.122457339937 3.51184896194e-23)
(0.0107103244247 -0.152700442868 -4.96729650905e-22)
(0.0207307288036 -0.141880277139 -4.22082727742e-22)
(0.0114699179044 -0.174899224627 -2.87533101932e-22)
(0.0222116950482 -0.162918307217 -1.05242733278e-22)
(0.0123732706794 -0.199147475161 -2.23595850479e-23)
(0.0239438994241 -0.185978263626 1.56319693502e-22)
(0.0134717071082 -0.225782578241 3.05812013618e-24)
(0.0260481942267 -0.211198553606 4.13120877527e-22)
(0.0148698624887 -0.255228980594 1.73041889003e-22)
(0.0286642763444 -0.238912248748 1.41650568983e-22)
(0.0166394693265 -0.288115885879 3.19749904658e-22)
(0.0320346634701 -0.269579703884 2.04252213764e-22)
(0.0190234004352 -0.325252089842 6.32892231489e-23)
(0.0363581998243 -0.303653192276 -1.02538016293e-21)
(0.0234913755775 -0.369028287361 -1.1201131658e-21)
(0.0431997641844 -0.34522384053 1.90301118645e-21)
(0.037450791327 -0.427003752921 4.92762882221e-22)
(0.0576912941506 -0.383015600062 -2.54640538508e-21)
(0.121346224794 -0.539480305341 9.03734809431e-20)
(0.11240127768 -0.326795196395 -5.97483974105e-21)
(0.421664247323 -0.959709438555 7.48121314007e-19)
(0.420624868574 -0.389940313462 4.51148528767e-20)
(10.6715469954 -12.0122211074 2.41130486781e-18)
(0.0232587143151 -0.0151791742686 -3.96098784146e-23)
(0.0307285501919 -0.00759519288896 3.95030050081e-23)
(0.023490444856 -0.0304157383442 -3.65409194509e-23)
(0.0308503823334 -0.0227145616704 -3.72745205773e-22)
(0.0239983783265 -0.0458796025023 8.85998362804e-23)
(0.0313551858303 -0.0378013169955 -2.35641051287e-23)
(0.0247329984098 -0.0616622732246 4.50010113808e-22)
(0.0321749196659 -0.0532825497938 1.10964281968e-22)
(0.0256910991669 -0.0779080338444 5.10480277729e-22)
(0.0332864614919 -0.0691416978801 4.46544054709e-22)
(0.0268884322227 -0.0947532346125 3.19688633058e-22)
(0.0347157284526 -0.0855216197484 1.77038401057e-22)
(0.0283446287697 -0.112394080812 4.93838963526e-22)
(0.0364813043289 -0.102590002318 2.19204511169e-22)
(0.0300744894124 -0.13108698973 9.91025428672e-23)
(0.0386087164067 -0.120577610434 3.01212656633e-22)
(0.0320895484966 -0.150972220321 -3.0595810115e-23)
(0.0410957080696 -0.1396757407 -2.31971367402e-22)
(0.0344428971007 -0.172851922547 3.38610062156e-22)
(0.0439847937095 -0.160330481595 1.87630761204e-22)
(0.0372409751123 -0.196697365001 5.91800156077e-22)
(0.0473733201229 -0.182909479601 1.88435996563e-22)
(0.0406352278711 -0.222769339357 5.51713326374e-22)
(0.0514408059716 -0.207497244955 4.8116643333e-22)
(0.0448711736106 -0.251384039764 1.72860893744e-22)
(0.0564373107519 -0.234317263738 1.03895333173e-22)
(0.0502249478608 -0.282945833595 -1.14087785383e-21)
(0.0627378873106 -0.26362553975 4.24880478094e-22)
(0.0574012580302 -0.318167276764 8.14341800373e-22)
(0.0708373853686 -0.295665074255 -1.19721223957e-21)
(0.0689975822663 -0.357904044032 4.76718967173e-22)
(0.0824154848842 -0.33228029864 5.29287159453e-21)
(0.0923172161748 -0.402028825162 -9.01400800836e-21)
(0.101565733855 -0.35964103873 1.4818611363e-20)
(0.297830138685 -0.427883659044 -5.12334678075e-20)
(0.138168486411 -0.292617388701 -1.75575597942e-20)
(18.8351751128 -0.553018549444 1.70829840668e-18)
(0.546822373349 -0.299955715157 -2.30123008893e-19)
(44.1472539526 -3.11903343007 1.2853313245e-18)
(0.0382782603925 -0.0148628217767 -2.93632322351e-22)
(0.0456438983954 -0.00745934169714 -2.55461490094e-23)
(0.0386930840124 -0.0298572668215 -3.59768391451e-22)
(0.0459279331528 -0.022231460727 -5.21104564217e-22)
(0.0395083629798 -0.0450393140351 -1.19965944102e-24)
(0.0466851059644 -0.0369576856172 -7.61043619488e-23)
(0.0406930721502 -0.0605149488546 1.07498222869e-22)
(0.0478822202884 -0.0520827081238 5.17474365052e-23)
(0.0422563967155 -0.076426787893 1.13102178037e-22)
(0.0495089261694 -0.0675566949761 1.00378321905e-22)
(0.0442192656833 -0.0929192670034 7.65542791682e-23)
(0.0515986244573 -0.0835266026301 5.20316561928e-23)
(0.0466037643609 -0.110187796459 2.65782042758e-23)
(0.0541757762415 -0.100163904927 2.65090070229e-23)
(0.0494415309946 -0.128508946644 -2.98612536362e-23)
(0.0572602896406 -0.117689087695 -1.33722485109e-23)
(0.0527347509453 -0.147959242712 -1.37447960831e-23)
(0.0609317923075 -0.136311700955 -2.59748446147e-23)
(0.0565651166206 -0.16930925497 3.74566956114e-23)
(0.0651028235233 -0.156392678585 7.84396399688e-24)
(0.0610980226088 -0.192484522318 7.78022738159e-23)
(0.0700591158206 -0.178237939986 4.15207675005e-23)
(0.0665424053238 -0.217656427783 3.33484401282e-23)
(0.0759005415631 -0.201907274709 4.50955283766e-23)
(0.0732077348239 -0.24499678463 3.55914917522e-22)
(0.0829485863423 -0.22750916412 -8.99372271578e-24)
(0.081400864806 -0.274671128585 3.68546092354e-22)
(0.0915978215683 -0.255174351044 2.89024226685e-22)
(0.0914731071786 -0.306499242255 3.28131755459e-21)
(0.101990063879 -0.285149749727 4.02889249732e-22)
(0.103325312458 -0.337831894246 1.96347639903e-20)
(0.113283228745 -0.319048465312 2.00725014365e-21)
(0.106566633676 -0.357206364431 6.27505957713e-21)
(0.120716143856 -0.350023873785 1.53666099835e-20)
(0.172868343601 -0.299641322725 -1.96447100879e-19)
(0.08053797931 -0.296807156718 -1.00141332473e-20)
(18.1045955386 0.231098522065 -6.53090091069e-19)
(0.0174450593372 -0.328469388408 -2.07717171546e-19)
(20.2185831678 8.47943525787 -2.97579544249e-19)
(0.0530658403476 -0.0144870590718 -2.53018390876e-22)
(0.0601468341414 -0.00726492619186 3.36468150474e-23)
(0.0536789743313 -0.0290904296131 -2.37440534715e-22)
(0.060576320257 -0.0215772513071 -5.1795754241e-22)
(0.0547992981944 -0.0438564725432 -2.31572660026e-23)
(0.061562689507 -0.0358276482242 -1.0260466849e-22)
(0.0564188039479 -0.0588968643562 4.46275355411e-23)
(0.0631198726633 -0.05047118152 2.09318734806e-23)
(0.0585482550607 -0.0743433308861 3.93078000603e-23)
(0.0652313820029 -0.0654344757549 4.14161992138e-23)
(0.0612156288206 -0.090351911387 1.98638404749e-24)
(0.0679326929437 -0.0808625293441 1.84134221764e-23)
(0.0644549648292 -0.107109796335 -1.34414457638e-23)
(0.0712567388127 -0.0969247397704 -4.01412624475e-24)
(0.0683153744072 -0.124841946002 -9.48583948946e-24)
(0.0752610830705 -0.113828302953 -1.2279548477e-23)
(0.0728074891713 -0.143802250916 -4.38608453467e-24)
(0.0799823695933 -0.131814744968 -5.73713309652e-24)
(0.0780129326475 -0.164331600745 1.19080358859e-23)
(0.0854468403353 -0.151160592166 -6.63967344713e-24)
(0.0841075452146 -0.186615211834 8.81402206114e-24)
(0.091763343684 -0.172084432899 1.46378515492e-23)
(0.0913421024072 -0.210616333727 2.75336553257e-24)
(0.0991828452874 -0.194603535965 -4.40508631916e-23)
(0.100052374571 -0.236503174102 -7.5884413553e-23)
(0.108041672015 -0.218739917941 -1.68594560923e-23)
(0.110588087696 -0.264379318683 3.23367384063e-22)
(0.118721491508 -0.244573697332 -3.79152818809e-22)
(0.122891252041 -0.294833490639 -8.7117816121e-22)
(0.131828226359 -0.27251364607 2.44279673065e-22)
(0.135473085641 -0.32951144836 -2.26090386323e-21)
(0.147537146188 -0.30556911696 -3.06760326672e-21)
(0.116209380666 -0.374518701607 -9.22582840996e-22)
(0.165514076352 -0.355620649721 1.36467046101e-20)
(0.0221754492234 -0.395520330165 -2.12842039143e-20)
(0.101475496565 -0.346347744933 2.16051407997e-21)
(6.34853262838 -0.255496498185 1.47793375273e-19)
(-0.121293443704 -0.437001067918 3.29980747685e-20)
(11.7998757128 3.76852022054 -1.35140514684e-19)
(0.067368254645 -0.0139925946624 -2.31292336487e-22)
(0.0741130987409 -0.00700137374516 1.20935060069e-22)
(0.0681593014175 -0.0280851520677 -3.83121676185e-22)
(0.074670415394 -0.0207417868649 -3.69901167737e-22)
(0.0695644238838 -0.0423190765314 -5.85155290067e-23)
(0.0758654327437 -0.0344124498354 -1.07363079294e-22)
(0.0715929141522 -0.0568026820749 1.77205371534e-23)
(0.0777583262277 -0.0484539335899 1.52573704831e-23)
(0.0742501293025 -0.0716639784702 2.05218213299e-23)
(0.080324696957 -0.062788727601 2.92949351663e-23)
(0.0775683416545 -0.0870485231815 1.24129118842e-23)
(0.0835908552302 -0.07755292042 1.39074604699e-23)
(0.0815930128835 -0.103131461717 -2.85222895794e-24)
(0.0875985958265 -0.0929058160441 7.47134747128e-24)
(0.0863711644809 -0.12015884904 -8.5308420841e-24)
(0.0923999824192 -0.109054926765 -4.93020538821e-24)
(0.0919497237516 -0.138375878627 -7.99072200899e-24)
(0.0980359042905 -0.126244096931 -1.02610619906e-23)
(0.0984262486531 -0.158043430523 -3.90985778385e-24)
(0.10458476033 -0.144690429618 -1.78321068509e-23)
(0.105954212396 -0.17925520157 -3.82270337035e-23)
(0.112231761023 -0.164550350443 4.14433784079e-24)
(0.114771828389 -0.201837516626 -6.36636848165e-23)
(0.121055684068 -0.18576709724 -9.13243697448e-23)
(0.125219256493 -0.225977039907 -3.20127861348e-22)
(0.131428983318 -0.208259985103 -6.39077417131e-23)
(0.137929816789 -0.251639525814 -4.58240529806e-22)
(0.143679570434 -0.231889155216 -4.96550122954e-22)
(0.15369746219 -0.279472505191 -1.95214543245e-21)
(0.159083208512 -0.256371906701 -2.26408080468e-22)
(0.175493369044 -0.31180626428 1.28400052066e-20)
(0.179463799491 -0.283078569896 -4.11704189612e-21)
(0.169125421246 -0.362199957575 1.67298015311e-20)
(0.215697794002 -0.327008694284 2.2686404289e-20)
(0.0325268501069 -0.478669763488 5.64427927627e-20)
(0.217874651041 -0.376861181396 2.54900414086e-20)
(3.39704809879 -0.615086050141 -2.49935815188e-19)
(0.0160896349442 -0.544199180612 -1.57253785742e-19)
(5.34208767044 3.05194035023 -1.64020256485e-19)
(0.0810666667282 -0.013389650833 -1.76737711806e-23)
(0.087435741921 -0.00667873175355 5.65172831364e-23)
(0.0820166524449 -0.0268432969223 -9.4142570845e-23)
(0.0880843963987 -0.0197368776996 -1.04203084399e-22)
(0.0836891298328 -0.0404371278855 -3.35901798037e-23)
(0.0894868962259 -0.0327253765373 -4.24267438594e-23)
(0.0860971525881 -0.0542559428509 2.68317684961e-23)
(0.0916899820579 -0.0460560894271 2.04827094675e-23)
(0.089243254792 -0.0684177663446 2.26805743063e-23)
(0.0946738010228 -0.0596530949682 2.65866362041e-23)
(0.0931602080901 -0.0830606198423 8.96589605697e-24)
(0.0984587715189 -0.0736424806645 1.73272510082e-23)
(0.0978956945935 -0.0983538134794 5.39337104101e-24)
(0.103095649933 -0.0881733144989 8.22339358367e-24)
(0.103503100882 -0.114544296181 -6.66042529471e-24)
(0.108630573097 -0.103447052569 -1.16204816765e-24)
(0.11005088715 -0.131870640706 -2.01024468325e-23)
(0.115130970635 -0.119697680524 4.73720776612e-24)
(0.117659947229 -0.150454407584 -9.77791122627e-24)
(0.122691714992 -0.137088537222 -6.34948818647e-23)
(0.126461141385 -0.170458168299 -4.89529982005e-23)
(0.131448247883 -0.155756781748 -3.16568865022e-24)
(0.13661074037 -0.191571782415 -9.15684266414e-23)
(0.141488545332 -0.175618751205 -7.76096573212e-23)
(0.148339623172 -0.213822493567 -2.40330003319e-22)
(0.152966395349 -0.19651084147 -6.62524965858e-23)
(0.162151226738 -0.236789353807 -2.64717673616e-22)
(0.165976764365 -0.218132780118 -3.4324586741e-22)
(0.178559868236 -0.259095053687 -2.39130454414e-21)
(0.180829449955 -0.239720482395 -7.12789002098e-22)
(0.199116130782 -0.276424485117 5.72935718628e-21)
(0.196388309755 -0.261685258284 -1.43734060635e-21)
(0.195564890504 -0.268880943515 3.14466441666e-20)
(0.207936038092 -0.298008893117 2.24733374885e-20)
(0.13388593985 -0.201314285539 -1.88206537096e-19)
(0.15023386813 -0.345183737429 3.75327036228e-20)
(1.24361652864 -0.545199487312 -7.13382270386e-20)
(0.361067297057 -0.469609431483 -3.50911618636e-19)
(-2.4289447438 1.33770652102 2.23406677863e-19)
(0.0940579236804 -0.0126786961976 -3.00120300819e-23)
(0.100013326786 -0.00631038516066 -2.47829304771e-24)
(0.0951475807592 -0.025399543432 -5.24872574133e-23)
(0.1007316237 -0.0185821157357 -3.66177612524e-22)
(0.0970688161106 -0.038245057298 1.16461454118e-23)
(0.102325485093 -0.0307848012978 -5.72205351457e-23)
(0.0998252467688 -0.0512916923817 2.02375771755e-23)
(0.1048132008 -0.0433088097426 1.96865470005e-23)
(0.103420355916 -0.0646452573728 2.12333129061e-23)
(0.108176599547 -0.0560674339922 2.22211913745e-23)
(0.107888487326 -0.0784427544497 1.65847485349e-23)
(0.11244150789 -0.0691788726151 1.61487240675e-23)
(0.113279900575 -0.0928343590117 1.66797437501e-24)
(0.117650858545 -0.0827821618155 1.16353074819e-23)
(0.119657358064 -0.108059963059 1.02355848932e-23)
(0.123865856437 -0.0970659815481 -1.75523781129e-23)
(0.127106756838 -0.124333853623 -3.8655227266e-23)
(0.131166858528 -0.112243258077 3.90408078143e-23)
(0.135735215862 -0.141734728058 -5.68826592886e-23)
(0.139651425702 -0.128456393749 -5.75797522236e-23)
(0.145641141025 -0.160454563706 -3.1822347771e-23)
(0.149419819728 -0.145851375568 -2.63622851697e-23)
(0.156893590769 -0.180136771234 -5.22937272656e-23)
(0.160538965104 -0.164369983242 -1.11621569978e-22)
(0.169508897223 -0.200803720976 -1.69168360677e-22)
(0.172965334029 -0.183879688001 -2.49491359345e-23)
(0.183548831005 -0.221998235744 -7.91317195892e-22)
(0.186534339433 -0.2041480604 -2.29200874242e-22)
(0.198738749642 -0.242883019742 2.41174935697e-22)
(0.201170790487 -0.224492286607 -7.62853948752e-22)
(0.214612265077 -0.263476456436 1.53066396959e-20)
(0.216579833005 -0.245174656108 -2.76890041055e-22)
(0.198714031137 -0.292367294891 2.85593969448e-20)
(0.236611852793 -0.311998128263 3.57806347665e-20)
(0.272105603599 -0.341994731993 -1.25172377917e-19)
(0.199799115219 -0.352318096359 1.07107450459e-20)
(-1.1753246974 -0.289567812692 -5.61667137348e-20)
(0.308091100759 -0.464659681157 -1.4601387658e-19)
(1.16715411326 -0.466605695004 8.55633083356e-20)
(0.106251636465 -0.0118651298692 -3.3864387549e-22)
(0.111752877433 -0.00590244675201 -5.05618285431e-23)
(0.107464275009 -0.0237646426508 -3.70910890256e-22)
(0.112533581977 -0.0172957801206 -5.00885217926e-22)
(0.10961026819 -0.0357671325593 -4.9180133557e-23)
(0.114295802466 -0.0286147611609 -1.13852017001e-22)
(0.112683659505 -0.0479460019426 2.16701611994e-23)
(0.117040919791 -0.0402440502206 3.46384585554e-26)
(0.11668722741 -0.0603965156872 1.7136602536e-23)
(0.120747150123 -0.0520729199446 2.3679528815e-23)
(0.121659299866 -0.0732424503458 1.11992830145e-23)
(0.125445235948 -0.0642102911706 3.33738494345e-23)
(0.127654506793 -0.086628710324 -7.58504500594e-24)
(0.131179343129 -0.0767860847785 -1.07820827929e-23)
(0.13474520324 -0.100774683039 1.12528448083e-23)
(0.138022083203 -0.0899710015748 -8.9003954381e-24)
(0.143029703558 -0.115857495433 2.01162828568e-23)
(0.146063062964 -0.103953941629 1.57832021585e-23)
(0.152608583137 -0.131979546321 -2.70593781047e-23)
(0.155412962939 -0.118874457685 -4.84047428564e-23)
(0.163556192043 -0.14935806354 -1.06161507377e-22)
(0.166167131565 -0.134905839568 1.00959312373e-23)
(0.175848889228 -0.167734186205 -8.42769786473e-23)
(0.178358662426 -0.152089139681 -1.22166560836e-22)
(0.189276086815 -0.187192266269 -8.49816495002e-23)
(0.191818859082 -0.170455056605 1.45672137868e-23)
(0.203471539532 -0.207317127049 -2.00737627102e-22)
(0.206069924322 -0.19001782465 -1.05381721276e-22)
(0.217556521768 -0.226941681163 -1.2809189255e-21)
(0.220282611158 -0.210471992273 3.21843847718e-22)
(0.237514620931 -0.242877095625 2.01971050295e-20)
(0.232131859114 -0.224753206591 4.50779481054e-22)
(0.228074324135 -0.269947423897 1.79319828676e-20)
(0.2634802145 -0.330675576573 2.09058435719e-20)
(0.325983802677 -0.280140600565 -1.01307536164e-20)
(0.209934143743 -0.397045347302 -5.33393432057e-21)
(1.46963423823 -0.522613341583 -4.28385450934e-21)
(0.551371985505 -0.563192086856 -1.43495303142e-20)
(1.22241173738 -0.301599245891 -3.11163728131e-20)
(0.11756477163 -0.0109537354207 -2.12803170979e-22)
(0.122567242478 -0.00545405477379 -7.25470190257e-24)
(0.118889538284 -0.0219541213497 -2.43826344671e-22)
(0.123423022166 -0.0158893339831 -4.65154332573e-22)
(0.121233065981 -0.0330315577329 -6.46372449858e-23)
(0.125325239877 -0.0262417944422 -1.21072775148e-22)
(0.12458938078 -0.0442561291266 2.04400607411e-24)
(0.128294940793 -0.0368957768624 -1.48443634252e-23)
(0.12895926444 -0.0557154912217 3.99167757136e-23)
(0.13230528919 -0.0477119915822 2.06326382246e-23)
(0.134384987073 -0.0675153894091 1.13924836271e-23)
(0.137384929627 -0.0587875166229 2.9240898434e-23)
(0.140929948881 -0.0797953274122 -1.20974332251e-23)
(0.143592871419 -0.0702398738432 -1.36064017662e-23)
(0.148679549731 -0.0927401040747 -4.37003808782e-24)
(0.151003697823 -0.0822188139531 5.43664066654e-24)
(0.157745849173 -0.106524671005 -5.27378235546e-23)
(0.159734185978 -0.0948891140522 -2.161186865e-24)
(0.168239309412 -0.121255676894 -1.12494335143e-23)
(0.169903939822 -0.108392417571 -6.78780728389e-23)
(0.180245217752 -0.137196741562 -5.90912222168e-24)
(0.181634070431 -0.122921694558 2.33317105414e-23)
(0.193723491656 -0.154315821781 -2.33223684021e-23)
(0.195018125018 -0.138640893143 -1.16252059034e-22)
(0.208352638721 -0.172943769059 -5.83285798887e-24)
(0.209926779671 -0.15585401296 2.12048546596e-23)
(0.223243195967 -0.193239812383 4.17199753545e-22)
(0.225846380102 -0.175225935701 -2.86500600215e-22)
(0.232593831772 -0.214441346317 2.05354225428e-21)
(0.241024981145 -0.201179283142 3.85442893295e-22)
(0.252158308466 -0.219863071054 1.1595180234e-21)
(0.237210318196 -0.204365994653 4.75578693236e-22)
(0.266961965142 -0.232262989282 -2.36007361635e-21)
(0.275705572652 -0.306201954032 1.12125038495e-20)
(0.444862359299 -0.340040257479 -9.5527110184e-21)
(0.317666279927 -0.359058144596 -6.07444064799e-21)
(0.496292539872 -0.521126925061 -4.1182048618e-20)
(0.7324100342 -0.470504564473 2.28759290124e-20)
(0.623045205292 -0.498620030368 7.16006669687e-21)
(0.127926536782 -0.00997245638434 -2.59605863497e-22)
(0.132396674681 -0.00496023480746 1.35205698075e-22)
(0.129353035255 -0.0199942326719 -3.4240076305e-22)
(0.13332991212 -0.0143746821818 -1.59067586976e-22)
(0.131863281934 -0.0300686258788 -7.12798935872e-23)
(0.135343736426 -0.0236962730909 -5.21295919573e-23)
(0.135464574165 -0.0402617737283 3.74426872538e-24)
(0.138504348767 -0.0333022707884 -1.06974690521e-23)
(0.140155001139 -0.0506468084844 9.95676094513e-24)
(0.142772969799 -0.0430304466329 1.49587756462e-23)
(0.145979732959 -0.061317812846 4.24201304074e-24)
(0.148181589711 -0.0529652867192 -1.56087829494e-24)
(0.153012557648 -0.0723902426944 3.92767212538e-24)
(0.154796349452 -0.063206155322 7.34520477666e-24)
(0.161357268179 -0.0840287991871 7.64549188936e-24)
(0.162708545648 -0.0738759837527 3.97452798992e-25)
(0.171144826599 -0.096370143178 -1.73014361493e-23)
(0.172054254989 -0.0851145867254 -6.02558032561e-24)
(0.182514320435 -0.109576428819 -3.32969287832e-23)
(0.182980152047 -0.0970590500557 -3.34982952771e-23)
(0.195613281214 -0.123878975044 -8.70112262706e-23)
(0.195644298813 -0.109876557675 -1.70829343524e-23)
(0.210543399674 -0.139493017647 -7.1724835972e-23)
(0.21028239728 -0.123760903613 -1.42733653903e-22)
(0.22732589407 -0.157095858489 -2.59462887566e-22)
(0.22711109012 -0.1390997069 1.14512566618e-22)
(0.246870663061 -0.178316396922 -3.18257460464e-22)
(0.246636347394 -0.155778249356 -6.93619308944e-22)
(0.264784831652 -0.212066700163 -1.19252066774e-21)
(0.274389348346 -0.183236779124 -5.06862054135e-22)
(0.276640560404 -0.282374711141 1.05285645193e-20)
(0.307230911995 -0.190931629849 -6.83312516261e-22)
(0.308642830898 -0.293608691963 7.49813681786e-21)
(0.286798234255 -0.248878408623 1.29988283989e-20)
(0.551391110754 -0.336040401927 2.63541993828e-20)
(0.360061625971 -0.270464945932 -9.51434943075e-22)
(0.766818150805 -0.43417442513 7.12180443272e-20)
(0.830375150607 -0.336151871438 2.31168831899e-20)
(-0.0254356654457 -0.33347751804 4.98058442905e-20)
(0.137277610407 -0.00895992629097 2.35743974596e-22)
(0.141218615592 -0.00443540857352 1.62944132291e-22)
(0.138782861854 -0.0179117074883 1.31203584117e-22)
(0.142170515991 -0.0127750571947 -7.39730258834e-23)
(0.141433460402 -0.0269125302128 8.45283257777e-24)
(0.144286615245 -0.0210051583969 -1.94144472668e-23)
(0.145238612975 -0.0360077615974 5.17037868734e-25)
(0.147606672456 -0.0295047988274 -1.25771604405e-23)
(0.150196185773 -0.0452466779793 3.44113640611e-24)
(0.152080157259 -0.0380814942591 6.31507809353e-24)
(0.156356048516 -0.0547087076258 1.54231344098e-24)
(0.157755969791 -0.0468071621325 5.73403868251e-24)
(0.163802332628 -0.0644887628991 3.81498545027e-24)
(0.164702042487 -0.0557604112494 -1.05361701764e-23)
(0.172659705123 -0.0747061181872 -1.3273619416e-23)
(0.173022245394 -0.0650284379751 -3.00236168476e-23)
(0.18307125729 -0.0854981142245 -2.22224394535e-23)
(0.182886943507 -0.0747302503792 -2.58759842324e-23)
(0.195219209869 -0.0969558232837 -1.72843008463e-23)
(0.194413010959 -0.0849608973473 -4.59997174619e-23)
(0.209323770218 -0.109347019458 -7.28053619844e-23)
(0.207892254647 -0.0958328221378 -3.0615687366e-24)
(0.225697998118 -0.122841873518 4.3503748687e-23)
(0.223532988815 -0.107438628922 -1.38940846401e-22)
(0.244737485042 -0.137984811742 -3.1964385476e-22)
(0.241940044062 -0.120070258581 8.9671715321e-23)
(0.267688344127 -0.155048977554 -8.82223902615e-22)
(0.26336658251 -0.132947305398 -9.75527070608e-22)
(0.298767300309 -0.167482594555 2.3460973485e-24)
(0.286519319861 -0.15187871292 -6.11606493609e-22)
(0.318124843109 -0.188015058557 1.78695136327e-21)
(0.327537900332 -0.167332105682 -8.96398528554e-22)
(0.346005349968 -0.254626966994 4.54925663794e-21)
(0.35330160763 -0.187408674141 3.06616077776e-21)
(0.570070024726 -0.283922430413 -4.18875113595e-21)
(0.38933342269 -0.180769684463 5.09257805779e-21)
(0.114307945123 -0.163074005262 1.70468315322e-21)
(0.709588516378 -0.20754470535 -2.57736898766e-20)
(-0.200457038776 -0.119911012255 5.05413284612e-21)
(0.145567958658 -0.00785218326952 -1.46772868188e-22)
(0.14894469761 -0.00389139126978 8.8724059283e-23)
(0.147130557382 -0.015718945818 -2.24591057268e-22)
(0.149935520469 -0.0111100049784 -4.92702544172e-22)
(0.149890957033 -0.0236057620131 -4.04444402851e-23)
(0.152117658072 -0.0181991616214 -9.73126885663e-23)
(0.153852149843 -0.0315433029371 -6.77912021575e-24)
(0.155544513579 -0.0255497546244 -2.77848659576e-23)
(0.159013700609 -0.0395798186404 8.60798036992e-24)
(0.160171365091 -0.0329280315511 -1.13733857891e-23)
(0.165433646376 -0.047765652503 -6.34444493487e-24)
(0.166037683558 -0.0403908613977 -2.11767039261e-24)
(0.173199674313 -0.0561770817953 -4.43747724742e-23)
(0.173229175052 -0.0479997221121 -2.43093698763e-23)
(0.182469804874 -0.0648849500243 -4.2625981664e-23)
(0.181836024524 -0.0557737085807 -3.6814917764e-23)
(0.193369308209 -0.0740360404163 -4.96532622408e-23)
(0.192129007548 -0.0638596264217 -4.50323288851e-23)
(0.206132977663 -0.0836466337715 -3.17769853522e-23)
(0.204055549623 -0.0722387910237 -5.22200393863e-23)
(0.220995312024 -0.0939568580212 -6.91970531535e-23)
(0.218180852509 -0.0810175415399 1.70958748184e-25)
(0.238232752068 -0.104946374841 -9.27728797673e-23)
(0.234369140963 -0.0902479053426 -1.70181864412e-22)
(0.25839316438 -0.116293287536 -5.66211500527e-22)
(0.253068847227 -0.099913770145 -1.42450619684e-23)
(0.281600480812 -0.128350039849 -7.04909661602e-22)
(0.275181376494 -0.109863233341 -1.12197133681e-21)
(0.312884635325 -0.143277555074 -1.51035111951e-21)
(0.301223210552 -0.120290326677 1.16869515901e-21)
(0.345682525494 -0.151882846302 3.82810885929e-22)
(0.335977433433 -0.129461607486 4.51723065883e-23)
(0.37445874059 -0.163983643744 3.60948219761e-21)
(0.365325626716 -0.128981881532 2.05869109865e-20)
(0.54698644618 -0.163475262724 -1.64923606829e-20)
(0.388806741372 -0.116933891734 7.59936222656e-21)
(0.385862212089 -0.165137110622 -2.24242401837e-20)
(0.711308978112 -0.10940361838 -3.56149658749e-20)
(0.262917417777 -0.159490778622 -1.49111579302e-20)
(0.152758521573 -0.00673704668201 -2.57205616701e-22)
(0.15557237264 -0.00333217572709 9.78906441565e-23)
(0.154359074008 -0.0134571997528 -3.65424175471e-22)
(0.156567312575 -0.00939875027504 -3.50942172216e-22)
(0.157191484122 -0.0201817735063 -8.46531142387e-23)
(0.158791605859 -0.0153165108724 -9.78890399423e-23)
(0.161257912178 -0.026928418293 -3.23791315309e-23)
(0.162286704391 -0.021489262058 -4.65596285269e-23)
(0.166555107317 -0.0337233513147 -2.20990365516e-23)
(0.167007461295 -0.0276398619451 -2.06437353742e-23)
(0.173153639155 -0.0405884836484 -2.0082595334e-23)
(0.172981473294 -0.0337976124308 -2.46515841665e-23)
(0.181105087843 -0.0475978371442 -1.67495151661e-23)
(0.180337501961 -0.0400550884902 -2.43003101755e-23)
(0.190703595141 -0.0546401609884 -3.92212649851e-23)
(0.188985071521 -0.0461896228288 1.23500639965e-23)
(0.201995755566 -0.0622410942105 -4.75991060306e-23)
(0.199827498428 -0.0525939450541 -5.71790473816e-23)
(0.21502772196 -0.0700561683437 -2.0272095286e-23)
(0.211940047187 -0.059247008062 -2.33069020469e-23)
(0.23020084842 -0.0777280424012 -1.0081385251e-22)
(0.22589150702 -0.065894839972 -4.57442618293e-24)
(0.247757327728 -0.0857427725184 -9.16540466131e-23)
(0.242296571358 -0.0727464070944 -1.31398502799e-22)
(0.268130406344 -0.0940312344512 -5.70004898255e-22)
(0.26121561708 -0.0795546045694 1.30708436875e-22)
(0.291818059203 -0.101991886445 7.51633483795e-22)
(0.282977246266 -0.0862625846517 -9.16864533822e-22)
(0.319972052518 -0.108719198325 2.72421858511e-21)
(0.307795650427 -0.0918988053708 8.10306955946e-22)
(0.347417951271 -0.107711116823 2.02492724072e-20)
(0.334855161204 -0.0976918602027 1.99140462254e-21)
(0.370428909698 -0.0961100811792 2.45767910154e-20)
(0.353674303755 -0.0934206323595 1.1224368598e-20)
(0.54719843925 -0.0815797486528 -1.15232429655e-20)
(0.374267555501 -0.0885322344046 1.06832298943e-20)
(0.59601219407 -0.136111557519 -2.81018836214e-20)
(0.765532388426 -0.0747463244133 -2.55707173705e-20)
(0.532585926691 -0.062547590626 -2.42538660378e-20)
(0.158817633216 -0.00557303737097 4.15408864158e-24)
(0.161055597875 -0.00276646128836 6.44110718802e-23)
(0.160437349567 -0.0111303712108 -8.34070366879e-23)
(0.162052035492 -0.00766221188695 -9.56253164224e-23)
(0.163309982299 -0.0166857331839 -5.97955542305e-23)
(0.164303732743 -0.0123907937462 -2.59858593854e-23)
(0.167428797206 -0.0222279026453 -3.48242323703e-23)
(0.167821623555 -0.0173764969727 -3.64980793896e-23)
(0.1727800665 -0.0277540574903 -2.31962829891e-23)
(0.172563031813 -0.0222963569922 6.68502245288e-24)
(0.17950955388 -0.0332433552348 -2.88692990079e-23)
(0.178530578727 -0.027069946844 -1.4555651008e-23)
(0.187653642231 -0.0389698109913 4.79926898709e-24)
(0.186142951335 -0.0319128457642 -2.06289056103e-23)
(0.197268608169 -0.0449884828832 -5.60771839998e-24)
(0.195093566219 -0.0365840222901 3.3377101041e-23)
(0.208589637976 -0.0501653603685 -3.2886843398e-23)
(0.205101055976 -0.0412967037729 -1.97559777366e-23)
(0.221724797332 -0.0555810888655 -7.60923294388e-24)
(0.21741876118 -0.0461538178368 -3.75192099633e-23)
(0.236938053831 -0.0611790600868 -3.51590764719e-23)
(0.231556843759 -0.0507365560859 9.41480144486e-24)
(0.254525246316 -0.0668116716326 9.09639806886e-23)
(0.247881730184 -0.0552135653298 -9.72260470794e-23)
(0.274668395733 -0.0722497704945 -2.16151198693e-22)
(0.266564638783 -0.0594280720562 1.25594293829e-22)
(0.297524128947 -0.0771430605868 -8.58191061671e-22)
(0.287760233577 -0.0634524463313 -6.12408715733e-22)
(0.322599975535 -0.0808572717653 7.74929933825e-23)
(0.311406313775 -0.0666601210595 -7.11252403584e-22)
(0.344535635578 -0.0825189262539 -7.03349918659e-21)
(0.336438739691 -0.0718205812667 3.72987850327e-21)
(0.363200586746 -0.0829319067788 -2.66919252314e-21)
(0.354054496686 -0.0752915911736 -9.02484891347e-22)
(0.5332934 -0.0804735748527 -3.3642445108e-21)
(0.371802831851 -0.0851089490119 5.42874554221e-21)
(0.650283688703 0.0140868263802 -2.1722699787e-20)
(0.670918857088 -0.115062323276 -2.46589612292e-20)
(0.599295472169 -0.0333479769954 -1.56928381653e-20)
(0.163730492072 -0.00443882856325 -3.53683331838e-23)
(0.165425137195 -0.00221287928041 9.51063852064e-23)
(0.165349174435 -0.00880425812594 -3.82041391199e-23)
(0.166361651476 -0.00592269256543 2.71212645396e-23)
(0.168237064707 -0.0131729486582 -2.68838454453e-24)
(0.168638192415 -0.00944592214924 3.44281244022e-23)
(0.172365170376 -0.0175006427557 5.01117543352e-24)
(0.172141638661 -0.0132498179342 -3.53808236757e-24)
(0.17774596518 -0.0218032902954 1.5325654434e-23)
(0.176885319987 -0.0169145146456 1.9071873073e-23)
(0.184441232902 -0.0261799377087 -6.31525761035e-24)
(0.182948992241 -0.0203645790141 -7.01043151494e-24)
(0.192573411663 -0.0300551195108 7.94892644366e-24)