/*--------------------------------*- C++ -*----------------------------------*\
| =========                 |                                                 |
| \\      /  F ield         | OpenFOAM: The Open Source CFD Toolbox           |
|  \\    /   O peration     | Version:  v2012                                 |
|   \\  /    A nd           | Website:  www.openfoam.com                      |
|    \\/     M anipulation  |                                                 |
\*---------------------------------------------------------------------------*/
FoamFile
{
    version     2.0;
    format      ascii;
    class       volScalarField;
    location    "4.7";
    object      rAU;
}
// * * * * * * * * * * * * * * * * * * * * * * * * * * * * * * * * * * * * * //

dimensions      [-1 3 1 0 0 0 0];


internalField   nonuniform List<scalar> 
1984
(
1.66188840144e-05
1.65770412111e-05
1.6571168961e-05
1.65696229922e-05
1.6568237208e-05
1.65672206859e-05
1.6566433789e-05
1.65655864419e-05
1.65644856889e-05
1.65631004784e-05
1.65613401335e-05
1.65588842182e-05
1.65547836827e-05
1.65513406709e-05
1.65313370202e-05
1.65281650772e-05
1.64770660598e-05
1.70098409612e-05
4.50778776076e-05
0.00445056172416
1.65747459946e-05
1.65003997787e-05
1.64887177168e-05
1.64862335204e-05
1.64847019437e-05
1.64834600344e-05
1.64823978718e-05
1.64813003592e-05
1.64800525246e-05
1.6478391497e-05
1.6476261234e-05
1.64734027102e-05
1.6468558322e-05
1.64614847392e-05
1.64377286463e-05
1.64170855392e-05
1.63392245019e-05
1.67299681586e-05
4.94227775123e-05
0.00417657695459
1.6569066522e-05
1.64870912958e-05
1.64741078959e-05
1.64714050209e-05
1.64698031333e-05
1.64685912092e-05
1.64675531211e-05
1.64665125947e-05
1.64653509909e-05
1.64638338373e-05
1.64616088843e-05
1.64585593695e-05
1.64536033237e-05
1.64453965396e-05
1.64227636007e-05
1.63950216503e-05
1.63145492023e-05
1.67764496704e-05
5.3712542719e-05
0.0052951047543
1.65680112917e-05
1.64843278701e-05
1.64707417594e-05
1.64680140277e-05
1.64664180044e-05
1.6465333298e-05
1.64644542653e-05
1.64635202787e-05
1.64625483682e-05
1.64613465577e-05
1.64594331509e-05
1.64564196537e-05
1.64512379445e-05
1.64420370404e-05
1.64213332657e-05
1.63862231122e-05
1.62979967527e-05
1.68837601113e-05
5.43386669523e-05
0.00562792103872
1.65673844807e-05
1.64830579585e-05
1.64692992175e-05
1.64665601807e-05
1.64649591641e-05
1.64640916619e-05
1.64634100079e-05
1.64626355976e-05
1.646171407e-05
1.64607213241e-05
1.645915691e-05
1.64565621509e-05
1.64516761554e-05
1.64420479858e-05
1.64223739533e-05
1.63784636432e-05
1.62923106765e-05
1.70098730295e-05
5.40690541678e-05
0.0060491612212
1.65665655252e-05
1.64821348075e-05
1.64684006429e-05
1.64656650648e-05
1.6464103219e-05
1.64635539407e-05
1.64630551799e-05
1.6462440811e-05
1.64617018049e-05
1.64607919147e-05
1.64594896826e-05
1.64572655995e-05
1.64530188498e-05
1.64445772332e-05
1.64275479327e-05
1.63856002439e-05
1.63211385229e-05
1.74609787033e-05
5.38141178072e-05
0.00598208352887
1.65655302325e-05
1.64812472782e-05
1.64678722354e-05
1.64651021035e-05
1.64635729001e-05
1.64633988793e-05
1.64630341331e-05
1.64625444525e-05
1.64619757581e-05
1.64612169314e-05
1.64602134169e-05
1.64582901445e-05
1.6454748169e-05
1.6447627416e-05
1.643223421e-05
1.63899885813e-05
1.63343012486e-05
1.76916401378e-05
5.8743836136e-05
0.00654744718744
1.65641518553e-05
1.64803905029e-05
1.64680937201e-05
1.64650910503e-05
1.64633807994e-05
1.64634716841e-05
1.64631416754e-05
1.64627556107e-05
1.64623037163e-05
1.64617367163e-05
1.64610259483e-05
1.64594087685e-05
1.64564936527e-05
1.64486032815e-05
1.64264617026e-05
1.63819927897e-05
1.63131275756e-05
1.75988521186e-05
6.21292148937e-05
0.00627617456688
1.65620480777e-05
1.64800221388e-05
1.64684504024e-05
1.64656575864e-05
1.6464148026e-05
1.64636964238e-05
1.64632547261e-05
1.6462931947e-05
1.64626271351e-05
1.64622342705e-05
1.64617745351e-05
1.64603374948e-05
1.64580623779e-05
1.64472173249e-05
1.64145383568e-05
1.63680606373e-05
1.62954937754e-05
1.77009186368e-05
6.95240453325e-05
0.00613424890335
1.65619769967e-05
1.64816087334e-05
1.64685798519e-05
1.6465611331e-05
1.64644453529e-05
1.64637902919e-05
1.64633359997e-05
1.64629970644e-05
1.6462799953e-05
1.6462541099e-05
1.64622056656e-05
1.6460922848e-05
1.64592132372e-05
1.64434793319e-05
1.64192099291e-05
1.63667970759e-05
1.62735822681e-05
1.78880417733e-05
8.08374295722e-05
0.0069913108841
1.65662595079e-05
1.64833137e-05
1.64684139738e-05
1.64653451389e-05
1.64643433871e-05
1.64636857999e-05
1.6463356844e-05
1.64630277225e-05
1.64628247486e-05
1.64626081567e-05
1.64623117726e-05
1.64612252382e-05
1.64603036495e-05
1.64414675371e-05
1.64382100741e-05
1.63768505579e-05
1.62422704825e-05
1.82774914287e-05
9.502299292e-05
0.00733306484414
1.65689957706e-05
1.64832027232e-05
1.64679799528e-05
1.64649544915e-05
1.64640506131e-05
1.64634889553e-05
1.64632155978e-05
1.64629786414e-05
1.64626842249e-05
1.64625807116e-05
1.64624156723e-05
1.64614583149e-05
1.6461005818e-05
1.64397635368e-05
1.64442498432e-05
1.638382608e-05
1.62524367847e-05
1.8919375687e-05
0.000109250320011
0.00774050977342
1.65680198874e-05
1.64826150733e-05
1.64673796576e-05
1.64644699342e-05
1.64636387017e-05
1.64632129278e-05
1.64628694078e-05
1.64627661561e-05
1.64626292123e-05
1.64625665248e-05
1.64624450296e-05
1.64614583822e-05
1.64608780566e-05
1.64407375036e-05
1.64460443671e-05
1.63847810009e-05
1.62554120981e-05
1.95138934196e-05
0.000126703354652
0.00817141252476
1.6566720163e-05
1.648175343e-05
1.64667569337e-05
1.64639274816e-05
1.64631394127e-05
1.64628207989e-05
1.6462647251e-05
1.64626250895e-05
1.64624401132e-05
1.64623486504e-05
1.64623518803e-05
1.64613828289e-05
1.64602707662e-05
1.64442321095e-05
1.64486950316e-05
1.63819839214e-05
1.6249992642e-05
1.9961377373e-05
0.00014861369398
0.00843267281767
1.65656234581e-05
1.64807189663e-05
1.64662003814e-05
1.6463383826e-05
1.64627003574e-05
1.6462516874e-05
1.64624355637e-05
1.64623609433e-05
1.6462247805e-05
1.64620714648e-05
1.64619242707e-05
1.64609512949e-05
1.64594817607e-05
1.6447231944e-05
1.64484307194e-05
1.63799138036e-05
1.62501238223e-05
2.04632000143e-05
0.000175607164122
0.00891027006281
1.65646342245e-05
1.64800973743e-05
1.64657451379e-05
1.6462989653e-05
1.6462326908e-05
1.64622106563e-05
1.64621504772e-05
1.64621033487e-05
1.64619601439e-05
1.64616791075e-05
1.64613273924e-05
1.64602049906e-05
1.6458536506e-05
1.6446630249e-05
1.6444083571e-05
1.6379534211e-05
1.62610016392e-05
2.11730567546e-05
0.000216366997734
0.00952866358606
1.65639700709e-05
1.64797370471e-05
1.64654078646e-05
1.64627339687e-05
1.64620600645e-05
1.64620141185e-05
1.64618760725e-05
1.64617230638e-05
1.64615824983e-05
1.64612989122e-05
1.64606526926e-05
1.64591006042e-05
1.64568536378e-05
1.64430917655e-05
1.64341634246e-05
1.63807006748e-05
1.62859159235e-05
2.19984947364e-05
0.000273149303901
0.0101513586284
1.65628170375e-05
1.64791667007e-05
1.6465155094e-05
1.64624936937e-05
1.64618497338e-05
1.64617197404e-05
1.64615845273e-05
1.64613571244e-05
1.64612188083e-05
1.64609954676e-05
1.64602945174e-05
1.64585572497e-05
1.64552720311e-05
1.64385339003e-05
1.64098724719e-05
1.63696543903e-05
1.6331894519e-05
2.2949047117e-05
0.00035328110706
0.0106598909288
1.65572080838e-05
1.64785135316e-05
1.6464880487e-05
1.64623328128e-05
1.64615849964e-05
1.64613784749e-05
1.6461230896e-05
1.64610504172e-05
1.64608683424e-05
1.6460544103e-05
1.64599174824e-05
1.64582842558e-05
1.64546643791e-05
1.64431452885e-05
1.64229067149e-05
1.63898052885e-05
1.63311909489e-05
2.38616679877e-05
0.00047758633412
0.01124597364
1.65625017841e-05
1.6477916686e-05
1.64646767501e-05
1.64621446985e-05
1.64612583225e-05
1.6461005704e-05
1.64609250976e-05
1.64607414737e-05
1.64604700824e-05
1.64600259762e-05
1.64593332665e-05
1.64580284339e-05
1.64551243346e-05
1.64491769256e-05
1.64324354961e-05
1.63901688903e-05
1.63186404408e-05
2.48434464072e-05
0.000674629323736
0.0118014744222
1.65702706374e-05
1.64772348892e-05
1.64643931235e-05
1.64619391861e-05
1.64611014145e-05
1.64607903548e-05
1.64606353621e-05
1.64604125416e-05
1.64600408112e-05
1.64595495151e-05
1.6458735332e-05
1.64574949811e-05
1.64549593691e-05
1.64502280333e-05
1.64288976331e-05
1.6377575756e-05
1.63031352981e-05
2.57172241262e-05
0.000971162878288
0.0122600455764
1.6567499356e-05
1.64777711581e-05
1.64639672496e-05
1.64617920688e-05
1.64609970527e-05
1.64606373746e-05
1.64603673551e-05
1.64600423899e-05
1.64595878121e-05
1.64589881237e-05
1.64581295646e-05
1.64566947708e-05
1.6454055188e-05
1.64491063248e-05
1.64277202824e-05
1.63703590757e-05
1.62933617136e-05
2.65417929219e-05
0.00160438171746
0.0147286775883
1.65663612177e-05
1.64791424821e-05
1.64637210744e-05
1.64617002602e-05
1.64609542176e-05
1.64604957031e-05
1.6460065573e-05
1.64596240483e-05
1.64591104007e-05
1.64584212717e-05
1.64575783716e-05
1.6456014221e-05
1.64530184966e-05
1.64473453405e-05
1.64251929636e-05
1.63712127752e-05
1.62935094394e-05
2.76252403609e-05
0.00306139635141
0.01488999235
1.65656248809e-05
1.64793474825e-05
1.64638346465e-05
1.64616036827e-05
1.6460920275e-05
1.64603624967e-05
1.64598428947e-05
1.6459326811e-05
1.64587627171e-05
1.64580838631e-05
1.64570339476e-05
1.64553923861e-05
1.64524378634e-05
1.64459753873e-05
1.64220597073e-05
1.63721409776e-05
1.62852078976e-05
2.87974389645e-05
0.00342959818684
0.0154046499233
1.65652800532e-05
1.64788581309e-05
1.64638442686e-05
1.64614774015e-05
1.6460881946e-05
1.64602508036e-05
1.64596334911e-05
1.64591400177e-05
1.64585857074e-05
1.64578743257e-05
1.64568204969e-05
1.64550864899e-05
1.64521021739e-05
1.64453853364e-05
1.642096508e-05
1.63746500162e-05
1.63017100951e-05
2.99194022423e-05
0.00389137086714
0.0156581841859
1.65646356407e-05
1.64782769703e-05
1.64640993817e-05
1.6461675411e-05
1.6460844204e-05
1.64600669369e-05
1.64593280034e-05
1.6458895639e-05
1.64584410831e-05
1.64577425671e-05
1.64568036594e-05
1.64552028621e-05
1.64520730073e-05
1.64449415114e-05
1.64215455861e-05
1.63511068917e-05
1.63091734207e-05
3.10311611543e-05
0.0044378435532
0.0157378399975
1.65634834425e-05
1.64776450413e-05
1.64646977372e-05
1.64619607073e-05
1.64608183887e-05
1.64598166393e-05
1.64590379409e-05
1.64587944435e-05
1.64584529208e-05
1.64578525987e-05
1.64569094943e-05
1.64554914194e-05
1.64525063471e-05
1.64455810023e-05
1.64221607744e-05
1.63562679265e-05
1.6341729843e-05
3.21302481791e-05
0.00487274305624
0.0157396613845
1.65621039975e-05
1.64771808057e-05
1.64649315406e-05
1.64619230457e-05
1.64607454841e-05
1.64597004781e-05
1.64590098597e-05
1.64588902253e-05
1.64585009484e-05
1.64580714333e-05
1.64573154588e-05
1.64558446383e-05
1.64531499873e-05
1.64470668074e-05
1.64191489561e-05
1.63569619943e-05
1.63717822646e-05
3.32394907246e-05
0.00499418013737
0.0132290441395
1.65606071492e-05
1.64785941006e-05
1.64649814717e-05
1.64617774877e-05
1.6460380459e-05
1.64596375097e-05
1.64593417176e-05
1.64590962032e-05
1.64586838753e-05
1.6458201747e-05
1.64576364497e-05
1.64564600407e-05
1.64542110138e-05
1.64431987881e-05
1.64188626047e-05
1.6364272677e-05
1.63947637384e-05
3.43954146347e-05
0.00504008843855
0.0127457559024
1.65610156716e-05
1.64801712109e-05
1.64649398446e-05
1.64615786502e-05
1.64604446746e-05
1.6460038195e-05
1.64596519418e-05
1.64593302499e-05
1.64590125437e-05
1.64586261902e-05
1.64581101938e-05
1.64571841431e-05
1.64552748749e-05
1.64471408452e-05
1.6423688512e-05
1.63638184894e-05
1.64080459666e-05
3.55980318738e-05
0.00513996839625
0.0130167788364
1.65642237933e-05
1.64800550368e-05
1.64646884594e-05
1.64612670344e-05
1.64602876855e-05
1.64601841988e-05
1.64598289035e-05
1.64595252694e-05
1.64592633965e-05
1.64589495643e-05
1.64584081468e-05
1.6457158932e-05
1.64546019176e-05
1.64487054963e-05
1.64234836334e-05
1.63582946007e-05
1.64221527616e-05
3.67987386948e-05
0.00516683844015
0.0125785998206
1.65669354693e-05
1.64798703076e-05
1.64645394175e-05
1.64610782325e-05
1.64602011738e-05
1.64603133372e-05
1.64600141733e-05
1.6459711761e-05
1.64594445413e-05
1.64591240349e-05
1.64584258332e-05
1.64549687068e-05
1.64486064773e-05
1.64441850603e-05
1.64204158042e-05
1.63510200241e-05
1.64438429688e-05
3.79678322706e-05
0.00526525826627
0.0126847443367
1.65673723756e-05
1.6479872271e-05
1.64645367836e-05
1.64610974039e-05
1.64602770259e-05
1.64604496143e-05
1.64602075625e-05
1.64599251414e-05
1.64596833319e-05
1.64593919262e-05
1.64584657184e-05
1.6454451512e-05
1.64533881608e-05
1.6447772823e-05
1.64157799723e-05
1.6344218213e-05
1.64715761931e-05
3.90679158928e-05
0.0054037915257
0.0130582059289
1.65667078116e-05
1.64798039029e-05
1.64646098304e-05
1.64612557901e-05
1.64604501532e-05
1.64605809663e-05
1.64603776541e-05
1.64601773877e-05
1.64600171162e-05
1.64597767764e-05
1.64589570793e-05
1.64566611043e-05
1.64543990489e-05
1.64450987988e-05
1.6412273242e-05
1.63426078237e-05
1.65034633463e-05
4.0013347381e-05
0.00549100757835
0.0130342815546
1.65663021778e-05
1.6479772874e-05
1.64647698001e-05
1.64615172474e-05
1.64606709664e-05
1.64607189462e-05
1.64605823667e-05
1.64604044185e-05
1.64602777651e-05
1.64601537578e-05
1.64597201199e-05
1.64580690159e-05
1.64535979312e-05
1.64408119195e-05
1.64083588562e-05
1.63218516664e-05
1.65022210241e-05
4.0716694503e-05
0.00552940396981
0.0126515031375
1.65661190122e-05
1.64798456548e-05
1.64649804871e-05
1.64618383718e-05
1.64609330286e-05
1.64609229853e-05
1.6460818037e-05
1.64606058404e-05
1.64604214061e-05
1.64602047643e-05
1.64598054857e-05
1.64579407507e-05
1.64514096089e-05
1.64346659525e-05
1.64024199123e-05
1.6310776395e-05
1.6506596259e-05
4.11984430569e-05
0.00562907984677
0.0131190941958
1.65660611937e-05
1.64799734123e-05
1.64652367111e-05
1.64622528973e-05
1.64613269378e-05
1.64612152041e-05
1.64610452081e-05
1.6460749045e-05
1.64603857002e-05
1.64600170555e-05
1.64594497511e-05
1.6457253927e-05
1.64498450142e-05
1.64304968222e-05
1.64004478347e-05
1.63267723417e-05
1.65388583976e-05
4.1491525508e-05
0.00566833984553
0.0131962011268
1.65662764397e-05
1.64802403599e-05
1.64655922808e-05
1.64628034825e-05
1.6461807215e-05
1.64614841777e-05
1.64611582336e-05
1.64607066456e-05
1.64602202237e-05
1.64597498422e-05
1.64590100971e-05
1.64563559005e-05
1.64483242796e-05
1.64291750441e-05
1.63886354925e-05
1.63222276437e-05
1.65540912032e-05
4.15867230284e-05
0.00566883419504
0.0130585493129
1.6566560676e-05
1.64806419475e-05
1.64660256819e-05
1.64633881247e-05
1.64621296147e-05
1.64616085809e-05
1.6461204442e-05
1.64606375852e-05
1.64599916787e-05
1.6459307473e-05
1.64580960988e-05
1.64550199275e-05
1.64465737613e-05
1.64328653617e-05
1.64007796852e-05
1.63344580784e-05
1.65591419275e-05
4.15036665266e-05
0.00566222955288
0.0131528695619
1.65667835018e-05
1.64810827623e-05
1.64665028271e-05
1.64637274338e-05
1.64622180379e-05
1.64617345531e-05
1.6461262561e-05
1.64605501824e-05
1.64598485124e-05
1.64590600558e-05
1.64575959187e-05
1.64544331077e-05
1.64482607147e-05
1.6435544925e-05
1.64068268788e-05
1.63431694816e-05
1.65607443251e-05
4.12882533973e-05
0.00564072298639
0.0128722306321
1.6566875397e-05
1.64816222643e-05
1.64669796423e-05
1.64637086118e-05
1.64623142618e-05
1.64618102113e-05
1.64612645906e-05
1.64605292597e-05
1.64599649416e-05
1.64595561162e-05
1.64576625907e-05
1.64540219984e-05
1.64491381987e-05
1.64416194845e-05
1.64085887778e-05
1.63347592845e-05
1.65512835087e-05
4.09849609474e-05
0.00564688983771
0.0132180384689
1.65670002667e-05
1.64822303922e-05
1.64674082094e-05
1.64638901341e-05
1.64627275045e-05
1.64620577802e-05
1.64613239734e-05
1.64606345979e-05
1.64605157451e-05
1.64610620915e-05
1.64563748088e-05
1.64519616158e-05
1.64479012983e-05
1.64408496315e-05
1.64081667348e-05
1.63306693722e-05
1.65438323389e-05
4.06384871614e-05
0.0056311427774
0.01573569877
1.65676099361e-05
1.64829357735e-05
1.64680613763e-05
1.64645792998e-05
1.64634464328e-05
1.64626291422e-05
1.64616657028e-05
1.64608026795e-05
1.64621924796e-05
1.64545728749e-05
1.64512821037e-05
1.64501207064e-05
1.64454328552e-05
1.64353138678e-05
1.64057081751e-05
1.63291176184e-05
1.65309887524e-05
4.0299939169e-05
0.00561337232799
0.0157628270571
1.65682534825e-05
1.64836586406e-05
1.64686694419e-05
1.64651914247e-05
1.6464085164e-05
1.64631595491e-05
1.64620675119e-05
1.646019055e-05
1.64578862241e-05
1.64512335033e-05
1.6454875973e-05
1.64541720104e-05
1.64449580831e-05
1.64298273637e-05
1.64062019688e-05
1.63290070029e-05
1.65194060368e-05
4.00195365581e-05
0.00559698325403
0.0157588716181
1.65685811231e-05
1.64841814665e-05
1.64688645084e-05
1.64650262046e-05
1.64640499861e-05
1.6463708744e-05
1.64629001417e-05
1.64608067984e-05
1.64555506683e-05
1.6455828384e-05
1.64575325713e-05
1.6443993516e-05
1.64459940205e-05
1.6423604673e-05
1.63864598497e-05
1.63276351806e-05
1.65098560009e-05
3.98658327117e-05
0.00558029430544
0.0132222480485
1.65690777242e-05
1.64847659734e-05
1.64693401126e-05
1.64649358366e-05
1.64645278863e-05
1.64631645897e-05
1.64608454521e-05
1.64621127556e-05
1.64564545669e-05
1.64525175707e-05
1.64540099363e-05
1.64188784075e-05
1.64158160169e-05
1.64151582441e-05
1.6370839829e-05
1.63184262504e-05
1.65259421027e-05
3.98387904292e-05
0.00557986758721
0.0132279775587
1.65691841666e-05
1.6484682246e-05
1.64699040704e-05
1.64669884303e-05
1.6466389459e-05
1.64596874893e-05
1.64661188575e-05
1.6473086405e-05
1.64623463933e-05
1.64469625962e-05
1.64674543858e-05
1.64233130813e-05
1.6414613546e-05
1.64173160173e-05
1.637701182e-05
1.62985092529e-05
1.64900409533e-05
3.97546398936e-05
0.0056021251268
0.0158268167912
1.65692117275e-05
1.64850334113e-05
1.64705444067e-05
1.64661646318e-05
1.64599070379e-05
1.64596607908e-05
1.64651105101e-05
1.64806944076e-05
1.65438559609e-05
1.65154381846e-05
1.64934640858e-05
1.6484369353e-05
1.64507758123e-05
1.6421996614e-05
1.63716953448e-05
1.62830056024e-05
1.64776445499e-05
3.97128369714e-05
0.00563776489511
0.0158880614257
1.65695749984e-05
1.64858929492e-05
1.6470697699e-05
1.6466103178e-05
1.64634340976e-05
1.64595121673e-05
1.64706049382e-05
1.65502419165e-05
1.6500911485e-05
1.63939467116e-05
1.63442047909e-05
1.62805574569e-05
1.65507982787e-05
3.97540625192e-05
0.00565271474801
0.0158475073953
1.65696628028e-05
1.64849992542e-05
1.64710639409e-05
1.64688441468e-05
1.64673130685e-05
1.64673221094e-05
1.64734026752e-05
1.65586332855e-05
1.6513501314e-05
1.63897966316e-05
1.63474376858e-05
1.62911300207e-05
1.65745818155e-05
3.97251281613e-05
0.00561519991526
0.0157389031
1.65697092028e-05
1.64850439864e-05
1.64715409242e-05
1.64692159872e-05
1.64676502381e-05
1.64676070046e-05
1.64738687863e-05
1.65584429928e-05
1.65129549174e-05
1.63930544398e-05
1.63510161399e-05
1.62910598864e-05
1.65485927867e-05
3.9715012029e-05
0.00557986728648
0.0156736263501
1.65696384239e-05
1.64856539631e-05
1.6471577062e-05
1.64668936122e-05
1.64641720984e-05
1.64602079753e-05
1.64713391111e-05
1.65508116482e-05
1.65007604063e-05
1.63953339708e-05
1.63447571245e-05
1.62792571422e-05
1.65075101644e-05
3.97017384555e-05
0.00558611546567
0.0157926200631
1.65692300954e-05
1.64847432275e-05
1.64709740943e-05
1.64670372036e-05
1.64605672921e-05
1.64601552127e-05
1.64653413092e-05
1.64812172767e-05
1.65443345562e-05
1.6516110598e-05
1.6494804051e-05
1.64852626648e-05
1.64474389381e-05
1.64223264778e-05
1.63694082922e-05
1.62693936062e-05
1.64495412164e-05
3.96959776159e-05
0.00560531814694
0.0158759778304
1.65691170161e-05
1.64845698416e-05
1.64700330217e-05
1.64675023022e-05
1.64669051931e-05
1.64600592844e-05
1.64659773352e-05
1.64726149515e-05
1.6461956948e-05
1.64468750663e-05
1.64681696948e-05
1.64233261105e-05
1.64127104272e-05
1.64172626438e-05
1.63737448983e-05
1.62863381562e-05
1.64830332958e-05
3.97866125931e-05
0.00560736028172
0.0158550704781
1.65690309455e-05
1.6484739167e-05
1.64694509598e-05
1.64649199102e-05
1.64646517969e-05
1.64631379579e-05
1.64631099221e-05
1.64649972641e-05
1.64561340547e-05
1.64519819898e-05
1.64537629748e-05
1.64170541788e-05
1.64165683679e-05
1.64159414909e-05
1.63822405943e-05
1.6324875013e-05
1.65388994305e-05
3.99437923563e-05
0.00559323520825
0.0157839467081
1.65685426383e-05
1.6484135153e-05
1.64687203228e-05
1.64646809348e-05
1.64639269158e-05
1.64639529021e-05
1.6463374317e-05
1.64619375501e-05
1.64564443968e-05
1.64562383647e-05
1.64574407192e-05
1.6444264533e-05
1.64473390331e-05
1.64236134299e-05
1.63971372427e-05
1.63334774696e-05
1.65321935022e-05
4.00759811337e-05
0.0055925125763
0.013221746613
1.65681599448e-05
1.6483609944e-05
1.64687663806e-05
1.64651196922e-05
1.64641114611e-05
1.64633670184e-05
1.64623580265e-05
1.64605964035e-05
1.6458393895e-05
1.64535265532e-05
1.6456652977e-05
1.64555757616e-05
1.64461155046e-05
1.64291836864e-05
1.64030159254e-05
1.63313411528e-05
1.65420371923e-05
4.01875602604e-05
0.00560722487969
0.0132176504704
1.65675882228e-05
1.64829174002e-05
1.64683964675e-05
1.64646326611e-05
1.64635221021e-05
1.64627684629e-05
1.64618443371e-05
1.64609007064e-05
1.64618323985e-05
1.64557377454e-05
1.64526703621e-05
1.6451399765e-05
1.64463083306e-05
1.64352586717e-05
1.64053592652e-05
1.6330739433e-05
1.65446350873e-05
4.03358022137e-05
0.00562255752222
0.0132248840295
1.65670118683e-05
1.6482201513e-05
1.64674411219e-05
1.64639218347e-05
1.64627580425e-05
1.64621942421e-05
1.64614807254e-05
1.64607747068e-05
1.64606986929e-05
1.64609155368e-05
1.64564240695e-05
1.64525136156e-05
1.64487621819e-05
1.64409788857e-05
1.64067991177e-05
1.63293075206e-05
1.65456941719e-05
4.05601560555e-05
0.00563087647768
0.0152706709076
1.65669181609e-05
1.64816447978e-05
1.64666076393e-05
1.64635154326e-05
1.64622142093e-05
1.64617824866e-05
1.64613119432e-05
1.64606893962e-05
1.64602710041e-05
1.64599372297e-05
1.64581038048e-05
1.64550657577e-05
1.64507714185e-05
1.64418611647e-05
1.64064607939e-05
1.63313166776e-05
1.65532565558e-05
4.08432599576e-05
0.00564908879542
0.0157154755182
1.65669210312e-05
1.64811255267e-05
1.6466153229e-05
1.64634701553e-05
1.64620855943e-05
1.64616267794e-05
1.64612248666e-05
1.64606116743e-05
1.64600724366e-05
1.64594238418e-05
1.64581186107e-05
1.64555229391e-05
1.64495363558e-05
1.64353601932e-05
1.6403171775e-05
1.63362167823e-05
1.6558121988e-05
4.11170531348e-05
0.00564614460775
0.0130173245205
1.6566721275e-05
1.6480629953e-05
1.64657290193e-05
1.64631758412e-05
1.64619675244e-05
1.64614820583e-05
1.64611113948e-05
1.6460538873e-05
1.64599346978e-05
1.64592792805e-05
1.64581566927e-05
1.64551158045e-05
1.64449807212e-05
1.64277997731e-05
1.63975763006e-05
1.63370119771e-05
1.65576816569e-05
4.13663743136e-05
0.00564785797534
0.0131939499802
1.65664668468e-05
1.64802100057e-05
1.64653685467e-05
1.64626063737e-05
1.64615261217e-05
1.64612062619e-05
1.64609731409e-05
1.64605678095e-05
1.64600690881e-05
1.64595751626e-05
1.64586751606e-05
1.64558115404e-05
1.64467464916e-05
1.64259732924e-05
1.63903703254e-05
1.63317491456e-05
1.65500641461e-05
4.1483884377e-05
0.00559065273618
0.0127242631529
1.65663107055e-05
1.64799408522e-05
1.64650394355e-05
1.64621266161e-05
1.64610850545e-05
1.64609682178e-05
1.6460899678e-05
1.64606601323e-05
1.64603455934e-05
1.64600298695e-05
1.64593955664e-05
1.64569726539e-05
1.64490476714e-05
1.64296174206e-05
1.63838969282e-05
1.63171757596e-05
1.65351563111e-05
4.1395176446e-05
0.00560883769298
0.013037230367
1.65667234596e-05
1.64800166987e-05
1.64649557542e-05
1.6461844661e-05
1.64608674279e-05
1.64608414467e-05
1.64607557324e-05
1.64605183346e-05
1.64603056244e-05
1.64601308225e-05
1.64597930011e-05
1.64580622316e-05
1.64516181936e-05
1.64347079869e-05
1.63984001276e-05
1.63134821539e-05
1.65085338602e-05
4.10777954365e-05
0.0056097525744
0.0131705037512
1.65673458342e-05
1.64802401064e-05
1.64649774045e-05
1.64616110107e-05
1.64606424522e-05
1.64606427372e-05
1.64605226096e-05
1.64602876882e-05
1.64600371709e-05
1.6459757722e-05
1.64592690454e-05
1.64577949895e-05
1.64533864983e-05
1.64403928662e-05
1.64053377178e-05
1.63218371563e-05
1.65077385381e-05
4.05792653881e-05
0.00555808745035
0.0131253497819
1.65681721752e-05
1.64803766753e-05
1.64648889955e-05
1.64614381977e-05
1.64605048379e-05
1.64605088599e-05
1.64602689895e-05
1.645999503e-05
1.64597220363e-05
1.64593270806e-05
1.64582619512e-05
1.64556294964e-05
1.64535352177e-05
1.64444792326e-05
1.64107826342e-05
1.63406168496e-05
1.65075239948e-05
3.98922619908e-05
0.00546566940337
0.0128645618759
1.65688263962e-05
1.64803717808e-05
1.64647915235e-05
1.6461373926e-05
1.64604129678e-05
1.64603787026e-05
1.6460057966e-05
1.64596846356e-05
1.64593501209e-05
1.64589154803e-05
1.64578033606e-05
1.64535259976e-05
1.6452278259e-05
1.64470229542e-05
1.64150443897e-05
1.6344663861e-05
1.64779653236e-05
3.90467061125e-05
0.00541728361444
0.0131209346745
1.65633758966e-05
1.64799685026e-05
1.6464761044e-05
1.64614526167e-05
1.64604170673e-05
1.64602208376e-05
1.6459840297e-05
1.6459462728e-05
1.64590599867e-05
1.64585814315e-05
1.64577650742e-05
1.64550542428e-05
1.64499969927e-05
1.64444687219e-05
1.64198732881e-05
1.63532766207e-05
1.64558156963e-05
3.80889706092e-05
0.005338728775
0.0130893586118
1.65588670702e-05
1.6479159926e-05
1.6464827342e-05
1.64616933146e-05
1.64605302857e-05
1.64600375847e-05
1.64596292965e-05
1.6459255668e-05
1.64588387275e-05
1.64583528605e-05
1.64577356269e-05
1.64567552367e-05
1.6454805234e-05
1.6447211949e-05
1.64229784231e-05
1.63610030182e-05
1.64378884578e-05
3.70398393085e-05
0.00527185623423
0.0131559236697
1.65608749509e-05
1.64780243618e-05
1.6464799025e-05
1.64618268606e-05
1.64603670377e-05
1.64595235606e-05
1.64592649613e-05
1.64590152048e-05
1.64585925151e-05
1.64580774692e-05
1.64574197491e-05
1.64564721838e-05
1.6454680018e-05
1.64444417093e-05
1.64207351108e-05
1.63646058686e-05
1.64216164211e-05
3.59081976337e-05
0.00519375403309
0.0131712752576
1.65623558042e-05
1.64771152092e-05
1.6464546406e-05
1.64619080343e-05
1.64607324108e-05
1.64595820938e-05
1.64589138008e-05
1.64587934e-05
1.64583544015e-05
1.64577822573e-05
1.64570283632e-05
1.64559113815e-05
1.64536942777e-05
1.6445426398e-05
1.64199753793e-05
1.63605009351e-05
1.64000227786e-05
3.47343036493e-05
0.00508874635401
0.0130343418671
1.65631515522e-05
1.64773195376e-05
1.64643808087e-05
1.64619392847e-05
1.64608637962e-05
1.64596936136e-05
1.64588648446e-05
1.64586554672e-05
1.64581900991e-05
1.64575697643e-05
1.64567192608e-05
1.64554374108e-05
1.64528641977e-05
1.64469733606e-05
1.64211326779e-05
1.6355983602e-05
1.63711226695e-05
3.35567592873e-05
0.00499011179724
0.0129785263493
1.65639240383e-05
1.64780801531e-05
1.64644063001e-05
1.64618837413e-05
1.64608963313e-05
1.64598900808e-05
1.64590300058e-05
1.645863224e-05
1.64581336664e-05
1.64574869353e-05
1.64566410281e-05
1.64551294014e-05
1.64522795566e-05
1.64456511585e-05
1.64218335995e-05
1.63526059654e-05
1.63376525201e-05
3.24038107873e-05
0.00486542768963
0.015735597531
1.65647711354e-05
1.64785950369e-05
1.64642776856e-05
1.64617562367e-05
1.64609088572e-05
1.64600874686e-05
1.64592765076e-05
1.64587357122e-05
1.64582003475e-05
1.64575906047e-05
1.64566211976e-05
1.64549731879e-05
1.64521579105e-05
1.64453168448e-05
1.6421492995e-05
1.63490992262e-05
1.63098576998e-05
3.12670474029e-05
0.00444908526899
0.0157434901045
1.65654971071e-05
1.64790426171e-05
1.64642064023e-05
1.64617049406e-05
1.64608997676e-05
1.64602219162e-05
1.64595261287e-05
1.64589531046e-05
1.64584129457e-05
1.64578429434e-05
1.64568190481e-05
1.64552456069e-05
1.64525646071e-05
1.64459924733e-05
1.64218401404e-05
1.63763165373e-05
1.63076016725e-05
3.01168207518e-05
0.00392423690538
0.0156618779223
1.65660577612e-05
1.64794375904e-05
1.64642336295e-05
1.64617597309e-05
1.64608970503e-05
1.64603238073e-05
1.64597668393e-05
1.64592518189e-05
1.64587199638e-05
1.64581303588e-05
1.64572070626e-05
1.6455684922e-05
1.64529712685e-05
1.64467388399e-05
1.64231953081e-05
1.63704906826e-05
1.62842932149e-05
2.89347878839e-05
0.00347261265286
0.0154123717389
1.65669767171e-05
1.64792599195e-05
1.64641250604e-05
1.64617713602e-05
1.64608877051e-05
1.64604076592e-05
1.6460030202e-05
1.64596258064e-05
1.64591371479e-05
1.6458497139e-05
1.64577557819e-05
1.64562731231e-05
1.64534442092e-05
1.64480953378e-05
1.64262121663e-05
1.63720435019e-05
1.6293271818e-05
2.7694469168e-05
0.00313623507969
0.0149372530999
1.65687965436e-05
1.64781098143e-05
1.64641777135e-05
1.64618046913e-05
1.6460942177e-05
1.64605897376e-05
1.64603530901e-05
1.6460048071e-05
1.64596739307e-05
1.64591927307e-05
1.64584302571e-05
1.64570628777e-05
1.64544484514e-05
1.64495350951e-05
1.64275350082e-05
1.63783673625e-05
1.63000576437e-05
2.64941657179e-05
0.00167748580219
0.0146995924698
1.65612796551e-05
1.64773770736e-05
1.64643212667e-05
1.64618716446e-05
1.6461056473e-05
1.64608031609e-05
1.6460664228e-05
1.64604633001e-05
1.64601856925e-05
1.64598368527e-05
1.64590961157e-05
1.64578805241e-05
1.64553755869e-05
1.64498423905e-05
1.64286989846e-05
1.63803862984e-05
1.63022891852e-05
2.56300415732e-05
0.000960597987268
0.0122169361372
1.65556094718e-05
1.64777986875e-05
1.64644752132e-05
1.64619647564e-05
1.64611955346e-05
1.64610179343e-05
1.64609439835e-05
1.64608233769e-05
1.64606277002e-05
1.64602358772e-05
1.64596071573e-05
1.6458350849e-05
1.6455293474e-05
1.64485841913e-05
1.64323005019e-05
1.63907863674e-05
1.63174268834e-05
2.47324619411e-05
0.000648774198158
0.0117327146203
1.65605066211e-05
1.6478501826e-05
1.64647126718e-05
1.64621225765e-05
1.64613702394e-05
1.64612787445e-05
1.64612364486e-05
1.64611349019e-05
1.64610194679e-05
1.64607709304e-05
1.64602422215e-05
1.64587088171e-05
1.64552998745e-05
1.64440661948e-05
1.64195531719e-05
1.63833700786e-05
1.63285965031e-05
2.37180363811e-05
0.000463342337511
0.0111796410329
1.65632666128e-05
1.6479120479e-05
1.64650291499e-05
1.64623494026e-05
1.64616243948e-05
1.64615431075e-05
1.64615128235e-05
1.64614560193e-05
1.64614816383e-05
1.64614412166e-05
1.64608958084e-05
1.64594195171e-05
1.64567507715e-05
1.64433993746e-05
1.64298279275e-05
1.63788748742e-05
1.62909887452e-05
2.27256768504e-05