/*--------------------------------*- C++ -*----------------------------------*\
| =========                 |                                                 |
| \\      /  F ield         | OpenFOAM: The Open Source CFD Toolbox           |
|  \\    /   O peration     | Version:  v2012                                 |
|   \\  /    A nd           | Website:  www.openfoam.com                      |
|    \\/     M anipulation  |                                                 |
\*---------------------------------------------------------------------------*/
FoamFile
{
    version     2.0;
    format      ascii;
    class       volVectorField;
    location    "5.6";
    object      ddt0(rho,U);
}
// * * * * * * * * * * * * * * * * * * * * * * * * * * * * * * * * * * * * * //

dimensions      [1 -2 -2 0 0 0 0];


internalField   nonuniform List<vector> 
167
(
(142.7093291 10.1052260876 -4.27163219237e-20)
(145.897525838 12.9237473119 -2.24753331395e-20)
(149.941287129 15.678229769 3.33775746186e-21)
(154.891679407 18.3556272573 1.71169580005e-21)
(160.808469381 20.9332936542 -1.61650396286e-20)
(167.761745506 23.3797286554 -5.38881519427e-20)
(175.845105083 25.6625144075 -1.62797835192e-20)
(185.179770066 27.7403067003 -2.00466981306e-20)
(135.45315779 5.56910708399 9.23586307535e-20)
(137.072719003 9.22914501904 -3.93772028791e-22)
(139.483381357 12.9010810052 9.34886348394e-21)
(142.701373358 16.5660567929 -1.49276837146e-20)
(146.786168014 20.2131646416 -2.21432982044e-20)
(151.793011647 23.8364723316 -3.0175683831e-21)
(157.781799366 27.4283943085 5.06412890907e-20)
(164.833468324 30.9741959285 -4.03675103848e-20)
(173.046851206 34.4696238639 -1.77739922028e-20)
(182.560700362 37.894361201 4.93313105199e-20)
(193.535217471 41.2176733967 -1.90636876159e-19)
(131.403576351 6.75544752436 -2.05327667674e-20)
(133.010845518 11.2078085772 1.32766758158e-20)
(135.410685133 15.7042246157 -3.27918487427e-20)
(138.623545134 20.2248233079 7.75095124396e-21)
(142.705060933 24.7716891195 1.67553021635e-20)
(147.708131764 29.3491242826 2.16723377183e-21)
(153.692055675 33.9652952146 -2.56744770415e-21)
(160.739363054 38.6307712652 -1.55747200306e-20)
(168.95462312 43.3654405685 -1.24946864486e-20)
(178.474975571 48.177693292 -1.24823071442e-20)
(189.492827202 53.073964819 -1.11172008577e-19)
(126.547365491 7.93396089729 5.10078127734e-20)
(128.131719817 13.1720270814 3.18813800672e-21)
(130.49985481 18.488390744 -2.44071555706e-20)
(133.672419816 23.8600026665 8.71415657325e-21)
(137.702100593 29.2994259559 -2.68176525191e-20)
(142.63891875 34.8226911246 3.67450073598e-21)
(148.541409012 40.4577618866 2.54194003001e-20)
(155.484523097 46.2342268075 -3.00403590305e-20)
(163.56456898 52.1959619161 -5.78520251736e-21)
(172.924354849 58.3987753793 -3.73870387671e-20)
(120.110123529 2.96771807305 -2.59920611318e-20)
(120.909289943 9.08921440334 4.35729334209e-20)
(122.452449198 15.103602548 -2.03160761444e-20)
(124.762844015 21.2232443702 -4.49289904629e-21)
(127.859252131 27.4281072608 4.80158766208e-21)
(131.790464951 33.7406323033 -9.25667857182e-21)
(136.602443947 40.1896261038 2.71085419026e-21)
(142.346302746 46.8145770444 -3.21017620183e-20)
(149.085359221 53.6616539023 3.43151197234e-20)
(156.911694956 60.810904076 -5.46531191199e-20)
(165.932424334 68.3457168074 -5.79924402509e-20)
(113.726237534 3.35470731561 6.72041097747e-20)
(114.509791257 10.2148418691 7.75345888781e-20)
(115.992127409 16.9768618043 -2.35181050933e-21)
(118.220134388 23.8783666697 -3.06118613192e-20)
(121.206917093 30.8907415992 7.15822737513e-21)
(124.9969723 38.0464914657 4.64194836201e-21)
(129.630177931 45.3844300098 -7.08129750599e-21)
(135.149838568 52.9520779326 3.06058850204e-21)
(141.610879387 60.8143713134 -1.50607683604e-20)
(149.070722466 69.0530598867 -5.83627397738e-20)
(157.597768209 77.7894644291 -8.54946172951e-20)
(106.618785221 3.73061014706 -9.39490677151e-20)
(107.367245111 11.2981903608 9.57056700236e-20)
(108.778718284 18.7753384916 -1.19885079208e-20)
(110.901107015 26.4263144905 -6.84773701244e-22)
(113.74763406 34.2105879514 8.66732951483e-21)
(117.357826987 42.1715957096 -8.24278043252e-21)
(121.767399063 50.3542944445 -2.31193232928e-20)
(127.014684467 58.8154194323 2.12417888822e-20)
(133.136899555 67.6129753188 -2.81990948925e-20)
(140.171011893 76.8235712006 -8.37766289829e-20)
(98.8182432975 4.08512347402 9.22575493183e-21)
(99.5156481396 12.3235781765 -4.95808551801e-20)
(100.846892521 20.4819982465 -1.43913017938e-20)
(102.843283639 28.841772566 -1.88044970557e-21)
(105.52143201 37.3566420119 6.30487850181e-21)
(108.917376047 46.0768031668 5.73261271297e-21)
(113.063372293 55.0559207967 9.04385218773e-22)
(117.995555963 64.3531913046 -2.62288901135e-21)
(123.741418539 74.0256826094 -6.88853327419e-21)
(90.3574619232 4.4137045364 -4.07649186408e-20)
(91.0040450555 13.2800250948 -7.76974185618e-21)
(92.238857375 22.0831159803 -6.82145613227e-20)
(94.0900087869 31.1004838393 -2.54038948271e-21)
(96.5739132585 40.2972604001 2.19000605007e-20)
(99.7246925312 49.725818947 1.77963697376e-21)
(103.572021825 59.4460833954 3.92708695434e-21)
(108.145422686 69.5229883971 1.35397734502e-21)
(113.477074052 80.0303611285 -5.48533122534e-21)
(81.2820076719 4.72089741034 -9.60225275515e-20)
(81.8805340145 14.1617741205 2.51333284269e-19)
(83.0023928558 23.5558270435 -4.36225124779e-20)
(84.6899703526 33.1806499057 -1.45133294041e-20)
(86.9567035292 43.0054718717 6.10432731143e-21)
(89.8340012518 53.0870586223 1.46867582968e-20)
(93.3500717847 63.4882920719 3.36367773907e-21)
(97.5287668612 74.2766397655 7.58746883206e-21)
(102.39638954 85.5307174974 -1.57327743613e-20)
(107.941305774 97.5279634698 1.44983228316e-21)
(71.6494517445 5.00247131244 6.63066819591e-22)
(72.1919844925 14.9599095054 -7.12326752741e-20)
(73.1912578297 24.8847350715 -4.86230344505e-20)
(74.6984636773 35.0607978263 -1.37033082818e-20)
(76.7255069977 45.4559239545 4.17209168579e-20)
(79.3026911594 56.1326817199 -7.10788759976e-21)
(82.460350259 67.154387807 3.79275214386e-20)
(86.2294440811 78.5801087783 -5.16165804433e-21)
(90.6630493225 90.4601852912 1.28621662601e-20)
(95.9422090628 103.098784545 4.06383463875e-20)
(61.5173293402 5.25688724641 -4.97734393038e-20)
(61.9949907466 15.671144254 1.77187289567e-19)
(62.8642503937 26.0620568107 -6.08940121787e-20)
(64.1755173351 36.7261268365 -1.02301585597e-20)
(65.9399796884 47.6283235916 -2.13742173933e-20)
(68.1885759001 58.8402941731 2.47539078908e-20)
(70.952965339 70.4353898346 5.68920047474e-21)
(74.2712332867 82.5026848478 4.18985608203e-21)
(78.1829795264 95.2766968634 1.53875100262e-20)
(82.8861436922 108.256452349 6.25476715284e-22)
(50.9435242515 5.47805720184 -7.49817385622e-20)
(51.3552692145 16.2861160948 -5.00133611185e-20)
(52.0876169569 27.0740949333 -4.78508982085e-20)
(53.1862468369 38.1547145021 -7.47915801669e-21)
(54.6638839282 49.4928734435 1.60246086542e-20)
(56.5493745609 61.1702901856 3.44810429687e-20)
(58.8764842549 73.2692961916 7.77874721655e-21)
(61.7066935128 85.8604398889 5.61206697516e-22)
(65.1615425218 99.1470123664 -2.59869842563e-20)
(68.8240377698 112.913720547 2.23423676709e-20)
(39.986612397 5.6706553517 -2.32743857829e-20)
(40.3490762722 16.8038190255 9.78671211526e-20)
(40.9353183819 27.9077909728 -3.76367589505e-20)
(41.8026679473 39.325376683 1.04514622333e-20)
(42.9682402059 51.0185749102 1.24692222251e-19)
(44.4476419506 63.0809183612 2.61125971187e-20)
(46.2639601955 75.632355048 1.12602166541e-19)
(48.4961345149 88.8543419903 1.28424112306e-20)
(51.3311757217 102.472771233 -3.45702680734e-20)
(54.4058593203 116.694735275 1.10180141076e-19)
(28.7307439147 5.83980114533 -1.29997699163e-19)
(29.0690370087 17.2194631642 1.60599485252e-19)
(29.4928036945 28.5400319314 -4.6761831294e-20)
(30.1147855216 40.2081138084 1.67793208129e-21)
(30.9548546829 52.1592832559 3.3002685528e-22)
(32.0032565561 64.4862142374 4.25972851811e-20)
(33.2291557555 77.3469839374 -2.11063951878e-20)
(34.8533320638 90.9864211674 1.07374935452e-19)
(36.8919069694 105.11903577 4.50913278003e-20)
(17.7153455811 5.99371434528 -1.42630973838e-20)
(17.9111781296 17.523558977 -7.90656204152e-20)
(18.1520656738 28.9365443021 -1.10947327643e-20)
(18.5898589387 40.7806110159 -9.5950719266e-20)
(19.2367559738 52.9005283972 8.38784590745e-21)
(20.1345878111 65.3461808459 4.96965769734e-20)
(21.3004015097 78.4734528112 -9.92610169597e-20)
(22.3722571122 92.5054967682 8.43176836511e-21)
(22.9247905766 106.912034403 -4.34924462026e-20)
(6.20117025782 5.9494486408 3.04652677619e-20)
(6.23552314685 17.5245216248 5.98211341192e-21)
(6.31082060173 29.1413915217 2.20266120839e-19)
(6.50200448456 41.2180443249 5.3148927207e-20)
(6.81549159734 53.6200117062 -1.33614914076e-20)
(7.30683931212 66.4444233127 1.78185190415e-19)
(8.02791743252 79.443045182 -8.91185428331e-21)
(8.43137074575 92.3936116975 1.88611340213e-19)
(8.13920551646 106.490470194 2.90184413754e-20)
)
;

boundaryField
{
    back
    {
        type            calculated;
        value           uniform (0 0 0);
    }
    sides
    {
        type            calculated;
        value           uniform (0 0 0);
    }
    bottom
    {
        type            calculated;
        value           uniform (0 0 0);
    }
    front
    {
        type            calculated;
        value           uniform (0 0 0);
    }
    atmosphere
    {
        type            calculated;
        value           nonuniform List<vector> 0();
    }
    floatingObject
    {
        type            calculated;
        value           nonuniform List<vector> 0();
    }
    procBoundary10to9
    {
        type            processor;
        value           nonuniform List<vector> 
15
(
(145.106866763 7.35413332975 -3.8363749707e-20)
(148.230755817 9.33637078424 -2.20784622307e-20)
(152.187335925 11.2178043196 -5.68069638104e-21)
(157.024350709 12.9719030417 1.03772508474e-21)
(162.792960735 14.5665752099 -1.25925703148e-20)
(169.557848943 15.9540809326 -8.25389314408e-20)
(177.395731645 17.0830520303 -1.60500538027e-20)
(186.424062884 17.8811393732 -3.26319587931e-20)
(138.707485373 4.38796721208 1.90511965609e-20)
(140.318358812 7.2502229305 -1.06336183038e-20)
(140.318358812 7.2502229305 -1.06336183038e-20)
(134.645273789 1.77177594298 -5.64375439671e-20)
(130.586092951 2.17423078224 1.10653305063e-19)
(125.73684232 2.57615247889 -7.17140914987e-20)
(125.73684232 2.57615247889 -7.17140914987e-20)
)
;
    }
    procBoundary10to11
    {
        type            processor;
        value           nonuniform List<vector> 
23
(
(195.929298144 29.5436186827 -1.71392257155e-19)
(195.929298144 29.5436186827 -1.71392257155e-19)
(206.192857217 44.3724658354 -3.1893377584e-19)
(202.234214667 58.0338808886 -1.65639653854e-19)
(183.749558655 64.8947080332 -2.97361116062e-19)
(183.749558655 64.8947080332 -2.97361116062e-19)
(176.311507675 76.3984640844 -2.35378297871e-19)
(167.266573111 87.2490435723 -2.21419568657e-19)
(148.159968351 86.5447792311 -4.87708633947e-20)
(148.159968351 86.5447792311 -4.87708633947e-20)
(130.353818961 84.1239439576 -7.08867522953e-21)
(130.353818961 84.1239439576 -7.08867522953e-21)
(119.60809896 91.0809937529 1.53795829525e-20)
(119.60809896 91.0809937529 1.53795829525e-20)
(114.340827837 109.775265307 -5.37831480494e-20)
(101.331219201 115.96722117 -5.99364691951e-21)
(87.9350586257 121.530163387 -4.41184244183e-20)
(73.5518252532 127.215815479 -4.90163672382e-20)
(58.2179788314 132.09828564 -5.15752714726e-20)
(39.3249539427 119.805147928 -2.52380759177e-20)
(39.3249539427 119.805147928 -2.52380759177e-20)
(24.0495336119 121.714235393 -1.66514837686e-20)
(8.32368981123 122.082935601 -2.9333093476e-20)
)
;
    }
}


// ************************************************************************* //
