/*--------------------------------*- C++ -*----------------------------------*\
| =========                 |                                                 |
| \\      /  F ield         | OpenFOAM: The Open Source CFD Toolbox           |
|  \\    /   O peration     | Version:  v2012                                 |
|   \\  /    A nd           | Website:  www.openfoam.com                      |
|    \\/     M anipulation  |                                                 |
\*---------------------------------------------------------------------------*/
FoamFile
{
    version     2.0;
    format      ascii;
    class       volVectorField;
    location    "3.3";
    object      ddt0(rho,U);
}
// * * * * * * * * * * * * * * * * * * * * * * * * * * * * * * * * * * * * * //

dimensions      [1 -2 -2 0 0 0 0];


internalField   nonuniform List<vector> 
1984
(
(0.89587024603 -0.869440214219 5.16908238945e-20)
(1.05556276794 -2.14327477185 4.53109109808e-20)
(1.15183562723 -3.80176182359 -2.0908579921e-19)
(1.28574481781 -5.67470600411 -5.57569715151e-20)
(1.48390527016 -7.8336225077 8.95007822444e-20)
(1.73838624861 -10.4202937513 9.87662126904e-20)
(2.07582815148 -13.5940868044 1.62727730036e-19)
(2.51350657323 -17.5173656294 2.17183477104e-19)
(3.07347523571 -22.4086536002 -1.23187258563e-19)
(3.79044813623 -28.5691172265 -2.0800814329e-19)
(4.71734199762 -36.3556665159 -2.19835478577e-19)
(5.87783748952 -46.1970168539 -1.34796542395e-19)
(7.40088140083 -58.6685607857 -4.76325759973e-19)
(9.49284373923 -75.0593507334 -1.0228199018e-18)
(12.2797422816 -94.8328879481 -1.66680127906e-18)
(16.6001210203 -129.316513163 2.61518449488e-18)
(27.6117271832 -164.186310752 2.19291577105e-17)
(21.7440780224 -88.5075698688 -4.41891986417e-18)
(-4.86192542729 19.8470408156 -1.31245256538e-17)
(-0.0522041862033 -0.28681753202 -7.04232829096e-20)
(2.07682377743 -0.965347018808 7.32279474215e-20)
(2.29816634583 -2.10274750131 -2.66058893635e-19)
(2.52339423528 -3.67623082413 -7.80994343845e-20)
(2.89971840579 -5.49708016818 7.90837251807e-20)
(3.44890983769 -7.57914219422 -1.71849348879e-19)
(4.18909398057 -10.0699649696 2.03368931783e-19)
(5.15640403838 -13.1087269104 1.27644335912e-19)
(6.41670845004 -16.8614900013 2.73734895298e-20)
(8.03663946187 -21.5283872699 3.13794936912e-19)
(10.1209166311 -27.37192262 -2.95638952596e-19)
(12.8095132979 -34.7331580853 2.3471208947e-19)
(16.2777920006 -44.0043708462 6.2790383787e-20)
(20.8011452076 -55.7630973109 -8.81023187367e-19)
(26.8077696724 -70.844574992 -1.59389869523e-18)
(35.1848274844 -88.9632395674 -2.80275824382e-18)
(49.0435312971 -120.443637183 1.17393272357e-18)
(69.5842383471 -146.84457918 2.65828186449e-18)
(39.8708521539 -77.243773667 8.70731905124e-18)
(-11.6729499112 16.0959200554 4.94067857195e-18)
(-0.00870839838837 -0.313105117966 1.72000085544e-19)
(3.41163909472 -0.920066545285 -2.74111687239e-19)
(3.70366301142 -1.8554375066 -3.68990795919e-19)
(4.07548727537 -3.24827789117 -3.05243475919e-19)
(4.69686518357 -4.87405065665 -8.24036405636e-20)
(5.57603942099 -6.71943516381 4.61301033302e-20)
(6.76401121761 -8.93376896554 -4.34641487243e-20)
(8.3159872041 -11.6323956793 8.92426027952e-20)
(10.3247612094 -14.9502672046 -2.94219878169e-20)
(12.9092881887 -19.0739784129 -1.60931503197e-19)
(16.2197377086 -24.2222578594 8.46527956366e-20)
(20.472256164 -30.6671138155 5.21191374994e-20)
(25.9433895646 -38.7593214087 -2.2511337037e-19)
(33.0084455514 -48.9722706443 -5.19390726109e-19)
(42.2010206497 -61.9774536064 -2.64249384129e-19)
(54.35634868 -77.209166031 -5.42126380602e-18)
(72.6154940823 -102.799372139 8.90656227166e-18)
(101.65796252 -120.027360889 3.20964437343e-17)
(89.4239991586 -51.2886067994 1.56316165582e-17)
(-19.8799919413 14.9315887375 8.23326133856e-18)
(0.00253111901763 -0.380142489026 4.55208928266e-20)
(4.57383849396 -0.816375981808 7.49246507693e-20)
(4.97832172547 -1.50631025229 -2.89096672564e-19)
(5.47850160691 -2.66727354969 -2.34884635448e-19)
(6.29710753411 -4.01447112188 -1.08439220652e-19)
(7.47144893418 -5.53526165382 -7.43872343436e-20)
(9.0396344434 -7.35561521007 -6.66470009573e-20)
(11.0980934461 -9.57875675388 3.10745190325e-20)
(13.7459284731 -12.301773132 -3.76662019321e-20)
(17.1337004327 -15.6701586697 -5.70897118909e-20)
(21.4711018271 -19.8509189975 -3.7389731863e-20)
(27.0239047881 -25.0485666313 -1.98903766351e-21)
(34.1403881108 -31.5014178248 -1.44365159884e-19)
(43.3244906897 -39.5724398446 2.6806165754e-20)
(55.1260110291 -49.5930493597 -8.16256410029e-20)
(70.3433697432 -60.8809771662 -1.89074946325e-18)
(91.6700144177 -81.0687766534 -7.36844702367e-18)
(122.61428675 -92.757118813 1.75950047748e-19)
(120.836163767 -29.9100319174 4.84331344171e-18)
(-23.2757391675 14.2333310423 6.08389573665e-18)
(0.0127088076858 -0.36540496146 -1.09552422555e-19)
(5.45548125358 -0.679196595511 -1.79867954882e-19)
(5.92885035722 -1.07044431908 1.16905433427e-19)
(6.52362340737 -1.9351149075 -2.63397976597e-19)
(7.50930559911 -2.92623988851 -1.09855140715e-19)
(8.91334047228 -4.03598088106 -5.10132548331e-20)
(10.7838549318 -5.37650175133 -6.8475563983e-20)
(13.2256399876 -7.00980702913 -3.64229708059e-20)
(16.3529604246 -9.01211275511 -1.8452681223e-21)
(20.354910137 -11.4553406974 2.982717025e-21)
(25.452945198 -14.4486859618 -6.6358664624e-20)
(31.9439682036 -18.1289190157 -4.00715527554e-20)
(40.2233179154 -22.5958322733 -2.17026501504e-19)
(50.8266831499 -28.1023946305 -6.81270533976e-19)
(64.3974747177 -34.8250595827 -5.81129519961e-20)
(81.5401186084 -41.8217529968 1.47682589022e-19)
(104.748679834 -56.341405538 2.94221883133e-18)
(136.815591013 -63.3375654855 1.71608529702e-20)
(139.564597223 -12.2581580742 1.175493912e-18)
(-24.7319175505 13.4934235152 5.81243872438e-18)
(-0.00903403919813 -0.170222681059 5.17555366478e-20)
(6.02778966219 -0.506393977234 5.40274029266e-20)
(6.5559693422 -0.562408057758 7.53411083454e-20)
(7.21697484976 -1.05836590867 -1.48348895275e-19)
(8.32619441387 -1.64752010896 -3.44301867599e-20)
(9.88579202487 -2.29907163078 -4.19388387499e-21)
(11.9657674202 -3.08851194449 -1.07439968816e-20)
(14.658873728 -4.06557799035 -1.1713375559e-20)
(18.1093357055 -5.24230105873 2.43975843664e-21)
(22.4962056923 -6.6501211516 1.86608409123e-20)
(28.0348608655 -8.34596537052 -3.07206952736e-20)
(35.0496045331 -10.3627504679 -4.34124683321e-20)
(43.953372522 -12.6857055795 -2.04268604308e-19)
(55.2649013575 -15.3825168934 -9.83871249087e-19)
(69.7936669514 -18.4540173339 -4.9662441847e-19)
(88.0818519485 -20.815970583 -6.10931868705e-19)
(112.330777369 -28.6352206099 5.6678025778e-18)
(144.52532698 -29.8502569436 1.99681754327e-17)
(143.473502727 4.66802713429 4.67712758222e-18)
(-26.1185678619 11.8564638464 4.95013599299e-18)
(-0.0462817182501 0.203271501008 6.86276321817e-20)
(6.24524660696 -0.313980088961 1.20750936985e-19)
(6.82157898158 -0.00401404259303 -1.85517095343e-19)
(7.51845844491 -0.0992925496456 -1.75313389127e-20)
(8.68542274973 -0.254763969085 3.96459143177e-20)
(10.3365988936 -0.409860167071 1.74818754994e-20)
(12.5281441668 -0.619915831196 -1.47349216992e-23)
(15.3459967788 -0.889183046312 -7.74469973368e-21)
(18.9380115343 -1.20669594069 1.71719716191e-21)
(23.4501012524 -1.56991302797 -4.30369091459e-21)
(29.129093433 -1.93737997639 -7.22884088766e-23)
(36.2618227981 -2.23741490947 -5.48625248797e-20)
(45.2359098465 -2.36819349792 -2.21485751572e-19)
(56.512782419 -2.18287603356 -1.16048977211e-18)
(70.911999784 -1.49273973457 -9.64107521822e-19)
(89.2281313056 0.669641682153 -3.42582166805e-18)
(113.33621489 0.929706509371 7.01342140982e-18)
(144.250707164 7.49082229808 -1.06583539556e-18)
(129.801699679 21.9591600304 1.22220902002e-17)
(-26.950266545 9.3320880607 4.18916746223e-18)
(0.0653549589809 1.22375089797 6.375987946e-20)
(6.08297251641 -0.11677567667 -9.20063231987e-20)
(6.69967424516 0.576726901531 2.89928131911e-20)
(7.39623176681 0.895783916188 -2.37295221514e-19)
(8.57875641445 1.18642572596 -4.94967525529e-20)
(10.2491681577 1.54039003643 -3.31144632009e-21)
(12.4484427851 1.91698645261 2.43494280653e-21)
(15.2735130397 2.33812899243 -8.82170268892e-21)
(18.8225488106 2.84998658336 2.24860443582e-20)
(23.2573344032 3.51892807646 -2.78648517096e-20)
(28.7705455649 4.43644390788 -1.37328749569e-20)
(35.6062806113 5.7280343009 -5.17272435006e-20)
(44.098403041 7.60691942985 -9.43564696678e-20)
(54.6332875202 10.4241939497 -7.35054262728e-19)
(67.7815364233 14.6996454691 2.70198535711e-19)
(84.4457067378 21.1482877382 -4.43952799483e-18)
(105.885969157 30.4473308068 2.46084553015e-19)
(133.467894081 43.3160538564 -6.62317294573e-18)
(89.1400835864 39.8379813345 8.14810979422e-18)
(-12.461201143 3.01010763633 2.50870979097e-18)
(0.69933507909 1.82247034672 3.83579582651e-21)
(5.5320467948 0.0842789948636 6.05377268444e-20)
(6.17767758256 1.15665514987 -1.21236558525e-19)
(6.84367536771 1.88649044997 -1.31214039254e-19)
(8.00126230884 2.61976926478 -4.17363493161e-20)
(9.62911526607 3.45959834359 2.13637298716e-20)
(11.7542848725 4.40482790338 -2.22085074565e-20)
(14.4565970096 5.48308073496 6.2938257015e-20)
(17.8266857049 6.76764229461 -5.36076946169e-20)
(21.9815531605 8.36065237588 2.38344537856e-20)
(27.0737159001 10.3949964257 -2.13455745091e-20)
(33.2822142359 13.088150736 -1.28933725794e-19)
(40.851889632 16.7117682493 -1.4321462989e-19)
(50.0368614147 21.6656385271 -5.00667788185e-19)
(61.1720508272 28.627494458 -6.26879669405e-19)
(74.7999314766 38.4986562414 -1.70917432984e-18)
(91.6993810717 53.9792595477 -2.74944501569e-18)
(111.766988924 72.7331445128 7.02345167817e-20)
(49.8777962088 58.1399180057 3.85554538453e-18)
(1.9891467843 -1.24611603934 -6.03902216548e-19)
(0.260214032486 -0.787191582383 -2.41670052979e-20)
(4.60504862543 0.279821709771 -4.35685481919e-21)
(5.2559729732 1.71547813264 2.8892623263e-19)
(5.88178043943 2.83852853628 -5.31542778533e-20)
(6.97002088258 3.99577348135 1.14292004835e-20)
(8.50510276276 5.29399086945 2.63548584574e-20)
(10.4929857404 6.74530406266 3.53376523993e-20)
(12.9786545343 8.40787272364 3.92258513016e-21)
(16.0446018117 10.3651723884 4.0448815042e-21)
(19.7665599254 12.7496968149 -4.00402146062e-20)
(24.2396446234 15.7194974979 -2.22854315628e-20)
(29.5867072361 19.5007197414 -7.33746445469e-20)
(35.9209490615 24.4152471922 -3.91461361461e-20)
(43.3631206167 30.9411499586 -2.69537558648e-19)
(52.0278856026 39.7097571473 1.15514618867e-18)
(62.2823390687 51.4549952142 -2.0463167347e-19)
(73.9866975543 70.039941456 -2.87181856912e-18)
(84.3555741353 92.4237519774 -3.15467288845e-17)
(34.8501454086 68.7016446529 1.01174305065e-17)
(-1.55087170624 0.818333117936 4.41923230755e-19)
(-0.307218554413 -0.950226441732 2.29532188976e-20)
(3.31124719091 0.456360895838 3.8364134764e-19)
(3.96204762442 2.24057843132 -5.05351741802e-20)
(4.52912637884 3.73099932181 1.25155209489e-19)
(5.52460890479 5.26790372681 1.3535001949e-20)
(6.92206767686 6.98227318757 2.87374451581e-20)
(8.71456407195 8.87958478152 3.82224231671e-20)
(10.9322587534 11.0323176104 2.40805524186e-21)
(13.6111412602 13.5434670147 5.08154558558e-22)
(16.8005392245 16.53500407 6.78592055517e-20)
(20.5367925635 20.1948905781 4.85716497231e-20)
(24.8678242586 24.7587212009 -7.2981422379e-20)
(29.8154442636 30.5193752254 -5.70550669865e-20)
(35.3651962483 37.9541998786 -9.35460921729e-19)
(41.4479865532 47.6658308095 -5.50415396207e-20)
(48.3794771776 60.2055006391 7.04921882048e-19)
(55.3661849657 79.8238716453 -2.94270864385e-18)
(57.6791202071 102.793859219 -7.88686160054e-18)
(19.0450714044 74.1153131192 1.43791508893e-17)
(-0.618359493102 0.749013349224 3.14471509824e-19)
(-0.163509170012 -0.190462117617 1.2977446681e-19)
(1.67905454337 0.621630612031 -8.77161337324e-20)
(2.33597854123 2.7203376067 1.1852724369e-19)
(2.81970003552 4.54242505502 -1.3169553339e-19)
(3.70757426405 6.41548714913 -4.58452583698e-20)
(4.94387202936 8.48354274296 1.77252124328e-20)
(6.50879183589 10.7559617864 4.37361277282e-21)
(8.41425404433 13.3015907605 5.41900905771e-20)
(10.6724250711 16.2229212858 1.26530204034e-20)
(13.2814224217 19.6562522252 8.29699459732e-20)
(16.24720205 23.7649938288 9.37573512073e-20)
(19.5257705062 28.7656107433 -1.42025275737e-19)
(23.0611132688 34.9328255038 1.00933087465e-19)
(26.72857668 42.6915977646 -3.27543623484e-19)
(30.4249284693 52.5451340427 5.4933897639e-19)
(34.1222093975 64.9687117981 -2.69549700889e-19)
(36.8263668878 85.0590569014 2.58762374773e-18)
(33.5270552087 107.339932807 -1.35574623143e-17)
(8.19637923973 77.7064429877 1.11252334735e-17)
(-0.0331436779229 0.470586157158 1.51856105637e-19)
(0.0634321951045 0.130624789218 2.08805564091e-20)
(-0.247105327969 0.773027673945 2.62420417397e-20)
(0.400718682944 3.14913578899 1.76198689839e-19)
(0.800211785347 5.25540904459 -2.15735854604e-19)
(1.56620454569 7.42063562711 -4.43524853425e-20)
(2.63485762562 9.7829698266 4.00981423204e-20)
(3.96351237896 12.3500167274 1.69984623949e-20)
(5.54517709639 15.1932022106 4.924959944e-20)
(7.37050663194 18.4015620006 6.30630031027e-20)
(9.41504466175 22.0938405541 1.48304750899e-19)
(11.6204721357 26.4243229176 9.32212675102e-20)
(13.9118160355 31.5739378593 -5.83648369529e-20)
(16.1451772615 37.7643121547 9.09584261372e-20)
(18.1147357644 45.3594423294 -2.14940870422e-19)
(19.6333538542 54.6724972537 5.92315363155e-19)
(20.3062229271 66.3888626841 -1.7589070992e-18)
(19.0400810675 84.8500360439 -9.23452259185e-18)
(11.656188579 104.077982179 -4.35942292357e-17)
(-7.19286279531 76.1449223566 1.74181176203e-17)
(0.226610881762 -0.292762225343 -2.05844416134e-19)
(0.0235292918917 0.119378000529 3.36900679348e-20)
(-2.4389257882 0.900042782967 8.72829812154e-20)
(-1.81293230657 3.51820705701 2.99343076626e-20)
(-1.49257558959 5.87251276249 1.32791378072e-19)
(-0.839265549692 8.27945352409 4.59828190913e-20)
(0.0615857116051 10.8784707991 1.2072997993e-20)
(1.16187260171 13.6655486973 3.24203814109e-20)
(2.43488908902 16.7070651669 6.17220183026e-20)
(3.85379188386 20.087435988 -5.95068738652e-20)
(5.37055320715 23.8962987885 8.2323034557e-20)
(6.90015404242 28.2544319916 1.00993121149e-19)
(8.32479208163 33.3066466008 -7.09115938202e-20)
(9.4547446496 39.2094648513 -9.35301777576e-20)
(10.0274329974 46.2422062286 -8.74849978107e-19)
(9.72982843109 54.5793871708 2.45763184381e-19)
(7.91963927107 64.7581875753 -1.20859687158e-18)
(3.46305808563 80.3576464436 2.73771521977e-19)
(-4.89251904205 93.1221208193 2.16180013304e-18)
(-22.2802024645 68.6782169791 2.42578645269e-18)
(0.529236385523 -0.871229784906 -1.93053263956e-19)
(-0.0811389310337 0.0963614048916 -2.42215802722e-20)
(-4.87333436459 1.00695599788 2.92845036492e-19)
(-4.25221278461 3.82753648095 3.19689897591e-19)
(-4.0097802786 6.4017148026 3.13230942449e-19)
(-3.46875937302 9.00299876823 1.56998093939e-19)
(-2.71694035162 11.7803452253 2.07724891795e-20)
(-1.82417535679 14.7238311422 1.60130380797e-21)
(-0.822326089711 17.8873628686 4.35569935796e-21)
(0.246333085693 21.3375634225 -2.81409214796e-20)
(1.31035000979 25.1357917813 -1.98720018254e-20)
(2.27751339645 29.3744010229 3.97502625037e-20)
(2.99709116144 34.1519704847 -6.67909410028e-20)
(3.27644524429 39.5566940505 4.70891590456e-20)
(2.82891768869 45.7645030674 -1.3598545701e-19)
(1.34181590436 52.8374211513 1.38203509137e-18)
(-1.87248072219 60.8170119965 9.53428851695e-19)
(-7.81915863811 71.7208546095 3.12833763316e-20)
(-15.1317937907 76.5748818687 -1.06081057219e-17)
(-33.0043326144 59.653004179 -1.89803059942e-17)
(0.747987961741 -1.1018393463 2.93446572207e-19)
(-0.0795302465542 -0.0959592650114 -5.25003956823e-20)
(-7.50761883364 1.10299853925 2.47688291611e-19)
(-6.87686228408 4.09427524019 1.3541708593e-19)
(-6.70722028488 6.83705957315 2.33506561947e-19)
(-6.26383294021 9.60068650942 8.04403898228e-20)
(-5.6460125787 12.5197648929 3.20617348244e-20)
(-4.9311654532 15.5638488739 2.32749045301e-20)
(-4.15155254127 18.7848035036 1.85610866217e-20)
(-3.36776534831 22.2266377777 6.93194930725e-22)
(-2.65490485444 25.9295692181 -1.51505235308e-20)
(-2.1183019502 29.9419580836 1.40306093625e-20)
(-1.90783886488 34.3317757267 -1.26483197092e-19)
(-2.22457824456 39.1327495042 -5.32889450137e-20)
(-3.34514178079 44.4437905263 -2.3157308899e-19)
(-5.55857233256 50.2976925334 -9.91459062719e-20)
(-9.37502761629 56.4981178705 1.87042889265e-18)
(-15.1028439179 64.3445875081 5.98667923912e-18)
(-19.897300895 65.1176601418 9.5895369663e-18)
(-36.1039460834 53.5500556228 -4.52815157985e-18)
(1.06402964567 -1.73555803928 1.413533951e-19)
(-0.0675652833464 -0.216185155378 -2.16247031164e-20)
(-10.2986566218 1.18972978753 -3.77774910453e-20)
(-9.67153612929 4.32241943856 -6.20090539569e-20)
(-9.55683196598 7.20849354153 -4.10640556848e-20)
(-9.18766183512 10.0995393199 -4.21922714764e-20)
(-8.6787488089 13.1198844829 -1.70454669097e-20)
(-8.10001178603 16.2369012556 6.70346416669e-21)
(-7.49388896925 19.4716852786 1.5412790466e-20)
(-6.91466166889 22.8496202852 2.78443844524e-21)
(-6.44282960448 26.3940881479 3.50784545072e-21)
(-6.19248652292 30.1244426323 -4.12342741728e-21)
(-6.30255354365 34.0692581949 -1.41865072246e-20)
(-6.98055840235 38.2149140293 -2.14111516748e-20)
(-8.48992155361 42.6152292459 -1.76888557493e-19)
(-11.1395454355 47.4151652682 3.56270957244e-20)
(-15.3706449213 52.2089207302 2.35229428704e-18)
(-20.5720074173 58.1037956171 -1.75904837435e-18)
(-22.0920964607 60.0504424859 8.24515052362e-18)
(-35.9545594332 52.3950019135 -1.07707766755e-18)
(1.43098446148 -2.82537409262 -7.76922513255e-20)
(-0.0827747475402 -0.165278688381 -2.53887133403e-20)
(-13.2309494182 1.25478141904 -3.00045732223e-19)
(-12.6034004956 4.51537911736 -3.26241246486e-19)
(-12.535998827 7.52368773767 -2.0277470891e-19)
(-12.2279556206 10.517833373 -9.227491387e-20)
(-11.7912036396 13.6192274428 2.62881915375e-21)
(-11.303746974 16.7732073736 -6.52969341292e-21)
(-10.8038292302 19.9997514901 5.39829576471e-21)
(-10.3437560962 23.3027420228 6.35567981517e-21)
(-10.0017557276 26.6721220958 2.87336683516e-20)
(-9.8790648455 30.1028635185 -1.08824638145e-20)
(-10.128998058 33.5940275895 -6.90742060304e-21)
(-10.9303981195 37.0926115397 -7.47915103345e-20)
(-12.5571335739 40.5919718462 -1.43765954949e-19)
(-15.356785267 44.3640517279 -4.60206160712e-19)
(-20.0159280883 47.8920818092 -2.94053472133e-18)
(-25.7535773167 51.4979319542 -6.48135260861e-19)
(-25.6349064508 54.9177549757 8.49549530081e-18)
(-39.0034112491 53.2772544772 2.57347188542e-17)
(1.79622316534 -3.58409069391 -1.61109775369e-18)
(-0.10690625484 -0.115921786708 6.64991893472e-20)
(-16.3002957892 1.31740332993 -2.45926690799e-19)
(-15.6582381286 4.68154157843 -3.17710381359e-19)
(-15.6309745576 7.79322358506 -1.56308728763e-19)
(-15.3594275168 10.8764145889 -1.55229052092e-19)
(-14.9678919797 14.0432835349 -4.9391765928e-20)
(-14.5243287176 17.23236641 -4.97513370758e-21)
(-14.0637404902 20.4440091509 4.40528509154e-21)
(-13.6419735303 23.6667409527 1.2158063862e-20)
(-13.3303035762 26.8841339738 7.47313864397e-21)
(-13.2173545337 30.0460588172 1.71118264965e-20)
(-13.4176172588 33.1170297479 5.50654133569e-21)
(-14.1266982256 36.0184040146 -1.1773001054e-19)
(-15.6036969973 38.6756453929 -4.12067477433e-19)
(-18.2678630043 41.4340596785 -6.8519041425e-19)
(-23.074052883 43.7773920147 4.84073570483e-19)
(-29.8633618095 44.417872859 -3.16719259166e-18)
(-30.3182020712 46.9851291994 -2.85476057258e-18)
(-48.6738013903 52.3170508378 4.04967480087e-17)
(2.30410675163 -4.58049781763 -2.6502676312e-18)
(-0.12960431239 -0.202735634217 1.94853441768e-19)
(-19.4647519485 1.38356815395 -8.12316248353e-21)
(-18.8221503829 4.83314849908 1.77324735272e-19)
(-18.817382769 8.03889328031 8.32351582415e-20)
(-18.5622597373 11.2037194653 -4.65976619496e-20)
(-18.1879046418 14.4318585152 -1.59706116479e-20)
(-17.7506588342 17.6558750776 -2.35079728611e-20)
(-17.2875727352 20.867031652 -2.11324673053e-20)
(-16.8380562847 24.0385977547 4.31736349748e-20)
(-16.4547590437 27.1228421816 -2.25156373001e-20)
(-16.2222124537 30.0685727846 -2.74247520541e-20)
(-16.2303339477 32.7914303127 6.38242291287e-20)
(-16.6511517903 35.1734413226 -2.08354994902e-19)
(-17.7298414153 37.0747705524 -4.60956816246e-19)
(-19.9267100174 38.8128989884 -9.13606282642e-19)
(-24.2933647619 39.9649719293 3.96732197052e-18)
(-31.28258855 36.9811612397 4.30429579054e-18)
(-32.9290094204 36.5347739054 4.45193977103e-18)
(-59.9966170991 48.0333253914 6.95453006173e-18)
(2.87821448202 -4.96705614969 -2.2960753734e-18)
(-0.189518616528 -0.203084823085 1.68037667121e-19)
(-22.7184554739 1.43345402344 2.86020609031e-19)
(-22.0620858798 4.96451029732 2.4669033482e-19)
(-22.0776825839 8.27373501951 2.11354110103e-19)
(-21.8321193368 11.5206753138 -1.16234987728e-20)
(-21.4547126629 14.8185125145 4.1350587207e-21)
(-21.0031985657 18.0993062562 8.93684116808e-21)
(-20.5035630637 21.3390544028 -5.39030146986e-22)
(-19.9718099707 24.5009017104 -4.01343332444e-21)
(-19.4402006936 27.5182679307 -1.04651408584e-19)
(-18.9659261873 30.3089968672 -4.30670665227e-20)
(-18.6471298207 32.7676217283 -2.49100880346e-20)
(-18.6035375872 34.7462095553 -1.36724519392e-19)
(-19.0659204122 36.021433534 -3.62369529035e-19)
(-20.4465073834 36.8194907713 -1.41859012855e-18)
(-23.7426846201 36.836417075 1.25819669389e-18)
(-29.7637909227 30.7722022548 3.29250813553e-20)
(-30.9937099815 27.189547906 -1.70628226047e-18)
(-68.40698462 43.3870930624 4.31855857545e-18)
(3.24738699408 -4.20079797631 -1.16385700838e-18)
(-0.197481914338 -0.0925098522887 7.51288757933e-21)
(-26.0634889773 1.4943773183 1.42600875433e-19)
(-25.3953360908 5.0997617973 9.58408007453e-20)
(-25.4235003623 8.49606637291 -2.72979056786e-20)
(-25.1825925454 11.8383206998 -9.84331613088e-20)
(-24.7996056872 15.2269070642 -9.21037979557e-20)
(-24.3283975676 18.5873492297 -3.6088557793e-20)
(-23.7576260277 21.8931997467 -5.5680115486e-21)
(-23.1033198498 25.1046042593 -3.54620272866e-21)
(-22.374123402 28.1377559382 -1.21307119666e-19)
(-21.5938042998 30.8887226888 -2.90836427352e-20)
(-20.8146388497 33.2188057995 3.92055580142e-20)
(-20.1352643506 34.9475211256 -2.59991644769e-19)
(-19.7466704589 35.7916124094 -1.16539312876e-19)
(-19.9876077086 35.823047262 -9.64599662656e-19)
(-21.5841851671 34.7268134473 1.47416910991e-18)
(-25.5474941567 26.6346639309 -5.14099204441e-18)
(-25.6724315985 20.4412302797 -1.94470495933e-17)
(-74.6725899124 40.0557358499 -3.92888440771e-18)
(3.19077906883 -2.87530621336 -3.17857883276e-19)
(-0.160815302942 -0.107771240127 4.44877688587e-20)
(-29.4913241159 1.5431418051 -4.06224282683e-21)
(-28.8172137581 5.22106122833 -5.82197948364e-20)
(-28.8585746139 8.72290658273 -1.53785719942e-19)
(-28.6198857974 12.1597636762 -5.31360378224e-20)
(-28.2316130583 15.6437425602 -9.87816346101e-20)
(-27.7326264305 19.1232049859 -7.06304306e-20)
(-27.0968214149 22.5556912522 -2.91673000502e-20)
(-26.3132246413 25.8842529713 -7.11481445356e-20)
(-25.3600122406 29.0356794533 -5.06499070098e-20)
(-24.224002562 31.8886928919 -9.57370114139e-20)
(-22.9100213363 34.279211494 -2.73938231102e-20)
(-21.4587874517 35.9841495923 -1.91320107584e-19)
(-19.999929167 36.648872033 -3.28426556016e-19)
(-18.7801831639 36.2416185894 -5.57586340074e-19)
(-18.159355502 34.2841661855 -1.5107861521e-18)
(-18.906993779 24.7302929989 4.34580929831e-18)
(-18.4216101833 16.6293674117 1.4592557075e-17)
(-79.9313694891 37.7909030917 1.00447693691e-17)
(2.63989592735 -1.49290338373 -2.28032475445e-19)
(-0.224238268245 -0.216461984112 4.97911469104e-20)
(-33.0136283887 1.60171450708 -5.84394554846e-20)
(-32.3140180222 5.33708980793 -1.4031892667e-19)
(-32.383300506 8.93237403665 -1.70456675256e-20)
(-32.1618081861 12.47703825 -1.29666217749e-19)
(-31.7776622686 16.0825727177 -3.78260311391e-20)
(-31.2586420602 19.7016677478 -4.13738957404e-22)
(-30.5811391405 23.3020462777 9.60937861729e-21)
(-29.6849712509 26.8390031667 1.10790512656e-20)
(-28.5217983745 30.2323000975 2.71621127198e-20)
(-27.0389061275 33.3538637508 1.80885855122e-20)
(-25.1740399664 36.0302205193 -9.91160347075e-21)
(-22.8785943172 38.0083710659 -2.57359376772e-19)
(-20.1828559253 38.8730915999 -7.69093422008e-20)
(-17.1780705495 38.4660471112 -4.17378411611e-19)
(-13.8442318949 36.0566897737 1.91712961693e-18)
(-10.3369452156 25.1406178287 -1.002957087e-19)
(-8.06321014548 14.1085187272 3.68022505166e-18)
(-81.1769472316 33.5265946627 2.42639862406e-18)
(0.432287837091 1.95076377157 1.8188159646e-19)
(-0.395418122109 0.00397944605156 1.43390147014e-19)
(-36.599821469 1.65927073832 -1.60895642067e-19)
(-35.9077780048 5.43663799141 -8.37667697839e-20)
(-36.0051265343 9.10751280336 3.5877913741e-20)
(-35.8190490695 12.7651992992 -1.79192164135e-20)
(-35.4693360339 16.5056753306 -1.37712101335e-20)
(-34.9765755555 20.2967821968 5.93891016164e-21)
(-34.2880053429 24.1200970567 -1.0935240783e-20)
(-33.3252623838 27.9414135947 5.44725719781e-20)
(-32.0077365035 31.6880727009 3.42718509816e-21)
(-30.2371059286 35.2539158906 3.79319280045e-20)
(-27.8712808648 38.4811756778 1.10153176652e-19)
(-24.774409623 41.0990193573 -2.03670709821e-19)
(-20.8212688176 42.664540891 1.68194141405e-20)
(-15.8239584883 42.9212498742 -4.58849803261e-19)
(-9.30070493208 40.9812340627 1.1996399044e-18)
(-0.701733922402 29.7296202196 5.09825186387e-18)
(6.01684747632 14.8175882073 1.10983735774e-19)
(-77.4556497364 31.0431268723 9.86331991673e-18)
(-3.45258917806 6.97522480781 1.55667210772e-18)
(-0.495917688745 0.4007786582 1.93413374835e-19)
(-40.2348856233 1.69435485173 2.53989626771e-20)
(-39.5711155712 5.50029944608 -3.82973167807e-20)
(-39.714033352 9.24731403938 5.95636584318e-20)
(-39.5905383927 13.0025342415 -4.58656306596e-20)
(-39.3151368331 16.8778546234 5.53541001895e-20)
(-38.8996100038 20.8568297188 3.00995954216e-20)
(-38.2720219421 24.9416079846 2.22357711849e-21)
(-37.3347265756 29.115963785 6.2118209573e-22)
(-35.9711349729 33.3260295808 -1.11747504367e-19)
(-34.0312330738 37.5064474901 -1.01069295368e-20)
(-31.3164215549 41.5325592248 2.41686291245e-20)
(-27.5834777718 45.1686183511 3.86352540635e-20)
(-22.5126947619 48.061305149 2.7215948353e-19)
(-15.6334005352 49.8941509308 -2.2464502191e-19)
(-5.80907924376 49.8024969707 -2.13505036579e-19)
(8.56283901362 40.7604404544 -2.09677027184e-19)
(22.9363930986 22.2782612585 -3.19575617679e-18)
(-74.0027966975 33.0785853582 -1.76351506184e-18)
(-11.0970993461 10.4761213835 1.1395353309e-18)
(-0.443766369145 0.84086477073 1.22507033036e-19)
(-43.9052800559 1.73158111013 -4.58448460981e-20)
(-43.2631472254 5.52712020883 -1.15777229529e-19)
(-43.4859103632 9.3163470237 -3.39592046003e-20)
(-43.4622729529 13.151118157 -6.45088269093e-21)
(-43.3107343208 17.1490682808 -3.14915576332e-20)
(-43.0386870353 21.3155099046 -1.23980321059e-19)
(-42.5623974938 25.6761653858 -6.38105360588e-20)
(-41.7688418107 30.2408578775 -1.17171384575e-20)
(-40.5128740802 34.9955798177 -1.68285521327e-20)
(-38.6023204386 39.9227670391 -6.20312333197e-20)
(-35.7977185164 44.966640778 1.50006277422e-19)
(-31.7528894558 50.0005457346 -6.26064632076e-20)
(-25.9933741589 54.7984380915 -9.49594646054e-20)
(-17.8039241362 59.2112603612 -6.69291787065e-19)
(-5.45831396035 62.5983893437 -1.30086519299e-18)
(13.4038431755 60.0295349043 5.35206530587e-18)
(40.2397483724 39.9102719663 2.76458782937e-18)
(-74.4066646236 41.1779585067 -1.25614530666e-17)
(-12.8395007322 7.15098478059 1.58700419477e-19)
(-0.134969134492 1.17659599316 2.92519478712e-21)
(-47.5614629529 1.76038967943 4.62228881622e-20)
(-46.9640346833 5.50437272698 -1.23788160301e-19)
(-47.2852043455 9.29226849896 -4.4017997488e-20)
(-47.401537128 13.1721097363 -2.58824882033e-20)
(-47.4335453169 17.2597710219 -1.32206288323e-20)
(-47.3859602043 21.5876857037 -6.8885331255e-20)
(-47.1688754644 26.2082829385 -1.6823451262e-20)
(-46.6614376167 31.1677390245 2.40597903515e-21)
(-45.6971770794 36.4977618244 -7.55174327406e-20)
(-44.0715271717 42.2329810827 -1.38265064095e-20)
(-41.5133338828 48.4087685751 1.02656551893e-21)
(-37.644778499 55.0482343649 -8.33156443414e-20)
(-31.921537652 62.1376716715 -5.61237186045e-20)
(-23.4793974437 69.8597604263 -5.53517012396e-19)
(-10.5058470165 78.371736122 -8.86967136489e-19)
(10.2391900209 86.4692650903 4.98190896255e-18)
(48.8918873387 77.0346682522 1.42305772887e-17)
(-91.2455819722 61.8616902657 -3.04472142349e-18)
(2.91899104786 -1.5332252241 6.09197346006e-20)
(0.307060444513 0.271822784648 -3.41163432716e-20)
(-51.1234989349 1.75519862461 -1.18448240814e-19)
(-50.6179622992 5.40805320275 -1.8402602718e-19)
(-51.0648581036 9.14211922292 -7.4927159901e-20)
(-51.367997507 13.007639408 -1.08039237147e-19)
(-51.6460113265 17.1309247287 -5.25341400429e-20)
(-51.9090188905 21.5702067305 -1.5061569085e-20)
(-52.0662417157 26.4048600337 5.21737480375e-21)
(-52.0025790117 31.7208038615 4.31684115838e-21)
(-51.5305602258 37.5949325669 -1.57620344905e-19)
(-50.4709824519 44.1190682559 -1.9573989081e-19)
(-48.543645765 51.4148030984 -1.67223641532e-20)
(-45.3931756634 59.6482656234 -1.54039246464e-19)
(-40.5109045119 69.0441257868 8.85291732188e-20)
(-33.1369859669 80.1322372553 -1.87958429312e-19)
(-21.9617481098 94.1545796769 1.56058717031e-18)
(-4.4252603334 112.801528046 3.55390832298e-18)
(35.1732747823 117.301499244 3.39521566737e-17)
(-115.507942863 82.261601039 3.60832681027e-17)
(12.9478200512 -4.57381969958 1.20236778163e-19)
(-0.221500099808 -2.02456173912 -8.01445943656e-20)
(-54.7013088465 1.78005916828 -9.31767245338e-20)
(-54.1859457608 5.19805348138 -3.16771552453e-19)
(-54.7751641788 8.80624794285 -8.26702482505e-20)
(-55.2971320642 12.5886272218 -5.7606964462e-20)
(-55.8849041584 16.681752388 -3.78952022244e-20)
(-56.5486403176 21.1578073949 -1.997434551e-20)
(-57.1986281859 26.1205223482 5.89617424545e-21)
(-57.7351874646 31.7145392737 6.79287492744e-20)
(-57.9431073149 38.043557154 -9.67938053435e-20)
(-57.7288416046 45.2390579998 -3.22264332033e-20)
(-56.8017813497 53.5148451385 5.19850449259e-20)
(-54.8715467723 63.1267703778 -9.86051177321e-20)