/*--------------------------------*- C++ -*----------------------------------*\
| =========                 |                                                 |
| \\      /  F ield         | OpenFOAM: The Open Source CFD Toolbox           |
|  \\    /   O peration     | Version:  v2012                                 |
|   \\  /    A nd           | Website:  www.openfoam.com                      |
|    \\/     M anipulation  |                                                 |
\*---------------------------------------------------------------------------*/
FoamFile
{
    version     2.0;
    format      ascii;
    class       volScalarField;
    location    "3.3";
    object      ddt0(k);
}
// * * * * * * * * * * * * * * * * * * * * * * * * * * * * * * * * * * * * * //

dimensions      [0 2 -3 0 0 0 0];


internalField   nonuniform List<scalar> 
1984
(
-0.00113059044823
-0.00130628963199
-0.00136229857711
-0.00138185318903
-0.0013895699016
-0.00139373525971
-0.00139688789452
-0.00139960826298
-0.00140179383659
-0.00140248805026
-0.00139956533719
-0.00138926970865
-0.00137041715474
-0.00133753198518
-0.00121070724752
-0.000358960738342
0.00426555126566
0.0204082356514
0.0476932035849
0.0227361786342
-0.00131103625377
-0.00161027073897
-0.00170128329036
-0.00173334544104
-0.00174547660173
-0.0017516099019
-0.00175612809056
-0.00176022537059
-0.00176388157936
-0.00176577917915
-0.00176359562477
-0.00175321129591
-0.00173027128315
-0.00167839586415
-0.0014558625679
-0.000411598013847
0.00361555874057
0.0199896912891
0.0660042030211
0.0474745320303
-0.00135788218877
-0.00168648161255
-0.00178806061782
-0.00182371937101
-0.00183660037326
-0.00184237768196
-0.00184623981888
-0.0018495022212
-0.00185201472178
-0.00185249447879
-0.00184816502497
-0.00183500681282
-0.00180803198421
-0.0017440057749
-0.00147476521126
-0.000356426507633
0.00318145420482
0.0176592408042
0.0717321947282
0.0615338500113
-0.00137200655687
-0.00170949844592
-0.00181442781546
-0.00185113966813
-0.00186403447908
-0.00186948793295
-0.00187289616143
-0.00187566347495
-0.00187766231008
-0.00187751478876
-0.00187242552861
-0.00185840035683
-0.00183091618813
-0.00176530062317
-0.00148034851826
-0.000254029217352
0.0034918892852
0.0159161252797
0.0607512455031
0.0477348273115
-0.00137764119635
-0.00171749540564
-0.00182327314778
-0.00186009974146
-0.0018727933383
-0.00187796661068
-0.00188109136873
-0.00188360849282
-0.00188539495281
-0.00188514972362
-0.00188014786137
-0.00186682774129
-0.00184170598034
-0.00178136770068
-0.00149304938991
-0.000125942421067
0.0041585149984
0.0143301752641
0.04050567214
0.026127736783
-0.0013815900663
-0.00172199357177
-0.00182777966352
-0.00186441134094
-0.00187687291428
-0.00188183451514
-0.00188479355055
-0.00188721188794
-0.0018889857107
-0.00188892234047
-0.00188451205936
-0.00187273439326
-0.00185137395922
-0.00179949274365
-0.00151754985929
-5.14067740906e-05
0.0046176714229
0.0122550698742
0.0191433933486
0.00725672480437
-0.00138530443543
-0.00172604435636
-0.00183158297594
-0.00186795514188
-0.00188020605238
-0.0018850154158
-0.00188789658598
-0.00189030007902
-0.00189217933924
-0.00189242623452
-0.00188881638613
-0.00187882523641
-0.0018614714141
-0.00181792890531
-0.00155127163652
-0.000102528293208
0.00439104991223
0.00893605613158
-0.00680098765947
-0.0100056487756
-0.00138909542329
-0.00173010239223
-0.00183542066286
-0.00187155032248
-0.00188363324571
-0.00188835003792
-0.00189119077043
-0.00189364218605
-0.00189569382747
-0.00189634070542
-0.00189356534842
-0.00188528739073
-0.001871261654
-0.00183428614724
-0.00158390058286
-0.000232967783249
0.00355750453254
0.00383238122143
-0.030407582323
-0.202101017654
-0.00139279812332
-0.00173422965217
-0.00183934378542
-0.00187524915447
-0.00188718950628
-0.00189185040129
-0.00189470110177
-0.0018972352104
-0.00189947778211
-0.00190052469449
-0.00189858521177
-0.00189194061724
-0.00188089144004
-0.00184913262157
-0.00161555896428
-0.000387078131469
0.00256405568411
-0.000667949226547
-0.0356346150237
-0.168405506959
-0.00139635654555
-0.001738328339
-0.00184325986067
-0.0018789573329
-0.00189078034857
-0.00189539592868
-0.0018982804439
-0.00190091049368
-0.00190336615496
-0.00190480712831
-0.00190356939265
-0.00189820305193
-0.00188952267599
-0.00186289306843
-0.00164766321039
-0.000524631243008
0.00182103757864
-0.00333283816073
-0.0299758440689
-0.135982438426
-0.00139975579279
-0.00174226685972
-0.00184707709664
-0.00188258436523
-0.00189430640193
-0.00189889893216
-0.00190181253022
-0.00190454874997
-0.00190718502103
-0.00190896822398
-0.00190830299705
-0.0019037313939
-0.00189592277863
-0.00187075037809
-0.00166950894972
-0.000642511754056
0.00150385973493
-0.00260846462813
-0.0222413005933
-0.0584708541364
-0.00140291737721
-0.00174604809508
-0.00185074915979
-0.00188606917705
-0.00189769363042
-0.00190226794804
-0.00190521622962
-0.00190803383916
-0.00191083610936
-0.00191287776476
-0.00191259787668
-0.00190826045789
-0.00189921970846
-0.00186733536105
-0.00165443905827
-0.000702353298105
0.00111588812065
-0.00118974160092
-0.0115037658706
-0.0123773588254
-0.00140576940279
-0.00174962632742
-0.00185422995987
-0.0018893706836
-0.00190089189402
-0.00190543967026
-0.00190841299078
-0.00191129514125
-0.00191420673196
-0.00191644501938
-0.0019163924552
-0.0019119671515
-0.00190111622413
-0.00186204612694
-0.00163339796922
-0.000667757666228
0.00130965638276
0.000320868390818
-0.0121076667425
-0.00792213316316
-0.00140838267589
-0.00175297401658
-0.0018574794254
-0.00189243804429
-0.00190385885584
-0.00190836971024
-0.00191134474557
-0.00191426208012
-0.00191724546932
-0.00191959753279
-0.00191966100225
-0.00191501315281
-0.00190257302099
-0.0018585599285
-0.00161623359209
-0.000584529060873
0.00177799906419
0.00184146576985
-0.0111576360925
-0.00741091478153
-0.00141069095094
-0.00175604116302
-0.00186045329982
-0.0018952422191
-0.00190655605933
-0.00191101700578
-0.00191396404542
-0.00191688507936
-0.00191989370247
-0.00192229353066
-0.00192238590014
-0.0019175104799
-0.00190423359038
-0.00185895740935
-0.00160561973901
-0.000451160108919
0.00235620201258
0.00243622932178
-0.00525211252728
-0.00430852778474
-0.00141265835536
-0.00175884742432
-0.00186315891351
-0.00189776264224
-0.00190894350999
-0.00191334454829
-0.00191626800236
-0.00191913850446
-0.00192211203615
-0.00192448256422
-0.00192446402052
-0.00191904478683
-0.0019039028189
-0.00185417978013
-0.00158474979739
-0.000331827844957
0.00282374965547
0.00351604187716
-0.00113917195253
-0.0024467364501
-0.0014143513842
-0.00176140608378
-0.00186559271432
-0.00189996330594
-0.00191104480117
-0.00191536594722
-0.00191821502591
-0.00192099075189
-0.00192389343413
-0.00192615937813
-0.00192589429217
-0.00191951507836
-0.00190082092966
-0.00184103361214
-0.00154590886467
-0.000206865181342
0.00335941824128
0.00568153275548
3.8752472866e-05
-0.00257566211304
-0.00141589509961
-0.00176363844165
-0.00186770019512
-0.00190190909924
-0.00191282083496
-0.00191702449042
-0.00191981942293
-0.00192252460565
-0.00192527142504
-0.00192735597453
-0.00192679416813
-0.00191939627542
-0.00189682531063
-0.00182638774949
-0.00151054763449
-9.11675669371e-05
0.00406312295109
0.00853674401309
0.00321202603985
-0.00206384699902
-0.0014171784747
-0.00176558717333
-0.00186953020218
-0.00190351324505
-0.00191428374644
-0.00191844112122
-0.0019211082848
-0.00192367915544
-0.00192627239486
-0.00192820224291
-0.00192741909881
-0.00191934581385
-0.0018939993581
-0.00181626200203
-0.00149148663796
-1.34814644214e-05
0.00481216775582
0.0116936174264
0.00663240628611
-0.00192855764808
-0.00141829546908
-0.00176739597018
-0.00187109977878
-0.00190483854981
-0.00191548151588
-0.00191950421029
-0.00192205343254
-0.00192448893179
-0.00192692559616
-0.00192871169811
-0.00192781865431
-0.00191948187452
-0.00189266530185
-0.00181078430699
-0.00148411968341
2.27296955754e-05
0.00539864597509
0.0146351295133
0.0110011318251
-0.000936466861558
-0.00141932669249
-0.00176902182312
-0.00187246036317
-0.00190591576076
-0.00191636712455
-0.00192025588708
-0.00192269003813
-0.00192499043513
-0.00192727205339
-0.00192890558149
-0.00192796384877
-0.00191961988636
-0.00189219375307
-0.00180793799554
-0.0014807910248
3.92635721945e-05
0.00579732711783
0.0168424816173
0.0142072325799
0.000257980421852
-0.00142014725785
-0.00177052406111
-0.00187361861562
-0.0019067396823
-0.0019169871967
-0.00192074774061
-0.00192305555994
-0.00192521064407
-0.00192733493742
-0.00192883678898
-0.00192786500814
-0.00191963845792
-0.00189207027559
-0.0018064415332
-0.00147823274948
5.27925384904e-05
0.00601257641691
0.0178016635345
0.0161202773921
0.000678044663038
-0.00142098597822
-0.00177187519571
-0.00187458692039
-0.0019073364368
-0.00191736686844
-0.00192098681489
-0.0019231719008
-0.00192518826581
-0.00192715609066
-0.00192853277875
-0.00192755982382
-0.00191951953414
-0.00189199006466
-0.00180520831217
-0.00147515813315
6.19306359564e-05
0.00608963791335
0.0175635406791
0.0149829378646
-0.000900002022525
-0.00142176418099
-0.00177315554492
-0.00187541111776
-0.00190775109377
-0.00191754601338
-0.00192101451905
-0.00192308253272
-0.00192496849197
-0.00192678868112
-0.00192804820828
-0.00192710211662
-0.00191934273041
-0.0018921604738
-0.00180485368189
-0.00147496044995
3.95765155167e-05
0.00600831660115
0.018088586424
0.0188850656485
0.000293966827098
-0.00142262653095
-0.00177438238644
-0.00187609808203
-0.00190800211906
-0.0019175572097
-0.00192089039701
-0.00192283994155
-0.0019246061275
-0.00192629852636
-0.0019274643847
-0.00192658693635
-0.00191925902243
-0.00189290746414
-0.00180699217827
-0.00148822718155
-5.23433448753e-05
0.00590105648832
0.0211848844295
0.0326853732149
0.00596301648922
-0.00142371993195
-0.00177551761884
-0.00187662532109
-0.00190808091698
-0.00191740272022
-0.00192061464713
-0.00192247734119
-0.00192415286952
-0.00192574137324
-0.00192686519922
-0.00192612414107
-0.00191943111151
-0.00189471508623
-0.00181404872164
-0.00152572381921
-0.000226418129034
0.0058918775358
0.0260575336124
0.0427393131677
0.00980878891165
-0.00142508574047
-0.0017766938241
-0.00187704493377
-0.00190803260312
-0.00191714311457
-0.00192026467909
-0.00192207511003
-0.00192369717277
-0.00192523277378
-0.00192635145914
-0.00192583479623
-0.00192002644695
-0.0018978997076
-0.00182591370467
-0.0015819206329
-0.000483438676444
0.00552824666833
0.0288999337341
0.042822494272
0.0123279767588
-0.00142675435489
-0.00177797897961
-0.00187738272712
-0.00190785310634
-0.00191676912171
-0.00191983560583
-0.00192163707409
-0.00192326109455
-0.00192481655986
-0.00192602802203
-0.00192589400213
-0.00192134171042
-0.00190280781502
-0.00184121420805
-0.00163946103784
-0.000751489108653
0.00454348784692
0.0262112624745
0.0306011640415
0.0103482954582
-0.00142871224471
-0.00177917384535
-0.0018775871495
-0.00190755413845
-0.0019163160791
-0.00191937132479
-0.00192121344761
-0.00192290291189
-0.00192456515517
-0.00192597765025
-0.00192639351015
-0.00192346749718
-0.00190961774063
-0.00186066991862
-0.00169743680378
-0.000996748298636
0.00310808646311
0.0180326849182
0.0201600096147
0.00475185405867
-0.00143005586537
-0.001780803145
-0.00187788519918
-0.00190716056626
-0.00191581521331
-0.00191890931748
-0.0019208503092
-0.00192267495533
-0.00192452619224
-0.00192625946236
-0.00192739602645
-0.00192647931517
-0.00191877774011
-0.00188830328339
-0.00177743810249
-0.001268039092
0.0015026973648
0.00888870081309
0.0213185116376
0.00355714134411
-0.0014292384654
-0.00178275078727
-0.00187879083044
-0.0019073486168
-0.00191554828251
-0.0019185394937
-0.00192058250578
-0.00192262723038
-0.00192482000975
-0.00192697540923
-0.00192893847364
-0.0019304586201
-0.00193086562703
-0.00192860908348
-0.00190807794852
-0.00167473964583
4.57268604014e-07
0.00354171596763
0.00632700410434
-0.00255823552123
-0.0014291431587
-0.00178431669056
-0.00187937966736
-0.00190724887393
-0.00191517762401
-0.00191814533572
-0.00192029149475
-0.00192253394574
-0.00192500842599
-0.00192772634649
-0.00193070067858
-0.00193480692528
-0.00194570072749
-0.00198765571255
-0.00210843101624
-0.00225141767376
-0.00150580883872
-0.000230277977619
-0.0156501769748
-0.108847220362
-0.00142867477322
-0.00178594390063
-0.00187995391017
-0.00190715491196
-0.00191482781558
-0.00191780159162
-0.00192011902054
-0.00192265718846
-0.0019255051213
-0.00192869260296
-0.0019324236995
-0.00193865976005
-0.00195843260529
-0.00204154243089
-0.00232756633436
-0.00291024148233
-0.00299204032874
-0.00241817334897
-0.0184202010425
-0.105948601961
-0.00142809285658
-0.00178735895624
-0.00188038786271
-0.00190698797258
-0.00191445562635
-0.00191747648576
-0.00192001183705
-0.00192288401422
-0.00192618057567
-0.00192996655433
-0.0019347027722
-0.00194350742126
-0.00197374022293
-0.00210507644515
-0.00254892917099
-0.0034504809842
-0.00410933141119
-0.003908196924
-0.00359710814576
0.147851974438
-0.00142747710415
-0.00178842037793
-0.00188056367017
-0.00190666939341
-0.00191402639038
-0.00191716616752
-0.00191997455465
-0.00192322522287
-0.00192700273203
-0.00193139027499
-0.00193703500014
-0.0019482923423
-0.00198730005571
-0.00215083112972
-0.0026991301917
-0.00388324060229
-0.00530044619316
-0.00677845658795
-0.00283131344701
0.203905282892
-0.0014268152781
-0.0017890097925
-0.00188040137233
-0.00190615843029
-0.00191351867969
-0.00191686110862
-0.0019200083765
-0.00192370212634
-0.00192800061299
-0.00193295246733
-0.00193914194498
-0.00195101589541
-0.00199136580241
-0.00215694661345
-0.00273094687595
-0.00411552163433
-0.00618482686257
-0.0091388410512
-0.0178188997173
0.0187057293486
-0.00142596577631
-0.00178904197315
-0.00187986149481
-0.00190542370203
-0.00191290385181
-0.0019165422856
-0.00192011580306
-0.00192434315113
-0.00192924775798
-0.00193477586082
-0.00194117217543
-0.00195173310383
-0.00198648175109
-0.00213846429726
-0.00270875793454
-0.0042114850517
-0.00666704696887
-0.00922064961315
-0.00996366931299
0.033103279275
-0.00142496640559
-0.00178852224997
-0.00187890411365
-0.00190442460867
-0.0019121547413
-0.00191619494683
-0.00192029610283
-0.00192516999406
-0.00193084368251
-0.00193723571144
-0.00194465337534
-0.00195697619012
-0.00199813633628
-0.00217601487753
-0.00281719891315
-0.00443682497258
-0.00715363563844
-0.00956077380588
0.00323238882651
0.103842465599
-0.00142364334053
-0.00178736222753
-0.00187749694416
-0.00190313213992
-0.00191123887112
-0.00191578474429
-0.0019205009328
-0.00192616660798
-0.00193275043292
-0.00194025234526
-0.00194940704205
-0.00196668971941
-0.00202675626822
-0.00226598144934
-0.00303048154504
-0.00478378438191
-0.00787840173052
-0.0120903111015
-0.00284610347373
0.0959029916085
-0.00142190709137
-0.00178548100927
-0.00187557719173
-0.0019015179318
-0.00191010948039
-0.00191527578167
-0.00192082858231
-0.00192725219394
-0.00193487415507
-0.00194331877006
-0.00195404180599
-0.00197343107908
-0.00203874609378
-0.00228963717839
-0.00307513269704
-0.00491034205232
-0.00852070908783
-0.0155781110496
-0.0219462126992
0.080498561132
-0.0014196665274
-0.0017828791965
-0.0018731218737
-0.00189953215774
-0.00190882820053
-0.00191478503283
-0.00192090732082
-0.00192847069414
-0.00193694441491
-0.00194673238137
-0.00195748572386
-0.00197282757987
-0.00201516715137
-0.00219083745548
-0.00285141596743
-0.00475505808776
-0.00892544499451
-0.017634875373
-0.0355839625298
0.0565744346196
-0.00141703117868
-0.00177954824117
-0.0018701295263
-0.00189719672617
-0.00190720298168
-0.00191376826286
-0.00192102772394
-0.00192969614334
-0.00193950536742
-0.00195052589557
-0.00196286213854
-0.00197738784844
-0.00200749532023
-0.00213352316511
-0.00269834560157
-0.00466393026731
-0.00936751669476
-0.0184041803611
-0.0270683584753
0.0673915672474
-0.00141388012544
-0.00177552351831
-0.00186649964656
-0.00189430505438
-0.00190513568062
-0.00191287618925
-0.00192073614885
-0.00193021266497
-0.00194141594432
-0.00195443140175
-0.00196925241323
-0.00198655393172
-0.00201845604465
-0.00214228570774
-0.00270779219081
-0.00477452223554
-0.00982680958772
-0.0181454684657
-0.0159365168262
0.000791291184378
-0.00141033559818
-0.00177086119503
-0.00186227760903
-0.00189075563792
-0.00190245391667
-0.00191048949794
-0.00191934035325
-0.00192952731315
-0.00194143159339
-0.00195645197014
-0.00197426728036
-0.00199498758046
-0.0020354104634
-0.00219079739243
-0.00284670851007
-0.00506381769288
-0.01024165806
-0.0182283773468
-0.0156573471197
-0.0162377071412
-0.00140637168689
-0.00176560861137
-0.00185758490926
-0.00188677082278
-0.00189881706891
-0.00190717456066
-0.00191537890368
-0.00192386556428
-0.00193414127391
-0.00195158816291
-0.00197269708419
-0.00199488621384
-0.00204785499575
-0.00226090326954
-0.00306294548454
-0.00547050007512
-0.0106075221331
-0.01829706275
-0.0139582305688
0.0674898218589
-0.00140217431363
-0.0017599235029
-0.00185253239535
-0.00188226376961
-0.00189412643359
-0.00190061235325
-0.00190410164491
-0.0019047317869
-0.00190508725194
-0.00192681731098
-0.00195165782824
-0.00197099332625
-0.00204784815674
-0.00236199849881
-0.00335673265174
-0.00599151669128
-0.0110103995038
-0.0179537716142
-0.0204531636148
0.0316385262462
-0.0013979461587
-0.00175403049084
-0.00184730666145
-0.00187712463355
-0.00188693679683
-0.00188571527007
-0.00187194541259
-0.00185413999005
-0.00181120280156
-0.00184216092088
-0.00188309804134
-0.00191363424766
-0.00203985657183
-0.0025112037101
-0.00377498901991
-0.00668013496442
-0.0115881668277
-0.0176004496687
-0.0300957789188
-0.188026513885
-0.00139374468062
-0.00174814713957
-0.0018420762768
-0.00187120099174
-0.00187498434267
-0.00185124365957
-0.00178363009037
-0.00165873935771
-0.00149880613169
-0.00152612166619
-0.00163157140213
-0.0018045196435
-0.00206474506249
-0.00267307610457
-0.00413520652302
-0.00726551085118
-0.0120479019918
-0.0165746956345
-0.0231795712179
-0.282576576576
-0.00138996492045
-0.00174277066141
-0.00183685151802
-0.00186462590245
-0.00186497250265
-0.00183577248728
-0.0017517750338
-0.00150862572717
-0.00199524665835
-0.00275251319051
-0.00444429523657
-0.00771126513635
-0.0121787270896
-0.0157248725167
-0.0242854443877
-0.232071767901
-0.00138770162871
-0.00174016891265
-0.0018347412195
-0.00186171487037
-0.001857795277
-0.00181605064257
-0.00170197544816
-0.00139309267743
-0.00207934433779
-0.00349610184983
-0.00564073201245
-0.0088130852169
-0.0124960336583
-0.015108056995
-0.0190257071794
-0.0613960916245
-0.00138770962546
-0.00174012875398
-0.0018346558355
-0.00186159128779
-0.00185765034873
-0.00181589703805
-0.00170183427278
-0.0013930823546
-0.00207766641912
-0.00350300853899
-0.00565124308304
-0.00883330912175
-0.01253209345
-0.0150687497946
-0.00587075406801
0.141984711833
-0.00138991249119
-0.00174264234475
-0.00183662619365
-0.00186431739081
-0.00186460216191
-0.00183535053653
-0.00175136253697
-0.00150850963708
-0.00199620246262
-0.00274825728497
-0.00443176865972
-0.0076727883879
-0.0121424871368
-0.0165726886669
-0.0170218825982
0.349884139534
-0.0013936606403
-0.00174796842992
-0.00184175056358
-0.00187073720727
-0.00187441787899
-0.00185064934339
-0.00178306855023
-0.00165819624784
-0.00149931040745
-0.00152652920794
-0.00163243093038
-0.00180611513246
-0.00206569841721
-0.0026720575572
-0.00412270796737
-0.00720594534041
-0.011915575789
-0.0173157087917
-0.0236371278665
0.121705073055
-0.00139775924375
-0.00175371585686
-0.00184686444581
-0.00187656462231
-0.00188629041185
-0.00188503277521
-0.00187132315121
-0.00185367378778
-0.00181093713698
-0.00184214535093
-0.00188349617299
-0.0019144819926
-0.00204104805686
-0.00251151253413
-0.00376951871699
-0.00665065177444
-0.0115303278825
-0.0177206818261
-0.0208883549169
0.116388167096
-0.00140194427488
-0.00175955664057
-0.00185201964648
-0.00188161264355
-0.00189337482117
-0.00189981550946
-0.00190333999203
-0.00190411327485
-0.00190466885183
-0.00192669310508
-0.00195188369127
-0.00197166633543
-0.00204888102126
-0.00236294655811
-0.00335769708351
-0.00599683134004
-0.0110595665576
-0.0178942648009
-0.0166180109219
0.323335967854
-0.00140613132508
-0.00176524414619
-0.00185705218646
-0.00188606950703
-0.00189800011149
-0.00190630183526
-0.00191453137489
-0.00192314811891
-0.00193364883195
-0.00195139061688
-0.00197281865711
-0.00199540134241
-0.00204875955597
-0.00226214286983
-0.00306631311028
-0.00548349398139
-0.0106631844902
-0.0183488492858
-0.00707164686712
0.262907189672
-0.00141012024449
-0.00177054751983
-0.00186176228604
-0.0018900168161
-0.00190139178648
-0.00190958418697
-0.00191845300959
-0.00192875264712
-0.00194086867749
-0.00195617639444
-0.00197430564005
-0.0019953980297
-0.002036188681
-0.0021920525499
-0.0028504578687
-0.00507644042465
-0.0103027279041
-0.0187214312264
-0.00642379041967
0.286662805051
-0.00141375578897
-0.00177528923284
-0.00186601106773
-0.00189349553861
-0.00190408345231
-0.00191152120099
-0.00191969733688
-0.0019294391861
-0.00194081914903
-0.00195411678675
-0.00196924899693
-0.00198689988026
-0.00201911041651
-0.00214338574646
-0.00271111275972
-0.00478765971846
-0.009911715983
-0.0192602120828
-0.0282549193133
0.212865387457
-0.00141693740804
-0.00177938932321
-0.00186973533319
-0.0018965256124
-0.00190630897145
-0.0019128721653
-0.00192005865454
-0.00192868408989
-0.001938750515
-0.00195017967217
-0.00196283351939
-0.00197786993442
-0.00200846051697
-0.00213509272206
-0.00270166875792
-0.00467408612842
-0.00940554045025
-0.0186241545668
-0.0383099189452
0.0863776522608
-0.00141962382867
-0.00178279198798
-0.00187287583638
-0.00189908733331
-0.00190814705885
-0.00191388862722
-0.00192012317762
-0.00192763473024
-0.00193639838376
-0.00194627836279
-0.00195743411281
-0.00197314637584
-0.00201585634911
-0.00219198604108
-0.00285363124405
-0.00476016550313
-0.00893001698499
-0.0173135805254
-0.0280509477119
0.454686609645
-0.00142193011555
-0.00178548201446
-0.00187545483764
-0.00190122412614
-0.00190966593803
-0.00191468866412
-0.00192006841324
-0.00192658075433
-0.00193424778323
-0.00194301696232
-0.00195380330703
-0.00197361756205
-0.00203928939803
-0.00229065528036
-0.00307671972962
-0.00491162657045
-0.00851723499933
-0.0155436881735
-0.0202865306062
0.0755195920086
-0.00142374123353
-0.00178743739664
-0.00187747554044
-0.00190296461939
-0.00191091104217
-0.00191531906217
-0.00191995563913
-0.00192560051975
-0.00193224797096
-0.00193985432288
-0.00194921816734
-0.00196673543312
-0.00202710352572
-0.00226661108513
-0.00303112463883
-0.00478279618577
-0.00789220284793
-0.0126122990289
-0.00696792766144
-0.174998573573
-0.00142510929517
-0.00178863647135
-0.00187893961009
-0.00190433521333
-0.00191192211474
-0.0019158303399
-0.00191982703512
-0.00192469790452
-0.00193041164001
-0.00193689134959
-0.00194444759354
-0.00195695569398
-0.00199834947735
-0.00217638036749
-0.00281725558383
-0.00443478557682
-0.00716401319005
-0.0100702255773
-0.000587088198537
-0.116990837426
-0.00142619375567
-0.00178923839456
-0.00187997883657
-0.00190540070395
-0.00191270938115
-0.00191616215171
-0.00191960085216
-0.0019237708803
-0.00192874834838
-0.00193445936327
-0.00194098069814
-0.00195167635305
-0.0019866271066
-0.00213865868988
-0.00270840204731
-0.00420834680502
-0.00665491461898
-0.00928770710311
-0.0122653513573
-0.000666400659317
-0.00142691955333
-0.00178907732628
-0.00188042759357
-0.00190612029291
-0.00191340576701
-0.00191667221988
-0.00191976095663
-0.00192342186246
-0.00192755138932
-0.00193254512133
-0.00193881630169
-0.00195081950041
-0.00199144481631
-0.00215692516024
-0.00273038356897
-0.00411117469498
-0.00615772743336
-0.00909518045094
-0.01862962886
0.00779432828913
-0.0014275419219
-0.001788432165
-0.0018805528128
-0.00190661895494
-0.00191392849509
-0.00191701933131
-0.00191978680102
-0.00192301569566
-0.00192678799401
-0.00193117382541
-0.00193684533996
-0.00194805729842
-0.00198720846294
-0.00215066193682
-0.00269874669759
-0.00387978150215
-0.0052753746078
-0.00689476093317
-0.00600222512615
0.188322622392
-0.00142812117424
-0.00178731730752
-0.00188033905241
-0.00190692172608
-0.00191436423609
-0.00191735558949
-0.00191986269181
-0.00192271666239
-0.00192600785205
-0.0019297845296
-0.00193452051968
-0.00194331349874
-0.00197353810025
-0.00210494305948
-0.00254929591332
-0.00345398980096
-0.00415590453233
-0.0045271375455
-0.0129239434796
-0.124285268463
-0.00142867576781
-0.00178586063386
-0.00187988036117
-0.00190708100608
-0.00191474580881
-0.001917704931
-0.00192000419801
-0.0019225260511
-0.00192536496186
-0.00192853806989
-0.00193224741292
-0.00193843679373
-0.00195814128706
-0.00204119960691
-0.00232834365946
-0.00292387685328
-0.00317353154622
-0.00324023862742
-0.0204803873746
-0.106021533038
-0.00142912802991
-0.00178420147152
-0.00187928741983
-0.00190717467017
-0.0019151117129
-0.00191807794092
-0.00192021559446
-0.00192244479965
-0.00192490858132
-0.00192760216338
-0.00193053745019
-0.00193457030344
-0.00194532420433
-0.00198702996186
-0.00210885159279
-0.00228180777143
-0.00171113514665
-0.000737522463762
-0.0164816109159
-0.110869521946
-0.00142922068834
-0.0017826309382
-0.00187870286515
-0.00190729012959
-0.00191550712714
-0.00191850707688
-0.00192055059294
-0.00192258996652
-0.00192477494443
-0.0019268651915
-0.00192879167507
-0.00193016190677
-0.00193016451721
-0.00192683055342
-0.00190604063272
-0.00170018914687
-0.000160297758052
0.00351743710755
0.00739260217067
-0.00284961033444
-0.00143006622392
-0.00178068816474
-0.0018777841156
-0.00190713747005
-0.00191581080466
-0.00191891611546
-0.00192086233469
-0.00192268903409
-0.00192453433169
-0.00192624223143
-0.00192731060757
-0.00192622402012
-0.00191797855326
-0.00188571671115
-0.00177148280714
-0.00127150208452
0.00151297377445
0.0102012421099
0.0251225618559
0.00965037903555
-0.00142866515119
-0.00177911673175
-0.00187756499089
-0.00190756203691
-0.00191634664378
-0.00191941965119
-0.00192127646205
-0.00192297786186
-0.00192464538962
-0.00192604597263
-0.00192640721682
-0.00192331473189
-0.00190881845368
-0.00185760858612
-0.0016883054772
-0.000977440631168
0.00320242031995
0.019235568246
0.0275087235211
0.0112188981848
-0.00142674114198
-0.00177794880653
-0.00187738819389
-0.00190788798112
-0.00191682954132
-0.00191992021166
-0.00192174583469
-0.00192339452849
-0.00192497730501
-0.00192619859526
-0.00192604352543
-0.00192134760694
-0.00190219752614
-0.00183825062022
-0.00162946447877
-0.000727466819496
0.0045939427436
0.0264374629782
0.0326830536424
0.0130569604017
-0.00142510777938
-0.00177669244667
-0.00187707238039
-0.00190808882988
-0.00191722850717
-0.00192038291203
-0.00192222958965
-0.00192389261515
-0.00192548018716
-0.0019266354876
-0.00192614199341
-0.001920258944
-0.00189767961252
-0.00182394599719
-0.00157628103996
-0.000481114136598
0.00553892151118
0.0297819922725
0.0472123795796
0.0161089645874
-0.00142377898103
-0.00177554508716
-0.00187668216898
-0.00190817010089
-0.00191752643284
-0.00192077865558
-0.00192268810291
-0.00192441715135
-0.001926075917
-0.00192725630538
-0.00192657766363
-0.00191989157544
-0.00189496794143
-0.00181388761473
-0.0015289020347
-0.000251472968451
0.00602683359445
0.028354257732
0.046524247998
0.0109348676025
-0.00142268077942
-0.00177440926572
-0.00187614687215
-0.00190807923324
-0.00191767068751
-0.0019210502243
-0.00192305995337
-0.00192489658478
-0.00192667780259
-0.00192794980116
-0.00192719058952
-0.00191997350916
-0.00189371506622
-0.00180866948689
-0.00149895766083
-9.47631034732e-05
0.00609691002711
0.023315254293
0.0313593844898
0.00429062814251
-0.00142186324179
-0.00177323549274
-0.00187551215641
-0.0019078799625
-0.00191771097226
-0.00192122657506
-0.00192334886421
-0.00192530362936
-0.0019272066673
-0.00192857237649
-0.00192775451169
-0.00192015143928
-0.00189317194154
-0.00180658061018
-0.00148243570702
1.08610232913e-05
0.00611488217036
0.0190755660535
0.0156307935332
-0.00237298950843
-0.00142110844661
-0.00177197779487
-0.00187470293029
-0.00190747647684
-0.00191754204524
-0.00192120764228
-0.00192345121397
-0.00192553877435
-0.00192759273534
-0.00192907954933
-0.0019282486071
-0.00192040872482
-0.00189316533772
-0.00180661664543
-0.00147631302785
5.81384618522e-05
0.00605060959624
0.0170384661023
0.0128116401559
-0.0020209666524
-0.00142029052277
-0.00177064042564
-0.00187374121209
-0.0019068810171
-0.00191716240395
-0.00192096870209
-0.00192333537895
-0.00192556015411
-0.00192776873836
-0.00192937613858
-0.00192854462646
-0.00192054109045
-0.00189323578293
-0.00180686183618
-0.00147067970427
7.2526639815e-05
0.00574776861706
0.0152744586245
0.0136352652465
0.000389982276629
-0.00141947958583
-0.00176913830639
-0.00187258149241
-0.00190605288583
-0.00191653448782
-0.00192047022172
-0.00192296045812
-0.00192532616554
-0.00192768519679
-0.00192941611569
-0.00192861009275
-0.00192046526218
-0.00189314028408
-0.00180677276263
-0.00146502280524
6.36227084214e-05
0.00526788908141
0.0130320141097
0.012607342083
0.00102317606324
-0.00141843717278
-0.00176750599566
-0.00187122757725
-0.00190498140918
-0.00191564073171
-0.00191969899485
-0.00192229956948
-0.00192479681803
-0.00192730301145
-0.00192917268136
-0.00192839894657
-0.00192024231384
-0.00189338693409
-0.0018087412988
-0.00146807001886
1.64772949153e-05
0.00471677704346
0.0112245646969
0.0104145674453
0.000474926819914
-0.00141731762177
-0.00176570057746
-0.00186964940534
-0.0019036462537
-0.00191446166371
-0.00191862089099
-0.00192132745028
-0.00192394535586
-0.00192660289903
-0.0019285939912
-0.00192796105227
-0.00192003234822
-0.00189469540072
-0.00181512239109
-0.00148485803822
-6.07080925891e-05
0.00421482655873
0.0101655199342
0.00971554947054
0.000814028155176
-0.00141601059261
-0.00176374863673
-0.00186781355673
-0.00190202901846
-0.00191296981379
-0.00191723104588
-0.00192002523493
-0.00192276164134
-0.00192553465989
-0.00192772614141
-0.00192720835802
-0.00192004307165
-0.00189750753982
-0.00182652842362
-0.00151300300008
-0.000146916086593
0.00380936478782
0.00927983423493
0.00756444643215
0.000119665834199
-0.0014144530654
-0.00176149774457