/*--------------------------------*- C++ -*----------------------------------*\
| =========                 |                                                 |
| \\      /  F ield         | OpenFOAM: The Open Source CFD Toolbox           |
|  \\    /   O peration     | Version:  v2012                                 |
|   \\  /    A nd           | Website:  www.openfoam.com                      |
|    \\/     M anipulation  |                                                 |
\*---------------------------------------------------------------------------*/
FoamFile
{
    version     2.0;
    format      ascii;
    class       volScalarField;
    location    "3.3";
    object      k_0;
}
// * * * * * * * * * * * * * * * * * * * * * * * * * * * * * * * * * * * * * //

dimensions      [0 2 -2 0 0 0 0];


internalField   nonuniform List<scalar> 
1984
(
0.00221628659047
0.00258490377826
0.00270372711448
0.00274899455476
0.00277087038716
0.00278578781686
0.00279890627827
0.00281183036124
0.00282526312826
0.00284026659377
0.00286004861623
0.00289305535348
0.0029585700252
0.00309074416785
0.00335028111703
0.00390539359843
0.00553488590906
0.0114817569198
0.030230125764
0.0727971394201
0.00259227331886
0.00318736043071
0.0033679447832
0.0034349063863
0.00346428503045
0.00348196839206
0.00349637843952
0.00351030643999
0.00352495293697
0.0035420530595
0.00356653678209
0.00361017861967
0.00369841405841
0.00387719276735
0.00423437607257
0.0050256006385
0.00713729174666
0.0132829167762
0.0316643553384
0.0734983734638
0.00271674446615
0.00337838977975
0.00358248050068
0.00365761160161
0.00368927698628
0.00370733230531
0.00372173119795
0.00373561964984
0.00375037465366
0.00376806101408
0.00379408089262
0.00384148745708
0.00393749897094
0.00413157416354
0.00452156733342
0.00539327361045
0.0076494084558
0.0136570650644
0.0310607824753
0.0727592054421
0.00276528210058
0.00345175562916
0.00366524296347
0.00374351047651
0.00377568301559
0.0037934540607
0.00380744694694
0.00382101910129
0.00383562789611
0.00385338732043
0.00387981052049
0.0039281805155
0.00402595024839
0.00422275203448
0.00461825924846
0.0055130250206
0.00788954828707
0.0142230703902
0.0316216086396
0.0731594665452
0.0027882541993
0.00348406058861
0.00370110784957
0.00378028819092
0.00381221388565
0.00382941581708
0.00384283663493
0.00385595812568
0.00387025253936
0.00388780622798
0.00391404288047
0.00396206829125
0.00405881528441
0.0042529571976
0.00464354976367
0.00554738591835
0.00809070105607
0.0151531846508
0.033239935538
0.0740067765861
0.00280279533899
0.00350224917724
0.00372055860978
0.00379975185144
0.00383114445985
0.00384767574933
0.00386047131178
0.00387307088947
0.00388693648829
0.00390411055241
0.00392986039218
0.00397699397612
0.00407185309243
0.00426214820421
0.00464655334779
0.00556177631552
0.00829818295678
0.016209637923
0.0351685123905
0.0747366080545
0.00281453867103
0.00351580975044
0.00373451100425
0.00381339933988
0.00384418816865
0.00386004845269
0.00387222677294
0.00388427738234
0.00389766481824
0.00391437166582
0.00393953636316
0.00398565488202
0.00407869695127
0.00426606600753
0.00464941514386
0.00558765108988
0.00849602097466
0.0169956550916
0.0361344720791
0.0747496815247
0.00282544083601
0.0035278002145
0.00374667751972
0.00382521112836
0.00385543194108
0.00387067918071
0.00388226380233
0.00389378582149
0.00390669820046
0.00392291346764
0.00394741727501
0.0039924688232
0.00408386948747
0.0042698511775
0.00465708657936
0.00563261994629
0.00870533546993
0.0175695862229
0.0361387509341
0.0711037162086
0.00283591508853
0.00353926028403
0.00375827070253
0.00383647908973
0.00386619310264
0.00388090363333
0.00389196182833
0.00390299040398
0.00391542966718
0.00393114755056
0.00395500386141
0.0039990018815
0.00408873526819
0.00427306772276
0.00466397735216
0.00567223935731
0.00886827817203
0.0178929318315
0.0356214642316
0.0662920898519
0.00284611484573
0.00355048519688
0.0037696337049
0.00384756969981
0.00387684563562
0.00389107561963
0.00390167531113
0.00391225929558
0.00392427072042
0.00393950576207
0.00396267495982
0.00400556677026
0.00409359424438
0.00427602856932
0.0046675998489
0.00568895052913
0.00892514091745
0.0178663314594
0.0345972167828
0.0609832343925
0.00285610132031
0.00356145482396
0.00378081370763
0.00385853881575
0.00388744717162
0.00390126402103
0.00391145141664
0.00392164350016
0.00393325229263
0.00394803163114
0.00397052471591
0.00401228245129
0.00409862513279
0.00427967934827
0.0046733812135
0.00569910540227
0.00887827771701
0.0175430560203
0.0341812502881
0.0621913699772
0.00286582200462
0.00357219178725
0.00379179778384
0.00386935866091
0.00389795698473
0.0039114227809
0.00392125096791
0.00393108658783
0.00394233458121
0.00395666600134
0.00397848228398
0.00401906879357
0.00410376467054
0.0042847771043
0.00469036718019
0.00576688465041
0.00902814945078
0.0177870133153
0.0361865583928
0.0739836216222
0.00287512453181
0.00358264900452
0.00380254798524
0.00387998749474
0.00390831908988
0.00392148294173
0.00393100399887
0.00394052467698
0.00395143081494
0.00396533603946
0.00398645687308
0.00402577172754
0.00410841928611
0.00428773981103
0.00469785451311
0.00579691792607
0.00910377231559
0.0180891164361
0.0374392422257
0.0751251785832
0.00288412045141
0.00359281230069
0.00381302154114
0.00389037022959
0.0039184773459
0.00393137930466
0.00394063156143
0.00394987856271
0.00396047626549
0.0039739698975
0.00399438482573
0.00403231103238
0.00411233949924
0.00428728415341
0.00469002149322
0.00577208468813
0.00905544966235
0.0181603143617
0.0379325047749
0.0753453203248
0.00289276668063
0.00360258108155
0.00382315650688
0.00390046162454
0.00392837980064
0.00394105519207
0.0039500687381
0.00395907376607
0.00396939874077
0.00398250853218
0.00400222993989
0.00403870684785
0.00411564756142
0.00428351673922
0.00466671843724
0.00569818499781
0.00892522440977
0.0180021596515
0.0371279948622
0.0749126078557
0.00290094639349
0.00361195672013
0.00383291601003
0.00391021231011
0.00393797380424
0.00395045875033
0.00395927223347
0.00396806185149
0.00397814252531
0.00399090008343
0.00400996797137
0.0040451163862
0.00411947098706
0.00428266104086
0.00465649383147
0.00566620508624
0.00884503003244
0.0177525552835
0.0365451397236
0.0746757520539
0.00290866245113
0.00362091329399
0.00384226939838
0.00391957059315
0.00394721863711
0.00395955050192
0.00396819485867
0.00397679566451
0.0039866644539
0.0039990995993
0.00401755733233
0.00405148513883
0.00412374374409
0.00428475551315
0.00465912304588
0.00566837449574
0.00879165243785
0.0175489597169
0.0367266676214
0.0749098604525
0.00291600614271
0.0036293774347
0.00385116650233
0.00392851974224
0.00395607741241
0.0039682822317
0.00397680227913
0.00398525790804
0.0039949212735
0.00400702970909
0.00402485448585
0.00405743818117
0.00412718733863
0.00428494813745
0.0046566090874
0.00565247987485
0.00869979033387
0.0173865948808
0.0370370228401
0.0752198751945
0.00292278046318
0.00363732464191
0.003859582949
0.00393701992736
0.00396452686981
0.00397665188021
0.00398506627755
0.00399339665588
0.00400288810149
0.00401470249112
0.00403188093744
0.00406296432024
0.00412947860646
0.00428149093154
0.00464306791894
0.00560800808138
0.00856502531702
0.0172280499959
0.0372691300119
0.0754978869387
0.00292901418365
0.0036447831433
0.00386750592649
0.00394504974051
0.00397254096773
0.00398460646376
0.0039929410179
0.00400117392339
0.00401052686841
0.00402209289585
0.00403865541428
0.00406818350014
0.00413111959736
0.0042760735554
0.00462429948744
0.00555408188411
0.00841567862407
0.0170048459904
0.0372990674391
0.0756700359883
0.00293479486352
0.00365168677498
0.00387489982404
0.00395257958036
0.0039800773105
0.00399210772604
0.00400039725406
0.00400857025157
0.00401782325647
0.00402917141996
0.0040451836519
0.00407324700091
0.00413272364121
0.0042707549282
0.00460644057023
0.00550777886926
0.00829580970248
0.0168453274045
0.0374623460413
0.0758422662473
0.00293986567362
0.00365802106894
0.00388174239932
0.00395957950261
0.0039871103462
0.0039991410551
0.00400741541116
0.00401556624933
0.00402476477796
0.00403594864492
0.00405147485208
0.00407821417841
0.00413455908356
0.00426639366911
0.0045913391252
0.00547141217882
0.00821771470875
0.0167402160106
0.0374308827033
0.0758714185809
0.00294439685342
0.00366373749147
0.00388799117741
0.00396600837215
0.00399360040284
0.00400566669139
0.00401396740921
0.00402214064045
0.00403133465868
0.00404241439435
0.00405753354549
0.00408308643851
0.00413661430377
0.00426307238516
0.00457960147961
0.00544637583435
0.00816519939816
0.0166322810716
0.0370300016102
0.0757031133738
0.00294822677832
0.00366879490033
0.00389360759957
0.00397183485415
0.00399951591693
0.00401164152559
0.00402001372072
0.00402825920149
0.0040375057072
0.00404855078748
0.00406335593408
0.00408786975424
0.00413886947125
0.00426056037737
0.004570223167
0.00542483879702
0.00809071166826
0.0163464373542
0.0365053438784
0.0755840360373
0.00295129660004
0.00367313932043
0.00389853793596
0.00397701475432
0.00400482362044
0.00401704965686
0.00402553059483
0.00403389285555
0.00404325121386
0.0040543379942
0.00406893588509
0.00409257264095
0.00414127997586
0.004258519299
0.00456080918791
0.00539347092632
0.00793860782247
0.0158367794637
0.0363383728253
0.0757658201555
0.0029537092623
0.00367670974395
0.00390271031328
0.00398148539479
0.00400947141689
0.00402184646275
0.00403048344726
0.00403901879131
0.00404855399381
0.00405975954682
0.00407425802913
0.00409717864734
0.00414384710899
0.00425683838677
0.00455020891181
0.00534496428072
0.00771334519904
0.0153573168022
0.0369322954997
0.0762273005128
0.00295537191953
0.00367946652621
0.00390606430586
0.00398518522783
0.00401340467709
0.00402598184914
0.00403482854811
0.00404359726586
0.00405337947276
0.0040647946324
0.0040793174883
0.00410171134341
0.00414667808139
0.00425624869555
0.00454285266891
0.00530284715698
0.00748126272456
0.014757138542
0.0366105688251
0.0761478001375
0.0029562996951
0.00368140694305
0.00390855240992
0.00398805268554
0.00401656597889
0.00402940552717
0.00403852292525
0.00404759158029
0.00405769954693
0.00406942934201
0.0040841227421
0.00410622107999
0.00414990956024
0.00425727315259
0.00454378580305
0.00530827652498
0.00746261572691
0.0146284049707
0.0361581290488
0.075882070774
0.00295648994095
0.00368241032118
0.00391007740949
0.00399001021049
0.00401888970152
0.00403205974584
0.00404151262713
0.00405095190243
0.00406146476069
0.00407361504815
0.00408863034385
0.0041106609517
0.00415342278718
0.0042594366364
0.00455181804874
0.00536329587347
0.00767901023237
0.0150218426718
0.0354226418767
0.0755717663403
0.00295579745594
0.00368231433037
0.00391053054758
0.00399097543797
0.00402030772529
0.00403388510373
0.00404374396388
0.0040536259409
0.004064630511
0.00407730756158
0.00409279524386
0.00411501532138
0.00415734173961
0.00426287446441
0.00456290183103
0.00543273583938
0.00797248316435
0.0155652141131
0.0346659175278
0.0750683060802
0.0029546424221
0.00368090241817
0.00390969231999
0.00399080398833
0.00402072422256
0.00403480702653
0.00404515437357
0.00405555231045
0.00406714145075
0.00408045285246
0.00409658319436
0.00411936065205
0.00416231957746
0.00427035472801
0.00458193015797
0.00549113464282
0.00810630321575
0.0155359433814
0.0334135155668
0.0736937505392
0.00295304603423
0.00367812337624
0.00390746205166
0.00398936226573
0.00402003068947
0.00403474646525
0.00404567720806
0.00405667702148
0.00406893681639
0.00408300238247
0.00409997117206
0.0041238654558
0.0041695605196
0.00428720466566
0.00462541680671
0.00556312578869
0.00805970098462
0.0147260304941
0.0300238636848
0.0572515254005
0.00295050589193
0.00367398492895
0.00390384248548
0.0039866408627
0.00401818228988
0.00403364284977
0.00404525643265
0.00405696389099
0.00406999318367
0.00408493589328
0.00410297597938
0.00412876777487
0.00418028580245
0.00431883487141
0.00471069713574
0.00569405621751
0.00798387864771
0.0137176727252
0.0271745109873
0.0495594639616
0.00294685172266
0.00366841141183
0.00389877690962
0.00398257253047
0.00401510092981
0.00403140997233
0.00404380671669
0.00405632192996
0.00407023732931
0.00408620812782
0.00410561036887
0.00413407972349
0.00419409457884
0.00436241431318
0.00482805694712
0.00588663692518
0.00801850506497
0.0130196225997
0.0258468402595
0.0583060256303
0.00294200862521
0.00366133413773
0.00389217861955
0.0039770564439
0.00401068964334
0.00402796366992
0.00404125264019
0.00405467737035
0.00406958715503
0.00408670429523
0.00410764543434
0.00413915489484
0.00420800784643
0.00440407337044
0.00493699485058
0.00608551050769
0.00819070561134
0.0127763012161
0.0245905919497
0.0580169088747
0.00293590123378
0.00365264805277
0.00388394976086
0.00396999958557
0.00400485948625
0.00402322362525
0.00403751807997
0.00405195597168
0.00406795888386
0.00408629691428
0.00410871563794
0.00414256954967
0.00421681567757
0.00442719459532
0.00499713617525
0.00622204371483
0.00840054800072
0.0130301917223
0.0265354960373
0.0687589246111
0.00292842173268
0.00364225637419
0.00387401476788
0.0039613243552
0.00399753114973
0.00401711152567
0.00403253145404
0.00404809845828
0.00406529502967
0.00408490024231
0.00410859074383
0.00414354374619
0.00421834682274
0.00442859285755
0.00500410981538
0.00626481282537
0.00848800460271
0.012910587074
0.0258261131541
0.0708692628534
0.00291953251409
0.00363020902621
0.00386234713035
0.00395097148933
0.00398863340116
0.00400955417123
0.00402622982943
0.00404305917499
0.00406157874873
0.0040825674513
0.00410765478073
0.00414393982824
0.00422011518509
0.00443214401613
0.00500970563651
0.00627144649653
0.0084651619513
0.0124795113579
0.0233737014562
0.0689379632431
0.00290912987574
0.00361649089217
0.00384894529031
0.0039389097626
0.00397811401446
0.00400049568454
0.00401856690658
0.0040368110768
0.0040568164923
0.00407937774938
0.00410622262269
0.00414502145286
0.00422657469777
0.00445020796068
0.00504026838284
0.00629421797497
0.0084726005754
0.0123718561529
0.0222604543233
0.0666737289968
0.00289714285352
0.00360107587955
0.00383379805876
0.00392513045637
0.00396594565932
0.00398990285957
0.00400952645589
0.00402934338883
0.00405100607712
0.00407526232587
0.00410391056607
0.00414466668308
0.0042286824061
0.0044539569836
0.0050375599216
0.00627919566305
0.00851716682906
0.0126227792425
0.0216927174932
0.0510856120601
0.00288356367139
0.00358405978611
0.00381701469696
0.00390968422907
0.00395215006289
0.00397779117306
0.00399907870305
0.0040206638576
0.00404413424951
0.00407021873738
0.00410020700511
0.00414024839181
0.00421611053815
0.00441365175762
0.00494486354925
0.00616677183548
0.00852570866321
0.0129279425859
0.0218540110205
0.0426291873988
0.00286851272263
0.00356565742968
0.00379877469383
0.00389270305813
0.0039368084121
0.0039641401645
0.0039872550686
0.00401079826554
0.00403635863307
0.00406450580617
0.0040960239372
0.00413512783447
0.00420118437232
0.00436542282157
0.00483332090946
0.00603249413468
0.00853346305332
0.0132072513021
0.0227595363101
0.0532729971457
0.00285211755645
0.0035462016159
0.00377932471287
0.00387439684518
0.0039199905299
0.00394905621505
0.00397399271244
0.00399955718614
0.00402743689904
0.00405805271441
0.00409168826864
0.004131320588
0.00419269083726
0.00433862978799
0.0047722344067
0.00597318551828
0.00860791795927
0.0135611183181
0.0251089366929
0.07504326972
0.00283461751754
0.00352607192293
0.00375909657157
0.00385502202428
0.00390189251771
0.0039322912226
0.00395875714155
0.00398604206807
0.00401605613763
0.00404931964643
0.0040854949511
0.00412689545101
0.00418976020556
0.00433885341993
0.00478532207709
0.00603132025389
0.00875697212875
0.0137491245712
0.0247818008771
0.0723643282693
0.00281646067596
0.00350596505484
0.00373873039927
0.00383510123915
0.00388253817419
0.00391327209393
0.00393954057471
0.0039662345182
0.003996404723
0.00403178201672
0.00407046737091
0.00411370984866
0.00418378218429
0.00435814641102
0.00486270281438
0.00619877378831
0.00898474713656
0.0138091252512
0.0230165242086
0.0605884787803
0.00279825562877
0.00348668948604
0.00371897776007
0.00381508332597
0.00386161797996
0.00388950295225
0.00390939928986
0.00392602890249
0.00394841477621
0.00398359557994
0.00402478630631
0.00406928175212
0.00415527293375
0.00438434193573
0.00499505042834
0.00646911595196
0.00930069453091
0.0138749111662
0.0217826912723
0.0468365515854
0.00278076451505
0.00346921692793
0.00370069240442
0.00379529892629
0.00383771924365
0.00385437941068
0.00384835434147
0.00381348293446
0.00380672667883
0.00383554149866
0.00388444794106
0.00394010564268
0.00406443936336
0.00438960414357
0.00517411541552
0.00685509142067
0.00975284274374
0.0142088899153
0.0235105332324
0.0514580561125
0.00276477250135
0.0034545541908
0.0036848734272
0.00377638730083
0.00380975801005
0.00380063702277
0.00372529145474
0.00351705223245
0.00329800806914
0.00327350450737
0.00333590048632
0.00342973302799
0.00377482031934
0.00433175467925
0.00538989039356
0.0073414374089
0.0103222570915
0.014607530111
0.0252044098232
0.0646107337848
0.00275107271725
0.00344248461962
0.00367185437025
0.00375978960996
0.00378348520568
0.00374965643477
0.00360949035839
0.00307543356485
0.003691646392
0.00471813848021
0.00607474730259
0.00818956711064
0.0110476718385
0.0149569353684
0.0254136613544
0.0633701213398
0.00274184614056
0.00343593857803
0.00366515298837
0.0037509719604
0.00376836454777
0.00371799656026
0.00353855332016
0.00291464856043
0.00392631082628
0.0054957223805
0.00721360029511
0.00933724202238
0.0118108640303
0.0150569331822
0.023962895198
0.0590355334081
0.0027418268793
0.00343592035652
0.00366513575137
0.00375095888187
0.00376835758137
0.00371799206153
0.00353856867434
0.00291468944133
0.00392732696304
0.00549727081824
0.0072162942245
0.00933965779392
0.0118085772622
0.0149962831019
0.0236277098551
0.0695212057372
0.00275104323238
0.00344244188086
0.00367181599151
0.00375975826561
0.00378346448005
0.00374965510325
0.00360952969595
0.00307550177309
0.00369197778646
0.00471954864482
0.00607664230697
0.0081902092959
0.0110382737523
0.0147621269209
0.0225846613416
0.0554357925831
0.00276473267555
0.00345448850345
0.00368481410737
0.00377633876798
0.00380972936417
0.00380064156688
0.0037252904882
0.00351702728508
0.00329822193609
0.00327369569375
0.00333607128146
0.00342996449225
0.00377536303107
0.00433264594451
0.00539093109752
0.00734102858454
0.0103134852133
0.0144145422778
0.0219395575889
0.0447222091347
0.00278075696802
0.00346919719541
0.00370067887312
0.00379529413678
0.00383772656992
0.00385440615011
0.00384840314425
0.00381348576576
0.00380682294573
0.00383566255524
0.00388460773898
0.00394035297824
0.00406483899527
0.00439017078947
0.00517470854235
0.00685438722244
0.00974690598176
0.0141102732437
0.0222080649423
0.0502880189845
0.00279825898936
0.00348668058256
0.00371897999237
0.0038150968136
0.00386164283524
0.00388954341389
0.00390945846491
0.0039261063372
0.00394850858379
0.00398369973603
0.00402491664705
0.00406949199045
0.00415559707188
0.00438472815795
0.00499528292946
0.0064679128216
0.0092980377057
0.0139281518648
0.0231463793591
0.0639741688749
0.00281647366248
0.0035059617723
0.00373874284506
0.00383512620456
0.00388257008878
0.00391331832711
0.00393959735383
0.00396629850972
0.00399647093072
0.00403184804219
0.00407054485148
0.00411383964784
0.00418398238689
0.00435835060812
0.00486260338849
0.00619698616298
0.00897926497419
0.0138126618611
0.023402581562
0.0694887844985
0.00283464318005
0.0035260741484
0.00375911613156
0.00385504844557
0.00390190176725
0.0039323244418
0.00395880003509
0.00398608318785
0.0040160863099
0.00404934020407
0.00408551855033
0.00412694797823
0.00418984430409
0.0043389134954
0.00478504515508
0.00602951760606
0.00874954338281
0.013670164936
0.0236867077804
0.072308302549
0.00285215823718
0.00354621250943
0.00377935089006
0.00387440890108
0.00392001389114
0.00394904264772
0.00397400021674
0.00399957212061
0.00402743358254
0.00405803331482
0.00409166339995
0.00413130897367
0.00419269401337
0.00433863425224
0.00477198463342
0.00597184013991
0.00859957562994
0.0134250857392
0.0225659142992
0.0517756178462
0.00286858044919
0.00356571470177
0.00379882711645
0.00389276326688
0.0039368433655
0.00396417903198
0.00398727374607
0.00401077067052
0.00403630727009
0.00406443932562
0.00409595013901
0.00413508056141
0.0042011760518
0.00436547959815
0.00483328579995
0.00603206261014
0.00852960176428
0.013177910371
0.0224564309335
0.0449752622499
0.00288364388629
0.00358413252941
0.00381709572698
0.00390976388546
0.00395222682723
0.00397783865183
0.00399911589791
0.00402066346424
0.00404411456732
0.00407016174269
0.00410013430841
0.00414019247095
0.00421605706625
0.00441362547736
0.00494476431395
0.00616678200666
0.00852513545163
0.012935565361
0.0224131754406
0.0547935069658
0.00289723172603
0.00360116277549
0.00383389542763
0.00392523330937
0.00396604872527
0.00398999649189
0.00400959112453
0.00402938598406
0.00405100740249
0.0040752499901
0.00410386922648
0.00414462459711
0.00422861656991
0.0044538823258
0.00503740325814
0.00627942428248
0.00851869180852
0.0126402936691
0.0221490947082
0.0590298194667
0.00290922609903
0.00361658869595
0.00384905724472
0.00393903320407
0.00397824237114
0.00400062057682
0.00401867925644
0.0040369022274
0.00405688428979
0.00407941644477
0.0041062555239
0.0041450247215
0.00422654541844
0.00445015222505
0.00504011289714
0.00629439202968
0.00847207516149
0.01230853549
0.0208945747523
0.053252931993
0.0029196329538
0.00363032152836
0.00386247392449
0.00395111266208
0.00398878361305
0.00400970536289
0.0040263738475
0.00404319568299
0.00406170656599
0.0040826678948
0.00410774721056
0.00414399990266
0.00422014457539
0.00443213820294
0.00500955968883
0.00627149463272
0.00846461845915
0.0124229209444
0.0220184813642
0.0540274519713
0.00292852651685
0.00364238218298
0.00387415502381
0.00396148084986
0.00399769992882
0.00401728596957
0.00403270255982
0.00404826520957
0.00406546825175
0.00408504320138
0.00410872697003
0.00414364961844
0.00421842912343
0.00442860565834
0.00500391228693
0.00626475169221
0.00848975957437
0.0129127798902
0.0255901697016
0.0681474520308
0.00293598445332
0.0036527365366
0.00388405648526
0.00397012374305
0.00400499831021
0.00402337388503
0.00403767894585
0.00405213049471
0.00406814196769
0.00408646288055
0.00410886596838
0.0041426964662
0.00421692501242
0.00442719952325
0.00499695468713
0.00622230659709
0.00840643168736
0.0130692547645
0.0265830426171
0.0681774883778
0.00294208421949
0.0036614075721
0.00389227326483
0.00397717113168
0.00401082157605
0.00402810987471
0.00404141249188
0.00405485410578
0.00406977950741
0.00408690219157
0.00410784289611
0.00413931000338
0.00420811423438
0.00440409068062
0.00493699029804
0.00608679679256
0.00820413329134
0.0128556176457
0.0246895835924
0.0573317393771
0.00294692308673
0.00366847433241
0.0038988637636
0.00398268220419
0.00401522901933
0.00403155361747
0.00404396482266
0.00405649623664
0.00407043117666
0.00408641294912
0.00410582002645
0.00413427460946
0.00419425072985
0.00436248818353
0.00482814925946
0.00588863942624
0.00803870587899
0.0131172932915
0.0256763144561
0.052834440456
0.00295057659726
0.00367404695574
0.00390392928531
0.00398674919461
0.00401830768922
0.00403378361839
0.00404541230306
0.00405713627573
0.00407018533445
0.00408513939249
0.00410318618462
0.00412897024082
0.00418046138609
0.00431891671544
0.00471052148692
0.00569388063859
0.00798972342659
0.0137571202525
0.0273149009555
0.0493761801983
0.00295311863478
0.00367818880198
0.00390754858422
0.00398946923695
0.00402015388504
0.00403488462873
0.00404583064202
0.00405684879236
0.00406912627043
0.00408320392109
0.0041001801788
0.00412407339377
0.00416974985495
0.00428726851242
0.00462470762838
0.00555724013933
0.00802209052368
0.0145856243283
0.0298474575084
0.0570723421331
0.00295472033835
0.00368097701436
0.00390978362604
0.00399091161259
0.00402084627952
0.00403494292582
0.00404530523433
0.00405572242774
0.00406732828696
0.00408065794919
0.00409679786604
0.00411958279815
0.00416253676293
0.00427045963561
0.00458106107291
0.00548170514757
0.00803583460431
0.0152489603329
0.0328756148196
0.0734649736245
0.00295588481742
0.00368239415351
0.00391062397503
0.00399108276898
0.00402042903855
0.00403401991857
0.00404389413625
0.00405379367911
0.0040648175472
0.0040775180162
0.00409302213683
0.00411526189062
0.00415759821121
0.00426306077278
0.00456215222704
0.00542186732384
0.00788556527307
0.0151897342861
0.0340545026218
0.0747066046643
0.00295657815827
0.00368249068573
0.00391017077016
0.00399011748028
0.00401901042224
0.00403219447389
0.00404166365821
0.00405112008357
0.00406165661308
0.00407383500336
0.00408887743254
0.00411094273253
0.00415374172699
0.00425974131788
0.00455144950656
0.00535510582698
0.00761295443093
0.0147095662581
0.0348208766371
0.0752222877855
0.00295638412346
0.00368148393962
0.0039086440255
0.0039881586775
0.0040166857464
0.00402953995349
0.00403867453079
0.00404776374534
0.00405789733239
0.00406966344619
0.00408439636901
0.00410654274394
0.00415029497823
0.00425773083075
0.0045440078161
0.00530420677107
0.00742274166742
0.0143978138533
0.0354466526179
0.0756235280013
0.00295544804813
0.00367953918603
0.00390615299793
0.00398528972783
0.0040135240152
0.00402611713575
0.0040349829826
0.00404377587203
0.00405358929181
0.0040650483176
0.00407961823038
0.00410206826535
0.00414712123705
0.00425685724591
0.00454357897599
0.00530036706867
0.00744938300769
0.0145918706104
0.0362841119945
0.0760870742749
0.00295377913286
0.00367677900751
0.00390279730898
0.0039815890208
0.00400959050664
0.00402198253911
0.00403063964911
0.00403920072148
0.00404876990424
0.00406002175144
0.00407457217824
0.0040975575583
0.00414431488049
0.00425744502844
0.00455046641282
0.00533856846371
0.00766985305786
0.0153190089535
0.0374602631739
0.0766307661706
0.00295136809663
0.00367321246811
0.00389862615961
0.0039771184292
0.00400494293309
0.00401718695783
0.00402568863454
0.00403407758934
0.0040434702837
0.00405460167935
0.00406925363516
0.00409296503498
0.00414178747627
0.00425911506455
0.00456002060069
0.0053786368136
0.00786175565294
0.0157449767638
0.036755243206
0.0760477412832
0.00294830824262
0.00366887659653
0.00389370186322
0.00397194296192
0.00399963789312
0.00401177850129
0.0040201682485
0.00402843506117
0.00403770723376
0.00404878788217
0.00406364211376
0.00408823699894
0.00413939504553
0.00426141058287
0.00457115403917
0.00541925318985
0.00804314445393
0.0162373523193
0.0364957086658
0.0756185920579
0.00294447837667
0.00366382046162
0.00388808655798
0.00396611729792
0.00399372229342
0.00400580021925
0.00401411725856
0.00402230766756
0.00403152166396
0.00404262951365
0.004057792837
0.00408343172068
0.00413716019867
0.00426421179821
0.00458282683054
0.0054561981038
0.00818978907941
0.0166820379687
0.0370296704605
0.0756548072418
0.0029399414069
0.00365810057364
0.00388183659716
0.00395968773695
0.00398723114377
0.00399927321138
0.00400755935212
0.0040157210505
0.00402493260289
0.00403613570173
0.00405169982603
0.00407852681328
0.00413511363224
0.00426785068831
0.00459716194096
0.00549864262839
0.00831781621614
0.0169127909772
0.0371787333191
0.0755957596181
0.00293485920711
0.00365176237193
0.00387499339617
0.00395269003436
0.0039801999953
0.00399223931207
0.00400053362574
0.00400870983745
0.0040179662631
0.00402932344339
0.00404536705894
0.0040735109074
0.00413327474765
0.00427255724899
0.00461500613443
0.00555030077363
0.00844413449432
0.0170157625144
0.0368591699641
0.0753566041771
0.00292906962295
0.00364485781841
0.00386760199737
0.00394516577543
0.00397266961127
0.00398473769746
0.00399306930148
0.00400129543794
0.00401063832022
0.00402219693005
0.00403877281075
0.0040683733006
0.00413161963202
0.00427807196907
0.0046344704273
0.00560149069429
0.00855039211347
0.0170321284279
0.0364771175293
0.0751439208883
0.00292284816421
0.00363739924539
0.00385968073265
0.00393714046289
0.00396466546117
0.00397679207278
0.00398519384056
0.00399350229882
0.00400296316092
0.004014751575
0.00403191784674
0.0040630476034
0.0041298223693
0.00428315213172
0.00465128183785
0.0056409945397
0.00862760858658
0.0170644971021
0.0364754573434
0.0751232362729
0.00291606769056
0.00362945866846
0.00385126988975
0.00392864162236
0.00395621654465
0.00396843260709
0.00397693762196
0.00398535526464
0.00399496501006
0.00400701954628
0.00402480253255
0.00405738532569
0.00412732079535
0.00428608144594
0.00466169392046
0.00566604872523
0.00869219729651
0.0172046686358
0.0369010151573
0.0752571909115
0.00290873708597
0.00362100142882
0.00384237280188
0.00391969047473
0.00394734843887
0.0039596846405
0.00396831730868
0.00397688248576
0.0039866778964
0.00399903210634
0.00401740607125
0.00405127827954
0.00412362492627
0.00428542756476
0.00466291413059
0.00567540642583
0.00876526107321
0.0174660057484
0.037303173242
0.075347694852
0.00290104379665
0.00361205886668
0.00383301773504
0.00391031925663
0.00393809010202
0.00395057539844
0.00395937193062
0.00396812202047
0.00397813832795
0.00399081632891
0.00400978792735
0.0040448219031
0.00411904927169
0.00428227441857
0.00465710215951
0.00566805779513
0.00883928962846
0.0178541380939
0.0373110199398
0.075173993167
0.00289286192302
0.00360268821816
0.00382325709895
0.00390056407664
0.00392848481948
0.00394115830323
0.00395015628542
0.00395912080185
0.00396938837347
0.00398242549584
0.00400204357429
0.00403834315207
0.00411477040376
0.00428068105077
0.0046553777426
0.00565782975701
0.00885824526789
0.0181483598403
0.0376457700026
0.0751346246597
0.00288421536601
0.00359291678357
0.00381312008403
0.00389047108302
0.00391857856634
0.00393147646068
0.00394071086019
0.00394992523609
0.00396047440387
0.00397390902015
0.00399422987838
0.00403196243794
0.00411129456217
0.00428302014984
0.00467018992458
0.00569566072521
0.00889392877961
0.0181221937251
0.0378632446233
0.075236720948
0.0028752101141
0.0035827373509
0.00380264070837
0.00388008257859
0.00390841603348
0.00392157689329
0.00393108474021
0.00394057981005
0.00395145151859
0.00396531102359
0.00398635989716
0.00402553892103
0.00410773660413
0.00428519632966
0.00468652028359
0.00575143406607