/*--------------------------------*- C++ -*----------------------------------*\
| =========                 |                                                 |
| \\      /  F ield         | OpenFOAM: The Open Source CFD Toolbox           |
|  \\    /   O peration     | Version:  v2012                                 |
|   \\  /    A nd           | Website:  www.openfoam.com                      |
|    \\/     M anipulation  |                                                 |
\*---------------------------------------------------------------------------*/
FoamFile
{
    version     2.0;
    format      ascii;
    class       surfaceScalarField;
    location    "3.3";
    object      phi;
}
// * * * * * * * * * * * * * * * * * * * * * * * * * * * * * * * * * * * * * //

dimensions      [0 3 -1 0 0 0 0];
oriented        oriented;


internalField   nonuniform List<scalar> 
3840
(
-9.98626225299e-06
9.98631184312e-06
-2.18458895816e-05
1.18596639428e-05
-3.44635019518e-05
1.26176098122e-05
-4.72907470446e-05
1.28271914647e-05
-6.02128740155e-05
1.29220341656e-05
-7.33356017954e-05
1.31226500342e-05
-8.68338240448e-05
1.34982016069e-05
-0.000100827827579
1.39940484142e-05
-0.00011547252825
1.46448743645e-05
-0.000130969265789
1.54969983335e-05
-0.000147485785445
1.65169013169e-05
-0.000165305951286
1.78206689511e-05
-0.000184410502276
1.91051389589e-05
-0.000204798602215
2.03887185232e-05
-0.000226926278556
2.212824397e-05
-0.000253125338971
2.61994606902e-05
-0.000291296746865
3.81715410171e-05
-0.000358410206854
6.71137197359e-05
-0.000485087675354
0.000126677456345
8.71891578006e-05
-1.18817111546e-05
2.18680752983e-05
-2.39513458276e-05
2.39293328772e-05
-3.64186121347e-05
2.50848651097e-05
-4.92608243457e-05
2.56693397975e-05
-6.23923775744e-05
2.60534879514e-05
-7.58652655831e-05
2.65954540131e-05
-8.97055529721e-05
2.7338457548e-05
-0.000104052728113
2.83413442067e-05
-0.000119049722385
2.96420664331e-05
-0.000134848829323
3.12964713129e-05
-0.000151703565057
3.33720956317e-05
-0.000169883549817
3.60012117598e-05
-0.00018975912804
3.89813496516e-05
-0.000211605209311
4.22354414422e-05
-0.000235490403203
4.6014011901e-05
-0.000261628309074
5.23377608749e-05
-0.000290805032778
6.73483941361e-05
-0.000340478022795
0.000116787025682
-0.000507852100242
0.000294050993095
0.000131980551897
-1.25101194683e-05
3.43782577712e-05
-2.48522833475e-05
3.62715384211e-05
-3.74388698438e-05
3.76714421831e-05
-5.0322396835e-05
3.85527982097e-05
-6.3534926046e-05
3.9265909889e-05
-7.7075249362e-05
4.01356774781e-05
-9.09617652912e-05
4.12249523769e-05
-0.000105335907697
4.27155545074e-05
-0.00012031174575
4.4618263699e-05
-0.00013604526966
4.70303712558e-05
-0.000152751384594
5.0078703564e-05
-0.000170693631479
5.39440416009e-05
-0.000190376400122
5.86647604851e-05
-0.000212389181036
6.42488709222e-05
-0.00023718319213
7.08085918093e-05
-0.000263599290615
7.87542496935e-05
-0.000286806382617
9.05556194314e-05
-0.000321576844965
0.00015155767607
-0.000514251695943
0.00048672608434
0.000176432643658
-1.24694955462e-05
4.68478321707e-05
-2.49161243802e-05
4.87182215508e-05
-3.75292962951e-05
5.02846103219e-05
-5.03644413137e-05
5.13878722514e-05
-6.34929096141e-05
5.2394262688e-05
-7.68641528705e-05
5.35068016101e-05
-9.06014532694e-05
5.49621990844e-05
-0.000104706705925
5.68209261894e-05
-0.000119280025773
5.91918934246e-05
-0.000134554896691
6.23058602567e-05
-0.00015066453433
6.61888462921e-05
-0.000167818495014
7.10985785204e-05
-0.000186618005658
7.74649064572e-05
-0.000207396139298
8.50276422264e-05
-0.0002306212382
9.40342529396e-05
-0.000255536123098
0.000103669517367
-0.000279216119244
0.000114235747691
-0.000304034137578
0.000176375830429
-0.000466540525871
0.000649233336587
0.000200539370481
-1.21723814224e-05
5.90203100141e-05
-2.45460468643e-05
6.10919547373e-05
-3.70789870821e-05
6.28175524964e-05
-4.97656366964e-05
6.40744475996e-05
-6.26411701463e-05
6.5269670202e-05
-7.57460582757e-05
6.66115580994e-05
-8.90826233491e-05
6.82986773704e-05
-0.000102698759693
7.04371132378e-05
-0.000116755979296
7.32494298513e-05
-0.000131250498864
7.68009431914e-05
-0.000146370894305
8.13099739801e-05
-0.000162302626757
8.70308669519e-05
-0.000179221800643
9.43846961548e-05
-0.000197607743871
0.00010341421037
-0.00021809900385
0.000114526064858
-0.000240888981896
0.000126459869205
-0.000265014322484
0.000138361221142
-0.000283473764215
0.000194835373217
-0.000372042752113
0.00073780144977
0.000198266838089
-1.18512347353e-05
7.08716572405e-05
-2.39476128979e-05
7.31884116598e-05
-3.62778375282e-05
7.51477822039e-05
-4.87878985076e-05
7.65844290934e-05
-6.13821436625e-05
7.78637752023e-05
-7.4139200793e-05
7.9368466044e-05
-8.70143069662e-05
8.11736741047e-05
-0.000100105734906
8.35285689587e-05
-0.000113371630961
8.65155325256e-05
-0.000126911919964
9.03415961714e-05
-0.000140715264916
9.51139211025e-05
-0.000155008916098
0.000101325034221
-0.000169705540038
0.000109081908329
-0.000185216905719
0.000118926181363
-0.000201623267025
0.000130932964082
-0.000220371950941
0.000145208916038
-0.000241727387317
0.000159716788646
-0.000254568735321
0.000207676731261
-0.000200811691526
0.00068404230352
0.000213197584984
-1.15178074209e-05
8.23895888561e-05
-2.34243053975e-05
8.50949941647e-05
-3.54745140131e-05
8.71979945139e-05
-4.76747677374e-05
8.87845946546e-05
-5.99539197551e-05
9.01427729211e-05
-7.22634727229e-05
9.16778466955e-05
-8.46760690503e-05
9.35861384983e-05
-9.71440896189e-05
9.59965671164e-05
-0.000109587187755
9.89588003804e-05
-0.0001221146352
0.000102869310307
-0.000134688336195
0.000107688149695
-0.000147167739471
0.00011380491578
-0.000159541322779
0.000121456051654
-0.000171365024112
0.000130750466629
-0.000183584949185
0.000143153410757
-0.000196440155282
0.000158064472462
-0.000211735072905
0.000175011831461
-0.000214268617357
0.000210209726116
6.35878891061e-05
0.000406186910047
0.000307499916524
-1.12417870023e-05
9.3631504684e-05
-2.28236642366e-05
9.66769539759e-05
-3.46255060747e-05
9.8999831881e-05
-4.6520921627e-05
0.000100679909285
-5.84644797784e-05
0.00010208615929
-7.035183951e-05
0.000103565016375
-8.22626760721e-05
0.000105496816129
-9.40739004083e-05
0.000107807749501
-0.000105835737803
0.000110720715956
-0.00011736141103
0.000114395221393
-0.000128555526552
0.000118882673874
-0.000139281881818
0.000124531704067
-0.000149245761172
0.000131420455747
-0.000158345388915
0.000139850650405
-0.000165876621678
0.000150685142539
-0.00017220652114
0.000164394704686
-0.000177671152818
0.000180476562319
-0.00016840987013
0.000200949590376
3.61045347206e-05
0.000201671583863
0.000267228427986
-1.09554532367e-05
0.000104587081407
-2.22494281317e-05
0.000107970998815
-3.37688334611e-05
0.00011051921561
-4.53611199215e-05
0.000112272075263
-5.69369857175e-05
0.000113661834593
-6.85083148432e-05
0.000115136132454
-7.99003180423e-05
0.000116888641228
-9.12054013827e-05
0.000119112741297
-0.000102182760971
0.000121698138924
-0.000112819553833
0.000125032155045
-0.000122940980626
0.000129004455369
-0.000132214671399
0.000133805786409
-0.000140229275233
0.000139435547519
-0.000146403658141
0.000146025555876
-0.000150025367872
0.000154307322062
-0.000150879179459
0.000165248826826
-0.000147808950366
0.000177406416563
-0.000131420575433
0.000184563118858
-7.98671724433e-05
0.000150116529315
0.00015410042991
-1.06799888031e-05
0.000115267175242
-2.17518090294e-05
0.000119042862867
-3.29685029137e-05
0.00012173585884
-4.42560386072e-05
0.000123559462407
-5.55236196372e-05
0.000124929198211
-6.67032876729e-05
0.000126315567085
-7.7754686608e-05
0.000127939835017
-8.85113984234e-05
0.000129869345627
-9.90066893862e-05
0.000132193400662
-0.000108892238389
0.000134917820653
-0.000118104403015
0.000138216853389
-0.00012622213152
0.000141923851246
-0.000132789658979
0.000146003513103
-0.000137015977343
0.000150252352243
-0.000138014945012
0.000155306721291
-0.000135655752989
0.000162889917297
-0.000129188154555
0.000170938911381
-0.000108731338661
0.000164105985224
-9.5760230438e-05
0.000137145867128
5.78565106771e-05
-1.04363778286e-05
0.000125703623672
-2.12038382306e-05
0.000129810324863
-3.21908532626e-05
0.00013272278004
-4.32282902543e-05
0.000134596710432
-5.42111188684e-05
0.000135911775234
-6.50883917111e-05
0.000137192571343
-7.57913431279e-05
0.000138642552815
-8.62522084964e-05
0.000140330041218
-9.62453356131e-05
0.000142186474235
-0.000105758899744
0.000144431383962
-0.000114382669506
0.000146840784564
-0.000121876952135
0.000149418410025
-0.000127746660969
0.000151873603823
-0.000131300600255
0.000153806717007
-0.000131774223995
0.000155780730929
-0.00012871283801
0.000159828781841
-0.000120839339081
0.000163065501365
-0.000101065933373
0.000144331691603
-9.02178800823e-05
0.000126298794966
-4.67000393286e-06
-1.02171304365e-05
0.000135920772834
-2.0720981554e-05
0.000140314118503
-3.14492910506e-05
0.000143450936747
-4.22509985047e-05
0.000145398174621
-5.30098285443e-05
0.00014667030322
-6.36551850212e-05
0.000147837617374
-7.41133805203e-05
0.000149100465893
-8.43051724899e-05
0.000150521625476
-9.41468730315e-05
0.000152028000016
-0.000103378202377
0.000153662660404
-0.000111832069442
0.00015529464508
-0.000119182928487
0.000156769465169
-0.000125089297303
0.000157780286339
-0.000129193215041
0.000157910999227
-0.000130694510714
0.000157282362993
-0.000128012296531
0.000157146786346
-0.000118316899435
0.000153370187251
-0.000101534824699
0.000127548394178
-9.88768572597e-05
0.00012364210089
-1.54461078573e-05
-9.9563286715e-06
0.000145877052019
-2.02649175704e-05
0.000150622575274
-3.07734270802e-05
0.000153959219726
-4.13619485292e-05
0.000155986382927
-5.19234421426e-05
0.000157231432005
-6.23969983209e-05
0.000158310800704
-7.27303768651e-05
0.000159433510785
-8.27899699905e-05
0.00016058093034
-9.25519596838e-05
0.000161789772676
-0.000101792538889
0.000162903042794
-0.000110330596725
0.000163832583028
-0.000117926110621
0.000164365098719
-0.000124264837275
0.000164119262887
-0.000128920877682
0.000162567350159
-0.000130941959333
0.000159303738751
-0.000128142972032
0.000154347993524
-0.000118316293499
0.000143543583737
-0.000112624303081
0.000121855640236
-0.00011548663982
0.000126505237784
8.06202869876e-06
-9.73500256794e-06
0.000155611924596
-1.9872733112e-05
0.000160760088196
-3.01545068135e-05
0.000164240682367
-4.05308132148e-05
0.000166362296958
-5.09350414031e-05
0.000167635225604
-6.12865524405e-05
0.000168661891958
-7.15446083466e-05
0.000169691197595
-8.16437564085e-05
0.000170679703921
-9.14576437719e-05
0.000171603259006
-0.000100876905235
0.000172321992954
-0.000109758798474
0.0001727141943
-0.000117881889733
0.000172488250809
-0.000124985394624
0.000171223008811
-0.000130647361307
0.000168229631732
-0.000133785293428
0.000162441994878
-0.000131853369331
0.000152416281563
-0.00012457577191
0.000136266079969
-0.000127312955204
0.000124591697479
-0.000137317626627
0.000136510974524
3.49115415497e-05
-9.53238120002e-06
0.000165144089933
-1.93814008127e-05
0.000170608801933
-2.9510469775e-05
0.000174369356352
-3.97162141071e-05
0.000176567579971
-5.0008317231e-05
0.000177926859067
-6.0307372318e-05
0.000178960416528
-7.05411244066e-05
0.000179924254516
-8.07161838658e-05
0.000180854209469
-9.07436397229e-05
0.000181630197384
-0.000100523112428
0.000182101122968
-0.000109941760579
0.000182132386857
-0.000118786497999
0.000181333105146
-0.000126769930827
0.000179206719116
-0.000133239889275
0.000174700021392
-0.00013689350652
0.000166095971759
-0.000136671382168
0.000152194427079
-0.000135990314743
0.00013558511496
-0.000144329147334
0.000132929361528
-0.000150282383316
0.000142465143535
3.91523561611e-05
-9.29453936859e-06
0.000174438238241
-1.89270672291e-05
0.000180240853055
-2.88357115515e-05
0.000184277518072
-3.89247131084e-05
0.000186656093395
-4.90625163524e-05
0.000188063771987
-5.92795121475e-05
0.000189176494973
-6.95778540694e-05
0.000190221963286
-7.99049269348e-05
0.000191180573527
-9.02409139358e-05
0.000191965690497
-0.000100560663658
0.000192420424609
-0.000110689541541
0.000192260955841
-0.000120587149135
0.000191230830312
-0.000130082178846
0.000188702140777
-0.000138754926799
0.000183373196497
-0.00014555343222
0.000172894927886
-0.000149623055643
0.000156264325494
-0.000153869357227
0.000139831532596
-0.000160087025446
0.000139145481823
-0.000162163022129
0.000144542347774
2.85053957919e-05
-9.03643475641e-06
0.000183474061668
-1.84631349406e-05
0.000189666959253
-2.81384890791e-05
0.000193952242077
-3.80184934317e-05
0.000196534849449
-4.80481320037e-05
0.000198092571179
-5.82263687826e-05
0.000199353846088
-6.85438173091e-05
0.000200538522735
-7.90649335087e-05
0.000201700446779
-8.97660246742e-05
0.000202666020048
-0.000100630146325
0.000203284057084
-0.000111687823942
0.000203318377306
-0.000122929857545
0.000202473072814
-0.000134405171485
0.000200177933245
-0.00014614066034
0.000195109372739
-0.000157689156702
0.000184444042917
-0.000166877194961
0.000165452823698
-0.000172935836123
0.000145890359049
-0.000175192075053
0.000141400681161
-0.000178962814002
0.000148313782548
2.3681677595e-05
-8.80330768305e-06
0.000192276646796
-1.79095409374e-05
0.000198772347539
-2.73533019855e-05
0.000203394763374
-3.70219849079e-05
0.000206202723539
-4.68947857454e-05
0.000207964158798
-5.69947756346e-05
0.000209452095524
-6.73816256704e-05
0.000210924370801
-7.8056835363e-05
0.000212375167487
-8.90428019774e-05
0.000213651635754
-0.000100396496603
0.000214637584629
-0.000112226895521
0.000215148799988
-0.000124588443903
0.000214834846956
-0.000137723756745
0.000213313602438
-0.000151855813254
0.000209241851237
-0.000166829535871
0.000199418143888
-0.00018051872994
0.000179142265894
-0.000190773457485
0.000156145172325
-0.0001966812527
0.00014730793168
-0.000206408058251
0.000158041093542
2.97537797479e-05
-8.45828392698e-06
0.000200733856317
-1.72781863926e-05
0.000207591011489
-2.64332485528e-05
0.000212548519729
-3.58595076181e-05
0.000215627825767
-4.55575080332e-05
0.000217660482062
-5.55678429948e-05
0.000219461729238
-6.59307233384e-05
0.000221286696392
-7.66959260955e-05
0.000223139959452
-8.79725963131e-05
0.000224928049212
-9.97186427419e-05
0.000226383550195
-0.000112207721039
0.000227637983213
-0.000125506563771
0.000228133962132
-0.000139652963659
0.000227460388394
-0.000155036223943
0.000224625532482
-0.000171820986415
0.000216203277226
-0.000189244448141
0.000196565965472
-0.000206550783688
0.000173451588897
-0.000223407480525
0.000164164306379
-0.000241182574366
0.00017581654462
4.23515008593e-05
-8.05845054965e-06
0.000208791709908
-1.65859634505e-05
0.000216117818469
-2.5391290169e-05
0.000221352469748
-3.45128735952e-05
0.000224748197963
-4.39695903371e-05
0.000227116511426
-5.37909358605e-05
0.000229282485178
-6.40566645516e-05
0.000231551942295
-7.48522118143e-05
0.000233935158322
-8.62604477406e-05
0.000236336090243
-9.84728730485e-05
0.0002385959591
-0.00011141133099
0.000240576600769
-0.000125325129033
0.000242048075437
-0.000140349930056
0.000242485599433
-0.000156640461975
0.00024091649451
-0.000174810101395
0.000234373285906
-0.000195833098447
0.000217589195107
-0.00022040397214
0.000198022539755
-0.000248200066669
0.000191960239861
-0.000274094204497
0.000201710908337
5.82265855509e-05
-7.66530884879e-06
0.000216456495127
-1.56824435006e-05
0.000224134381257
-2.40981819079e-05
0.000229767593815
-3.28555507004e-05
0.00023350495597
-4.19897455242e-05
0.00023625013396
-5.15429975383e-05
0.000238835225758
-6.1651077799e-05
0.000241659598154
-7.23933886903e-05
0.000244677164638
-8.39106805282e-05
0.000247853227419
-9.63109705628e-05
0.000250996266747
-0.000109737221916
0.000254003042507
-0.00012427486521
0.000256586055973
-0.000140079728177
0.000258290887998
-0.000157284307642
0.000258121510759
-0.000176755690823
0.000253845038947
-0.00020083843097
0.000241672166297
-0.000230014518232
0.000227198708165
-0.000265237847983
0.000227182994193
-0.00030067720312
0.000237150868929
8.15433369598e-05
-7.10153339801e-06
0.000223557582508
-1.46514799978e-05
0.000231683865436
-2.25618399872e-05
0.000237677471453
-3.08628562632e-05
0.000241805483199
-3.95878648014e-05
0.000244974665944
-4.87529179124e-05
0.00024799983542
-5.86106341733e-05
0.000251516933923
-6.91945152409e-05
0.000255260764841
-8.0656292108e-05
0.000259314861853
-9.31829893167e-05
0.00026352298781
-0.000106914831528
0.000267735081709
-0.000122010072243
0.000271681643885
-0.000138618899855
0.000274900155446
-0.000156866577815
0.000276369641769
-0.000177594575698
0.000274573422155
-0.000203271472053
0.000267349306001
-0.000235995008664
0.000259922331626
-0.000274416868207
0.000265604388052
-0.000315613544738
0.000278348011982
0.000102569262813
-6.53541827872e-06
0.000230092673389
-1.34368647714e-05
0.000238584977754
-2.07429396018e-05
0.000244983186118
-2.84611853804e-05
0.000249523332284
-3.66274014485e-05
0.000253140448285
-4.54241744575e-05
0.000256796152306
-5.48412468403e-05
0.000260933564297
-6.51188064718e-05
0.000265537954341
-7.64061043964e-05
0.000270601922102
-8.8902199553e-05
0.000276019044275
-0.000102777320452
0.000281610400482
-0.00011826698172
0.000287171730737
-0.000135590728385
0.000292224488661
-0.000155057823109
0.000295837374167
-0.000177168629202
0.000296684794019
-0.000204942422014
0.000295123474366
-0.000239992857949
0.00029497290397
-0.000278190940859
0.000303802153828
-0.000313968229909
0.000314125505384
9.94990694977e-05
-5.83395069025e-06
0.000235926450407
-1.20196130851e-05
0.000244770435741
-1.8613394583e-05
0.000251576694897
-2.56420770804e-05
0.000256551640078
-3.31666178594e-05
0.000260664496386
-4.13141925144e-05
0.00026494313744
-5.01906000875e-05
0.000269809348625
-6.00112349855e-05
0.000275357965362
-7.09475028128e-05
0.000281537791681
-8.3225767344e-05
0.000288297225717
-9.70725043585e-05
0.00029545743275
-0.000112813498656
0.000302913383669
-0.000130744379394
0.000310156281123
-0.000151314066519
0.000316408039687
-0.000175588634871
0.000320960201274
-0.000205995503962
0.000325530850546
-0.000244081738822
0.000333059312527
-0.000282527694491
0.000342247195102
-0.000314861278526
0.000346459634379
8.11020692922e-05
-4.97934653927e-06
0.000240905733657
-1.03636473332e-05
0.000250154627648
-1.61400472385e-05
0.000257352884226
-2.23576119857e-05
0.000262768834066
-2.90913329804e-05
0.00026739766331
-3.64620306549e-05
0.000272313123964
-4.46307231545e-05
0.000277977141486
-5.37802546403e-05
0.000284506638976
-6.41301119949e-05
0.000291886959989
-7.59450763474e-05
0.00030011200434
-8.95430368059e-05
0.000309055735674
-0.000105292787162
0.000318663944153
-0.000123530535632
0.00032839515873
-0.000145182838465
0.00033806155348
-0.000171376531025
0.000347154912221
-0.000204868330108
0.000359023288758
-0.000247065431223
0.000375256658581
-0.000292837093108
0.000388017246577
-0.000333788401563
0.000387412147058
8.22750485628e-05
-4.06254105707e-06
0.000244968229568
-8.47954139511e-06
0.000254571506597
-1.32988601109e-05
0.000262171912714
-1.85686854143e-05
0.000268038106007
-2.43634223876e-05
0.000273191536256
-3.08102786401e-05
0.00027875878622
-3.80730122812e-05
0.00028523836591
-4.63325322656e-05
0.000292764513778
-5.58620276859e-05
0.00030141469615
-6.69095157821e-05
0.000311159081074
-7.98654695217e-05
0.000322012084738
-9.51055782974e-05
0.000333905198553
-0.000113354954847
0.000346646245703
-0.00013526415823
0.000359972671926
-0.000162352337368
0.000374244803777
-0.000196929711859
0.000393601823266
-0.000241995150275
0.000420322554191
-0.000307666046621
0.000453686471169
-0.000361861427999
0.000441608882956
0.000121563647579
-2.990409201e-06
0.000247958626966
-6.33446270388e-06
0.000257915453154
-1.00852735732e-05
0.000265922442776
-1.4274800775e-05
0.000272227102879
-1.89829120093e-05
0.000277898844428
-2.43327926581e-05
0.000284107532554
-3.04881113081e-05
0.000291392354956
-3.76672514727e-05
0.000299942286773
-4.6076468641e-05
0.000309822277495
-5.60215254407e-05
0.000321103864831
-6.78682377997e-05
0.000333859133841
-8.20958107774e-05
0.000348133679522
-9.94109134572e-05
0.000363962695913
-0.000120757104484
0.000381320384052
-0.000147834003778
0.000401323095919
-0.000183042564193
0.000428811345902
-0.000230323205346
0.000467603567239
-0.000308567744937
0.000531928130881
-0.000369035949998
0.000502080190718
0.000171173657146
-1.82750123187e-06
0.000249786042827
-4.0004392652e-06
0.000260088157145
-6.54766480637e-06
0.000268469191711
-9.51497336189e-06
0.000275193612119
-1.29798268116e-05
0.000281362568673
-1.70623575211e-05
0.000288188660477
-2.19147612988e-05
0.000296243194951
-2.77286797904e-05
0.000305754725562
-3.47308763016e-05
0.000316822964672
-4.31956570021e-05
0.000329568206627
-5.34668452376e-05
0.000344130590056
-6.60110937973e-05
0.000360679108207
-8.14796309503e-05
0.000379432907153
-0.00010093936182
0.000400781978728
-0.000126118520918
0.000426503957136
-0.000159264974993
0.000461958963783
-0.000206024445797
0.000514363435344
-0.000282161138075
0.000608065752969
-0.000346286071434
0.000566204878977
0.000224774985084
-6.01172987563e-07
0.000250387004447
-1.47582856137e-06
0.000260962390188
-2.68768090062e-06
0.000269680298478
-4.30583134406e-06
0.000276810611992
-6.38216448053e-06
0.00028343736233
-9.02846253815e-06
0.000290833157335
-1.2372147923e-05
0.000299585026221
-1.66167752706e-05
0.000309997810649
-2.19242089282e-05
0.000322129621867
-2.85430938613e-05
0.000336187198678
-3.67474865961e-05
0.000352335671407
-4.68953578476e-05
0.000370828544599
-5.9463643868e-05
0.000392003278851
-7.54574558355e-05
0.000416778042521
-9.67496502887e-05
0.000447798164575
-0.000126203257564
0.000491413913945
-0.000168514243062
0.000556674863908
-0.000229375043525
0.000668927575874
-0.000283986974094
0.000620816578527
0.00028456732062
7.89224394567e-07
0.00024959740507
1.26084386002e-06
0.000260490123557
1.43675061698e-06
0.000269503341606
1.30389152251e-06
0.000276941938355
7.45307353186e-07
0.000283993977515
-3.23758018601e-07
0.000291900005932
-2.0203814399e-06
0.000301279487076
-4.46001183851e-06
0.000312435795374
-7.8244902647e-06
0.000325493460417
-1.22937947266e-05
0.000340656931957
-1.80798585155e-05
0.000358122944416
-2.53619540706e-05
0.000378112628891
-3.43945351287e-05
0.00040103834948
-4.56557113571e-05
0.000428041809498
-6.13331071555e-05
0.000463477810379
-8.5632106333e-05
0.000515714369262
-0.000121194245008
0.000592237475457
-0.000161399383139
0.000709133001503
-0.0002005345373
0.00065995228331
0.00033921624143
2.19792346053e-06
0.00024739892818
4.16185478683e-06
0.000258525319172
5.8322855878e-06
0.000267831567204
7.23661649615e-06
0.000275535719745
8.31624442902e-06
0.000282911998989
8.97198731992e-06
0.000291241696306
9.07700190903e-06
0.000301172068197
8.58867585778e-06
0.000312922435053
7.28869236424e-06
0.000326793012168
5.15096720769e-06
0.000342795459686
1.99753867075e-06
0.00036127814957
-2.23392819618e-06
0.000382346462851
-7.48519322737e-06
0.000406292408036
-1.41311132911e-05
0.000434690523794
-2.43150586778e-05
0.00047366410341
-4.273241255e-05
0.000534133191463
-7.04896339516e-05
0.00061999515732
-9.1597476134e-05
0.000730241264981
-9.17583363698e-05
0.000660113590351
0.000403665669334
3.65281860341e-06
0.000243745401182
7.16347952967e-06
0.000255013606508
1.05047458127e-05
0.000264488732551
1.35951387143e-05
0.000272443175792
1.64078099331e-05
0.000280096710185
1.88717916484e-05
0.000288774927662
2.0915485611e-05
0.000299125852421
2.23889170389e-05
0.00031144737649
2.32663925553e-05
0.000325915357188
2.3425024508e-05
0.000342637978343
2.28912399573e-05
0.000361814209393
2.15821835952e-05
0.000383658124686
1.94177683873e-05
0.000408459735848
1.66428083618e-05
0.000437468279219
1.07455873047e-05
0.000479563587389
-3.43140107104e-06
0.000548311540246
-2.62789904013e-05
0.000642843208113
-3.16315192912e-05
0.000735590117916
0.000167054521209
0.000461432588259
0.000375485236075
5.20215015743e-06
0.000238542464655
1.03081473463e-05
0.000249906485828
1.53164256543e-05
0.000259478793944
2.01597551215e-05
0.00026759758816
2.47863009938e-05
0.000275467452816
2.9173435414e-05
0.000284384960759
3.32657629386e-05
0.000295031035859
3.69558476729e-05
0.000307755812804
4.01496180984e-05
0.000322721634043
4.26855508746e-05
0.000340103415483
4.44723751713e-05
0.000360029944308
4.55840992793e-05
0.000382549025697
4.59150193392e-05
0.000408131610402
4.47250062099e-05
0.000438660861176
4.02774372171e-05
0.000484013149429
2.89075505907e-05
0.000559682578202
1.14095818322e-05
0.000660341552621
1.96195103991e-05
0.000727375792293
0.000447537914064
3.35165995394e-05
0.000343549653678
6.79241396172e-06
0.000231749319493
1.35340313795e-05
0.000243163837868
2.02306129412e-05
0.000252780649389
2.68550781938e-05
0.000260970964186
3.33875741045e-05
0.000268932362312
3.9789955459e-05
0.000277979895079
4.59776223483e-05
0.000288841060303
5.18923274347e-05
0.000301839828411
5.74583430646e-05
0.00031715579706
6.25495901654e-05
0.000335013555581
6.69467321782e-05
0.000355635329293
7.03687573257e-05
0.000379129403647
7.23738195686e-05
0.000406128998544
7.20123652457e-05
0.000439024470013
6.97345350723e-05
0.000486292574032
6.95628312543e-05
0.000559855161742
7.82848106444e-05
0.000651619822657
9.34510945448e-05
0.000712210035528
-2.44864639347e-05
0.000151452307006
0.000337021208384
8.3694719526e-06
0.000223379349204
1.67736168384e-05
0.000234758956167
2.52164580593e-05
0.000244336559599
3.36762735632e-05
0.000252509312868
4.2131939739e-05
0.000260474431344
5.05767984535e-05
0.000269532679867
5.89563367716e-05
0.000280459513955
6.7228680673e-05
0.000293566416664
7.5259987019e-05
0.000309124680825
8.29503118188e-05
0.000327324441349
9.00543549287e-05
0.000348533480432
9.60644804821e-05
0.00037312127731
0.000100390680606
0.00040180476478
0.000102447275901
0.000436969531729
0.00010407921569
0.000484661806199
0.000114861959863
0.000549073042423
0.000142942119023
0.000623539876142
0.000162651736143
0.000692499745821
-2.5876003862e-05
0.000339978815747
0.000459449406878
9.92571784837e-06
0.000213453554976
1.99823160169e-05
0.000224702109846
3.01786961717e-05
0.000234139442799
4.04862957269e-05
0.000242200391954
5.09023060292e-05
0.000250056656154
6.14292103508e-05
0.000259003878097
7.20746631957e-05
0.000269812429757
8.27900666436e-05
0.000282850147986
9.35389614725e-05
0.000298375913687
0.000104114440992
0.000316749905809
0.000114376523112
0.000338273112538
0.000123891065896
0.000363608279497
0.000132171753395
0.000393525557194
0.000139159479132
0.000429983012214
0.000148093765009
0.000475728351302
0.000166578820393
0.000530588431004
0.000208568262181
0.000581550598868
0.000234585263239
0.000666482476523
0.000139916315325
0.000434645403262
0.000770684659698
1.14626685316e-05
0.000201991383298
2.31200969525e-05
0.00021304505749
3.50280825785e-05
0.000222231355113
4.71612595615e-05
0.000230066515673
5.9552049622e-05
0.000237664686122
7.22026579753e-05
0.000246351887235
8.51560768652e-05
0.000256857781575
9.84287909807e-05
0.000269576769522
0.000111998062549
0.000284806734009
0.000125890166974
0.000302858540754
0.000140055815737
0.000324108780241
0.000154431663887
0.000349233615769
0.000168807651474
0.000379150686361
0.000183459109711
0.000415332453209
0.000200900179661
0.000458287912307
0.00022625903102
0.000505229937531
0.000274207223265
0.000533602567693
0.000313637005299
0.000627052562267
0.000237321893605
0.00051095332567
0.00148972398865
1.28875776113e-05
0.000189104938212
2.61135736533e-05
0.000199820090498
3.96951921165e-05
0.000208650273219
5.36284269412e-05
0.000216133190152
6.79441695369e-05
0.000223348322252
8.27178054069e-05
0.000231577353401
9.79710093713e-05
0.000241603728414
0.000113798476748
0.000253748860659
0.000130235890365
0.000268369491636
0.000147371628288
0.000285723500687
0.000165461400387
0.000306020189472
0.000184833447879
0.000329862567655
0.000205827230038
0.000358157831701
0.000229432437348
0.000391728000161
0.000257650413888
0.000430070493067
0.0002958322239
0.000467048465384
0.00034510725685
0.000484327704144
0.00039101711133
0.000581142453195
0.000333829983035
0.000568135729372
0.00336956356027
1.41927543981e-05
0.00017491389412
2.88742962687e-05
0.000185140133974
4.40480166553e-05
0.000193477609461
5.97124504441e-05
0.000200469143137
7.59239008123e-05
0.000207136681772
9.27460751876e-05
0.000214754661071
0.000110301119925
0.000224048156648
0.000128606482283
0.000235443242704
0.000147735412672
0.000249240889739
0.000167883488273
0.000265576239097
0.000189311487085
0.00028459361481
0.000212535456951
0.000306639701701
0.00023844408353
0.000332250242332
0.000268665813751
0.000361507085175
0.000306730973218
0.000392006007173
0.00035853057952
0.000415249241869
0.000416195118036
0.000426663428955
0.000474187855624
0.000523147836843
0.000537508943167
0.000504886862066
0.00428297388603
1.53764022003e-05
0.0001595401897
3.14197918065e-05
0.000169099098198
4.80118063602e-05
0.000176887233694
6.53003318066e-05
0.000183181394977
8.33028870272e-05
0.000189134222349
0.000102147888064
0.000195909302236
0.000121908880103
0.00020428657521
0.00014263413945
0.000214717920665
0.000164402255418
0.00022747322399
0.000187309330466
0.00024267050943
0.000211712953033
0.000260191545059
0.000238275407622
0.000280078628179
0.000267926639817
0.000302600079338
0.000301902098793
0.000327532732686
0.000344626610188
0.00034928209067
0.000401698402292
0.000358178086015
0.000470167044301
0.000358194855412
0.000557906671717
0.000435405066165
0.000778058369128
0.000284943414975
0.00141846902717
1.63994198973e-05
0.000143144379212
3.35688685658e-05
0.00015193265583
5.15198090776e-05
0.000158938265275
7.02225612437e-05
0.000164479523583
8.99100953488e-05
0.000169446561858
0.000110681344629
0.000175137340889
0.000132610806269
0.000182356702877
0.000155766205783
0.000191562326017
0.000180054573117
0.00020318563204
0.000205502131495
0.000217223801479
0.00023269167617
0.000233004058447
0.000262725159572
0.000250046300213
0.000296470770969
0.000268855734128
0.000333903546734
0.000290100694075
0.000376914031815
0.00030627243438
0.000427828488032
0.000307263849216
0.000490192774543
0.000295830654093