/*--------------------------------*- C++ -*----------------------------------*\
| =========                 |                                                 |
| \\      /  F ield         | OpenFOAM: The Open Source CFD Toolbox           |
|  \\    /   O peration     | Version:  v2012                                 |
|   \\  /    A nd           | Website:  www.openfoam.com                      |
|    \\/     M anipulation  |                                                 |
\*---------------------------------------------------------------------------*/
FoamFile
{
    version     2.0;
    format      ascii;
    class       volScalarField;
    location    "3";
    object      p;
}
// * * * * * * * * * * * * * * * * * * * * * * * * * * * * * * * * * * * * * //

dimensions      [1 -1 -2 0 0 0 0];


internalField   nonuniform List<scalar> 
167
(
4560.72756562
4072.74716306
3584.99538465
3097.49371721
2610.25866379
2123.32805857
1636.71430121
1150.53532793
665.010705189
229.803416698
13.5575952705
-9.57196577116
4560.53051116
4072.53435021
3584.76086912
3097.22850811
2609.95996008
2122.97367963
1636.28973235
1150.00821087
663.930587783
228.910421975
13.5860464182
-9.55743476173
4560.12152689
4072.09806683
3584.28852605
3096.7085973
2609.38396577
2122.33357721
1635.5815954
1149.24072801
663.133982206
228.077905828
13.0247681018
-9.54300109468
4071.43946806
3583.57893471
3095.93576366
2608.53648526
2121.39672062
1634.55399937
1148.11076304
662.037168964
226.717195582
11.9876070963
-9.54016540595
3582.64842318
3094.92387398
2607.4166564
2120.15247802
1633.16517903
1146.51790974
660.25284009
224.606318868
10.6771516464
-9.54833907669
3581.5115803
3093.68747134
2606.05236999
2118.62768016
1631.43645485
1144.50426147
657.858959477
222.249290171
9.537678796
-9.55972703399
3580.18822518
3092.24847024
2604.46639471
2116.84236624
1629.41521429
1142.16604121
655.163024178
220.107551889
8.78740093441
-9.57250548971
3578.69858307
3090.63488868
2602.68940781
2114.86364298
1627.18078573
1139.55279545
652.238962958
218.19566538
8.33101304804
-9.58535161474
3577.07290005
3088.88235577
2600.76344866
2112.70533144
1624.71445769
1136.67076271
648.963313801
216.295883748
7.91123896739
-9.5967510364
3575.34335839
3087.032829
2598.73967477
2110.43446525
1622.08429059
1133.50290071
645.164863779
213.747449198
7.26262294078
-9.60179302745
3573.54646991
3085.13800395
2596.69164456
2108.15397239
1619.4345037
1130.2417231
640.891665564
210.083739728
6.46674700444
-9.58972040929
3571.71776089
3083.25136396
2594.70056167
2105.98776127
1616.96802217
1127.27894308
637.048376666
206.74567153
5.90876966715
-9.57875995548
3569.8858812
3081.41871844
2592.83928336
2104.05159883
1614.87278127
1124.94133145
634.288527523
204.951336954
5.93599309547
-9.58120581756
3568.06667033
3079.66884636
2591.15793904
2102.43401136
1613.31200258
1123.45998754
632.88666178
204.227463954
5.93409705055
-9.58306532185
3566.25816469
3078.0037187
2589.66375176
2101.14687405
1612.29749277
1122.83494037
632.820295017
204.260974834
5.668234382
-9.58385635198
3564.43892367
3076.39811183
2588.3253278
2100.14945468
1611.75693983
1122.90168439
633.666216096
205.113658851
5.64842114159
-9.58212781911
)
;

boundaryField
{
    back
    {
        type            calculated;
        value           nonuniform List<scalar> 
167
(
4560.72756562
4072.74716306
3584.99538465
3097.49371721
2610.25866379
2123.32805857
1636.71430121
1150.53532793
665.010705189
229.803416698
13.5575952705
-9.57196577116
4560.53051116
4072.53435021
3584.76086912
3097.22850811
2609.95996008
2122.97367963
1636.28973235
1150.00821087
663.930587783
228.910421975
13.5860464182
-9.55743476173
4560.12152689
4072.09806683
3584.28852605
3096.7085973
2609.38396577
2122.33357721
1635.5815954
1149.24072801
663.133982206
228.077905828
13.0247681018
-9.54300109468
4071.43946806
3583.57893471
3095.93576366
2608.53648526
2121.39672062
1634.55399937
1148.11076304
662.037168964
226.717195582
11.9876070963
-9.54016540595
3582.64842318
3094.92387398
2607.4166564
2120.15247802
1633.16517903
1146.51790974
660.25284009
224.606318868
10.6771516464
-9.54833907669
3581.5115803
3093.68747134
2606.05236999
2118.62768016
1631.43645485
1144.50426147
657.858959477
222.249290171
9.537678796
-9.55972703399
3580.18822518
3092.24847024
2604.46639471
2116.84236624
1629.41521429
1142.16604121
655.163024178
220.107551889
8.78740093441
-9.57250548971
3578.69858307
3090.63488868
2602.68940781
2114.86364298
1627.18078573
1139.55279545
652.238962958
218.19566538
8.33101304804
-9.58535161474
3577.07290005
3088.88235577
2600.76344866
2112.70533144
1624.71445769
1136.67076271
648.963313801
216.295883748
7.9112389674
-9.5967510364
3575.34335839
3087.032829
2598.73967477
2110.43446525
1622.08429059
1133.50290071
645.164863779
213.747449198
7.26262294078
-9.60179302745
3573.54646991
3085.13800395
2596.69164456
2108.15397239
1619.4345037
1130.2417231
640.891665564
210.083739728
6.46674700444
-9.58972040929
3571.71776089
3083.25136396
2594.70056167
2105.98776127
1616.96802217
1127.27894308
637.048376666
206.74567153
5.90876966715
-9.57875995548
3569.8858812
3081.41871844
2592.83928336
2104.05159883
1614.87278127
1124.94133145
634.288527523
204.951336954
5.93599309547
-9.58120581756
3568.06667033
3079.66884636
2591.15793904
2102.43401136
1613.31200258
1123.45998754
632.88666178
204.227463954
5.93409705055
-9.58306532185
3566.25816469
3078.0037187
2589.66375176
2101.14687405
1612.29749277
1122.83494037
632.820295017
204.260974834
5.66823438201
-9.58385635198
3564.43892367
3076.39811183
2588.3253278
2100.14945468
1611.75693983
1122.90168439
633.666216096
205.113658851
5.64842114159
-9.58212781911
)
;
    }
    sides
    {
        type            calculated;
        value           nonuniform List<scalar> 
12
(
4560.72756562
4072.74716306
3584.99538465
3097.49371721
2610.25866379
2123.32805857
1636.71430121
1150.53532793
665.010705189
229.803416698
13.5575952705
-9.57196577116
)
;
    }
    bottom
    {
        type            calculated;
        value           nonuniform List<scalar> 0();
    }
    front
    {
        type            calculated;
        value           nonuniform List<scalar> 
167
(
4560.72756562
4072.74716306
3584.99538465
3097.49371721
2610.25866379
2123.32805857
1636.71430121
1150.53532793
665.010705189
229.803416698
13.5575952705
-9.57196577116
4560.53051116
4072.53435021
3584.76086912
3097.22850811
2609.95996008
2122.97367963
1636.28973235
1150.00821087
663.930587783
228.910421975
13.5860464182
-9.55743476173
4560.12152689
4072.09806683
3584.28852605
3096.7085973
2609.38396577
2122.33357721
1635.5815954
1149.24072801
663.133982206
228.077905828
13.0247681018
-9.54300109468
4071.43946806
3583.57893471
3095.93576366
2608.53648526
2121.39672062
1634.55399937
1148.11076304
662.037168964
226.717195582
11.9876070963
-9.54016540595
3582.64842318
3094.92387398
2607.4166564
2120.15247802
1633.16517903
1146.51790974
660.25284009
224.606318868
10.6771516464
-9.54833907669
3581.5115803
3093.68747134
2606.05236999
2118.62768016
1631.43645485
1144.50426147
657.858959477
222.249290171
9.537678796
-9.55972703399
3580.18822518
3092.24847024
2604.46639471
2116.84236624
1629.41521429
1142.16604121
655.163024178
220.107551889
8.78740093441
-9.57250548971
3578.69858307
3090.63488868
2602.68940781
2114.86364298
1627.18078573
1139.55279545
652.238962958
218.19566538
8.33101304804
-9.58535161474
3577.07290005
3088.88235577
2600.76344866
2112.70533144
1624.71445769
1136.67076271
648.963313801
216.295883748
7.91123896739
-9.5967510364
3575.34335839
3087.032829
2598.73967477
2110.43446525
1622.08429059
1133.50290071
645.164863779
213.747449198
7.26262294078
-9.60179302745
3573.54646991
3085.13800395
2596.69164456
2108.15397239
1619.4345037
1130.2417231
640.891665564
210.083739728
6.46674700444
-9.58972040929
3571.71776089
3083.25136396
2594.70056167
2105.98776127
1616.96802217
1127.27894308
637.048376666
206.74567153
5.90876966715
-9.57875995548
3569.8858812
3081.41871844
2592.83928336
2104.05159883
1614.87278127
1124.94133145
634.288527523
204.951336954
5.93599309547
-9.58120581756
3568.06667033
3079.66884636
2591.15793904
2102.43401136
1613.31200258
1123.45998754
632.88666178
204.227463954
5.93409705055
-9.58306532185
3566.25816469
3078.0037187
2589.66375176
2101.14687405
1612.29749277
1122.83494037
632.820295017
204.260974834
5.668234382
-9.58385635198
3564.43892367
3076.39811183
2588.3253278
2100.14945468
1611.75693983
1122.90168439
633.666216096
205.113658851
5.64842114159
-9.58212781911
)
;
    }
    atmosphere
    {
        type            calculated;
        value           nonuniform List<scalar> 
16
(
-9.81006071135
-9.81
-9.81
-9.81
-9.81
-9.81024495164
-9.81110256474
-9.81231992302
-9.81394940977
-9.81554688932
-9.81498497341
-9.81328984765
-9.81288776912
-9.81281072921
-9.81335077507
-9.81291367423
)
;
    }
    floatingObject
    {
        type            calculated;
        value           nonuniform List<scalar> 0();
    }
    procBoundary1to0
    {
        type            processor;
        value           nonuniform List<scalar> 10(3562.56885244 3074.79976915 2587.07169954 2099.3367911 1611.53011894 1123.44625387 635.225320623 206.823727093 6.01371416586 -9.57602341699);
    }
    procBoundary1to2
    {
        type            processor;
        value           nonuniform List<scalar> 
18
(
5048.92025063
5048.73461005
5048.34667774
4559.50286454
4559.50286454
4070.574302
4070.574302
4069.51539619
4068.27832751
4066.88108543
4065.3462533
4063.69808687
4061.9622381
4060.16205447
4058.31499273
4056.42911029
4054.49992991
4052.50881193
)
;
    }
}


// ************************************************************************* //
