/*--------------------------------*- C++ -*----------------------------------*\
| =========                 |                                                 |
| \\      /  F ield         | OpenFOAM: The Open Source CFD Toolbox           |
|  \\    /   O peration     | Version:  v2012                                 |
|   \\  /    A nd           | Website:  www.openfoam.com                      |
|    \\/     M anipulation  |                                                 |
\*---------------------------------------------------------------------------*/
FoamFile
{
    version     2.0;
    format      ascii;
    class       volScalarField;
    location    "3";
    object      p_rgh;
}
// * * * * * * * * * * * * * * * * * * * * * * * * * * * * * * * * * * * * * //

dimensions      [1 -1 -2 0 0 0 0];


internalField   nonuniform List<scalar> 
167
(
8722.46963489
8724.1034218
8725.96537175
8728.07609075
8730.45068179
8733.13538934
8736.1428082
8739.58000563
8743.67427682
7029.671888
862.198774287
-0.00721577116189
8722.27191837
8723.88696668
8725.72797932
8727.80637486
8730.15161529
8732.78132662
8735.72199208
8739.05638313
8742.59672604
6979.64779249
860.817516166
0.00731523827473
8721.8554548
8723.44976256
8725.25554883
8727.28625296
8729.57562097
8732.1414717
8735.0158383
8738.2911168
8741.80297805
6995.00231998
837.529493958
0.0217489053186
8722.77879601
8724.54169298
8726.51486409
8728.72852708
8731.20977448
8733.99114156
8737.16439735
8740.71018171
7022.39527323
797.204595499
0.0245845940454
8723.60656426
8725.49820058
8727.61599469
8729.97106322
8732.6065138
8735.57777003
8738.92950201
7035.60653762
747.60885824
0.0164109233144
8722.46972138
8724.26857813
8726.25528805
8728.45199972
8730.88353353
8733.56582586
8736.53763568
7028.88658619
706.003143465
0.0050229660149
8721.15528772
8722.83625397
8724.67556819
8726.67277297
8728.86316212
8731.23093854
8733.84362173
7007.88607926
679.401601871
-0.00775548971256
8719.67724259
8721.23112621
8722.90572722
8724.69978507
8726.62873573
8728.61784314
8730.91911227
6977.64342511
663.729101844
-0.0206016147397
8718.06080367
8719.48647487
8720.98826665
8722.54916483
8724.16240769
8725.73580986
8727.64255184
6941.52943893
649.555249144
-0.0320010364038
8716.34292588
8717.64586629
8718.97228499
8720.28401355
8721.53224059
8722.56794954
8723.84316958
6889.96353585
625.879462805
-0.0370430274455
8714.55656018
8715.76056442
8716.93287585
8718.00734386
8718.8824537
8719.3067732
8719.56893285
6801.28772787
593.370491652
-0.0249704092947
8712.73700535
8713.88287851
8714.95011519
8715.84511046
8716.41597217
8716.34399645
8715.72485599
6711.27885301
569.439769761
-0.0140099554788
8710.91120601
8712.05587704
8713.09535594
8713.91410439
8714.32073127
8714.00638771
8712.96513656
6634.45851962
571.233426209
-0.0164558175572
8709.09685505
8710.31373939
8711.42408521
8712.30502233
8712.75995258
8712.52503927
8711.56378116
6607.95275725
571.89347968
-0.0183153218483
8707.29801761
8708.66141823
8709.944617
8711.0324689
8711.74544277
8711.89999763
8711.49835997
6637.63914142
561.979979721
-0.019106351982
8705.47756978
8707.06325251
8708.61353632
8710.04538076
8711.20488983
8711.96673507
8712.34482246
6673.61666268
561.005219197
-0.0173778191138
)
;

boundaryField
{
    back
    {
        type            fixedFluxPressure;
        gradient        uniform 0;
        value           nonuniform List<scalar> 
167
(
8722.46963489
8724.1034218
8725.96537175
8728.07609075
8730.45068179
8733.13538934
8736.1428082
8739.58000563
8743.67427682
7029.671888
862.198774287
-0.00721577116189
8722.27191837
8723.88696668
8725.72797932
8727.80637486
8730.15161529
8732.78132662
8735.72199208
8739.05638313
8742.59672604
6979.64779249
860.817516166
0.00731523827473
8721.8554548
8723.44976256
8725.25554883
8727.28625296
8729.57562097
8732.1414717
8735.0158383
8738.2911168
8741.80297805
6995.00231998
837.529493958
0.0217489053186
8722.77879601
8724.54169298
8726.51486409
8728.72852708
8731.20977448
8733.99114156
8737.16439735
8740.71018171
7022.39527323
797.204595499
0.0245845940454
8723.60656426
8725.49820058
8727.61599469
8729.97106322
8732.6065138
8735.57777003
8738.92950201
7035.60653762
747.60885824
0.0164109233144
8722.46972138
8724.26857813
8726.25528805
8728.45199972
8730.88353353
8733.56582586
8736.53763568
7028.88658619
706.003143465
0.0050229660149
8721.15528772
8722.83625397
8724.67556819
8726.67277297
8728.86316212
8731.23093854
8733.84362173
7007.88607926
679.401601871
-0.00775548971256
8719.67724259
8721.23112621
8722.90572722
8724.69978507
8726.62873573
8728.61784314
8730.91911227
6977.64342511
663.729101844
-0.0206016147397
8718.06080367
8719.48647487
8720.98826665
8722.54916483
8724.16240769
8725.73580986
8727.64255184
6941.52943893
649.555249144
-0.0320010364038
8716.34292588
8717.64586629
8718.97228499
8720.28401355
8721.53224059
8722.56794954
8723.84316958
6889.96353585
625.879462805
-0.0370430274455
8714.55656018
8715.76056442
8716.93287585
8718.00734386
8718.8824537
8719.3067732
8719.56893285
6801.28772787
593.370491652
-0.0249704092947
8712.73700535
8713.88287851
8714.95011519
8715.84511046
8716.41597217
8716.34399645
8715.72485599
6711.27885301
569.439769761
-0.0140099554788
8710.91120601
8712.05587704
8713.09535594
8713.91410439
8714.32073127
8714.00638771
8712.96513656
6634.45851962
571.233426209
-0.0164558175572
8709.09685505
8710.31373939
8711.42408521
8712.30502233
8712.75995258
8712.52503927
8711.56378116
6607.95275725
571.89347968
-0.0183153218483
8707.29801761
8708.66141823
8709.944617
8711.0324689
8711.74544277
8711.89999763
8711.49835997
6637.63914142
561.979979721
-0.019106351982
8705.47756978
8707.06325251
8708.61353632
8710.04538076
8711.20488983
8711.96673507
8712.34482246
6673.61666268
561.005219197
-0.0173778191138
)
;
    }
    sides
    {
        type            fixedFluxPressure;
        gradient        uniform 0;
        value           nonuniform List<scalar> 
12
(
8722.46963489
8724.1034218
8725.96537175
8728.07609075
8730.45068179
8733.13538934
8736.1428082
8739.58000563
8743.67427682
7029.671888
862.198774287
-0.00721577116189
)
;
    }
    bottom
    {
        type            fixedFluxPressure;
        gradient        nonuniform List<scalar> 0();
        value           nonuniform List<scalar> 0();
    }
    front
    {
        type            fixedFluxPressure;
        gradient        uniform 0;
        value           nonuniform List<scalar> 
167
(
8722.46963489
8724.1034218
8725.96537175
8728.07609075
8730.45068179
8733.13538934
8736.1428082
8739.58000563
8743.67427682
7029.671888
862.198774287
-0.00721577116189
8722.27191837
8723.88696668
8725.72797932
8727.80637486
8730.15161529
8732.78132662
8735.72199208
8739.05638313
8742.59672604
6979.64779249
860.817516166
0.00731523827473
8721.8554548
8723.44976256
8725.25554883
8727.28625296
8729.57562097
8732.1414717
8735.0158383
8738.2911168
8741.80297805
6995.00231998
837.529493958
0.0217489053186
8722.77879601
8724.54169298
8726.51486409
8728.72852708
8731.20977448
8733.99114156
8737.16439735
8740.71018171
7022.39527323
797.204595499
0.0245845940454
8723.60656426
8725.49820058
8727.61599469
8729.97106322
8732.6065138
8735.57777003
8738.92950201
7035.60653762
747.60885824
0.0164109233144
8722.46972138
8724.26857813
8726.25528805
8728.45199972
8730.88353353
8733.56582586
8736.53763568
7028.88658619
706.003143465
0.0050229660149
8721.15528772
8722.83625397
8724.67556819
8726.67277297
8728.86316212
8731.23093854
8733.84362173
7007.88607926
679.401601871
-0.00775548971256
8719.67724259
8721.23112621
8722.90572722
8724.69978507
8726.62873573
8728.61784314
8730.91911227
6977.64342511
663.729101844
-0.0206016147397
8718.06080367
8719.48647487
8720.98826665
8722.54916483
8724.16240769
8725.73580986
8727.64255184
6941.52943893
649.555249144
-0.0320010364038
8716.34292588
8717.64586629
8718.97228499
8720.28401355
8721.53224059
8722.56794954
8723.84316958
6889.96353585
625.879462805
-0.0370430274455
8714.55656018
8715.76056442
8716.93287585
8718.00734386
8718.8824537
8719.3067732
8719.56893285
6801.28772787
593.370491652
-0.0249704092947
8712.73700535
8713.88287851
8714.95011519
8715.84511046
8716.41597217
8716.34399645
8715.72485599
6711.27885301
569.439769761
-0.0140099554788
8710.91120601
8712.05587704
8713.09535594
8713.91410439
8714.32073127
8714.00638771
8712.96513656
6634.45851962
571.233426209
-0.0164558175572
8709.09685505
8710.31373939
8711.42408521
8712.30502233
8712.75995258
8712.52503927
8711.56378116
6607.95275725
571.89347968
-0.0183153218483
8707.29801761
8708.66141823
8709.944617
8711.0324689
8711.74544277
8711.89999763
8711.49835997
6637.63914142
561.979979721
-0.019106351982
8705.47756978
8707.06325251
8708.61353632
8710.04538076
8711.20488983
8711.96673507
8712.34482246
6673.61666268
561.005219197
-0.0173778191138
)
;
    }
    atmosphere
    {
        type            totalPressure;
        rho             rho;
        psi             none;
        gamma           1;
        p0              uniform 0;
        value           nonuniform List<scalar> 
16
(
-6.07113475227e-05
0
0
0
0
-0.000244951642087
-0.00110256473665
-0.0023199230203
-0.00394940977485
-0.0055468893218
-0.00498497341482
-0.00328984765353
-0.00288776911869
-0.00281072920932
-0.00335077506536
-0.00291367422599
)
;
    }
    floatingObject
    {
        type            fixedFluxPressure;
        gradient        nonuniform List<scalar> 0();
        value           nonuniform List<scalar> 0();
    }
    procBoundary1to0
    {
        type            processor;
        value           nonuniform List<scalar> 10(8703.61173526 8705.48225385 8707.38722871 8709.25695065 8710.97806894 8712.51130399 8713.90444599 6713.42482426 574.264494182 -0.0112734169855);
    }
    procBoundary1to2
    {
        type            processor;
        value           nonuniform List<scalar> 
18
(
8721.04874295
8720.86040504
8720.47385879
8721.23966307
8721.23966307
8721.91754092
8721.91754092
8720.86779761
8719.63593941
8718.24344828
8716.71525206
8715.07402459
8713.34515427
8711.55013264
8709.70668659
8707.82290396
8705.89350909
8703.90402227
)
;
    }
}


// ************************************************************************* //
