/*--------------------------------*- C++ -*----------------------------------*\
| =========                 |                                                 |
| \\      /  F ield         | OpenFOAM: The Open Source CFD Toolbox           |
|  \\    /   O peration     | Version:  v2012                                 |
|   \\  /    A nd           | Website:  www.openfoam.com                      |
|    \\/     M anipulation  |                                                 |
\*---------------------------------------------------------------------------*/
FoamFile
{
    version     2.0;
    format      ascii;
    class       volScalarField;
    location    "3";
    object      rAU;
}
// * * * * * * * * * * * * * * * * * * * * * * * * * * * * * * * * * * * * * //

dimensions      [-1 3 1 0 0 0 0];


internalField   nonuniform List<scalar> 
167
(
1.4689919114e-05
1.46831019004e-05
1.46608540837e-05
1.46810805148e-05
1.47090687728e-05
1.470428855e-05
1.46946515332e-05
1.46701328606e-05
1.46505568987e-05
1.84235488132e-05
0.000152082494389
0.00888411497389
1.4596504784e-05
1.45940394733e-05
1.45938148153e-05
1.45996446771e-05
1.46049048446e-05
1.46024217344e-05
1.45794315218e-05
1.45258017698e-05
1.45011477726e-05
1.83593302058e-05
0.000148966965306
0.00967255677668
1.45806053411e-05
1.45797284144e-05
1.45804938001e-05
1.45833217782e-05
1.458635049e-05
1.45815341621e-05
1.45611296052e-05
1.45009074298e-05
1.44725576733e-05
1.82812261773e-05
0.000152752673343
0.00983864388767
1.45784609724e-05
1.45793382722e-05
1.458069929e-05
1.45827177704e-05
1.45757261062e-05
1.45614127056e-05
1.45095643736e-05
1.44671682988e-05
1.81659503623e-05
0.000159410113439
0.00985472169989
1.45786071136e-05
1.45792026519e-05
1.45813422015e-05
1.45736683072e-05
1.45667348243e-05
1.4532096635e-05
1.44849281412e-05
1.80783324989e-05
0.00016552846069
0.00986222951621
1.45786189975e-05
1.457923052e-05
1.45814972824e-05
1.45714982224e-05
1.45705446799e-05
1.45384742328e-05
1.44858717048e-05
1.80721673909e-05
0.000171921456836
0.00876498596464
1.45787753163e-05
1.45791639294e-05
1.45811174274e-05
1.45720869391e-05
1.45762434719e-05
1.45284989209e-05
1.44633475474e-05
1.80807743338e-05
0.000175659971709
0.00874262658431
1.45792347809e-05
1.45795025703e-05
1.45807442982e-05
1.45751567378e-05
1.45797879569e-05
1.44988173041e-05
1.44080939503e-05
1.80765145665e-05
0.000176906623578
0.00870603815603
1.45792880879e-05
1.45795443203e-05
1.45804909151e-05
1.45775659077e-05
1.45811056565e-05
1.44643471685e-05
1.43029661448e-05
1.80603551993e-05
0.000181833599422
0.00863053709512
1.4579589997e-05
1.45798405933e-05
1.45796774181e-05
1.45789435312e-05
1.45805260338e-05
1.44534170276e-05
1.42844712119e-05
1.818304797e-05
0.000189655735181
0.00859512353989
1.45797352404e-05
1.45799291971e-05
1.45795693489e-05
1.45822709741e-05
1.45796432692e-05
1.44419130872e-05
1.42698635701e-05
1.83584508719e-05
0.00019546752918
0.00870027430591
1.45800336315e-05
1.45802010303e-05
1.45793969861e-05
1.45851867444e-05
1.45795583413e-05
1.4433602268e-05
1.42581783874e-05
1.8539667688e-05
0.00019773723993
0.0079545421893
1.45801416082e-05
1.45801093256e-05
1.45787033861e-05
1.45845421295e-05
1.45726694621e-05
1.44294637114e-05
1.42714695614e-05
1.87850568527e-05
0.000199117530453
0.00870169198834
1.45803109482e-05
1.45801889521e-05
1.45784791855e-05
1.45843207398e-05
1.45703248118e-05
1.44309846941e-05
1.42800596053e-05
1.88617791064e-05
0.000200025806856
0.00896747561066
1.45803658022e-05
1.45799745414e-05
1.45770062967e-05
1.4580036334e-05
1.45710029446e-05
1.44474097792e-05
1.42970175432e-05
1.87743046671e-05
0.000201721856861
0.0087167409872
1.45805991813e-05
1.45800511681e-05
1.45760673577e-05
1.45781121787e-05
1.45768365971e-05
1.44583290508e-05
1.43468670663e-05
1.87891709095e-05
0.000203696924512
0.0089794595273
)
;

boundaryField
{
    back
    {
        type            calculated;
        value           nonuniform List<scalar> 
167
(
1.4689919114e-05
1.46831019004e-05
1.46608540837e-05
1.46810805148e-05
1.47090687728e-05
1.470428855e-05
1.46946515332e-05
1.46701328606e-05
1.46505568987e-05
1.84235488132e-05
0.000152082494389
0.00888411497389
1.4596504784e-05
1.45940394733e-05
1.45938148153e-05
1.45996446771e-05
1.46049048446e-05
1.46024217344e-05
1.45794315218e-05
1.45258017698e-05
1.45011477726e-05
1.83593302058e-05
0.000148966965306
0.00967255677668
1.45806053411e-05
1.45797284144e-05
1.45804938001e-05
1.45833217782e-05
1.458635049e-05
1.45815341621e-05
1.45611296052e-05
1.45009074298e-05
1.44725576733e-05
1.82812261773e-05
0.000152752673343
0.00983864388767
1.45784609724e-05
1.45793382722e-05
1.458069929e-05
1.45827177704e-05
1.45757261062e-05
1.45614127056e-05
1.45095643736e-05
1.44671682988e-05
1.81659503623e-05
0.000159410113439
0.00985472169989
1.45786071136e-05
1.45792026519e-05
1.45813422015e-05
1.45736683072e-05
1.45667348243e-05
1.4532096635e-05
1.44849281412e-05
1.80783324989e-05
0.00016552846069
0.00986222951621
1.45786189975e-05
1.457923052e-05
1.45814972824e-05
1.45714982224e-05
1.45705446799e-05
1.45384742328e-05
1.44858717048e-05
1.80721673909e-05
0.000171921456836
0.00876498596464
1.45787753163e-05
1.45791639294e-05
1.45811174274e-05
1.45720869391e-05
1.45762434719e-05
1.45284989209e-05
1.44633475474e-05
1.80807743338e-05
0.000175659971709
0.00874262658431
1.45792347809e-05
1.45795025703e-05
1.45807442982e-05
1.45751567378e-05
1.45797879569e-05
1.44988173041e-05
1.44080939503e-05
1.80765145665e-05
0.000176906623578
0.00870603815603
1.45792880879e-05
1.45795443203e-05
1.45804909151e-05
1.45775659077e-05
1.45811056565e-05
1.44643471685e-05
1.43029661448e-05
1.80603551993e-05
0.000181833599422
0.00863053709512
1.4579589997e-05
1.45798405933e-05
1.45796774181e-05
1.45789435312e-05
1.45805260338e-05
1.44534170276e-05
1.42844712119e-05
1.818304797e-05
0.000189655735181
0.00859512353989
1.45797352404e-05
1.45799291971e-05
1.45795693489e-05
1.45822709741e-05
1.45796432692e-05
1.44419130872e-05
1.42698635701e-05
1.83584508719e-05
0.00019546752918
0.00870027430591
1.45800336315e-05
1.45802010303e-05
1.45793969861e-05
1.45851867444e-05
1.45795583413e-05
1.4433602268e-05
1.42581783874e-05
1.8539667688e-05
0.00019773723993
0.0079545421893
1.45801416082e-05
1.45801093256e-05
1.45787033861e-05
1.45845421295e-05
1.45726694621e-05
1.44294637114e-05
1.42714695614e-05
1.87850568527e-05
0.000199117530453
0.00870169198834
1.45803109482e-05
1.45801889521e-05
1.45784791855e-05
1.45843207398e-05
1.45703248118e-05
1.44309846941e-05
1.42800596053e-05
1.88617791064e-05
0.000200025806856
0.00896747561066
1.45803658022e-05
1.45799745414e-05
1.45770062967e-05
1.4580036334e-05
1.45710029446e-05
1.44474097792e-05
1.42970175432e-05
1.87743046671e-05
0.000201721856861
0.0087167409872
1.45805991813e-05
1.45800511681e-05
1.45760673577e-05
1.45781121787e-05
1.45768365971e-05
1.44583290508e-05
1.43468670663e-05
1.87891709095e-05
0.000203696924512
0.0089794595273
)
;
    }
    sides
    {
        type            calculated;
        value           nonuniform List<scalar> 
12
(
1.4689919114e-05
1.46831019004e-05
1.46608540837e-05
1.46810805148e-05
1.47090687728e-05
1.470428855e-05
1.46946515332e-05
1.46701328606e-05
1.46505568987e-05
1.84235488132e-05
0.000152082494389
0.00888411497389
)
;
    }
    bottom
    {
        type            calculated;
        value           nonuniform List<scalar> 0();
    }
    front
    {
        type            calculated;
        value           nonuniform List<scalar> 
167
(
1.4689919114e-05
1.46831019004e-05
1.46608540837e-05
1.46810805148e-05
1.47090687728e-05
1.470428855e-05
1.46946515332e-05
1.46701328606e-05
1.46505568987e-05
1.84235488132e-05
0.000152082494389
0.00888411497389
1.4596504784e-05
1.45940394733e-05
1.45938148153e-05
1.45996446771e-05
1.46049048446e-05
1.46024217344e-05
1.45794315218e-05
1.45258017698e-05
1.45011477726e-05
1.83593302058e-05
0.000148966965306
0.00967255677668
1.45806053411e-05
1.45797284144e-05
1.45804938001e-05
1.45833217782e-05
1.458635049e-05
1.45815341621e-05
1.45611296052e-05
1.45009074298e-05
1.44725576733e-05
1.82812261773e-05
0.000152752673343
0.00983864388767
1.45784609724e-05
1.45793382722e-05
1.458069929e-05
1.45827177704e-05
1.45757261062e-05
1.45614127056e-05
1.45095643736e-05
1.44671682988e-05
1.81659503623e-05
0.000159410113439
0.00985472169989
1.45786071136e-05
1.45792026519e-05
1.45813422015e-05
1.45736683072e-05
1.45667348243e-05
1.4532096635e-05
1.44849281412e-05
1.80783324989e-05
0.00016552846069
0.00986222951621
1.45786189975e-05
1.457923052e-05
1.45814972824e-05
1.45714982224e-05
1.45705446799e-05
1.45384742328e-05
1.44858717048e-05
1.80721673909e-05
0.000171921456836
0.00876498596464
1.45787753163e-05
1.45791639294e-05
1.45811174274e-05
1.45720869391e-05
1.45762434719e-05
1.45284989209e-05
1.44633475474e-05
1.80807743338e-05
0.000175659971709
0.00874262658431
1.45792347809e-05
1.45795025703e-05
1.45807442982e-05
1.45751567378e-05
1.45797879569e-05
1.44988173041e-05
1.44080939503e-05
1.80765145665e-05
0.000176906623578
0.00870603815603
1.45792880879e-05
1.45795443203e-05
1.45804909151e-05
1.45775659077e-05
1.45811056565e-05
1.44643471685e-05
1.43029661448e-05
1.80603551993e-05
0.000181833599422
0.00863053709512
1.4579589997e-05
1.45798405933e-05
1.45796774181e-05
1.45789435312e-05
1.45805260338e-05
1.44534170276e-05
1.42844712119e-05
1.818304797e-05
0.000189655735181
0.00859512353989
1.45797352404e-05
1.45799291971e-05
1.45795693489e-05
1.45822709741e-05
1.45796432692e-05
1.44419130872e-05
1.42698635701e-05
1.83584508719e-05
0.00019546752918
0.00870027430591
1.45800336315e-05
1.45802010303e-05
1.45793969861e-05
1.45851867444e-05
1.45795583413e-05
1.4433602268e-05
1.42581783874e-05
1.8539667688e-05
0.00019773723993
0.0079545421893
1.45801416082e-05
1.45801093256e-05
1.45787033861e-05
1.45845421295e-05
1.45726694621e-05
1.44294637114e-05
1.42714695614e-05
1.87850568527e-05
0.000199117530453
0.00870169198834
1.45803109482e-05
1.45801889521e-05
1.45784791855e-05
1.45843207398e-05
1.45703248118e-05
1.44309846941e-05
1.42800596053e-05
1.88617791064e-05
0.000200025806856
0.00896747561066
1.45803658022e-05
1.45799745414e-05
1.45770062967e-05
1.4580036334e-05
1.45710029446e-05
1.44474097792e-05
1.42970175432e-05
1.87743046671e-05
0.000201721856861
0.0087167409872
1.45805991813e-05
1.45800511681e-05
1.45760673577e-05
1.45781121787e-05
1.45768365971e-05
1.44583290508e-05
1.43468670663e-05
1.87891709095e-05
0.000203696924512
0.0089794595273
)
;
    }
    atmosphere
    {
        type            calculated;
        value           nonuniform List<scalar> 
16
(
0.00888411497389
0.00967255677668
0.00983864388767
0.00985472169989
0.00986222951621
0.00876498596464
0.00874262658431
0.00870603815603
0.00863053709512
0.00859512353989
0.00870027430591
0.0079545421893
0.00870169198834
0.00896747561066
0.0087167409872
0.0089794595273
)
;
    }
    floatingObject
    {
        type            calculated;
        value           nonuniform List<scalar> 0();
    }
    procBoundary1to0
    {
        type            processor;
        value           nonuniform List<scalar> 10(1.45807318551e-05 1.45803002584e-05 1.45756576775e-05 1.45738124641e-05 1.4573930165e-05 1.44500768103e-05 1.43656395502e-05 1.87698770387e-05 0.00020215631057 0.00904428561611);
    }
    procBoundary1to2
    {
        type            processor;
        value           nonuniform List<scalar> 
18
(
1.46932663161e-05
1.45986863277e-05
1.4581575735e-05
1.45786074712e-05
1.45786074712e-05
1.45781113991e-05
1.45781113991e-05
1.45781636802e-05
1.45783918395e-05
1.45784241259e-05
1.4578780751e-05
1.45789114733e-05
1.45791855576e-05
1.45792724647e-05
1.45794126136e-05
1.45797297957e-05
1.45798836272e-05
1.45801749477e-05
)
;
    }
}


// ************************************************************************* //
