/*--------------------------------*- C++ -*----------------------------------*\
| =========                 |                                                 |
| \\      /  F ield         | OpenFOAM: The Open Source CFD Toolbox           |
|  \\    /   O peration     | Version:  v2012                                 |
|   \\  /    A nd           | Website:  www.openfoam.com                      |
|    \\/     M anipulation  |                                                 |
\*---------------------------------------------------------------------------*/
FoamFile
{
    version     2.0;
    format      ascii;
    class       surfaceVectorField;
    location    "3";
    object      Uf;
}
// * * * * * * * * * * * * * * * * * * * * * * * * * * * * * * * * * * * * * //

dimensions      [0 1 -1 0 0 0 0];


internalField   nonuniform List<vector> 
306
(
(0.000420857783704 -0.0126426404483 8.11103634626e-22)
(0.00102571781345 -0.0125930726527 4.64726031568e-22)
(0.000281127630035 -0.013442114488 5.07928150264e-22)
(0.000799411467705 -0.0135757939072 4.19379817179e-22)
(9.12746099413e-05 -0.013934538303 1.35220619735e-22)
(0.000492363168544 -0.014312859217 -2.08963138627e-23)
(-0.000191539510516 -0.0140430006688 -2.0763234154e-24)
(0.000108404746991 -0.0147336948538 -1.05269280843e-22)
(-0.000657687765984 -0.013521963063 -4.13841018805e-22)
(-0.000521087209653 -0.0147055727615 -4.48787288371e-23)
(-0.00129618339224 -0.0121305137719 -1.09017008196e-21)
(-0.00139148630937 -0.0140176431733 -8.42343233981e-22)
(-0.0020292880437 -0.00953742288216 -2.71765273607e-21)
(-0.00259311315555 -0.0129929154523 -2.07496230245e-21)
(-0.00324662131145 -0.00545397853338 -4.03520663136e-21)
(-0.00408345526874 -0.00942412805557 -6.60224728363e-21)
(-0.00238704657202 9.56674884713e-05 1.75349356257e-21)
(-0.0055496496738 -0.0065411317827 -6.52481300301e-21)
(0.00480071840827 0.00163774888763 2.68007161802e-20)
(-0.00154208155236 -0.00124672281127 -2.46530403616e-21)
(0.00571141280151 -0.00683137692633 3.87701282236e-20)
(0.00846909457387 0.00139926587339 1.74362287063e-20)
(0.000880345999076 -0.00216421795669 9.8381628951e-21)
(0.00146895117927 -0.0136739080442 7.30022141199e-23)
(0.00220703521157 -0.0135492693098 1.03653882247e-22)
(0.00107064427513 -0.0146441312473 -1.09444646948e-22)
(0.00176955272427 -0.0147141735473 -3.56753168141e-23)
(0.000533609720344 -0.0153501810424 -2.61386214441e-22)
(0.00119834289984 -0.0156655700303 -2.56234566506e-22)
(-0.000197382999791 -0.0157199375596 -1.48071686265e-22)
(0.000478098711821 -0.0163334933456 -1.83127058079e-22)
(-0.00122070396256 -0.0156912200756 -4.73380944013e-22)
(-0.000549857835998 -0.0166577556311 -1.86075062542e-22)
(-0.00269506968271 -0.0151038905324 -1.82713545446e-21)
(-0.00197885552879 -0.0165554959908 -1.22927871473e-21)
(-0.00463472294632 -0.0137900919757 -5.95955685e-21)
(-0.00390693755643 -0.016253288427 -1.08717698067e-21)
(-0.00687352458528 -0.0116721551175 -9.09185365528e-21)
(-0.00620140589574 -0.0137765363257 -8.75360376731e-21)
(-0.00537229971781 -0.00747276029134 -1.07436106017e-20)
(-0.00974904996179 -0.0136323439607 -7.55913400337e-21)
(0.00374461701419 -0.00201973255828 -1.182979151e-20)
(-0.00699511034929 -0.00850299387763 -1.6957297066e-20)
(0.0060605239212 0.00337918860224 -1.14957366222e-20)
(0.00307010211699 -0.000223630390613 -1.44436919889e-20)
(-0.00387355110625 0.0119858713463 -1.39142468501e-20)
(0.00262107655013 -0.0147120336637 -5.02364868703e-24)
(0.00201040845221 -0.0158925459883 -1.82465236371e-22)
(0.00294996785904 -0.0157768051197 -1.20275456238e-22)
(0.00121082638286 -0.0168558422339 -1.77975410144e-22)
(0.00216155645628 -0.01696522197 -1.3931872402e-22)
(0.000161901735448 -0.017531900366 -2.21130434356e-22)
(0.00115408530057 -0.0179231038834 -9.84885053748e-23)
(-0.00121376385458 -0.0178979694736 -9.41972833258e-22)
(-0.000183848952774 -0.0186140857255 -2.49122306941e-22)
(-0.00307415471153 -0.0179138865389 -4.89320240935e-22)
(-0.00196298550862 -0.0190057853556 -1.04590800761e-21)
(-0.0054831360467 -0.0174243781585 -3.88122389798e-21)
(-0.00439647793888 -0.0193484573175 5.06435719561e-22)
(-0.00895422450485 -0.0163230791735 -7.2208841154e-21)
(-0.00730272399975 -0.0176053046726 -4.32977154217e-21)
(-0.0108927780066 -0.0137149319158 -1.37728204676e-20)
(-0.0123572052151 -0.0193191587754 -5.33851839701e-21)
(-0.00751810610788 -0.00702925550502 -1.95711975449e-20)
(-0.0136807882468 -0.0134246725332 -1.77882795311e-20)
(-0.00579019456641 0.00855603586558 -1.68622022169e-20)
(-0.0125152178412 -0.00658103585651 -2.07412578469e-20)
(-0.0130442810279 0.0166736217116 -2.00465574355e-20)
(0.00320574922058 -0.0169744346219 -7.71289438861e-23)
(0.00219421012041 -0.0182048428403 -5.98318192508e-23)
(0.00339186333442 -0.018177306592 -3.18392514506e-23)
(0.000872425618643 -0.0192061004771 -1.26480377959e-22)
(0.00215525890374 -0.01946251942 -4.65709615862e-23)
(-0.000828787542786 -0.0200232444634 -3.53057481289e-22)
(0.000633223848068 -0.0205431460527 -2.16602545391e-22)
(-0.00306492069957 -0.0205452241206 -5.01520471093e-23)
(-0.00144106223489 -0.0213982569529 -1.08383230726e-21)
(-0.00598081611301 -0.0206833705602 5.78880753659e-23)
(-0.00425837217406 -0.0223609699468 -2.75902069016e-22)
(-0.010338895553 -0.0202051242739 -2.44740582378e-21)
(-0.00778099539564 -0.0212008255103 -1.03954200429e-21)
(-0.0150387254468 -0.0187845279836 -9.35397746052e-21)
(-0.0137778122452 -0.0240092275949 -2.78023057827e-21)
(-0.0203315918583 -0.0128100923708 -1.89583398331e-20)
(-0.0196552263042 -0.0167184960179 -1.35390845098e-20)
(-0.0211655759272 0.00541275017394 -2.39256130655e-20)
(-0.0307380403921 -0.0157961037604 -2.41069314173e-20)
(-0.0226222497473 0.00981035574665 -2.43843150212e-20)
(0.0035034384764 -0.0195471182797 -1.85783937861e-23)
(0.00491204051206 -0.0193929641376 -1.51978566698e-23)
(0.00199974836824 -0.0209381351688 -1.36693129018e-22)
(0.00354617828873 -0.0210221185671 -6.1647386427e-23)
(6.52114620157e-05 -0.0221343463577 -9.47377371366e-22)
(0.00182935233088 -0.0225145077157 -2.66331909875e-22)
(-0.0024419609134 -0.023124010578 -1.30958232917e-21)
(-0.00045146493334 -0.0238278728463 -1.82361996671e-21)
(-0.00574308142621 -0.0238637867788 -1.37333214867e-21)
(-0.00351864513928 -0.0254359446559 -1.69619892768e-21)
(-0.0108023900582 -0.0241612255631 -1.37236675878e-21)
(-0.00748358766937 -0.025052367917 -3.71536697835e-21)
(-0.0181639290707 -0.0239085514697 -6.96533762757e-21)
(-0.0140304995498 -0.0288045279168 -1.79942645162e-21)
(-0.0308975724401 -0.0196274062757 -1.8687676094e-20)
(-0.0239363742658 -0.0204109596476 -1.39761493699e-20)
(-0.0342207654339 -0.00583359922124 -2.4565633373e-20)
(-0.0445318806061 -0.0261125051028 -2.71849555861e-20)
(-0.0289821964667 -0.00930896674786 -2.44754602012e-20)
(0.00514461219426 -0.0209104142225 -5.82668493108e-23)
(0.00671669335822 -0.0206385184865 -1.96222585301e-23)
(0.00354033528019 -0.0226889636456 -1.91286167284e-22)
(0.00532461910424 -0.0226283610716 -1.05214131084e-22)
(0.00142604685698 -0.0243474550321 -1.14257450522e-21)
(0.00348775099982 -0.0245835589941 -3.02731190235e-22)
(-0.00134681008681 -0.0259613958496 -2.21023656522e-21)
(0.00116240047084 -0.0264333521398 -2.13927182096e-21)
(-0.00490878840066 -0.0273105937996 -4.03823375736e-21)
(-0.00216950334822 -0.0286734092463 -3.00412153524e-21)
(-0.0102531701272 -0.0284888808013 -4.14242667118e-21)
(-0.00630533655075 -0.0293731395798 -9.15017344736e-21)
(-0.0191527824455 -0.0295246065964 -8.81023819395e-21)
(-0.0129947888576 -0.0342023844146 -3.69395834116e-21)
(-0.036687664317 -0.0289293411755 -2.2473428862e-20)
(-0.0245316427263 -0.0255391763586 -1.73513317144e-20)
(-0.039180006198 -0.0235094239687 -2.70947824143e-20)
(-0.0499518492245 -0.0374113601066 -3.41948126201e-20)
(-0.0287567352096 -0.0345416065944 -2.80673483428e-20)
(0.00711943549088 -0.0223508962303 -6.65695403032e-23)
(0.00887472486648 -0.0218821227476 -2.00383316987e-23)
(0.00550193778126 -0.0245296342126 -2.16659154035e-22)
(0.00750324097447 -0.0242314673649 -1.51952098751e-22)
(0.00333651931873 -0.026747583648 -1.29942850598e-21)
(0.00570560142459 -0.0266728670507 -4.0900639917e-22)
(0.00044400719675 -0.0288720649211 -2.93315679098e-21)
(0.00328680106693 -0.0291367926364 -2.27699047873e-21)
(-0.00322584217391 -0.0311381298079 -8.11606122524e-21)
(9.65010987733e-05 -0.0320041265219 -2.4017312915e-21)
(-0.00852703884438 -0.0334180909858 -8.70170511734e-21)
(-0.00402541405052 -0.0341330511035 -1.04933454652e-20)
(-0.0175927129285 -0.0360031659786 -1.22350518616e-20)
(-0.0104097298604 -0.0401217570066 -1.9738515673e-21)
(-0.0359498304227 -0.0388410652963 -2.90727154725e-20)
(-0.0216937467171 -0.0319185645872 -2.27711588175e-20)
(-0.0383303605294 -0.0431677276599 -3.51673785487e-20)
(-0.0456252255806 -0.0484902497959 -5.17981222404e-20)
(-0.0246937947429 -0.0575284212733 -4.1990965812e-20)
(0.00945960104548 -0.0237172452869 -1.05420890146e-22)
(0.0113195607772 -0.0230476913776 -1.06949099779e-23)
(0.00793090014592 -0.0262861897864 -3.44299343886e-22)
(0.0100720686869 -0.0257388203498 -1.68315005091e-22)
(0.00589710292095 -0.0289928298385 -1.38656837192e-21)
(0.00841214214 -0.0286190284943 -4.27420598469e-22)
(0.00315865097771 -0.0319217037637 -1.74556497925e-21)
(0.0062155940923 -0.0316833151835 -1.53272593614e-21)
(-0.000401580867794 -0.0351243687894 -4.77901553149e-21)
(0.00329910553224 -0.0352274478128 -9.13349175474e-22)
(-0.00534430992322 -0.0387342471562 -3.76549191519e-21)
(-0.000415574051853 -0.0388728333091 -5.17121554072e-21)
(-0.0137461655106 -0.0431658191287 -1.25099585232e-20)
(-0.0059781731551 -0.0459570932767 -2.64341872547e-21)
(-0.0297827098441 -0.0487069724804 -4.54965655854e-20)
(-0.0161525967884 -0.0384191870904 -1.97421433454e-20)
(-0.0308531964874 -0.0592423135413 -5.86217095037e-20)
(-0.0350899050834 -0.0594180776179 -4.74502276918e-20)
(-0.0163289385483 -0.0784846991379 -3.83140131468e-20)
(0.0121403840601 -0.0249821293605 -7.35890249228e-23)
(0.014075713717 -0.0240636961979 -1.03741923583e-23)
(0.0107942432274 -0.0279369177239 -2.51436259674e-22)
(0.0130267471044 -0.0270601848111 -1.51436560143e-22)
(0.00899633747288 -0.0311400244638 -5.73578162691e-22)
(0.0116151559736 -0.0303235140123 -3.25157514456e-22)
(0.00659990883536 -0.0346532343984 -7.00510132366e-22)
(0.00972872904988 -0.0338903520421 -8.66780713325e-22)
(0.00353791180868 -0.0386111441019 -1.30554918471e-21)
(0.00725695987891 -0.0380022736507 -8.05214938154e-22)
(-0.000569206457381 -0.043366242142 -4.049142351e-21)
(0.00433949006411 -0.0429158881633 -1.57163692039e-21)
(-0.00745076466131 -0.0497108630724 -9.87560354762e-21)
(0.000366435272501 -0.050859140577 -3.11783868143e-21)
(-0.0196145876974 -0.0583045067163 -2.16958054518e-20)
(-0.00755895689452 -0.0436268216588 -1.34173581113e-20)
(-0.0197274379099 -0.0763548581225 -2.7142531335e-20)
(-0.0170395613765 -0.0703963556995 -3.83121823705e-20)
(-0.00580034862258 -0.0970956771549 -2.97899405359e-20)
(0.0151146733268 -0.0260259178154 -8.82217275782e-23)
(0.0170654876322 -0.0248700508786 -2.28575748337e-23)
(0.014046314605 -0.029284815041 -2.25157814925e-22)
(0.0162855507907 -0.0281016502984 -1.60555725175e-22)
(0.012590995424 -0.0329013187982 -6.18360065091e-22)
(0.0152315816759 -0.031681606927 -2.98744574859e-22)
(0.0106404452352 -0.0369419976063 -9.71485519114e-22)
(0.0137693463232 -0.0356512056083 -7.52198190429e-22)
(0.00826878956761 -0.0415352216819 -1.07130267384e-21)
(0.011850140312 -0.0401973989085 -1.04971298342e-21)
(0.00547090632162 -0.0470062043542 -6.40333250825e-22)
(0.00981044789751 -0.046190106599 -6.71239243182e-22)
(0.000993766784239 -0.054553154183 -6.65959324508e-21)
(0.00791337711103 -0.0547847554482 -2.83834463091e-21)
(-0.00326949815177 -0.0663470841956 -3.00337350299e-20)
(0.00423497012539 -0.0480281532873 -1.26060086197e-20)
(-0.00304590459596 -0.0931751623844 -4.09595915715e-20)
(0.0097885944363 -0.077746635232 -3.45013959779e-20)
(0.003158326158 -0.102575349798 -2.60118583143e-20)
(0.0183356417719 -0.0268069349664 -9.51915724308e-23)
(0.0202273448875 -0.0254109929877 -1.60498789381e-23)
(0.0176040853567 -0.0303042224702 -2.3414248511e-22)
(0.019782769393 -0.0288054967627 -1.71156201157e-22)
(0.0165917254044 -0.0342268231797 -4.32582700198e-22)
(0.0191541269335 -0.0325969234073 -2.21190227189e-22)
(0.0152048153048 -0.0386877091516 -8.30425654733e-22)
(0.0182301914456 -0.0368454951308 -5.584844346e-22)
(0.0136146471262 -0.0438905731839 -6.49649552757e-22)
(0.0170529785593 -0.0417100174961 -1.13580003091e-21)
(0.0122919192915 -0.0501934715727 -2.86925062327e-21)
(0.0161133346158 -0.0485863986119 -1.58343401786e-21)
(0.0107853666043 -0.058384241003 -8.78476000558e-21)
(0.0161041445707 -0.0575070472334 -5.28168694361e-21)
(0.0160375230313 -0.0701510999808 -1.70736695677e-20)
(0.016001829248 -0.0519846355375 -1.30670857424e-20)
(0.0162088697509 -0.0912039950405 -1.95536627207e-20)
(0.0308414963656 -0.0776526648533 -2.45292648623e-20)
(0.0108088074732 -0.0904377709622 -1.63295188975e-20)
(0.0217253210325 -0.0272637006997 -9.20145076639e-23)
(0.0235088184819 -0.0256430870142 -2.0307151299e-23)
(0.0213873151645 -0.0308985694602 -1.58203943236e-22)
(0.0234176015337 -0.0291139548066 -1.80645997725e-22)
(0.0208903405216 -0.0350056777768 -3.47091961591e-22)
(0.0232612091178 -0.0329966726296 -1.44893036091e-22)
(0.020190194034 -0.0397606100006 -8.63858810779e-22)
(0.0229851092206 -0.0373454320423 -6.57539383888e-22)
(0.0195728444143 -0.0453600918994 -2.06958449602e-21)
(0.0226524568364 -0.0422640580107 -1.4706266132e-21)
(0.0196676442567 -0.0521119408456 -3.9958703382e-21)
(0.0228651874179 -0.049291128528 -4.76316889e-21)
(0.0200557968885 -0.0602269999808 -9.56401268048e-21)
(0.0242192084807 -0.0573116861133 -3.4476753639e-21)
(0.0272878125783 -0.0688945031542 -2.0522681037e-20)
(0.0246693346727 -0.0529313232063 -1.58725326178e-20)
(0.0240967352715 -0.0745066318835 -2.13051210391e-20)
(0.0364535257393 -0.0714177684034 -3.0716268784e-20)
(0.019996880563 -0.0785276166258 -1.95613337483e-20)
(0.0251981932478 -0.0273568141213 -1.0893864136e-22)
(0.0268208474907 -0.0255544387922 -2.60208344295e-23)
(0.0252734715545 -0.0310290796781 -1.6733509058e-22)
(0.0270898655539 -0.0290094103136 -1.33940368759e-22)
(0.0253117861319 -0.0351617096834 -4.55340458388e-22)
(0.0273938452168 -0.0328577599975 -9.29906948343e-23)
(0.0253138651719 -0.0398868352246 -1.2643071863e-21)
(0.0277102491314 -0.0371209257578 -5.45970723531e-22)
(0.0255756760417 -0.0453174706343 -4.16421100718e-21)
(0.0280831122977 -0.0418364748632 -9.80363400403e-22)
(0.0264411326264 -0.0514295448788 -4.2149739157e-21)
(0.0289772814965 -0.0483812805574 -3.88686754384e-21)
(0.0272555117256 -0.0572422646688 -9.75619530126e-21)
(0.0300319395088 -0.0549631421182 -4.9429036e-21)
(0.0339691839356 -0.0622986098924 -2.60661203648e-20)
(0.0297256829792 -0.0506671804524 -1.17729715605e-20)
(0.032507062284 -0.0684125293854 -2.89724814931e-20)
(0.0425674524438 -0.0653896740858 -1.0864547086e-20)
(0.0293899601209 -0.0754940655623 -6.55819572769e-21)
(0.0286643434739 -0.0270879395496 -5.10225618284e-23)
(0.0300897547145 -0.0251542463695 -1.29358276403e-23)
(0.0291348510629 -0.0306887437033 -5.95959730133e-23)
(0.0306907140177 -0.0285117020881 -6.61123623627e-23)
(0.0296744779893 -0.0347015472176 -1.83620959977e-22)
(0.031406699152 -0.0322134105439 -1.4709520025e-23)
(0.0302896657171 -0.0392182211886 -2.62026937629e-22)
(0.0322269800853 -0.0362500437861 -1.74018932217e-22)
(0.0311505104286 -0.0442818168347 -7.03019937071e-22)
(0.0331467648211 -0.0405508241071 -2.63933087585e-22)
(0.0319458471895 -0.0496120209882 -4.61479722815e-21)
(0.0343075341852 -0.0461961984436 -1.8678209273e-22)
(0.0318067466046 -0.0541422079445 -6.95967985925e-21)
(0.0345621524654 -0.0517492218076 -1.3076113181e-21)
(0.0381615352721 -0.0584644828124 3.42860171826e-21)
(0.0340479629936 -0.0469009809987 2.51061307494e-21)
(0.0395018258636 -0.0668412277056 1.15497386794e-20)
(0.050944225518 -0.0641962006377 3.06550402445e-20)
(0.0381419516785 -0.0784244945159 2.34000245676e-20)
(0.0320348922311 -0.0264856727795 -2.80256281746e-23)
(0.0332474789776 -0.0244682582717 3.69984608111e-24)
(0.0328444026857 -0.0299254352208 -2.12259093744e-23)
(0.0341305712908 -0.0276724673371 -3.70483869225e-23)
(0.0337741978005 -0.0336916350602 -5.10749226499e-24)
(0.0351730043024 -0.0311669217992 -1.89903491834e-23)
(0.0347671275057 -0.0377721216269 -1.75925082173e-22)
(0.0363075727692 -0.0349389678542 -1.32060925956e-22)
(0.0358227040026 -0.0419932295586 2.52304756756e-22)
(0.0373679766023 -0.0388165819615 -6.01563727623e-22)
(0.0365574251197 -0.0460610783277 3.12040381732e-21)
(0.0383754603419 -0.0437003889628 6.21351791825e-22)
(0.0373112827752 -0.0501924935529 8.16268161609e-21)
(0.0386936037526 -0.0490316961203 9.01202198291e-22)
(0.0479435172996 -0.0581460541462 2.97370516012e-20)
(0.0420015310563 -0.0434145541006 6.09202048604e-21)
(0.0493302296423 -0.073714216444 4.25053261327e-20)
(0.0665124382603 -0.0628841167036 3.37204161232e-20)
(0.0465391110762 -0.0790846881935 2.6322350284e-20)
(0.0352488757795 -0.0255989148909 -5.32291266674e-24)
(0.036341671328 -0.0288406304794 -3.48128267315e-23)
(0.0375676058278 -0.0323654494138 -1.45943782875e-22)
(0.0387727006991 -0.0361835894439 -5.57699571406e-22)
(0.0398427610489 -0.0401882790766 -2.32516692554e-22)
(0.04078176287 -0.0441523351793 -1.5978498272e-21)
(0.0435030375895 -0.0486257533901 -1.16945893175e-21)
(0.0595890864025 -0.0551265534823 1.0075385008e-20)
(0.0627861486718 -0.0684110236691 1.75374402745e-20)
)
;

boundaryField
{
    back
    {
        type            calculated;
        value           uniform (0 0 0);
    }
    sides
    {
        type            calculated;
        value           uniform (0 0 0);
    }
    bottom
    {
        type            calculated;
        value           nonuniform List<vector> 0();
    }
    front
    {
        type            calculated;
        value           uniform (0 0 0);
    }
    atmosphere
    {
        type            calculated;
        value           nonuniform List<vector> 
16
(
(0 -0.00771169094969 0)
(0.00193416951413 0.00813315307275 -1.17867949461e-20)
(-0.00723308814731 0.0177267906639 -1.60416987541e-20)
(-0.0186784887838 0.0149906965384 -2.40514161169e-20)
(-0.028989713864 0.000526371792347 -2.47172139256e-20)
(0 -0.0237348447083 0)
(0 -0.047230640193 0)
(0 -0.0676071587424 0)
(0 -0.0868834493049 0)
(0 -0.102133911259 0)
(0 -0.0988544812096 0)
(0 -0.0836946092423 0)
(0 -0.0778055992914 0)
(0 -0.0755931921002 0)
(0 -0.0821113185142 0)
(0 -0.0767224071039 0)
)
;
    }
    floatingObject
    {
        type            calculated;
        value           nonuniform List<vector> 0();
    }
    procBoundary1to0
    {
        type            processor;
        value           nonuniform List<vector> 10((0.0362420369359 -0.0235376738998 4.70873904478e-24) (0.0373724095176 -0.0265509366529 -2.98922646963e-23) (0.0386979530289 -0.02981666938 -2.19206270527e-23) (0.0401258501795 -0.0333625788038 -2.38075166612e-22) (0.0413727895311 -0.0369972688374 -1.22833340221e-21) (0.0423396111642 -0.0416167728218 -3.98615357728e-22) (0.0431670663023 -0.0475659339609 -5.93642769175e-21) (0.0485023419946 -0.0403817020978 -6.5636040988e-22) (0.0797969188904 -0.0571758829585 1.57486737779e-20) (0.0548506071934 -0.0683920953431 1.31070190898e-20));
    }
    procBoundary1to2
    {
        type            processor;
        value           nonuniform List<vector> 
18
(
(0.000519769879089 -0.0116168280194 5.34082510125e-22)
(0.00176627800856 -0.0124924835007 -4.92521216489e-23)
(0.00308881304619 -0.0133609215259 4.3868222689e-23)
(0.00355801212065 -0.0144216644389 1.0645899494e-22)
(0.00398464382042 -0.0155773085006 -8.79281261046e-24)
(0.00434692238046 -0.0167382958542 -5.38484737979e-23)
(0.004660492608 -0.0180267551725 -8.55878136251e-24)
(0.00637536631282 -0.0191055632533 -1.4319138743e-24)
(0.0083600323 -0.0201926533942 -6.32767884806e-24)
(0.0106253308873 -0.0212721971098 -1.24450438081e-23)
(0.0131569826796 -0.0222257722593 4.71060063653e-24)
(0.0159217598861 -0.0230359689049 -4.93293924206e-24)
(0.0188778039987 -0.0236449418126 -1.71610175133e-23)
(0.0219600484501 -0.0239821490446 -2.11539253448e-23)
(0.0251131078511 -0.0240447651605 -3.21465646919e-23)
(0.028267207396 -0.0238190814619 -2.94101552903e-23)
(0.0313546096958 -0.0233280722653 -1.36859377387e-23)
(0.0343254591718 -0.0226045066016 1.0818861974e-23)
)
;
    }
}


// ************************************************************************* //
