/*--------------------------------*- C++ -*----------------------------------*\
| =========                 |                                                 |
| \\      /  F ield         | OpenFOAM: The Open Source CFD Toolbox           |
|  \\    /   O peration     | Version:  v2012                                 |
|   \\  /    A nd           | Website:  www.openfoam.com                      |
|    \\/     M anipulation  |                                                 |
\*---------------------------------------------------------------------------*/
FoamFile
{
    version     2.0;
    format      ascii;
    class       volVectorField;
    location    "3.1";
    object      U;
}
// * * * * * * * * * * * * * * * * * * * * * * * * * * * * * * * * * * * * * //

dimensions      [0 1 -1 0 0 0 0];


internalField   nonuniform List<vector> 
166
(
(-0.0485470184954 -0.000628009574347 -5.17547279734e-22)
(-0.0501986794178 -0.00190063707451 -2.29493012964e-22)
(-0.0516159114311 -0.0032958167274 -1.53795750233e-22)
(-0.0526046731478 -0.00471344223857 7.12192924375e-23)
(-0.0533960617048 -0.00622411287611 2.13453843044e-23)
(-0.0542095897043 -0.00781713066116 -1.41395188402e-24)
(-0.0551307546663 -0.00950519183201 -4.49905230628e-24)
(-0.0561710213757 -0.0113091122243 -3.47753155603e-24)
(-0.0573278445569 -0.0132397683142 1.11917035931e-23)
(-0.0585843293208 -0.015309696134 6.86308340687e-24)
(-0.0599096287414 -0.0175373129134 -3.28136241211e-25)
(-0.0612722824429 -0.0199289540145 1.25815526003e-23)
(-0.0626140592372 -0.022470508336 4.6999906356e-23)
(-0.0637968456239 -0.0251612481193 2.37696683488e-22)
(-0.0647259293641 -0.0279797754439 -2.5551599792e-22)
(-0.0659235643764 -0.0312866961667 -1.5860395018e-21)
(-0.068436677908 -0.0361415327787 -6.7883535712e-21)
(-0.076332504367 -0.0286014374408 -8.78873849353e-21)
(-0.109073555375 -0.0475508057661 -5.26663357536e-21)
(-0.0780706655715 -0.0597529155084 -1.908744648e-21)
(-0.0472099027249 -0.000698508024041 -5.55364733428e-22)
(-0.0487954682312 -0.00212794708539 -2.08168323582e-22)
(-0.0501446460707 -0.00367782138104 -8.0632793332e-23)
(-0.0510642001058 -0.00523856931409 4.32744416007e-23)
(-0.0517827352632 -0.00689132885151 1.25467596011e-23)
(-0.0525115689434 -0.00862117029733 1.07722495158e-23)
(-0.0533350805386 -0.0104359103601 1.35514045306e-23)
(-0.054265452877 -0.0123541625529 9.44469565868e-24)
(-0.0552940887368 -0.0143865515465 1.24561027833e-23)
(-0.0564105089304 -0.0165351486571 4.1830758099e-23)
(-0.0575919131249 -0.0188119952066 -6.07963972233e-24)
(-0.0588063227278 -0.0212268081888 3.19062054808e-24)
(-0.0600038706614 -0.0237618790466 -7.68475430408e-23)
(-0.0610641953971 -0.0264108369511 -4.2041767411e-22)
(-0.061826252104 -0.0291775222572 -1.42035947456e-21)
(-0.0625610880535 -0.0323806376627 -2.63647874431e-21)
(-0.0637726290666 -0.0380603739457 -6.60594359877e-21)
(-0.0699331518692 -0.0302480479163 -1.44198292199e-20)
(-0.0979998361639 -0.0515021971988 -2.2954013919e-20)
(-0.0759731341941 -0.0676858769713 -1.77444315386e-20)
(-0.045731582448 -0.000766326094637 -5.05642447118e-22)
(-0.0472575146508 -0.0023299679479 -1.74294903965e-22)
(-0.048533033087 -0.00401013018414 -6.61661511759e-23)
(-0.0493868460497 -0.00570208244863 -2.4178170157e-23)
(-0.0500398640558 -0.00748423251996 -1.54671770552e-23)
(-0.0506950171583 -0.00933800079447 -2.52994312388e-24)
(-0.0514245207801 -0.0112679926139 5.0374942427e-24)
(-0.0522522840157 -0.013285415804 5.84661888375e-24)
(-0.0531686982242 -0.0154037120539 -6.53084250248e-24)
(-0.0541648940359 -0.0176283246694 -9.83779493873e-24)
(-0.0552277261916 -0.0199640185876 -4.3003867393e-24)
(-0.0563354482526 -0.0224153041509 -3.14409455308e-23)
(-0.0574336322323 -0.0249607913448 -2.0952649564e-22)
(-0.0583991186337 -0.0275923872227 -9.47295342673e-22)
(-0.0589932654505 -0.0303109682317 -2.22924396009e-21)
(-0.0591826802371 -0.0332877924147 -4.97038126235e-21)
(-0.0588590442356 -0.038978444423 -3.00351872785e-21)
(-0.062567308155 -0.0311005043905 -1.59211924143e-20)
(-0.0837054606463 -0.0530903041551 -3.67816223912e-20)
(-0.0672798642514 -0.073200374428 -2.6413201551e-20)
(-0.0441322063931 -0.000832071614315 -5.33895667225e-22)
(-0.0455861156366 -0.0025111244465 -1.86949600898e-22)
(-0.0467923029655 -0.00430263232733 -1.55332416685e-22)
(-0.0475844808106 -0.00611467192998 -5.68853044102e-23)
(-0.0481739782578 -0.00801420848541 -3.8508375552e-23)
(-0.0487563909256 -0.00997048361569 -1.05804703741e-23)
(-0.0494029693465 -0.0119979475898 -4.05614200004e-24)
(-0.050138177426 -0.0141127527682 -5.49128556983e-24)
(-0.0509575965377 -0.0163158238996 4.02661990462e-23)
(-0.0518538833449 -0.0186131452741 3.7025317244e-23)
(-0.0528189153731 -0.021011867512 5.62985077547e-24)
(-0.0538372678737 -0.0235095568422 -2.74413940956e-23)
(-0.0548511445709 -0.0260839995357 -2.64603912055e-22)
(-0.0557435823519 -0.0287283664181 -1.29319809945e-21)
(-0.0562141288684 -0.0314336251113 -3.46028315014e-21)
(-0.0558727970616 -0.034246512807 -4.37324819113e-21)
(-0.0540722539323 -0.0400777384554 -1.31709350172e-21)
(-0.0553969128617 -0.0323739814435 -1.75050677295e-20)
(-0.0691807171556 -0.0534668951825 -3.86994720164e-20)
(-0.0594454434268 -0.0697629297968 -2.75315891733e-20)
(-0.0424206348504 -0.000882299361951 -5.17886187354e-22)
(-0.0438030278678 -0.00266749195758 -2.81268447935e-22)
(-0.0449401586017 -0.00456392228379 -3.17579799564e-22)
(-0.0456705582614 -0.00647811187993 -1.24568452515e-22)
(-0.0461990063103 -0.00847768286755 -6.09155593725e-23)
(-0.0467130814443 -0.0105317649887 -3.81388433892e-24)
(-0.0472890073989 -0.0126520186058 -2.39315870221e-24)
(-0.0479423547409 -0.0148507259485 -6.89931312948e-24)
(-0.0486722512652 -0.0171325519028 3.01283957439e-24)
(-0.0494791974633 -0.0195053314791 -6.11550473153e-24)
(-0.0503602824267 -0.0219739379642 -1.62556323191e-23)
(-0.0512869702921 -0.0245248440787 -4.04329915488e-23)
(-0.0522269423726 -0.0271477113179 -3.43843684846e-22)
(-0.0530692972562 -0.0298679222938 -1.57708405223e-21)
(-0.0534356555216 -0.0326104887144 -4.14403392462e-21)
(-0.0525285064651 -0.0353624776601 -2.26274064489e-21)
(-0.049622025401 -0.0412613792705 1.75563762449e-21)
(-0.0493812542575 -0.033556139421 -1.49917749285e-20)
(-0.0579341130079 -0.0519022359204 -3.30444178483e-20)
(-0.0525731672983 -0.0617413909364 -2.17829008351e-20)
(-0.0406117288373 -0.000931439064264 -5.37970779109e-22)
(-0.0419258394125 -0.00280855680575 -2.60298165441e-22)
(-0.0429922950564 -0.0047899643244 -3.05403645613e-22)
(-0.0436634227129 -0.00679691246777 -7.0698681687e-23)
(-0.0441344155262 -0.00888719722914 -3.75060186436e-23)
(-0.0445861730071 -0.0110267138292 -5.13948843343e-24)
(-0.0450907898449 -0.0132291802561 -6.60856469121e-25)
(-0.0456668604902 -0.0155060898331 -7.6540992478e-24)
(-0.0463150207667 -0.017865091965 -9.82067452688e-24)
(-0.0470365949156 -0.0203154503569 -9.9833615368e-24)
(-0.0478189746786 -0.0228459223744 -5.02919422943e-23)
(-0.0486574572774 -0.025458601666 -3.1052782587e-23)
(-0.0495282771651 -0.0281695504627 -1.67003013084e-22)
(-0.050316648005 -0.0310023833382 -6.64707210777e-22)
(-0.0505449348994 -0.0337882110163 -2.60591009338e-21)
(-0.0491976680835 -0.0367400893348 -2.03905498298e-21)
(-0.0458161981371 -0.0423604171702 -9.19479951894e-21)
(-0.0453895943088 -0.0348337969047 -7.3504815457e-21)
(-0.0524646660064 -0.0489453522052 -7.4024432072e-21)
(-0.047905344857 -0.051161605499 -4.58359542675e-21)
(-0.0387115928022 -0.000971635182012 -2.98605172104e-22)
(-0.0399506768692 -0.0029294961291 -3.20896300062e-23)
(-0.0409516902129 -0.00498610181459 8.20225184913e-24)
(-0.0415691958749 -0.00707239054904 6.23549363785e-23)
(-0.0419862724861 -0.00924029519624 1.70396336254e-23)
(-0.0423787268363 -0.0114564091449 -8.21673474502e-24)
(-0.0428157006 -0.0137340108683 -4.10755548408e-24)
(-0.0433161166366 -0.0160839224495 -1.47822220857e-24)
(-0.0438799402002 -0.0185129332065 1.639365737e-24)
(-0.0445041925028 -0.0210229034617 8.27372019241e-24)
(-0.0451859719819 -0.0236219326789 -3.99146866656e-23)
(-0.0459372966245 -0.0263178232494 -2.65267320147e-23)
(-0.0467160876624 -0.0291349366494 -1.04871033448e-22)
(-0.0474069231678 -0.0320972810376 -4.42147585225e-22)
(-0.0474993022995 -0.0349670901609 -1.46075710055e-21)
(-0.0459869969274 -0.0382829138991 -2.10548441411e-21)
(-0.0427082210408 -0.0432901838672 -6.24696200753e-21)
(-0.043471179327 -0.0361934689113 -4.46500310044e-21)
(-0.0529016859168 -0.0465598173015 -3.43567928861e-21)
(-0.0452067022455 -0.0429862299836 -1.33611006787e-21)
(-0.0367360453433 -0.00101166215543 -1.35493848167e-22)
(-0.0379022997332 -0.00303536869622 1.66961730108e-22)
(-0.0388364785021 -0.00515973115351 1.62062908719e-22)
(-0.0394006376884 -0.00731397775671 9.77041380999e-23)
(-0.0397671559297 -0.00954693617934 -2.65754441763e-23)
(-0.0401048313866 -0.0118264615283 -1.38397424702e-23)
(-0.0404786172737 -0.0141682231398 6.52606945205e-25)
(-0.0408978357653 -0.0165787369179 1.34328634459e-23)
(-0.0413722022457 -0.0190632472541 4.13988144241e-23)
(-0.0418982989845 -0.0216348234026 1.27915844065e-23)
(-0.0424841325969 -0.0243038071359 -1.18699582234e-23)
(-0.0431226045013 -0.0270726652748 -2.51893035052e-23)
(-0.0437651556974 -0.0299935408535 -1.09955856399e-22)
(-0.0442922342606 -0.0330812778302 -5.54585241186e-22)
(-0.0442311666661 -0.0360706370068 -2.10567768798e-21)
(-0.042808804746 -0.0397589339918 -7.07596174002e-21)
(-0.0402942410187 -0.0442087342998 -2.64109224027e-21)
(-0.0430523401039 -0.0378123870262 -1.0414815869e-20)
(-0.0555275153458 -0.0453302042222 -1.54923892927e-20)
(-0.04289419285 -0.0414130752155 -1.00959503941e-20)
(-0.0347065933647 -0.00104173549061 -6.93690387067e-23)
(-0.0357977134009 -0.00312104779593 2.24163368772e-22)
(-0.0366645199494 -0.00530249324371 1.24568171901e-22)
(-0.0326200438825 -0.00105977282773 2.75608530549e-24)
(-0.0304833066159 -0.00107919704628 1.70717610915e-23)
(-0.0283179881006 -0.00109558327188 2.67990973463e-22)
)
;

boundaryField
{
    back
    {
        type            noSlip;
    }
    sides
    {
        type            noSlip;
    }
    bottom
    {
        type            noSlip;
    }
    front
    {
        type            noSlip;
    }
    atmosphere
    {
        type            pressureInletOutletVelocity;
        value           nonuniform List<vector> 8((0 -0.0597529155084 0) (0 -0.0676858769713 0) (0 -0.073200374428 0) (0 -0.0697629297968 0) (0 -0.0617413909364 0) (0 -0.051161605499 0) (0 -0.0429862299836 0) (0 -0.0414130752155 0));
    }
    floatingObject
    {
        type            movingWallVelocity;
        value           nonuniform List<vector> 0();
    }
    procBoundary9to6
    {
        type            processor;
        value           nonuniform List<vector> 4((-0.072454260284 -0.0344078887071 -1.79097421501e-21) (-0.0806184456949 -0.0267910538749 7.20989247375e-22) (-0.117286501177 -0.0423332559366 3.03342759078e-20) (-0.0841954766884 -0.0601064855024 2.2647924705e-20));
    }
    procBoundary9to7
    {
        type            processor;
        value           nonuniform List<vector> 
16
(
(-0.0497204375539 -0.000534742383938 -4.34386763981e-22)
(-0.0514443894969 -0.00164190516876 -2.09677410268e-22)
(-0.0529301453493 -0.00287173552125 -1.81317033945e-22)
(-0.0539910142514 -0.00412431129427 1.00799952094e-22)
(-0.0548617354485 -0.00547465034427 1.96490482571e-23)
(-0.0557687121547 -0.00691451596824 -4.1101928915e-24)
(-0.0567988139508 -0.00846115416081 -1.57590223101e-23)
(-0.0579664945496 -0.0101355724634 -5.90545539349e-24)
(-0.0592677377127 -0.0119509226569 2.42315476862e-23)
(-0.0606810035309 -0.0139299086304 7.38783358373e-24)
(-0.0621802009039 -0.0160918336577 1.96766376757e-24)
(-0.0637334142439 -0.0184508114799 7.84139811937e-23)
(-0.0652644799218 -0.0210250403424 3.62359039279e-22)
(-0.066650912559 -0.0238145157756 1.03345821699e-21)
(-0.0678102774511 -0.0267689743071 6.39931951528e-23)
(-0.0693133382048 -0.0303373152118 -2.69757551737e-21)
)
;
    }
    procBoundary9to10
    {
        type            processor;
        value           nonuniform List<vector> 
15
(
(-0.0371746518999 -0.00751588716499 6.88614148271e-23)
(-0.0374901736663 -0.00980588854611 -2.93259678458e-23)
(-0.0377710005533 -0.0121416845411 -1.07840852781e-23)
(-0.0380762714166 -0.0145291960931 2.38325003896e-24)
(-0.0384191180498 -0.0169859340527 1.29272710114e-23)
(-0.0388083908689 -0.019523530519 2.84451879984e-23)
(-0.0392408321872 -0.0221486888055 1.3641458811e-23)
(-0.0397168081985 -0.0248707837056 -3.39561582299e-24)
(-0.0336397381702 -0.00319123622653 1.37085476465e-22)
(-0.0371746518999 -0.00751588716499 6.88614148271e-23)
(-0.034440608558 -0.00541913705428 -4.39754814757e-23)
(-0.0336397381702 -0.00319123622653 1.37085476465e-22)
(-0.0314400320269 -0.00324763443045 2.00094534321e-22)
(-0.0292045663176 -0.00329177880659 3.52344994633e-22)
(-0.026141502261 -0.00110452166958 6.01181679275e-22)
)
;
    }
    procBoundary9to11
    {
        type            processor;
        value           nonuniform List<vector> 9((-0.0402251287955 -0.0276845780274 -1.2329571319e-23) (-0.0407251591181 -0.0306651885465 -6.17391258086e-23) (-0.04104099084 -0.0337856083294 -8.22229201169e-22) (-0.0408026035295 -0.036773334473 -3.6039121252e-21) (-0.0396968681305 -0.0406600980338 -6.25167776622e-21) (-0.0384714129368 -0.0450350963612 -9.70466716544e-21) (-0.0439370829102 -0.0390230950953 -1.55299459905e-20) (-0.0571190104323 -0.0458778081093 -2.03028219483e-20) (-0.0426314087153 -0.0462798736399 -1.29099465611e-20));
    }
}


// ************************************************************************* //
