/*--------------------------------*- C++ -*----------------------------------*\
| =========                 |                                                 |
| \\      /  F ield         | OpenFOAM: The Open Source CFD Toolbox           |
|  \\    /   O peration     | Version:  v2012                                 |
|   \\  /    A nd           | Website:  www.openfoam.com                      |
|    \\/     M anipulation  |                                                 |
\*---------------------------------------------------------------------------*/
FoamFile
{
    version     2.0;
    format      ascii;
    class       volVectorField;
    location    "1.4";
    object      ddtCorrDdt0(U);
}
// * * * * * * * * * * * * * * * * * * * * * * * * * * * * * * * * * * * * * //

dimensions      [0 1 -2 0 0 0 0];


internalField   nonuniform List<vector> 
166
(
(-0.277978209015 0.0584445203688 9.4477941841e-23)
(-0.289131721694 0.0673127256097 1.78027193603e-23)
(-0.30205600529 0.0766905799624 2.12608367923e-23)
(-0.316891724821 0.0867018119495 -5.67896114949e-24)
(-0.333797763975 0.0974986383551 1.9417425157e-22)
(-0.352941187693 0.109183031162 1.39765229746e-23)
(-0.374599717104 0.121594198986 -8.29219480757e-22)
(-0.399292302588 0.134122153087 -6.26911368226e-21)
(-0.429456507265 0.148558424803 -3.3032085378e-21)
(-0.465286264392 0.182780261624 3.7986014728e-20)
(-0.468440760872 0.200915738396 -5.21767875384e-21)
(-0.109040002652 0.0726650941585 -1.10986577768e-20)
(-0.166292889441 0.488297741733 -3.18211565553e-19)
(-0.267801036763 0.0344838323779 1.1783010844e-22)
(-0.275998721752 0.0410911331634 3.31823963654e-23)
(-0.285808932884 0.047915512402 9.94057488156e-23)
(-0.297352710859 0.0550226785996 2.51623025808e-22)
(-0.310772943564 0.0624981504398 2.02975109602e-22)
(-0.326232775522 0.0704533419848 3.28521499896e-23)
(-0.343908752439 0.0790377840785 4.12095282407e-22)
(-0.36396707793 0.0883862593666 2.23269376322e-22)
(-0.386605518486 0.0984302063507 9.05636348612e-22)
(-0.411973272255 0.108682610458 -8.89291436612e-22)
(-0.441544837003 0.1185536115 -4.04344535728e-21)
(-0.481289294431 0.154721073521 -2.50487145085e-20)
(-0.558090195438 0.167660057385 -6.49227659122e-21)
(-0.658190682289 0.382210272032 2.52303479775e-20)
(-0.613999108152 2.57183573411 -2.68948756968e-20)
(-0.253792601202 0.00313245664126 -5.28198555743e-22)
(-0.255812375307 0.00715349701436 -1.85074972788e-22)
(-0.266798212566 0.0220109253854 3.10005069756e-23)
(-0.273581506086 0.0269613751396 5.35187997095e-24)
(-0.281915478481 0.0319821218057 8.71991390042e-24)
(-0.291909551531 0.0371006875186 5.71619314369e-23)
(-0.303702200888 0.0423597031748 1.26147640936e-22)
(-0.317459166649 0.0478228740829 2.50704870572e-23)
(-0.333374439775 0.0535858814344 1.16388931581e-22)
(-0.351664058029 0.0598003798989 4.97723465326e-23)
(-0.372544458782 0.0666602627829 1.12995920263e-22)
(-0.396261931853 0.0742885766652 -6.11961827479e-22)
(-0.423079464323 0.0826013017426 -5.86813595854e-22)
(-0.453891136302 0.0894065532389 -1.30094717023e-20)
(-0.495252919468 0.122981657589 -3.53096461488e-20)
(-0.597085204969 0.149588078081 -2.15899251445e-21)
(-1.27112944654 0.131561226534 -1.38310134097e-19)
(-0.71018123144 0.130510317297 1.90231888607e-20)
(-0.258019786812 0.00243071772481 2.77082295419e-23)
(-0.260084327591 0.00518903418554 -8.49237872464e-22)
(-0.26198484957 0.00870929852649 -6.35090257232e-23)
(-0.265725284028 0.0124410427181 2.57607635478e-22)
(-0.271022264935 0.0159308815994 1.01832853508e-22)
(-0.277816291153 0.0193686271013 8.76806922999e-23)
(-0.286174456574 0.0227711706898 -7.47309058278e-23)
(-0.296215310525 0.0261389149246 -7.50754377708e-23)
(-0.308092637605 0.0294847174807 1.50083703378e-22)
(-0.321996532793 0.032840574892 1.25755547114e-22)
(-0.338159144089 0.0362716463156 -1.73055956023e-22)
(-0.356857762905 0.039908111006 3.88533546859e-22)
(-0.378410510416 0.0439619319319 -2.83777156226e-22)
(-0.403225974588 0.0486900796902 -9.86751327711e-22)
(-0.431951405606 0.0541306335794 -5.49174440072e-21)
(-0.465453434076 0.0563861974934 -2.83193047362e-20)
(-0.508245195392 0.0811011377996 -1.43529299361e-20)
(-0.600924864395 0.113718912377 -2.43921762903e-21)
(-1.22491087461 0.0593860596269 1.5683476504e-20)
(-0.732786389674 -0.0882653794725 1.38039176405e-19)
(-0.260955243911 0.0017244467385 6.9376804176e-22)
(-0.263048227437 0.00324100965378 5.80918511304e-22)
(-0.264880545341 0.00548593274264 3.82193470917e-22)
(-0.268555903491 0.00782072799646 4.439595626e-22)
(-0.273782153907 0.00988337484948 -4.743807599e-23)
(-0.280491839814 0.011809755033 -6.19145233704e-23)
(-0.288752296809 0.0135892351063 3.26960936232e-23)
(-0.298687225616 0.0151905187824 -3.11608725855e-23)
(-0.310461104593 0.0165888914446 -2.54929990412e-24)
(-0.324284208121 0.0177716469089 9.69354978307e-23)
(-0.340425136794 0.0187509716566 -2.94037838457e-23)
(-0.359227448281 0.0195960327434 1.16094390466e-22)
(-0.38112940181 0.0204679138538 -9.78522819505e-23)
(-0.406731484022 0.0216511061628 -5.54000051849e-22)
(-0.437057373813 0.0230361576478 -2.81594822577e-21)
(-0.473245745066 0.0203022977751 -2.41542558942e-20)
(-0.515175572712 0.0329134598867 -1.29870514273e-20)
(-0.593547989163 0.0670577855977 -4.38098412326e-21)
(-1.10839662199 3.95686323788e-05 -3.99899605617e-20)
(-0.715909110535 -0.142798212262 4.64936900471e-20)
(-0.262615134042 0.00102127514611 -1.70985083594e-23)
(-0.26472062501 0.00133428787204 5.7677136835e-22)
(-0.266452398711 0.00233360662831 2.65070395558e-22)
(-0.270010354079 0.00329133164802 3.8529662585e-22)
(-0.275092998547 0.00395293256945 1.18500398892e-22)
(-0.281620571775 0.00439592804553 3.69393437887e-23)
(-0.289655839258 0.0045788960819 1.0630165895e-23)
(-0.299321024506 0.00443507830909 3.05942525183e-23)
(-0.310782863299 0.00389536517746 2.04942107987e-22)
(-0.324261110264 0.00289020706742 7.05261441348e-24)
(-0.340046977819 0.00135684202103 -1.62541002576e-22)
(-0.358532441026 -0.00073771057984 2.76569847927e-23)
(-0.380259474185 -0.00336012763603 -4.28525408906e-22)
(-0.405992114122 -0.00629192441296 -7.62605840621e-22)
(-0.437165352614 -0.00990003965801 2.13148178503e-21)
(-0.474898220831 -0.0171638163007 -9.74388030479e-21)
(-0.515093880695 -0.0179293644013 -4.39048067522e-21)
(-0.580076722265 0.0170962993575 -1.53027096752e-21)
(-0.996704437699 -0.0573850289589 2.70351051863e-20)
(-0.698723660413 -0.187420030234 -2.65131709281e-20)
(-0.263032029338 0.000328794301427 3.66410949955e-22)
(-0.265134800601 -0.00050696250197 -7.94452664124e-22)
(-0.266734458594 -0.000705224639046 -3.30001299961e-22)
(-0.270125743774 -0.0010861706554 3.79805715374e-23)
(-0.274995031972 -0.0017761980354 2.90957524227e-23)
(-0.281244985749 -0.00275965452629 2.28137540963e-24)
(-0.288928037421 -0.00411136683039 -6.23951919121e-24)
(-0.298156352802 -0.00593499045498 -1.76083242898e-23)
(-0.309086914894 -0.00834786993348 2.86988687003e-23)
(-0.321932364472 -0.0114843219165 5.12471709628e-23)
(-0.336982729662 -0.0154965933235 -4.72283767396e-25)
(-0.354640234181 -0.0205492453417 2.7924493103e-22)
(-0.375489176605 -0.0268007871402 -5.29108102749e-23)
(-0.400551469614 -0.0342938241385 -5.68361385478e-22)
(-0.431103183188 -0.0432598871296 -5.13511009746e-21)
(-0.468939322607 -0.0553446617993 -5.17384318316e-21)
(-0.50792950567 -0.0703489125583 1.53702254779e-20)
(-0.561768228948 -0.034354797657 -1.61602292654e-21)
(-0.895479891997 -0.116032976761 -7.34400860566e-21)
(-0.668822616138 -0.254646106865 -8.33774763605e-21)
(-0.262255563436 -0.000345554535313 -3.24301682547e-22)
(-0.264337251052 -0.00225932705074 -5.80812810459e-23)
(-0.265777195944 -0.00359248503259 -1.45476233988e-22)
(-0.268962215996 -0.00525669953517 2.15113197522e-22)
(-0.273554900941 -0.00722480331909 1.67105350725e-23)
(-0.279439377709 -0.00954801706192 3.27181150702e-23)
(-0.286651750288 -0.0123355862971 3.32423999493e-23)
(-0.295284378764 -0.0157255677082 6.82671625824e-23)
(-0.305469136214 -0.0198826314298 1.06698036751e-22)
(-0.31739091639 -0.0250079450015 7.33059810274e-23)
(-0.331306839561 -0.0313493785381 1.08058601782e-22)
(-0.347578414033 -0.0392151547999 1.7218861689e-22)
(-0.366720750473 -0.0490264392301 1.01200071147e-22)
(-0.389595406741 -0.0609453527382 5.13295559342e-22)
(-0.418063235945 -0.0761336851312 2.22809050971e-22)
(-0.45373488399 -0.0934282682469 -9.15523568893e-21)
(-0.489165076689 -0.122592461324 -8.50348270891e-21)
(-0.53687292627 -0.0866799625947 -4.61664415414e-22)
(-0.794254523967 -0.180033784136 -2.23023261797e-21)
(-0.611151088517 -0.345241000013 -7.19014307835e-21)
(-0.260343894008 -0.000992171587238 3.15409301117e-22)
(-0.262381802279 -0.00390307246893 -9.24691198447e-22)
(-0.263646824581 -0.00630460839018 1.19995497191e-22)
(-0.2666045379 -0.00917646049623 1.16980947608e-22)
(-0.27086452775 -0.012321729697 8.4580554939e-23)
(-0.276308798567 -0.0158708716097 2.10375507569e-23)
(-0.282950673587 -0.0199609367787 -3.83107167739e-23)
(-0.290851146052 -0.0247558363407 4.96268260574e-23)
(-0.300101683935 -0.0304604926103 5.79591625082e-23)
(-0.310835299914 -0.0373351230802 -1.8676701394e-23)
(-0.323241647946 -0.0457140128239 1.63712396668e-22)
(-0.337592425228 -0.0560387256453 1.06596855358e-22)
(-0.354306397469 -0.0689267934897 2.44222021732e-22)
(-0.374118603325 -0.0848149185237 1.66277017095e-21)
(-0.39806568296 -0.105615037111 5.51331331394e-21)
(-0.429406501978 -0.12762356787 -6.17210528066e-21)
(-0.45868266891 -0.171085700865 2.481683256e-20)
(-0.499496491495 -0.142395625751 2.59995487318e-21)
(-0.672901081969 -0.255156832184 -3.76468099616e-20)
(-0.52425931492 -0.455181265466 -5.70685289705e-21)
)
;

boundaryField
{
    back
    {
        type            calculated;
        value           uniform (0 0 0);
    }
    sides
    {
        type            calculated;
        value           nonuniform List<vector> 0();
    }
    bottom
    {
        type            calculated;
        value           uniform (0 0 0);
    }
    front
    {
        type            calculated;
        value           uniform (0 0 0);
    }
    atmosphere
    {
        type            calculated;
        value           nonuniform List<vector> 9((0.0169432509008 0.488297741733 -3.68820669147e-19) (-0.660487732001 2.57183573411 -9.47215927881e-20) (0 0.130510317297 0) (0 -0.0882653794725 0) (0 -0.142798212262 0) (0 -0.187420030234 0) (0 -0.254646106865 0) (0 -0.345241000013 0) (0 -0.455181265466 0));
    }
    floatingObject
    {
        type            calculated;
        value           nonuniform List<vector> 0();
    }
    procBoundary0to1
    {
        type            processor;
        value           nonuniform List<vector> 10((-0.305495674757 0.102176057933 -1.04666617276e-22) (-0.321470148378 0.115051460049 -1.52869620487e-23) (-0.339529673422 0.129003036184 -1.96843168784e-22) (-0.360037333796 0.14396900401 -5.13252590123e-22) (-0.383889458894 0.159932804981 -1.91895996497e-21) (-0.413212917734 0.179780888223 -1.98532828218e-24) (-0.439989761748 0.212938250908 4.65088958529e-21) (-0.434520181665 0.255018860207 1.3833961394e-20) (-0.130814868067 0.273708670579 1.15002467828e-20) (0.277412806086 -0.155465570295 1.81348602893e-20));
    }
    procBoundary0to2
    {
        type            processor;
        value           nonuniform List<vector> 
14
(
(-0.268503800439 0.068565639603 -1.50100192783e-23)
(-0.279145423813 0.0790911992033 5.75975258217e-23)
(-0.291435784192 0.0902476194166 2.30642755112e-22)
(-0.260512286883 0.0418406922077 1.88769574382e-22)
(-0.268473350037 0.0499824424074 1.04166490562e-22)
(-0.268473350037 0.0499824424074 1.04166490562e-22)
(-0.248273864595 0.00382173277849 -4.27255846713e-22)
(-0.250232700021 0.0091091026585 1.20039133367e-21)
(-0.261117872724 0.0280425359521 -4.31833802779e-23)
(-0.261117872724 0.0280425359521 -4.31833802779e-23)
(-0.257749308727 0.0119599482345 -1.16643523716e-22)
(-0.257749308727 0.0119599482345 -1.16643523716e-22)
(-0.261502519673 0.0170896680206 2.0011588952e-22)
(-0.261502519673 0.0170896680206 2.0011588952e-22)
)
;
    }
    procBoundary0to4
    {
        type            processor;
        value           nonuniform List<vector> 8((-0.257403960733 -0.00163711908637 -1.11332775743e-22) (-0.259348598381 -0.00544386665799 9.72349892476e-23) (-0.260431177116 -0.00883809987434 -2.21291850537e-22) (-0.263156207136 -0.0128122582258 2.34731130295e-22) (-0.267036123424 -0.01700405723 4.77687130484e-23) (-0.271983949877 -0.0216487131029 3.31466529631e-23) (-0.277983594131 -0.0268813665489 -1.14187412637e-23) (-0.285057747277 -0.0328797975052 -2.48943918328e-23));
    }
    procBoundary0to5
    {
        type            processor;
        value           nonuniform List<vector> 
12
(
(-0.29323340116 -0.0398738242128 -6.17838873408e-23)
(-0.302581192157 -0.0481652807276 -1.69666046743e-24)
(-0.313187718414 -0.0581442478613 9.44754088005e-23)
(-0.325189321648 -0.0703352425435 7.53706451395e-23)
(-0.338818510894 -0.0855690120324 6.05545988176e-22)
(-0.354644340078 -0.104036528054 2.37583552639e-22)
(-0.373228267837 -0.129647589341 2.87217177707e-21)
(-0.397059072347 -0.15667005293 -6.61716727873e-21)
(-0.419198664433 -0.212064821254 -1.5674849666e-20)
(-0.4478514497 -0.190693512526 -1.28659842199e-20)
(-0.540565749324 -0.313306474966 5.06657691773e-21)
(-0.446430120721 -0.543401614496 4.51192559313e-21)
)
;
    }
}


// ************************************************************************* //
