/*--------------------------------*- C++ -*----------------------------------*\
| =========                 |                                                 |
| \\      /  F ield         | OpenFOAM: The Open Source CFD Toolbox           |
|  \\    /   O peration     | Version:  v2012                                 |
|   \\  /    A nd           | Website:  www.openfoam.com                      |
|    \\/     M anipulation  |                                                 |
\*---------------------------------------------------------------------------*/
FoamFile
{
    version     2.0;
    format      ascii;
    class       surfaceVectorField;
    location    "4";
    object      ddtCorrDdt0(Uf);
}
// * * * * * * * * * * * * * * * * * * * * * * * * * * * * * * * * * * * * * //

dimensions      [0 1 -2 0 0 0 0];


internalField   nonuniform List<vector> 
293
(
(0.0115516299965 -0.00250155691754 -2.45120366596e-18)
(0.0190824905137 -0.0117397510502 -1.55153978439e-18)
(0.0214642972733 -8.26989547425e-05 -2.24652804821e-18)
(0.0196034257164 0.00643894464242 -2.09036679968e-18)
(0.0303556580333 0.00401108739986 -1.36330156238e-18)
(0.0243985330716 0.0169910664381 -1.32532468251e-18)
(0.0459006215628 0.0108610482584 -7.124356169e-19)
(0.030459541727 0.0229074212823 -9.88845015344e-19)
(0.0611658039573 0.0123756354214 -2.37951618569e-19)
(0.0526889879314 0.0410696440353 -3.21957182564e-19)
(0.0452065402255 0.0236687836895 -1.17163975308e-19)
(0.0466055424164 -0.0112831608739 -2.65670637538e-19)
(0.0145612211542 0.0961388765825 -6.80620336691e-19)
(-0.0258829257432 0.0349615196031 -7.13209118129e-20)
(0.000287697756418 0.140080600712 -1.4619555431e-18)
(0.0240145630527 0.0133548169164 -1.19070291811e-18)
(0.00580902910639 -0.00178387089587 -1.08939661225e-18)
(0.0188560701203 0.0249951306219 -1.16916343398e-18)
(0.00803609565915 0.0160505965311 -1.33563562161e-18)
(0.0250887273194 0.0370743519533 -9.50868135467e-19)
(0.0123794981767 0.0363091782252 -1.12357864405e-18)
(0.0387284995504 0.0529703042327 -5.98366581008e-19)
(0.0146060660501 0.0514098489078 -5.06437149725e-19)
(0.0504693850898 0.0694624297384 -3.49676201534e-19)
(0.0362163213945 0.0766513385041 -5.57582721117e-19)
(0.00117204960026 0.0791056834702 -2.19827574043e-19)
(0.0369688377711 0.0372691152658 -3.92446247068e-19)
(-0.0470431603259 0.108793724434 -8.52656118226e-19)
(-0.0556107099639 0.105709330503 -5.31270531623e-19)
(-0.0260417405402 0.0631760351596 -2.17817475728e-18)
(-0.0113342937287 0.0151800385402 -1.23432931575e-18)
(-0.009307734724 -0.00979896236 -1.58856795574e-18)
(-0.000536443610073 0.0303948538557 -1.29005083168e-18)
(-0.00712230233909 0.0116283737513 -2.14362192633e-18)
(0.0068058731969 0.0497725835358 -6.79147658312e-19)
(-0.00695501265567 0.0284560274293 -1.42688569605e-18)
(0.0114694227846 0.0702312018505 -4.65653289834e-19)
(-0.00582201054858 0.0452828007243 -5.65831055405e-19)
(0.0128939944201 0.106307377791 -6.00352766651e-19)
(0.000154973847916 0.0765890906046 -5.18434950913e-19)
(0.0141357129254 0.141911158483 -7.03889204648e-19)
(0.00137201095911 0.0456776576481 -2.76941171968e-19)
(-0.00532971506013 0.012486817995 -1.85678917068e-18)
(0.073657699194 0.130067712372 -3.58180514678e-19)
(-0.0330690584944 0.125939784429 -1.85819849681e-18)
(-0.00318465493689 0.00261716611359 -2.49786056632e-18)
(-0.0102043422733 0.011093138594 -2.28045679069e-18)
(-0.0148201595018 0.0240806089778 -1.31356909314e-18)
(-0.0199035404213 0.00120805454382 -2.02007417858e-18)
(-0.0238902912268 0.0434018099192 -6.18612716484e-19)
(-0.0251156155319 0.0130169531901 -1.03952299409e-18)
(-0.0291481292718 0.0799034598288 -1.9502335623e-19)
(-0.0363325951911 0.041479425017 -2.25931935909e-19)
(0.0095771717423 0.125972213782 6.87675180014e-20)
(-0.0446911780945 0.00611499613311 -4.15448734663e-20)
(0.0257967274509 0.219007319687 -3.59589840808e-19)
(-0.0194625041572 0.0868251181113 1.95524969334e-19)
(-0.0266796445741 0.254817064057 -8.00845981905e-19)
(-0.0290736502 -0.00855691012844 -1.74602807953e-18)
(-0.0313922767056 -0.0201074869232 -2.03718648941e-18)
(-0.0399471576524 0.00558661055625 -6.46842213515e-19)
(-0.0392271238932 -0.0201630376474 -9.67074786817e-19)
(-0.0547233730751 0.0224065456615 -7.24534531457e-20)
(-0.0531361220124 -0.00301556781958 -8.62219225866e-20)
(-0.0853053704846 0.0544405364238 8.52125778659e-20)
(-0.0767204298676 -0.0417868387023 1.5352001553e-19)
(-0.069634769624 0.207495776587 -2.45731171763e-19)
(-0.172559599292 -0.019764776087 1.82134086857e-19)
(-0.0272591701816 0.158711516407 -3.96254094787e-19)
(-0.0368201945728 -0.0278875570571 -1.2582331967e-18)
(-0.0310528876544 -0.0300858152973 -9.74404820579e-19)
(-0.0452400536082 -0.02809387759 -4.0645449589e-19)
(-0.0389799109331 -0.0456436277105 -4.79324207843e-19)
(-0.0618044029757 -0.0321699617014 1.39751546089e-19)
(-0.0490399111782 -0.0413757867259 1.01799076568e-19)
(-0.137335971077 -0.0489015371565 2.50441524521e-19)
(-0.0599855562655 -0.0800610031846 2.28564269547e-19)
(-0.125528449363 -0.0129227383259 3.16111638324e-20)
(-0.208484905427 -0.119908605284 2.35493111098e-19)
(-0.0438415903148 -0.0516468524369 -7.79832061438e-20)
(-0.0287920540256 -0.0410138534628 -1.95495831724e-19)
(-0.0208749773628 -0.0366454833589 -2.11734128281e-20)
(-0.0353433076788 -0.0531691406813 2.8929364615e-20)
(-0.0267751162071 -0.0609720617111 -3.00379853111e-20)
(-0.0358526732757 -0.0737701322042 1.90611800026e-19)
(-0.0284156223797 -0.0633258366147 1.50526797891e-19)
(-0.106997358405 -0.121381632734 2.13615856124e-19)
(-0.0123719757951 -0.10058897623 1.62497475624e-19)
(-0.120420622691 -0.177056935423 1.25898741121e-19)
(-0.152723987081 -0.155369018125 2.1788784037e-19)
(-0.0487985469963 -0.225663917833 6.8456549881e-20)
(-0.0168542446336 -0.0479149716497 1.44284433584e-19)
(-0.00878996183491 -0.0391427037201 1.73842419926e-19)
(-0.0172693199145 -0.063633490527 9.15594479645e-20)
(-0.0110028437391 -0.0647118595559 5.17502185912e-20)
(0.00186079614136 -0.0878013576351 1.22412473488e-19)
(-0.00422376616641 -0.0638613605017 8.14491939324e-20)
(-0.0282400717466 -0.140844066867 1.6676945987e-19)
(0.0406732663433 -0.0983408728713 8.62493252852e-20)
(-0.0657471971404 -0.272525607506 1.60445649129e-19)
(-0.0209089042961 -0.129541378748 1.36486793028e-19)
(-0.04661327542 -0.287057611476 8.11238390196e-20)
(-0.00374413753176 -0.0471390577029 8.13082049325e-20)
(0.00163048519561 -0.0369212639667 7.64884831632e-20)
(-0.000227232491421 -0.0603201825266 4.16399645591e-20)
(0.0022306924916 -0.0573993440005 1.78871481609e-20)
(0.0314079037339 -0.0757103281794 4.52860457293e-20)
(0.0111891425561 -0.0500028491679 4.31368174365e-20)
(0.0585319901722 -0.107193017136 5.59666584439e-20)
(0.0721596210298 -0.0790201875995 3.52512038378e-20)
(0.00689787566443 -0.238130688765 5.71649829187e-20)
(0.110070060622 -0.0632908282369 6.25976315669e-20)
(-0.0671942270295 -0.14303638001 6.20007704372e-20)
(0.00535773894125 -0.0402602080172 1.30674263916e-20)
(0.0073211958039 -0.0322220700178 7.69941698186e-21)
(0.00934618181912 -0.0470078874727 1.93840010382e-20)
(0.00902496494005 -0.0435819317118 -1.83593785369e-21)
(0.0408931262085 -0.0508180872182 3.3101975545e-20)
(0.0150195657739 -0.0307321695327 4.20512508582e-20)
(0.0849251382843 -0.0431935464057 4.18821769609e-20)
(0.0645393007122 -0.0557767025322 3.27115390786e-20)
(0.024289894009 -0.00965562433587 6.74334190854e-20)
(0.076454691571 0.00506252086741 4.78419032226e-20)
(-0.0815896034562 0.112359231036 9.42461253461e-20)
(0.008218294277 -0.031215505396 -7.20394726343e-21)
(0.00735708057464 -0.0279452756903 -2.06040181482e-20)
(0.0100824877202 -0.0304666055787 2.08313119663e-20)
(0.00831446303978 -0.0309795298974 -1.57316163956e-20)
(0.0294884918773 -0.0240260627812 4.16608143918e-20)
(0.00859576942035 -0.0122608878275 4.33161002981e-20)
(0.0194966849656 0.00920472989582 3.86712653403e-20)
(0.0313124524395 -0.0339949484034 5.40474314422e-20)
(-0.0451972748908 0.185041810394 7.46546094833e-20)
(-0.0994548479735 0.040735259464 7.99483139494e-20)
(-0.082548443199 0.210491514931 1.60150500377e-19)
(0.00525553359738 -0.0252350027397 -2.91316872804e-20)
(0.00317772024059 -0.0264593003965 -3.44690987666e-20)
(0.00267317654886 -0.0178323724133 6.75317193621e-21)
(0.000940690782302 -0.0250137029045 -3.80056182558e-20)
(0.0079251026919 -0.00119636576591 5.57027173486e-20)
(-0.00802750170945 -0.00499340811554 4.54507419183e-20)
(-0.0686443035565 0.0304587879322 9.53244800513e-20)
(-0.000339772376512 -0.0236749481486 7.30981110919e-20)
(-0.130945210064 0.130257789929 1.65444204843e-19)
(-0.199301887752 0.0374255354977 1.08277068801e-19)
(-0.120070770681 0.1342145842 2.16239062125e-19)
(-0.00131856852627 -0.0242834810436 -4.3343029742e-20)
(-0.00276464704288 -0.0283243575767 -4.43649447827e-20)
(-0.00864896999674 -0.0166024641353 6.91951726248e-22)
(-0.006722354036 -0.0246962921368 -6.31735083713e-20)
(-0.0111581218156 -0.00463685888713 6.28461356616e-20)
(-0.0199846045179 -0.00823166158263 1.99372331294e-20)
(-0.112790004472 0.010695650724 8.60506998411e-20)
(-0.0156707673051 -0.0241369102758 4.52534525136e-20)
(-0.181107061321 0.0369941464075 1.59071926083e-19)
(-0.225544699417 0.0222257041518 3.97464972708e-20)
(-0.161549349689 0.0584288669679 1.7650150439e-19)
(-0.00862811163564 -0.0266808535564 -6.4195423412e-20)
(-0.0100929716524 -0.0330053963273 -4.1432810091e-20)
(-0.0176850354277 -0.0181551186188 -4.39282269681e-20)
(-0.0152396815527 -0.0266959076108 -7.66543809859e-20)
(-0.0230350291638 -0.0100864286078 2.34454998137e-21)
(-0.0280478305043 -0.0105327240735 -2.2673860202e-20)
(-0.128397671887 -0.00150976138431 -1.05075005669e-21)
(-0.0242461183437 -0.0243875855871 -3.66916891106e-21)
(-0.207640095366 0.0165362700285 5.71760755786e-20)
(-0.24355868514 0.0172452843611 -9.63570517695e-21)
(-0.193121908448 0.0159380660757 1.51588062183e-19)
(-0.0174096146638 -0.0316189623712 -5.38917676649e-20)
(-0.0184465386086 -0.0407153405047 -2.89838312822e-20)
(-0.0271363593715 -0.0206296671244 -5.54000142198e-20)
(-0.0262204628916 -0.0319815279534 -6.52533581267e-20)
(-0.0317500895886 -0.0104255506248 -2.86875790944e-20)
(-0.0382453986164 -0.013535688866 -3.44916976209e-20)
(-0.130176961802 -0.00342669424424 -1.22541240313e-20)
(-0.031243007703 -0.0275961968967 -3.40710848256e-20)
(-0.222192020786 -0.019463330752 8.47762814278e-20)
(-0.227504091337 0.0212696501829 -7.2812493326e-21)
(-0.240950030608 0.0377263156971 9.48916912525e-20)
(-0.0280233516861 -0.0410230526846 -4.0345421744e-20)
(-0.0268737213435 -0.0528364284282 -1.9291172201e-20)
(-0.0399076629337 -0.0279284290392 -4.43450415278e-20)
(-0.0392899490149 -0.0440556587311 -4.57770516673e-20)
(-0.0433271635842 -0.014308809972 -3.98752033521e-20)
(-0.0518468056926 -0.02284372932 -4.39069514902e-20)
(-0.139827597258 0.00159496378412 -2.90982101269e-20)
(-0.0471414175728 -0.0374954668031 -4.18145591748e-20)
(-0.249406840479 0.0402870312479 2.83416049204e-21)
(-0.2661598623 0.0288816509998 -2.56015352658e-20)
(-0.302009549006 0.147517885281 -1.40835910188e-20)
(-0.0384669438848 -0.0569821259054 -2.47228021243e-20)
(-0.0334510443821 -0.0706195361381 -1.04108085468e-20)
(-0.0543930648678 -0.0436474425848 -4.53389616297e-20)
(-0.0525777698076 -0.0656217184133 -2.44667875412e-20)
(-0.0640423840621 -0.0247098352726 -4.58463073129e-20)
(-0.0707490744787 -0.0452957003902 -3.05766459405e-20)
(-0.199217100691 0.0108939650722 -3.83178843136e-20)
(-0.082732963086 -0.0574530770409 -3.5177037876e-20)
(-0.330652320976 0.144564962153 -4.25192867766e-20)
(-0.39994348776 0.00965826139903 2.42206968688e-22)
(-0.369019267062 0.218975000661 -8.18941345838e-21)
(-0.0458966489593 -0.0807335281503 -1.01547939637e-20)
(-0.0348351768214 -0.0933098264692 -4.40406665068e-21)
(-0.068259620964 -0.0723882206867 -9.70447185204e-21)
(-0.0608130372003 -0.0956979760849 -1.193466436e-20)
(-0.0908393114102 -0.055982496952 -1.99073765036e-20)
(-0.0870848732673 -0.0856445517712 -1.12297475038e-20)
(-0.299829978338 -0.0228431691295 3.38305340634e-21)
(-0.115850316718 -0.0898132597392 -2.86763484237e-20)
(-0.441939670903 0.146359181805 3.45720802869e-20)
(-0.569343764281 -0.0674155247971 1.86292717915e-20)
(-0.378777219819 0.141313606893 2.8507528732e-20)
(-0.0460564007344 -0.109209319545 -6.18393704698e-21)
(-0.0288078979196 -0.118132361088 -3.57906393311e-22)
(-0.0744303280823 -0.111703739357 -1.34599400118e-20)
(-0.0581098238502 -0.129823312967 -7.66376260633e-21)
(-0.104035797625 -0.107960605291 -1.99987194239e-20)
(-0.0907054151963 -0.13391346808 7.52519668254e-21)
(-0.366926836811 -0.106245205303 -1.34301300385e-20)
(-0.117532510926 -0.124320597311 -2.20116026623e-20)
(-0.508875146787 -0.0419599896096 1.25647202366e-20)
(-0.633525169043 -0.152938601416 -4.13705538112e-20)
(-0.401256262558 0.0181585080491 1.90129603385e-23)
(-0.0363654281674 -0.13829800273 -1.83773195266e-21)
(-0.0144269780172 -0.141950029898 -1.62075404457e-21)
(-0.0685076591673 -0.152872830407 1.3321374088e-20)
(-0.0431887206693 -0.163697876261 -7.32830775669e-21)
(-0.0998267806466 -0.162195789894 5.51231344411e-21)
(-0.0811909765627 -0.185701563549 1.51830959974e-20)
(-0.389310773957 -0.166305318204 -4.9952026435e-20)
(-0.113371488705 -0.167524319964 -1.21106078494e-20)
(-0.551875598344 -0.113869105136 -5.39162610875e-20)
(-0.68604245902 -0.237914615976 -4.08181269622e-20)
(-0.439847688689 -0.254192625017 -9.17433634264e-20)
(-0.0158580232892 -0.164301496297 -7.1113298486e-21)
(0.00709553888868 -0.161354157899 -2.52006518192e-21)
(-0.0419897722665 -0.193707582155 -5.46658584727e-21)
(-0.0132671495971 -0.187886784215 -6.67627512921e-21)
(-0.0712562881524 -0.244888008779 -2.4398252961e-21)
(-0.0297382876394 -0.239733099507 8.57289653808e-21)
(-0.343115513056 -0.2923680793 -2.97670837657e-21)
(-0.0658224715872 -0.233322276862 -5.46221989846e-21)
(-0.560483366593 -0.446734363578 -7.86452293011e-20)
(-0.531464249252 -0.348446446245 -1.27083471113e-20)
(-0.684680764583 -0.378025819588 4.32997394835e-19)
(0.00989689115589 -0.181166025465 -2.08501046253e-21)
(0.0304135217253 -0.17627488128 -7.80325343394e-22)
(-0.00408766129715 -0.207813540742 7.36320725614e-21)
(0.0142441594272 -0.199143354266 -5.95072046491e-22)
(-0.0196818810474 -0.248529791021 5.55050193571e-21)
(0.011362939573 -0.278910786387 9.82303125694e-22)
(-0.203318465243 -0.315230260661 -1.51938586332e-20)
(0.000970088511148 -0.290111125577 -9.41793429344e-21)
(-0.568577557112 -0.579087660433 4.98934277025e-19)
(-0.267099945579 -0.405719208793 -9.34742132921e-21)
(-1.51987286291 -0.0717321906107 4.05161521287e-19)
(0.0322678579333 -0.194589222438 7.09613072644e-22)
(0.0544741423002 -0.192546798692 -1.57814623496e-22)
(0.0071676718765 -0.20837736661 -6.97597617694e-21)
(0.0291332707901 -0.222018092304 2.17215509427e-21)
(-0.00318034777045 -0.170472343059 -1.39861331035e-20)
(-0.0259974667542 -0.302670873803 4.06671584035e-21)
(-0.140643293514 -0.170824314094 -3.57149698945e-21)
(0.00145514244348 -0.308448300602 3.35531667197e-21)
(-0.785308223167 -0.135346953024 -1.03120177067e-19)
(-0.303562772537 -0.416612539157 -2.97515143301e-19)
(-0.926293682082 -2.38788925917 3.21091787828e-19)
(0.0618596081675 -0.218418286242 1.30472739813e-21)
(0.0301094451858 -0.261680582361 1.32148471116e-20)
(0.018773081625 -0.329763017098 2.14081656158e-20)
(0.0427798417045 -0.3225032744 3.09160902838e-20)
(-0.07713515907 -0.383960006716 -2.90588329639e-19)
(0.055808033385 -0.314367162543 1.05077083776e-20)
(-0.489730254277 -0.55925199381 1.26696821594e-19)
(-0.129114483942 -0.448594608307 -3.80047307137e-19)
(4.80184755472 -2.66186757267 1.4017190828e-18)
(0.117719267705 -0.393132459656 2.00156330456e-20)
(0.14632243754 -0.310754047883 2.56758004514e-20)
(0.217197249293 -0.559689916215 -7.89512691198e-20)
(0.222520903521 -0.278491722872 -4.74846421674e-21)
(3.61096296229 -1.41649182156 8.94974954072e-19)
(0.727627507904 -0.406172069843 7.30256948463e-20)
(3.07960965058 0.838243842654 1.09554329529e-18)
(0.196912841812 -0.332266663536 9.11703189089e-22)
(0.201812263586 -0.277493754697 2.14706442244e-20)
(0.317791637012 -0.323083046951 1.47228499749e-19)
(0.213462900492 -0.226842341901 -1.28050208044e-20)
(1.64195384943 0.330992698476 2.7359403606e-19)
(0.0726022748864 -0.33898897983 2.01977219244e-19)
(0.189568571927 0.568293003359 5.28052165188e-19)
(0.230302076243 -0.305178546137 7.75392023091e-21)
(0.166107474733 -0.347504868521 4.19436986903e-20)
(-0.549602668424 -0.464441532576 4.56435348372e-19)
)
;

boundaryField
{
    back
    {
        type            calculated;
        value           uniform (0 0 0);
    }
    sides
    {
        type            calculated;
        value           nonuniform List<vector> 0();
    }
    bottom
    {
        type            calculated;
        value           nonuniform List<vector> 0();
    }
    front
    {
        type            calculated;
        value           uniform (0 0 0);
    }
    atmosphere
    {
        type            calculated;
        value           nonuniform List<vector> 
27
(
(0.00149961139056 0.110651784707 1.81076964503e-21)
(-0.0118965383263 0.135194378893 -7.13530512831e-20)
(-0.00120244284923 0.0196739279663 -3.56763434894e-19)
(-0.00410940506979 0.212712330505 9.05494171823e-21)
(0.0043563454574 0.20812662122 -2.68273091674e-21)
(0.00121010539103 0.00362425224184 -4.85061397282e-22)
(-3.14587363942e-06 -0.172167116828 4.45852984098e-23)
(-9.1165185577e-06 -0.274819939085 9.75422659926e-24)
(3.47396801144e-06 -0.217573073067 -2.7077787852e-24)
(-2.15901422888e-05 0.00482621167044 -1.36759757891e-24)
(3.45692295669e-06 0.186083173384 8.97062068025e-25)
(-5.44010222642e-06 0.167835110094 -3.76528633973e-23)
(0.000190914237424 0.0784312795717 -9.51026391409e-23)
(-0.0015750880317 0.0480846174532 2.03349354604e-21)
(0.000997481434191 0.028355397434 -8.06548740944e-22)
(-0.00198807740245 0.101332216041 1.42068729814e-21)
(0.0229905737477 0.211716553962 -9.96188905272e-21)
(0.049023094021 0.156361497478 -2.27436387879e-20)
(0.0660084551627 -0.0194740428327 -6.98570303451e-21)
(-0.535473555774 -0.0750753388101 9.81789589819e-20)
(0.00108278675854 -0.201964235886 -5.30976551695e-20)
(-0.777354692525 0.255720762647 7.60462171692e-20)
(4.4663763168 -0.727315222772 -1.32957306459e-18)
(-8.38736879227 -6.28625562535 -1.81233127275e-18)
(10.854004014 0.306214390947 2.31011815435e-18)
(2.81356340751 3.22203147949 -1.21144900549e-18)
(0.0646272421094 -1.23900273802 3.78685743227e-20)
)
;
    }
    floatingObject
    {
        type            calculated;
        value           nonuniform List<vector> 4((0 0 0) (0 0 0) (1.53051669761e-18 0 0) (0 0 0));
    }
    procBoundary6to3
    {
        type            processor;
        value           nonuniform List<vector> 8((0.0164293209278 -0.0149581501573 -4.06841931413e-18) (0.0218662278932 -0.0202163136526 -3.75711271041e-18) (0.0283510190685 -0.0138533149745 -1.99034257482e-18) (0.0372016185761 -0.016002038014 -1.17744182305e-18) (0.0541466139901 -0.00358267682871 -2.53733921848e-19) (0.0578828555445 -0.0565066859679 -9.04306368665e-20) (0.0465499744654 -0.0575980038793 -5.07266529168e-20) (0.0146988321729 0.136317160342 -1.11135881033e-18));
    }
    procBoundary6to7
    {
        type            processor;
        value           nonuniform List<vector> 
11
(
(-0.020980349517 -0.103520256383 -1.2799345125e-21)
(-0.0104983816425 -0.12455588735 -7.07596272818e-22)
(0.00630972922673 -0.143786499242 -3.14330813119e-21)
(0.0271335560971 -0.159395643643 -1.10661989146e-21)
(0.0499352794825 -0.172712151047 -6.79117541249e-22)
(0.0775741478959 -0.18625296146 -3.15182719744e-22)
(0.089015226228 -0.207774482214 -2.19674296844e-23)
(0.0737633898096 -0.253060060946 1.96434472883e-21)
(0.0998453981112 -0.291174813369 1.9665587901e-20)
(0.167100915778 -0.278279851917 3.55622494173e-21)
(0.21540925557 -0.258959765036 1.08150037294e-20)
)
;
    }
    procBoundary6to8
    {
        type            processor;
        value           nonuniform List<vector> 
16
(
(-0.0118668569213 -0.0111824407725 -4.10589396844e-18)
(-0.0155499544045 -0.0116344269072 -3.76015883526e-18)
(-0.0200618273987 -0.0201182975254 -3.49977622314e-18)
(-0.0241771913241 -0.0276410396117 -1.22363526854e-18)
(-0.018003316771 -0.0309545901447 4.17508173368e-19)
(-0.00984714138814 -0.0359663031121 6.75680921312e-19)
(-0.00167975606355 -0.0368569356387 2.84729771041e-19)
(0.00429098352091 -0.0346948819163 5.45154817161e-20)
(0.00627408230881 -0.0312833503464 -2.26709717842e-21)
(0.0046447943941 -0.0294927819386 -1.9314678199e-20)
(0.000308533467168 -0.0302763423776 -2.65965453402e-20)
(-0.00512658820723 -0.0340339253231 -3.09674913585e-20)
(-0.0111908574393 -0.0399878521415 -2.11834095926e-20)
(-0.0175989961397 -0.049454291061 -1.66324028126e-20)
(-0.022936980163 -0.0635742395005 -9.53008787648e-21)
(-0.0247278810844 -0.0823650045374 -5.14894245609e-21)
)
;
    }
    procBoundary6to9
    {
        type            processor;
        value           nonuniform List<vector> 4((0.24932741397 -0.249388892307 8.81414317565e-21) (0.255877709218 -0.201903144885 7.34772346238e-23) (0.190253233881 -0.274832460526 -3.66595272473e-20) (0.962649111228 -1.42137028182 4.2376335959e-19));
    }
}


// ************************************************************************* //
