/*--------------------------------*- C++ -*----------------------------------*\
| =========                 |                                                 |
| \\      /  F ield         | OpenFOAM: The Open Source CFD Toolbox           |
|  \\    /   O peration     | Version:  v2012                                 |
|   \\  /    A nd           | Website:  www.openfoam.com                      |
|    \\/     M anipulation  |                                                 |
\*---------------------------------------------------------------------------*/
FoamFile
{
    version     2.0;
    format      ascii;
    class       volVectorField;
    location    "4";
    object      ddtCorrDdt0(U);
}
// * * * * * * * * * * * * * * * * * * * * * * * * * * * * * * * * * * * * * //

dimensions      [0 1 -2 0 0 0 0];


internalField   nonuniform List<vector> 
164
(
(0.00542067214671 -0.021164441002 -2.01578095368e-18)
(0.0176825878464 -0.0018032375876 -2.88662637824e-18)
(0.0252460067003 0.00181999682399 -1.60642971818e-18)
(0.0354653093663 0.00237443379 -1.12017340659e-18)
(0.0563359337593 0.0175838040743 -3.04697827208e-19)
(0.0659956741553 -0.0368612391754 -1.7120540993e-19)
(0.0244174062957 -0.00912976017582 -6.31225406865e-20)
(0.00470503601272 0.160642084212 -1.2981181327e-18)
(0.030525305532 -0.00231506109852 -1.08729861509e-18)
(0.0175038205734 0.0146811268724 -1.29410722113e-18)
(0.0202083196672 0.0321621360521 -1.04421964684e-18)
(0.0299691349715 0.0434404087746 -8.57516624096e-19)
(0.0474878641293 0.0645554839963 -3.3921653792e-19)
(0.0534509060504 0.0142949174276 -3.60135865147e-19)
(-0.0511068068498 0.0790527993819 -7.95192829393e-20)
(-0.042979513802 0.119519117213 -1.62579295351e-18)
(-0.0195126665648 -0.00125268069322 -1.0914946094e-18)
(-0.00315592089273 0.0174200661898 -1.3771640221e-18)
(0.00208303367258 0.0404562203982 -1.20293764127e-18)
(0.0115287127212 0.059379289041 -1.55357675353e-19)
(0.011410132848 0.088747193012 -7.75948904314e-19)
(0.0143778559921 0.060243313104 -4.24756628988e-19)
(0.0138935698587 0.132365861625 -9.83021780307e-19)
(-0.024552999979 0.00683295310624 -2.73055656104e-18)
(0.00167825538883 -0.0183452440268 -2.08564130208e-18)
(-0.00804756526261 0.00583668131277 -2.91007983057e-18)
(-0.012361119284 0.0164558344604 -1.65083375082e-18)
(-0.0172791997197 0.0311863124077 -9.76304435456e-19)
(-0.0305013827339 0.0644309881972 -2.60920997512e-19)
(-0.0277948758097 0.0311120021921 -1.29125714948e-19)
(0.0469492192943 0.127769563119 2.6666075095e-19)
(0.00464423560744 0.245046615751 -9.85840432567e-19)
(-0.025221780945 -0.0140397253727 -2.38931460634e-18)
(-0.032925519455 -0.00515240602751 -1.10274155272e-18)
(-0.0469687958498 0.0185278618367 -1.90942874306e-19)
(-0.0624779503005 -0.0188820099259 4.6035968015e-20)
(-0.108132790669 0.0458806731038 1.24389187717e-19)
(-0.0311367485794 0.264587512363 -6.15851531243e-19)
(-0.0334422731069 -0.0261752484736 -1.68505837248e-18)
(-0.0401981160387 -0.0351736692674 -8.31408020912e-19)
(-0.0502819911777 -0.0245589974759 1.84990291331e-20)
(-0.0733268147736 -0.0646916674788 2.61004063044e-19)
(-0.20134512738 -0.0854102252779 2.39878985997e-19)
(-0.0497117713461 0.052835520451 -1.76656658332e-19)
(-0.0250654870875 -0.0339963821209 -2.63751268674e-19)
(-0.0325186209638 -0.0561135861536 -1.27240394773e-19)
(-0.0381679943939 -0.058192575976 1.85099124003e-19)
(-0.0335373521575 -0.0954303388905 1.96124476049e-19)
(-0.180457364652 -0.15440698529 2.31107236198e-19)
(-0.0603838807305 -0.156129225325 2.06902460444e-20)
(-0.0146878353745 -0.0392945845969 2.21404443018e-19)
(-0.0190206538927 -0.0658305372685 6.7164424151e-20)
(-0.0155179859364 -0.0684590972535 1.15954471778e-19)
(0.0192395782191 -0.10574761357 1.28870475199e-19)
(-0.0757197217123 -0.156331050961 2.04668444541e-19)
(-0.0557746725686 -0.295198610341 1.16222853718e-19)
(-0.00320126231125 -0.0389908228433 1.26280396834e-19)
(-0.00428701275227 -0.0635931818433 3.63360130315e-20)
(0.00383254776942 -0.0592636237498 4.69439160868e-20)
(0.0589832596983 -0.0909341321727 4.36281753718e-20)
(0.0580807206461 -0.102751706534 6.83051415159e-20)
(-0.0442849693173 -0.278916612611 4.60248243216e-20)
(0.00476341085388 -0.0348517050902 2.6696569493e-20)
(0.00595206702862 -0.0512055061577 -5.61716709767e-22)
(0.0127402966096 -0.040742074586 3.93297187863e-20)
(0.0690459558075 -0.0671062430262 2.68742323038e-20)
(0.100804320761 -0.0238299499398 5.6890121618e-20)
(-0.0522245327431 -0.00715614740854 7.79767165529e-20)
(0.00760941075726 -0.0295924349455 -1.12977355292e-20)
(0.00882717779674 -0.0359583572659 -3.11015899762e-21)
(0.0113377976436 -0.0207222644793 4.47727829301e-20)
(0.047639186111 -0.0444471620382 3.85488458534e-20)
(-0.00864581617981 0.0339549916746 3.87936848272e-20)
(-0.0817487336018 0.23187460948 1.10515534139e-19)
(0.0056759890007 -0.0262981164351 -2.99103007672e-20)
(0.00483507819406 -0.0260007025289 -2.83530737936e-20)
(0.000511274903647 -0.00379951117566 4.1859417666e-20)
(0.0153389304802 -0.0235427347686 6.95460170311e-20)
(-0.152627537593 0.0475155272534 1.21102943072e-19)
(-0.109262882535 0.189108420382 2.09785466614e-19)
(0.000346321284014 -0.026620484358 -3.9027896766e-20)
(-0.00298345833655 -0.02402670328 -4.76581627181e-20)
(-0.0143144816569 -0.00618730505543 4.90420661706e-20)
(-0.00800176197424 -0.0238071615286 7.66502051527e-20)
(-0.217578246971 0.0273355437419 9.54511945295e-20)
(-0.144635875672 0.0793207480166 2.22692657636e-19)
(-0.00639575838584 -0.0300282307954 -4.97019927994e-20)
(-0.0108604648854 -0.0253658809935 -7.86888540245e-20)
(-0.02450960597 -0.0102760181098 -9.16759991171e-21)
(-0.0215604523576 -0.0244666590229 1.38566998745e-20)
(-0.235234891416 0.0171158645617 -1.59581999878e-20)
(-0.180045299316 0.0375369859191 1.30310351145e-19)
(-0.0141988584746 -0.0359825618592 -3.31636273826e-20)
(-0.020620370853 -0.0280259342281 -7.46199079473e-20)
(-0.0336523478899 -0.0107894300371 -3.61801204923e-20)
(-0.0298478312872 -0.0243085121513 -2.11950376966e-20)
(-0.230506092317 0.0173747041605 -3.31321036608e-21)
(-0.213877949255 -0.00566085376774 1.72865773222e-19)
(-0.022794414064 -0.0454481191502 -2.48040351818e-20)
(-0.0332522893081 -0.0359371216786 -5.58868083061e-20)
(-0.0465630365592 -0.0162819476949 -3.28032747495e-20)
(-0.0400912906092 -0.0308838816422 -4.69471319547e-20)
(-0.239563903907 0.0251645962052 -1.12492882991e-20)
(-0.259249777051 0.081113485162 1.69176092832e-20)
(-0.0305477074367 -0.0602247377061 -1.37783092201e-20)
(-0.0463861803329 -0.0521741957836 -3.56672950285e-20)
(-0.0623999494028 -0.0294055109452 -5.50106282309e-20)
(-0.0656848187215 -0.0441070519639 -3.66819863948e-20)
(-0.33274938266 0.0325987057944 -3.99537822325e-20)
(-0.328555259293 0.213922285401 -4.50847913207e-20)
(-0.0345245090828 -0.0810143345701 -7.04330787346e-21)
(-0.0572687888357 -0.079069241043 -1.3266280054e-20)
(-0.0792504530922 -0.0611858898352 -6.14266365006e-21)
(-0.102428169728 -0.070799102118 -3.36720893572e-20)
(-0.497231786947 -0.0132821829963 4.04381961698e-20)
(-0.386647554859 0.224027715921 2.8705964404e-20)
(-0.0321609746768 -0.105605318368 -1.7648254279e-21)
(-0.059951826792 -0.112326711127 -1.06030486661e-20)
(-0.0889088293725 -0.110103213707 -1.63168313575e-20)
(-0.119162765877 -0.10882741736 -2.36806074903e-20)
(-0.614690907745 -0.121548866598 -3.17965258683e-21)
(-0.403059385828 0.0585994978648 2.830909306e-20)
(-0.0217787640159 -0.130659403809 1.04901264127e-21)
(-0.050952092319 -0.147319914807 -4.72447654659e-21)
(-0.0860632260155 -0.157723722453 3.13672247226e-20)
(-0.113590335278 -0.139813777261 -2.03425978344e-20)
(-0.665031212636 -0.184328336234 -7.95614550357e-20)
(-0.438719984052 -0.0222824817665 -2.82710671394e-20)
(-0.00353769673017 -0.153240655987 -4.29052073041e-21)
(-0.0281783498482 -0.180075837715 -9.93213896679e-21)
(-0.0558011946848 -0.213679404645 -1.00103272775e-21)
(-0.0867113816199 -0.195234862668 -3.87861786445e-21)
(-0.599519644493 -0.291500895718 -2.0747988887e-21)
(-0.521447088694 -0.486102768268 -1.55215659713e-19)
(0.0190536611679 -0.169467659811 -7.49609633432e-22)
(0.000740121143901 -0.195697730714 -3.42041129163e-21)
(-0.0089154437382 -0.265786794369 1.81468258039e-20)
(-0.0304483183566 -0.271409691056 -7.04582193248e-21)
(-0.376188612129 -0.405391996771 -2.33418953339e-20)
(-0.760966502094 -0.269948870908 1.02121044938e-18)
(0.0426530440726 -0.183082102749 -8.11041053356e-22)
(0.0218826717941 -0.202588977818 2.23026719864e-21)
(-0.00754732804108 -0.292034778404 -1.61822195525e-20)
(0.00118663250018 -0.308812560097 -1.17900466544e-20)
(-0.282473219527 -0.406046420814 4.64705267551e-21)
(-1.28814322681 0.126484489687 -2.10887406809e-19)
(0.0719610278635 -0.202011494635 4.95411806363e-22)
(0.0517581884715 -0.241447206791 2.11404298989e-21)
(0.00846070190013 -0.313306969202 2.43156512332e-20)
(0.02908546135 -0.308084041106 1.85006799984e-20)
(-0.18335577949 -0.427178657499 -5.99677339277e-19)
(-0.796104729064 -4.90226300803 8.53070982465e-19)
(0.0954639919778 -0.331699579598 3.75165293343e-20)
(0.139974543432 -0.32065028398 2.51473675682e-21)
(0.294419955154 -0.470010559115 -1.60417274996e-19)
(6.92750596942 -0.421472137308 1.95036718314e-18)
(0.175420806389 -0.289808516169 1.38350715685e-20)
(0.218404877235 -0.236333161764 -1.20116651903e-20)
(0.417178396789 -0.34233358057 3.06468664689e-19)
(2.86672930208 2.09795982262 2.40719407431e-19)
(0.226454121051 -0.265178993225 2.91062168803e-20)
(0.234150031436 -0.217351522038 -1.35983764185e-20)
(0.0980649180296 -0.335644379089 9.74857737991e-20)
(-1.19727025488 -0.961373815897 8.15384922946e-19)
)
;

boundaryField
{
    back
    {
        type            calculated;
        value           uniform (0 0 0);
    }
    sides
    {
        type            calculated;
        value           nonuniform List<vector> 0();
    }
    bottom
    {
        type            calculated;
        value           nonuniform List<vector> 0();
    }
    front
    {
        type            calculated;
        value           uniform (0 0 0);
    }
    atmosphere
    {
        type            calculated;
        value           nonuniform List<vector> 
27
(
(0.00149961139056 0.160642084212 1.81076964503e-21)
(-0.0118965383263 0.119519117213 -7.13530512831e-20)
(-0.00120244284923 0.00683295310624 -3.56763434894e-19)
(-0.00410940506979 0.245046615751 9.05494171823e-21)
(0.0043563454574 0.264587512363 -2.68273091674e-21)
(0.00121010539103 0.052835520451 -4.85061397282e-22)
(-3.14587363942e-06 -0.156129225325 4.45852984098e-23)
(-9.1165185577e-06 -0.295198610341 9.75422659926e-24)
(3.47396801144e-06 -0.278916612611 -2.7077787852e-24)
(-2.15901422888e-05 -0.00715614740854 -1.36759757891e-24)
(3.45692295669e-06 0.23187460948 8.97062068025e-25)
(-5.44010222642e-06 0.189108420382 -3.76528633973e-23)
(0.000190914237424 0.0793207480166 -9.51026391409e-23)
(-0.0015750880317 0.0375369859191 2.03349354604e-21)
(0.000997481434191 -0.00566085376774 -8.06548740944e-22)
(-0.00198807740245 0.081113485162 1.42068729814e-21)
(0.0229905737477 0.213922285401 -9.96188905272e-21)
(0.049023094021 0.224027715921 -2.27436387879e-20)
(0.0660084551627 0.0585994978648 -6.98570303451e-21)
(-0.535473555774 -0.0222824817665 9.81789589819e-20)
(0.00108278675854 -0.486102768268 -5.30976551695e-20)
(-0.777354692525 -0.269948870908 7.60462171692e-20)
(4.4663763168 0.126484489687 -1.32957306459e-18)
(-8.38736879227 -4.90226300803 -1.81233127275e-18)
(10.854004014 -0.421472137308 2.31011815435e-18)
(2.81356340751 2.09795982262 -1.21144900549e-18)
(0.0646272421094 -0.961373815897 3.78685743227e-20)
)
;
    }
    floatingObject
    {
        type            calculated;
        value           nonuniform List<vector> 4((0 0 0) (0 0 0) (1.53051669761e-18 0 0) (0 0 0));
    }
    procBoundary6to3
    {
        type            processor;
        value           nonuniform List<vector> 8((0.00674329585253 -0.00875185931272 -6.12105767459e-18) (0.018329896741 -0.0386293897176 -4.62759904259e-18) (0.0291192890249 -0.0295266267731 -2.37425543147e-18) (0.0375475310775 -0.0343785098179 -1.23471023951e-18) (0.0493187428583 -0.0247491577317 -2.02770016487e-19) (0.0477095072851 -0.0761521327604 -9.65586380351e-21) (0.0845124447393 -0.106066247583 -3.83307651471e-20) (0.0241271723318 0.111992236471 -9.24599487958e-19));
    }
    procBoundary6to7
    {
        type            processor;
        value           nonuniform List<vector> 
11
(
(-0.00979972435723 -0.0999296604127 -7.95043597096e-22)
(0.000782000730817 -0.118364294313 -2.46420518691e-21)
(0.0161571551836 -0.135193876554 -1.99609553197e-21)
(0.0352134510263 -0.149378507708 -1.46363014948e-21)
(0.0572175148925 -0.161586080701 -5.47194029142e-22)
(0.0831872679283 -0.17272476699 -1.12577724585e-21)
(0.11032247148 -0.213537469793 -5.39346665732e-22)
(0.104226804245 -0.264672915101 1.81464646776e-21)
(0.104226804245 -0.264672915101 1.81464646776e-21)
(0.158781025167 -0.256980737282 -6.72262168502e-21)
(0.204364390088 -0.241235298003 -7.47620942144e-21)
)
;
    }
    procBoundary6to8
    {
        type            processor;
        value           nonuniform List<vector> 
16
(
(-0.00381888291561 -0.00401963751816 -6.12614663479e-18)
(-0.0149018738525 -0.0291055351273 -4.61023783995e-18)
(-0.0149018738525 -0.0291055351273 -4.61023783995e-18)
(-0.0149121095414 -0.0256382660668 -7.622121646e-19)
(-0.0109411464546 -0.0267147646003 1.09876761541e-18)
(-0.00500644740174 -0.0322821934443 1.12995739961e-18)
(-0.000158249815855 -0.0338561864474 4.43179145248e-19)
(0.00381855618794 -0.0330727131174 8.23343939392e-20)
(0.00493875386037 -0.0313274574006 6.76354117241e-21)
(0.0036135997875 -0.03078219632 -8.71905563081e-21)
(0.000270745650322 -0.0324116545339 -1.41651939143e-20)
(-0.00385741802862 -0.0364160567256 -1.22329899175e-20)
(-0.00818285640399 -0.0425267537774 -9.20319180265e-21)
(-0.0124035782155 -0.0517423568157 -8.46077044339e-21)
(-0.0153262528893 -0.0648397772285 -5.28186653283e-21)
(-0.014931253086 -0.0814699714532 -3.25457703872e-21)
)
;
    }
    procBoundary6to9
    {
        type            processor;
        value           nonuniform List<vector> 4((0.267095062992 -0.233598791389 -1.1477930529e-20) (0.257269307219 -0.186454767732 1.37453308877e-20) (0.108151624873 -0.214020541964 -1.70804828294e-19) (0.135208934816 -1.88136674775 3.21417962343e-20));
    }
}


// ************************************************************************* //
