/*--------------------------------*- C++ -*----------------------------------*\
| =========                 |                                                 |
| \\      /  F ield         | OpenFOAM: The Open Source CFD Toolbox           |
|  \\    /   O peration     | Version:  v2012                                 |
|   \\  /    A nd           | Website:  www.openfoam.com                      |
|    \\/     M anipulation  |                                                 |
\*---------------------------------------------------------------------------*/
FoamFile
{
    version     2.0;
    format      ascii;
    class       volScalarField;
    location    "4";
    object      nut;
}
// * * * * * * * * * * * * * * * * * * * * * * * * * * * * * * * * * * * * * //

dimensions      [0 2 -1 0 0 0 0];


internalField   nonuniform List<scalar> 
164
(
0.000452172134614
0.000688320710791
0.000771598886293
0.000901447677569
0.00116527427866
0.00166313229353
0.00234073526288
0.00312639324783
0.000469719325017
0.000727053592369
0.000812713786419
0.000933277880801
0.00117443857798
0.00163647845068
0.00229726385194
0.00311684864827
0.000469766961239
0.000727316841266
0.000813252766961
0.000932919215489
0.00116592681354
0.00161469513565
0.00229399086634
0.0031182117919
0.000452069845906
0.000688239114158
0.000771901424896
0.00090206741196
0.00116151259595
0.00164380411101
0.00230591730571
0.00311512660302
0.000728802739099
0.000863378557289
0.00114260877479
0.00165570006842
0.00232205092531
0.00311891271464
0.000705045931092
0.000837043615414
0.00111930972795
0.00164177072253
0.00233908239516
0.00312801505403
0.000690800360206
0.000819241537957
0.00109832881516
0.00161378128297
0.00233618769203
0.0031318038601
0.000680364488264
0.000804420190041
0.00107842671284
0.0015752912457
0.00229237550963
0.00312234239002
0.000672971016725
0.000791304921414
0.0010584745775
0.00153957965758
0.00223027988286
0.00310322280358
0.000668366484168
0.000778660720546
0.0010372999538
0.00152092713364
0.00219339210155
0.00308692432001
0.000667834022392
0.000771024215628
0.00102004005484
0.00150924338597
0.00218074348669
0.00307860792575
0.00067063636068
0.000769460771195
0.00100584281621
0.0014824056286
0.00216426327374
0.00307468297105
0.000672537078499
0.000765576793473
0.000986522116571
0.00145147995159
0.0021478657968
0.00307390757696
0.000671959408485
0.000758953923748
0.000962867470494
0.00141907851225
0.00213470578327
0.00307428356541
0.000670301118038
0.000753344680515
0.000944641181148
0.00139366724441
0.00212963792074
0.00307657455408
0.000668795167637
0.000749690045536
0.000933294795573
0.00137583304178
0.00211584672454
0.00307689506143
0.000666096780227
0.000744225082089
0.000920836224594
0.00135654104021
0.00209348544621
0.00307530951029
0.000660856719376
0.000734804007114
0.00090214843006
0.00133005599468
0.00209276467271
0.00308374407096
0.000653536384763
0.000722467561636
0.000878148082677
0.00129145295054
0.00212157224977
0.0031029413372
0.000646040663996
0.000710879491455
0.000856972659143
0.00123148639614
0.00209423221441
0.00313377791529
0.000639980101826
0.000701817697152
0.000842761722919
0.0011726647991
0.00202820715901
0.0031081419334
0.00063606863278
0.000696261741116
0.000839029713095
0.00114561055446
0.00193166127002
0.00307872386967
0.000633927784815
0.000692837447689
0.000837260331782
0.0011290732578
0.00174280871593
0.00266387251915
0.00063292662745
0.000691119310634
0.000837228318031
0.00112504556516
0.00167036045465
0.00318777905656
0.000840551609387
0.0011267578857
0.00159957571324
0.00225655398708
0.000848524108811
0.00114281713288
0.00166966990688
0.00227602067026
0.000858129968153
0.00115304844363
0.00173154336904
0.00291881548868
)
;

boundaryField
{
    back
    {
        type            nutkWallFunction;
        blending        stepwise;
        Cmu             0.09;
        kappa           0.41;
        E               9.8;
        value           nonuniform List<scalar> 
164
(
6.23136402319e-05
7.01682811003e-05
7.75687433261e-05
8.79958055297e-05
0.00010710615987
0.000145219921737
0.000209396506001
0.000350866872226
6.46410311154e-05
7.4049735458e-05
8.17312617627e-05
9.13553682365e-05
0.00010895866747
0.000144794625361
0.000206515452011
0.000349733644908
6.46495001856e-05
7.40772216628e-05
8.17934988904e-05
9.14514385422e-05
0.000108793413816
0.000143699235492
0.000204841554171
0.000349154966949
6.23069914775e-05
7.01700252367e-05
7.76199299477e-05
8.81792493482e-05
0.000107511086648
0.000145773047471
0.000208910407225
0.000350291268472
7.34629052576e-05
8.4361725968e-05
0.000104983867835
0.000145417237348
0.000210198100411
0.000350850640909
7.1413313292e-05
8.19259054161e-05
0.000102775263673
0.000143226832177
0.000208759666055
0.000350765295695
7.0203575733e-05
8.03420395425e-05
0.00010132112227
0.000141239006022
0.000206661293004
0.000350199353982
6.93238081486e-05
7.90678843484e-05
9.99652113005e-05
0.000139265077672
0.000203272633195
0.000349005704742
6.87417864223e-05
7.80463274401e-05
9.85986861537e-05
0.000137618150334
0.000200540519124
0.000347834053703
6.84508813171e-05
7.71850515743e-05
9.70121261373e-05
0.000136651481398
0.000200777939634
0.000347522031752
6.85341907257e-05
7.68086353652e-05
9.58396471836e-05
0.000135899277504
0.000201493237455
0.000347566248424
6.888743809e-05
7.69306637265e-05
9.51475897298e-05
0.000134072771123
0.000199337900482
0.000347089581545
6.91360200378e-05
7.68183014216e-05
9.38744384143e-05
0.00013161873074
0.000197062870143
0.00034664980924
6.91254828607e-05
7.64402861288e-05
9.22148721365e-05
0.000128815809636
0.000195425932241
0.000346472024623
6.89973109144e-05
7.60874793957e-05
9.09975658926e-05
0.00012677128212
0.000194524195797
0.000346621620379
6.88741781834e-05
7.58312443677e-05
9.02029218389e-05
0.000125217732355
0.000193463990706
0.000346825507879
6.86342968997e-05
7.53579727438e-05
8.9130713848e-05
0.0001230278827
0.00019117510737
0.000346465648429
6.8159232295e-05
7.45293754646e-05
8.76010383494e-05
0.000119842714544
0.000188165786745
0.000345837889196
6.75071718548e-05
7.34833950349e-05
8.59102904158e-05
0.000115877387238
0.00018433712073
0.000344971390282
6.68591196518e-05
7.25343558283e-05
8.46836893682e-05
0.000111750932349
0.000176801510553
0.000342055437074
6.63663301132e-05
7.18518858309e-05
8.41027418551e-05
0.000109193170157
0.000169465330478
0.000341681679049
6.60799942799e-05
7.14966232322e-05
8.42281873373e-05
0.000109319200498
0.000164375812792
0.000339905906636
6.59490415962e-05
7.13353289915e-05
8.44889723943e-05
0.000110118519429
0.000158197772419
0.000313065779512
6.59089953475e-05
7.13140346374e-05
8.48387696913e-05
0.000110947266576
0.000154780499397
0.000300205134438
8.54748033885e-05
0.000112058986612
0.000155116457515
0.000278183314431
8.6501964267e-05
0.000113741229657
0.000161834951846
0.000310969588882
8.76704814632e-05
0.000115061184181
0.000164111891058
0.000335484911568
)
;
    }
    sides
    {
        type            nutkWallFunction;
        blending        stepwise;
        Cmu             0.09;
        kappa           0.41;
        E               9.8;
        value           nonuniform List<scalar> 0();
    }
    bottom
    {
        type            nutkWallFunction;
        blending        stepwise;
        Cmu             0.09;
        kappa           0.41;
        E               9.8;
        value           nonuniform List<scalar> 0();
    }
    front
    {
        type            nutkWallFunction;
        blending        stepwise;
        Cmu             0.09;
        kappa           0.41;
        E               9.8;
        value           nonuniform List<scalar> 
164
(
6.23136402319e-05
7.01682811003e-05
7.75687433261e-05
8.79958055297e-05
0.00010710615987
0.000145219921737
0.000209396506001
0.000350866872226
6.46410311154e-05
7.4049735458e-05
8.17312617627e-05
9.13553682365e-05
0.00010895866747
0.000144794625361
0.000206515452011
0.000349733644908
6.46495001856e-05
7.40772216628e-05
8.17934988904e-05
9.14514385422e-05
0.000108793413816
0.000143699235492
0.000204841554171
0.000349154966949
6.23069914775e-05
7.01700252367e-05
7.76199299477e-05
8.81792493482e-05
0.000107511086648
0.000145773047471
0.000208910407225
0.000350291268472
7.34629052576e-05
8.4361725968e-05
0.000104983867835
0.000145417237348
0.000210198100411
0.000350850640909
7.1413313292e-05
8.19259054161e-05
0.000102775263673
0.000143226832177
0.000208759666055
0.000350765295695
7.0203575733e-05
8.03420395425e-05
0.00010132112227
0.000141239006022
0.000206661293004
0.000350199353982
6.93238081486e-05
7.90678843484e-05
9.99652113005e-05
0.000139265077672
0.000203272633195
0.000349005704742
6.87417864223e-05
7.80463274401e-05
9.85986861537e-05
0.000137618150334
0.000200540519124
0.000347834053703
6.84508813171e-05
7.71850515743e-05
9.70121261373e-05
0.000136651481398
0.000200777939634
0.000347522031752
6.85341907257e-05
7.68086353652e-05
9.58396471836e-05
0.000135899277504
0.000201493237455
0.000347566248424
6.888743809e-05
7.69306637265e-05
9.51475897298e-05
0.000134072771123
0.000199337900482
0.000347089581545
6.91360200378e-05
7.68183014216e-05
9.38744384143e-05
0.00013161873074
0.000197062870143
0.00034664980924
6.91254828607e-05
7.64402861288e-05
9.22148721365e-05
0.000128815809636
0.000195425932241
0.000346472024623
6.89973109144e-05
7.60874793957e-05
9.09975658926e-05
0.00012677128212
0.000194524195797
0.000346621620379
6.88741781834e-05
7.58312443677e-05
9.02029218389e-05
0.000125217732355
0.000193463990706
0.000346825507879
6.86342968997e-05
7.53579727438e-05
8.9130713848e-05
0.0001230278827
0.00019117510737
0.000346465648429
6.8159232295e-05
7.45293754646e-05
8.76010383494e-05
0.000119842714544
0.000188165786745
0.000345837889196
6.75071718548e-05
7.34833950349e-05
8.59102904158e-05
0.000115877387238
0.00018433712073
0.000344971390282
6.68591196518e-05
7.25343558283e-05
8.46836893682e-05
0.000111750932349
0.000176801510553
0.000342055437074
6.63663301132e-05
7.18518858309e-05
8.41027418551e-05
0.000109193170157
0.000169465330478
0.000341681679049
6.60799942799e-05
7.14966232322e-05
8.42281873373e-05
0.000109319200498
0.000164375812792
0.000339905906636
6.59490415962e-05
7.13353289915e-05
8.44889723943e-05
0.000110118519429
0.000158197772419
0.000313065779512
6.59089953475e-05
7.13140346374e-05
8.48387696913e-05
0.000110947266576
0.000154780499397
0.000300205134438
8.54748033885e-05
0.000112058986612
0.000155116457515
0.000278183314431
8.6501964267e-05
0.000113741229657
0.000161834951846
0.000310969588882
8.76704814632e-05
0.000115061184181
0.000164111891058
0.000335484911568
)
;
    }
    atmosphere
    {
        type            calculated;
        value           nonuniform List<scalar> 
27
(
0.009
0.009
0.009
0.009
0.009
0.009
0.009
0.009
0.009
0.009
0.009
0.009
0.009
0.009
0.009
0.009
0.009
0.009
0.009
0.009
0.009
0.009
0.009
0.009
0.00225655398708
0.00227602067026
0.009
)
;
    }
    floatingObject
    {
        type            nutkWallFunction;
        blending        stepwise;
        Cmu             0.09;
        kappa           0.41;
        E               9.8;
        value           nonuniform List<scalar> 4(3.31254091747e-05 3.4368299022e-05 3.43728211889e-05 3.31218581247e-05);
    }
    procBoundary6to3
    {
        type            processor;
        value           nonuniform List<scalar> 8(0.000600016370064 0.000654257302421 0.000728125284231 0.000860406190194 0.0011367582717 0.00166583186227 0.00237350169267 0.00313662487028);
    }
    procBoundary6to7
    {
        type            processor;
        value           nonuniform List<scalar> 
11
(
0.000621025953584
0.000617584610441
0.000614859824551
0.000613114727305
0.000612165653785
0.0006117045996
0.000632954440232
0.000691915220795
0.000691915220795
0.00069505219358
0.000699737316863
)
;
    }
    procBoundary6to8
    {
        type            processor;
        value           nonuniform List<scalar> 
16
(
0.000600043614072
0.000654345543601
0.000654345543601
0.000638868490955
0.000632941209294
0.000628852270753
0.000625937837854
0.000624662959637
0.000625458512061
0.000627720451839
0.000629604264899
0.000629803206591
0.000629021925924
0.000628193004436
0.000626897418823
0.000624430600166
)
;
    }
    procBoundary6to9
    {
        type            processor;
        value           nonuniform List<scalar> 4(0.000866725103414 0.00115396149957 0.0016740817815 0.00294619352158);
    }
}


// ************************************************************************* //
