/*--------------------------------*- C++ -*----------------------------------*\
| =========                 |                                                 |
| \\      /  F ield         | OpenFOAM: The Open Source CFD Toolbox           |
|  \\    /   O peration     | Version:  v2012                                 |
|   \\  /    A nd           | Website:  www.openfoam.com                      |
|    \\/     M anipulation  |                                                 |
\*---------------------------------------------------------------------------*/
FoamFile
{
    version     2.0;
    format      ascii;
    class       surfaceVectorField;
    location    "4";
    object      Uf;
}
// * * * * * * * * * * * * * * * * * * * * * * * * * * * * * * * * * * * * * //

dimensions      [0 1 -1 0 0 0 0];


internalField   nonuniform List<vector> 
293
(
(-0.053401024629 -0.0375910435464 5.09093113007e-18)
(-0.0464555249195 -0.0317083549495 4.841197819e-18)
(-0.0225818528647 -0.0585607465759 3.64782986538e-18)
(-0.0220005901264 -0.0551011471572 3.99318559412e-18)
(-0.00684089874652 -0.0688276678707 2.40708144575e-18)
(-0.00802197351763 -0.069865607689 2.78436183545e-18)
(0.000501954103681 -0.0742768234989 1.70571760329e-18)
(0.000425399427597 -0.0759142622397 2.00737963853e-18)
(0.00202489717925 -0.0789058898514 1.39232805047e-18)
(0.00381734015194 -0.0787610405119 1.62562850804e-18)
(0.000178307093714 -0.0839885833765 1.21993966095e-18)
(0.00334534090374 -0.0712159107284 1.46975172491e-18)
(-0.00438707705871 -0.0910628779101 1.00524700151e-18)
(4.56094986164e-05 -0.0855064515572 1.32472444349e-18)
(-0.0048958426191 -0.0890002090454 1.01818330628e-18)
(-0.018435066227 -0.0465762383495 3.74345228305e-18)
(0.000120722380397 -0.0363456585281 3.92303187496e-18)
(-0.00749691634411 -0.0686987433871 3.12971756419e-18)
(0.000121921696743 -0.0603091551013 3.58791539097e-18)
(-0.000812101462755 -0.0770846072443 2.38466002823e-18)
(0.000363894771714 -0.0744825544759 2.68639261946e-18)
(0.00328641291236 -0.0778990249032 1.92729054328e-18)
(0.00123981946899 -0.0781092914105 2.10872213719e-18)
(0.00475660080933 -0.0773006027452 1.70305218248e-18)
(0.00321892063469 -0.0775875410162 1.78440201438e-18)
(0.00381276284097 -0.0774539102264 1.57453650744e-18)
(0.00349861610548 -0.0705067943538 1.67341518571e-18)
(0.000673587267902 -0.0788117749665 1.33766074825e-18)
(0.00140414836127 -0.0777936625131 1.57708191947e-18)
(0.00223425959086 -0.0835489200579 1.16836633775e-18)
(0.0185843430219 -0.0463716493507 3.76749498288e-18)
(0.0464923789265 -0.0315118652585 4.85759950362e-18)
(0.00786655490036 -0.0683103466258 3.14459044624e-18)
(0.022060624141 -0.0544889852464 4.02112720107e-18)
(0.00228241252024 -0.0763545493432 2.41045472841e-18)
(0.00840810114196 -0.0687486283087 2.79250910905e-18)
(0.000658976692899 -0.0762482859166 1.96583360828e-18)
(0.00113355744664 -0.0732982634245 2.0292728516e-18)
(0.00132854613241 -0.0731387311629 1.75476501761e-18)
(0.000109367742826 -0.0741307765586 1.64259094938e-18)
(0.00334120512148 -0.0710914709454 1.67596059775e-18)
(0.00145131847192 -0.0682775025021 1.5062708616e-18)
(0.00439414820761 -0.0802131307638 1.40778750897e-18)
(0.0105265721249 -0.0768855819951 1.39407529145e-18)
(0.00673534415278 -0.0835297594646 1.02930671983e-18)
(0.0531714017911 -0.0370563923893 5.11123172181e-18)
(0.02248000487 -0.0573393517342 3.66904586389e-18)
(0.00728776812938 -0.0665072752581 2.41132723224e-18)
(0.0175760225951 -0.0592249138151 3.04340704632e-18)
(0.000910501900268 -0.0698759998461 1.70603019269e-18)
(0.00450227928245 -0.0656445598382 1.77345228659e-18)
(0.000518108469027 -0.0708508490937 1.39409679336e-18)
(0.00108421673439 -0.0706543195744 1.28020130119e-18)
(0.0059600562524 -0.0735136845623 1.2243855553e-18)
(0.00411411489265 -0.066373593346 1.09467158602e-18)
(0.0103910563549 -0.0790552724897 1.0155945023e-18)
(0.0160691480838 -0.0813715713741 9.72835821342e-19)
(0.0137555396831 -0.0845577453498 7.49365676916e-19)
(0.0140829092783 -0.0576915469229 2.40553210067e-18)
(0.0241619793293 -0.0533694332913 2.90066505225e-18)
(0.00539091404206 -0.0643014970342 1.34762339509e-18)
(0.0111122202301 -0.06012173617 1.36868559431e-18)
(0.00553145795182 -0.0703400390484 9.80776093845e-19)
(0.00712275527645 -0.0686521383631 8.48953815427e-19)
(0.0128350830977 -0.0777518610495 8.43121852062e-19)
(0.0115259084668 -0.0650846510132 6.75484032216e-19)
(0.0180542551974 -0.0821731094235 7.06606995954e-19)
(0.020491340835 -0.0845281236676 6.10221787424e-19)
(0.0219539600328 -0.0928598729335 4.68861252629e-19)
(0.0216393543361 -0.0542145654672 1.86381854589e-18)
(0.0293629134633 -0.049967090995 1.90502433375e-18)
(0.0133413398864 -0.0617602970586 8.70016014654e-19)
(0.0186579367413 -0.0564228896253 7.91657845624e-19)
(0.0141773035386 -0.0703938779759 5.43661753798e-19)
(0.0157563305055 -0.0667707202164 4.38782974245e-19)
(0.022036542542 -0.0796482318165 4.42583967578e-19)
(0.020780267541 -0.0627425752938 3.2353883826e-19)
(0.025910874342 -0.091682500729 3.72476044099e-19)
(0.0325250947054 -0.0834497322415 3.01272871001e-19)
(0.029220939561 -0.102535837228 2.30297812113e-19)
(0.0269346241907 -0.0512563082853 8.32863633483e-19)
(0.0334461650487 -0.0470032812364 7.84770466366e-19)
(0.0212773711781 -0.0590483826225 3.60424805216e-19)
(0.0264499927232 -0.0531336639198 2.91407341275e-19)
(0.0227120213296 -0.0680615935269 2.18660058706e-19)
(0.0247695329871 -0.0640603502943 1.56464612155e-19)
(0.0340742162786 -0.076980783972 1.82227741682e-19)
(0.0296994933153 -0.05929622387 1.07145887635e-19)
(0.0373200758409 -0.0960786494272 1.59094639015e-19)
(0.0516221960309 -0.0781583603799 1.06256667742e-19)
(0.034735615829 -0.100212943428 8.01768038778e-20)
(0.0328649319199 -0.0484464535776 2.43314174158e-19)
(0.0372543158126 -0.0444411051929 2.19819239063e-19)
(0.0297983688838 -0.0561758451572 8.74471482144e-20)
(0.0341793669621 -0.0499944225753 5.8256034349e-20)
(0.0310983901378 -0.0649205769414 4.49504410834e-20)
(0.033514258526 -0.0608637964534 2.31889757159e-20)
(0.0460253712992 -0.0714970885489 3.11748136946e-20)
(0.0362760456247 -0.0551251147904 3.353725014e-21)
(0.0489123269164 -0.0849828729232 2.73388326047e-20)
(0.0651060862452 -0.0709456074637 -2.09931179468e-21)
(0.0399128737691 -0.083557390539 -1.03577708312e-21)
(0.0384721069791 -0.0456727686747 3.47610992533e-20)
(0.0406283046584 -0.0420526500506 3.59059209849e-20)
(0.037660735748 -0.0526437948822 -6.00213814947e-21)
(0.0411503796668 -0.0463937998389 -1.16945134243e-20)
(0.037880721199 -0.0603215413622 -1.84077403534e-20)
(0.0411920001581 -0.0561712575178 -2.38575261203e-20)
(0.0527284556084 -0.0642023998153 -2.99204004752e-20)
(0.0401569307697 -0.0498521322905 -3.8321058365e-20)
(0.055070636148 -0.0672172705348 -3.04739214825e-20)
(0.0681197354238 -0.064034211406 -4.56459607955e-20)
(0.0434446259821 -0.0639995742885 -3.53150766556e-20)
(0.0429094220386 -0.0425906377404 -1.05496916926e-20)
(0.0431762659135 -0.0399485197308 -6.61399023488e-21)
(0.043988223284 -0.0478301033586 -2.95499013951e-20)
(0.0463898362483 -0.0428720268174 -3.55873222703e-20)
(0.0427742027408 -0.0535833970407 -4.37708441319e-20)
(0.0469452896725 -0.0507851521183 -5.18794098873e-20)
(0.0538706959201 -0.05704865861 -5.40466186852e-20)
(0.0436221959237 -0.0447073161761 -7.01188489734e-20)
(0.0553930694762 -0.0546370808338 -5.04871159685e-20)
(0.0657082796768 -0.0587375465213 -7.54229910777e-20)
(0.0448331874755 -0.0505987485308 -5.75799822047e-20)
(0.0462492323053 -0.0403464006989 -3.16516208125e-20)
(0.0452725313635 -0.0385230506286 -2.16953972103e-20)
(0.0487926034601 -0.0437977258212 -5.79168307625e-20)
(0.049841154994 -0.0407559350797 -6.33747628897e-20)
(0.0473871927498 -0.0481000270915 -7.82274147289e-20)
(0.0512475844783 -0.0471706171488 -9.16505063777e-20)
(0.0543936304045 -0.0520664347741 -9.14952213659e-20)
(0.0475885937057 -0.0413534176108 -1.1607807227e-19)
(0.053838833153 -0.0478199356368 -8.25158573138e-20)
(0.0614636224704 -0.0539326489374 -1.24670398165e-19)
(0.0456495946966 -0.0437196182257 -9.46130261869e-20)
(0.0488874675299 -0.0393698142238 -5.34185392874e-20)
(0.0475577172717 -0.0374015531068 -3.20299693727e-20)
(0.0523201719903 -0.0421210845121 -9.71084385049e-20)
(0.0525924177198 -0.0391764342852 -8.49997375742e-20)
(0.051077382638 -0.0453043619826 -1.29501163919e-19)
(0.0544308551195 -0.0443497083467 -1.30391472649e-19)
(0.0545651734024 -0.0474591791353 -1.49253249069e-19)
(0.0497434031154 -0.0385841930985 -1.63018221033e-19)
(0.0536894587914 -0.043793071828 -1.36767567038e-19)
(0.0577988791371 -0.0493521645486 -1.69291834299e-19)
(0.0456798566549 -0.0422415009024 -1.2414079282e-19)
(0.0511191925132 -0.0378926371678 -6.36111676595e-20)
(0.0495001152917 -0.0359041113393 -3.32659722518e-20)
(0.0546684854203 -0.039552082637 -1.18282771718e-19)
(0.0542518496761 -0.0369610730577 -9.4341166538e-20)
(0.0532408352242 -0.0416705534939 -1.63908529763e-19)
(0.056549318741 -0.0406169337712 -1.50105737685e-19)
(0.0541907181228 -0.0437487690691 -1.83056806262e-19)
(0.0518216216065 -0.0349423156842 -1.80796424077e-19)
(0.0506086436456 -0.0435744304241 -1.5666506008e-19)
(0.0576243458672 -0.0453269890374 -1.83668079666e-19)
(0.0456629140497 -0.0437464676178 -1.30114285589e-19)
(0.0526405241344 -0.0358293165482 -6.39959711302e-20)
(0.0512046574246 -0.0341799675161 -2.78385661918e-20)
(0.0560634397956 -0.0366128942297 -1.26164132506e-19)
(0.0550354033396 -0.035065827624 -8.24896148016e-20)
(0.0551808322852 -0.0373493365254 -1.66993632e-19)
(0.0572857497951 -0.0373048228009 -1.35986102585e-19)
(0.0561696035321 -0.0393062003082 -1.81407697481e-19)
(0.0537784900901 -0.0312283722058 -1.61384085365e-19)
(0.0534439275678 -0.0431462368933 -1.57117305175e-19)
(0.061463904624 -0.0419687220126 -1.69707652291e-19)
(0.0469198855362 -0.0468267748541 -1.13521825138e-19)
(0.0537353379236 -0.0342055315984 -4.63322098631e-20)
(0.0529723859585 -0.0329673638259 -2.1356280904e-20)
(0.0565541184269 -0.0346178898436 -9.23115848807e-20)
(0.0554477238279 -0.0344495508927 -5.6813921252e-20)
(0.0564550890397 -0.0342974548131 -1.3037655595e-19)
(0.056965298781 -0.0359251659754 -9.65359420708e-20)
(0.0600688101829 -0.0359543322736 -1.49684040175e-19)
(0.0554353747336 -0.0285200135256 -1.22459537759e-19)
(0.0551486784994 -0.0441391205994 -1.26112172254e-19)
(0.0696477736877 -0.040182971421 -1.39365200367e-19)
(0.0510102770596 -0.0482849956432 -8.80843485829e-20)
(0.0550873843616 -0.0336965435382 -3.18379922929e-20)
(0.0553643630792 -0.032021319376 -1.36358749903e-20)
(0.0565018675985 -0.0344388445357 -6.10382784421e-20)
(0.0561899715041 -0.0343843624339 -3.4394875049e-20)
(0.0566510449568 -0.033633921255 -8.86189238804e-20)
(0.056160352469 -0.0362126566488 -5.8745247897e-20)
(0.064071638073 -0.03463568825 -1.12140697952e-19)
(0.0564371404967 -0.027213178092 -7.94192930495e-20)
(0.063812178448 -0.0403814969075 -1.01337376696e-19)
(0.0753931731001 -0.0401215540706 -1.00378265719e-19)
(0.0598687801126 -0.0441927211301 -7.50768808284e-20)
(0.0569927269923 -0.0329182375158 -1.61927577465e-20)
(0.0584828847687 -0.0301334220107 -7.61231565237e-21)
(0.0566327667622 -0.0344592148617 -3.21018445039e-20)
(0.0577308774075 -0.0332557812534 -1.77100445646e-20)
(0.0566196359871 -0.0342970509998 -4.9545617066e-20)
(0.0559981564752 -0.0363361998263 -3.19912216472e-20)
(0.0656957662587 -0.0351886609989 -6.7656860817e-20)
(0.0573287415352 -0.0266429150111 -4.85866908507e-20)
(0.0706823534029 -0.0350615840316 -7.41177698516e-20)
(0.0752674042546 -0.0415164641718 -7.59957852189e-20)
(0.0702061422622 -0.0436912667808 -6.63890716624e-20)
(0.0596210015207 -0.0305051309484 -9.12960247053e-21)
(0.0620292591604 -0.0266347040533 -5.21557667744e-21)
(0.0577249392713 -0.0330960202936 -1.75994217079e-20)
(0.0603216882952 -0.0300718932609 -1.19047292815e-20)
(0.0575224351771 -0.0343975385034 -3.10322954319e-20)
(0.0572996380102 -0.0343464496051 -1.99513964851e-20)
(0.0671912492365 -0.0365881413417 -5.69256152526e-20)
(0.0595193374818 -0.025348014879 -3.58879817182e-20)
(0.075124809193 -0.0398433908246 -6.82670870297e-20)
(0.0785250118566 -0.0427398899445 -6.35026354803e-20)
(0.0805312757401 -0.0567267750155 -5.29401339702e-20)
(0.0628137120068 -0.0260776820835 -7.99070348842e-21)
(0.0653555331421 -0.0218277008229 -6.13143555696e-21)
(0.0601075459155 -0.0292832132878 -1.42567040587e-20)
(0.0635271505202 -0.0250444884703 -1.01593710299e-20)
(0.0601781454868 -0.032063060426 -2.48070827714e-20)
(0.0600794515783 -0.0302631064099 -1.50082637771e-20)
(0.0750270234741 -0.0369214327211 -4.24650019459e-20)
(0.0643777165915 -0.0230579514932 -2.38051343407e-20)
(0.0858128016359 -0.0558418566783 -4.81756824207e-20)
(0.0974469187121 -0.0409555606309 -3.61099740898e-20)
(0.0901230140028 -0.0689900646384 -2.92049199703e-20)
(0.0662189921599 -0.0206214492544 -8.30010309841e-21)
(0.0680538664497 -0.0165483170429 -5.37664082437e-21)
(0.0638395061275 -0.0242998324089 -1.09109307483e-20)
(0.0672054899193 -0.0191115354718 -8.85504782406e-21)
(0.0647161360405 -0.0287187225977 -1.40063153465e-20)
(0.0644983146622 -0.0248547392798 -1.28135850835e-20)
(0.0874659464187 -0.0337323898439 -1.74501064846e-20)
(0.06939136855 -0.0191968019715 -1.7066626576e-20)
(0.101913641569 -0.0548927142118 -1.71392116394e-20)
(0.118612182133 -0.0345580335054 -2.83545556778e-20)
(0.104473286499 -0.0703819516491 -2.30402344635e-20)
(0.0691572258188 -0.0149226883646 -5.93158555002e-21)
(0.0700430733309 -0.0114928536629 -3.43205913621e-21)
(0.0679449687193 -0.0182706113636 -1.07577021593e-20)
(0.0705534008243 -0.0132336552999 -5.72177811512e-21)
(0.069035704219 -0.0228879607217 -1.5873896313e-20)
(0.0691156579569 -0.0194075837364 -1.22174316168e-20)
(0.100892909773 -0.0271093389258 -2.79710757692e-20)
(0.0736127835613 -0.014322095465 -1.87836625271e-20)
(0.12191450564 -0.0489578980696 -3.42555785019e-20)
(0.140459451301 -0.0274066989075 -3.70122861201e-20)
(0.119921221396 -0.0639000061209 -3.51353725067e-20)
(0.071450126462 -0.00972312304569 -3.22225170131e-21)
(0.0714262188946 -0.00680303539768 -2.67307968274e-21)
(0.0719157402723 -0.0125833114572 -7.18150757265e-21)
(0.0734135996408 -0.00772122920413 -2.93632075174e-21)
(0.0736779409594 -0.0175426757367 -1.51271978308e-20)
(0.074075028004 -0.0139460712537 -1.00982084319e-20)
(0.111152125395 -0.0219506459135 -2.78248728779e-20)
(0.0780208218262 -0.00851703162938 -1.79220504198e-20)
(0.136251256113 -0.0377793248531 -3.78920801249e-20)
(0.156282620827 -0.0213688198728 -4.06358962132e-20)
(0.137529008824 -0.0396752786495 -4.14279963199e-20)
(0.073209055853 -0.0048418830799 -2.38714873317e-21)
(0.0723163780557 -0.00218667522871 -2.18613245398e-21)
(0.0752161819412 -0.00700786977184 -5.85302161103e-21)
(0.0755796019665 -0.00227800690515 -3.9437381327e-21)
(0.0779039551366 -0.0102241830216 -1.28930610209e-20)
(0.0772913375913 -0.00719912261406 -1.05347337541e-20)
(0.118734958194 -0.0135733381596 -3.0733073755e-20)
(0.0813699544978 -0.00114227422123 -1.39485042805e-20)
(0.153804758718 -0.0130634367214 -4.41718124082e-20)
(0.155775920467 -0.015944540106 7.10637276865e-21)
(0.151836789452 -0.0255181751605 4.00034047169e-21)
(0.0742965362415 0.000153733996491 -3.74272185351e-21)
(0.0774085572615 -0.000871501467013 -8.62545027581e-21)
(0.081197432337 -0.0032014977655 -1.15901770138e-20)
(0.0796213063655 0.000676653792984 -1.38256984903e-20)
(0.121738540219 -0.00789575723407 2.38909422432e-20)
(0.086064075734 0.00831018801009 -1.08333183794e-20)
(0.16200926224 -0.0145009665749 5.52785256486e-20)
(0.162395960341 -0.00620744258948 5.26814612634e-20)
(0.173202856587 -0.00618834826157 4.02455909151e-20)
(0.0840473882643 0.00321293969176 -1.3068839856e-20)
(0.0816804176577 0.00955461205811 -1.40874202341e-20)
(0.122952929069 0.000476155590025 1.79572006408e-20)
(0.0888008484383 0.0195338063875 -7.749227248e-21)
(0.162112140379 0.00258986148225 3.764852653e-20)
(0.160259820497 0.0104166336646 5.83038266883e-21)
(0.13508027537 0.0327820537925 9.0320738162e-22)
(0.0841937475659 0.0142557661478 -8.76780762612e-21)
(0.0801837482634 0.0180028646037 -1.54119508614e-20)
(0.120480265089 0.0170466077748 -1.987604522e-20)
(0.0860101727984 0.0285749071238 -9.4883928646e-21)
(0.124912324438 0.0274238450042 -3.09149364796e-20)
(0.149886510663 0.0250896958856 -2.08729501261e-20)
(0.0944425453363 0.0218031854995 -4.37317536961e-20)
(0.0814329343332 0.0228861824774 -1.61325360998e-20)
(0.116654048967 0.0266238087427 -1.04852977707e-20)
(0.12246952195 0.0243620220286 -3.36897673426e-20)
)
;

boundaryField
{
    back
    {
        type            calculated;
        value           uniform (0 0 0);
    }
    sides
    {
        type            calculated;
        value           nonuniform List<vector> 0();
    }
    bottom
    {
        type            calculated;
        value           nonuniform List<vector> 0();
    }
    front
    {
        type            calculated;
        value           uniform (0 0 0);
    }
    atmosphere
    {
        type            calculated;
        value           nonuniform List<vector> 
27
(
(0 -0.0978001480589 0)
(0 -0.0859424934665 0)
(0 -0.0847149496837 0)
(0 -0.0860763994069 0)
(0 -0.0903723805838 0)
(0 -0.0989490311452 0)
(0 -0.101592576746 0)
(0 -0.0901583671116 0)
(0 -0.0707478672397 0)
(0 -0.0560257864904 0)
(0 -0.0486380691277 0)
(0 -0.0438246390406 0)
(0 -0.0435573589856 0)
(0 -0.04440274529 0)
(0 -0.0482286666445 0)
(0 -0.0492396604176 0)
(0 -0.0454002391674 0)
(0 -0.0501708246437 0)
(0 -0.0654352561223 0)
(0 -0.0692475746495 0)
(0 -0.0644046641201 0)
(0 -0.0553821099319 0)
(0 -0.0273744339861 0)
(0 -0.0358918345671 0)
(0.165638046803 0.040755263334 2.87022149466e-20)
(0.0963177701437 0.0680290379667 -2.68958001833e-20)
(0 -0.00524745236958 0)
)
;
    }
    floatingObject
    {
        type            calculated;
        value           nonuniform List<vector> 4((0 0 0) (0 0 0) (-1.04083408559e-16 0 0) (0 0 0));
    }
    procBoundary6to3
    {
        type            processor;
        value           nonuniform List<vector> 8((-0.0840465805388 -0.0436566460648 6.99940883207e-18) (-0.0429703010818 -0.0492568168624 5.29332190709e-18) (-0.0182888984263 -0.0609187653996 3.05294858663e-18) (-0.00502375706921 -0.0691710068566 1.7949022196e-18) (-0.000811728276937 -0.0765638857829 1.299287238e-18) (-0.00173734068436 -0.069697939734 1.11102031686e-18) (-0.00702847404418 -0.0923578338554 9.59888704371e-19) (-0.0116332937654 -0.102449939581 7.27608840755e-19));
    }
    procBoundary6to7
    {
        type            processor;
        value           nonuniform List<vector> 
11
(
(0.0631322549672 -0.0227511836189 -3.86795834318e-21)
(0.0659438854248 -0.0179229581953 -5.06646652949e-21)
(0.0678933871079 -0.0129334090065 -2.58439910947e-21)
(0.0691398596554 -0.00833998964857 -2.06553297898e-21)
(0.0699376947708 -0.00395178527894 -1.3483854611e-21)
(0.0703043455603 0.000476237221861 -1.52027332413e-21)
(0.0726389269804 0.00259947252948 -2.04073958483e-21)
(0.0766048338029 0.00335659359742 -5.60299353155e-21)
(0.0787759216929 0.0052720757062 -1.0803241746e-20)
(0.0785525804183 0.0127592445988 -8.00138668291e-21)
(0.0763017844223 0.0196741098716 -8.12354261861e-21)
)
;
    }
    procBoundary6to8
    {
        type            processor;
        value           nonuniform List<vector> 
16
(
(0.0835487734868 -0.0433765580424 7.01522207949e-18)
(0.0423435834431 -0.0484586576039 5.30467085062e-18)
(0.0330867232653 -0.0511055745431 4.67903203305e-18)
(0.0356124750578 -0.0490135950525 3.89053134821e-18)
(0.0355931882768 -0.0471730063581 1.95208771269e-18)
(0.0370366425503 -0.0446382497443 6.26544873986e-19)
(0.0390343716746 -0.0422987348486 1.23172186993e-19)
(0.0409279113333 -0.0400426452034 1.31463961103e-20)
(0.0427729095562 -0.0382501157832 -8.12656567689e-21)
(0.0446862586667 -0.0370846123621 -1.71989790594e-20)
(0.0469668186996 -0.0359502146719 -2.2290832128e-20)
(0.0491084351127 -0.0341247287991 -1.91305765526e-20)
(0.0510470237419 -0.0324377247086 -1.6483631981e-20)
(0.0534177746091 -0.031304445247 -1.16970133083e-20)
(0.0564180261577 -0.02979951636 -6.64914317255e-21)
(0.0597938649944 -0.0269585208669 -4.05620414786e-21)
)
;
    }
    procBoundary6to9
    {
        type            processor;
        value           nonuniform List<vector> 4((0.076971556203 0.0246070639635 -1.18250439255e-20) (0.0822727516156 0.0341555283346 -1.32973103761e-20) (0.152112976483 0.0325382871659 -9.85700679527e-21) (0.124123306205 -0.0018460398099 -3.83339455031e-20));
    }
}


// ************************************************************************* //
