/*--------------------------------*- C++ -*----------------------------------*\
| =========                 |                                                 |
| \\      /  F ield         | OpenFOAM: The Open Source CFD Toolbox           |
|  \\    /   O peration     | Version:  v2012                                 |
|   \\  /    A nd           | Website:  www.openfoam.com                      |
|    \\/     M anipulation  |                                                 |
\*---------------------------------------------------------------------------*/
FoamFile
{
    version     2.0;
    format      ascii;
    class       volVectorField;
    location    "5.1";
    object      U;
}
// * * * * * * * * * * * * * * * * * * * * * * * * * * * * * * * * * * * * * //

dimensions      [0 1 -1 0 0 0 0];


internalField   nonuniform List<vector> 
164
(
(0.0429778794555 0.000591010865606 -1.86219305064e-22)
(0.0440536836421 0.00168282798524 -7.70884112684e-23)
(0.0452842372422 0.00278433178704 -1.73963497327e-23)
(0.0463543488311 0.00390050970018 3.77378728539e-23)
(0.0472851166229 0.00503816791809 2.03626637322e-23)
(0.0482278556263 0.00622698628254 5.99027295105e-25)
(0.049289917218 0.00748237162628 -4.5102123519e-24)
(0.0505216889499 0.00880547543318 -3.94799111344e-24)
(0.0417701260475 0.000670502565195 -1.40857095428e-22)
(0.04286486581 0.00192620973684 -6.15111455014e-23)
(0.0440973520253 0.00318715213438 -1.6549563935e-23)
(0.0451464283518 0.00446707807837 1.05374761256e-23)
(0.0460337982254 0.00577353735465 4.95028112466e-24)
(0.0469192529155 0.00713217520488 -1.01901210386e-24)
(0.0479094352619 0.00856053116701 -4.85044530529e-24)
(0.049059487931 0.0100757696177 4.32679088723e-25)
(0.0404072773906 0.000738440630315 -1.31298664154e-22)
(0.0415207510314 0.0021465423108 -5.51888149885e-24)
(0.0427528912166 0.00355496174526 2.50346216399e-23)
(0.0437781709655 0.00498800225883 3.46975990535e-23)
(0.04461992107 0.00645241877066 1.74360799987e-23)
(0.0454389435791 0.0079748312388 9.62772544708e-24)
(0.046347532593 0.0095747718824 6.67138473258e-25)
(0.0474006737382 0.0112730778805 6.11908958771e-24)
(0.0486281604506 0.0130919003622 2.83589789332e-23)
(0.0500468514325 0.0150427148703 3.01935269095e-23)
(0.0389075551986 0.000802229477891 -4.66580542571e-23)
(0.0400362824035 0.00234609441211 6.2393239675e-23)
(0.041263047309 0.00388609092036 9.7003538596e-23)
(0.0422598410694 0.00545875379157 9.23695562451e-23)
(0.0430524044446 0.00706772981602 5.02651579698e-23)
(0.0438007775442 0.00873984049869 2.35957143858e-23)
(0.0446188419304 0.0104960558115 7.68307205584e-24)
(0.0455616248239 0.0123570888375 8.03120544923e-24)
(0.0466559573856 0.0143482070237 2.37227851877e-23)
(0.0479226019107 0.0165014278992 3.10582367316e-23)
(0.0372875372782 0.000862625754638 1.07250707633e-22)
(0.0384252279887 0.00252494940202 2.02807067132e-22)
(0.0396415979343 0.00417814591256 1.69333683709e-22)
(0.0406078215419 0.00587568174684 1.37142246773e-22)
(0.0413459911153 0.00761452374064 8.03596981982e-23)
(0.0420184937931 0.00941848171034 4.87259249423e-23)
(0.042739446323 0.0113121364526 2.01817813528e-23)
(0.0435630511763 0.0133194031955 1.10783149846e-23)
(0.0445106408827 0.0154665523758 2.19248358683e-23)
(0.0455961354566 0.0177967613426 4.93104915364e-23)
(0.0355626496016 0.000906510386406 1.73038924119e-22)
(0.0367026058267 0.00267516657882 2.14180774515e-22)
(0.0379060557432 0.00443188931094 1.99220716724e-22)
(0.0388387636964 0.00623858329053 1.73178561505e-22)
(0.0395193788532 0.00808695272216 1.05702912633e-22)
(0.0401131244056 0.0100038016511 7.09124814068e-23)
(0.0407331497317 0.0120131878113 4.09024240952e-23)
(0.0414290012452 0.0141399292357 2.72155071777e-23)
(0.0422173632825 0.0164151597961 2.47568259869e-23)
(0.043104508088 0.0188794713686 3.94403187442e-23)
(0.0337490162519 0.000938195828313 1.7429775388e-22)
(0.0348853781573 0.00280064957003 2.50412091469e-22)
(0.0360725445108 0.0046461603371 1.91169341723e-22)
(0.0369670952331 0.00654584081338 1.70401760797e-22)
(0.0375908530481 0.00848808550513 1.2494153779e-22)
(0.0381073343433 0.0104973707302 1.12837410329e-22)
(0.0386275452525 0.0125957717612 7.87308450513e-23)
(0.0391956340692 0.0148071574674 6.10304610587e-23)
(0.0398232589828 0.0171613001935 4.55791411353e-23)
(0.0405059547291 0.0196979425614 5.10992897133e-23)
(0.031856805442 0.000966645990286 1.50281992827e-22)
(0.0329883179152 0.00290679128753 2.01689292992e-22)
(0.0341543465283 0.00482693493751 1.67572989803e-22)
(0.0350100769436 0.00680290760205 1.68315800941e-22)
(0.0355783601162 0.00882245669754 1.4452533694e-22)
(0.0360212615104 0.0109044358246 1.15239807898e-22)
(0.0364478709695 0.0130667633528 9.05586549949e-23)
(0.0369003830333 0.015330294077 8.11883262152e-23)
(0.0373841638956 0.0177196443001 8.56295129549e-23)
(0.0378851559729 0.0202675580567 9.79297306327e-23)
(0.0298995269709 0.000990404470693 1.50335053243e-22)
(0.0310255624806 0.00299555331025 2.30256126756e-22)
(0.0321664670157 0.00497669704737 1.46892760635e-22)
(0.0329836353821 0.00701532067334 1.49598692333e-22)
(0.033498725688 0.00909674290479 1.30002496506e-22)
(0.0338737314707 0.0112335919615 9.8169255426e-23)
(0.0342186453416 0.0134404423553 1.07051003986e-22)
(0.034576691758 0.0157345680662 1.23725831577e-22)
(0.0349481485923 0.0181323522416 1.4661395789e-22)
(0.0353114790312 0.0206491233883 1.10745497954e-22)
(0.027892258977 0.00100364659722 1.66550602677e-22)
(0.0290087058764 0.00306465916946 1.80334144306e-22)
(0.0301208993848 0.00509658670802 1.09517269903e-22)
(0.0308990914219 0.00718554652096 1.19898750675e-22)
(0.0313652629974 0.00931470269276 1.18287545326e-22)
(0.0316817556418 0.011494406603 1.07500437768e-22)
(0.0319612905227 0.0137372367903 1.27700690423e-22)
(0.0322446075848 0.0160523773756 9.31805226115e-23)
(0.0325336730738 0.0184469240342 1.31920556874e-22)
(0.0328087590583 0.0209241802383 1.2170461871e-22)
(0.0258477994047 0.00101132306558 7.44023686388e-23)
(0.0269493519047 0.00311473651615 -2.96651566261e-23)
(0.0280292207528 0.00518556171958 -8.1779609136e-24)
(0.0287678797954 0.00731563638806 5.70622233992e-23)
(0.0291910044312 0.00948507539699 1.11739252174e-22)
(0.0294592655715 0.0117029102043 1.05060250486e-22)
(0.0296833801372 0.0139747304936 1.01594531291e-22)
(0.0299054192481 0.0163045346971 9.09864649839e-23)
(0.0301341410387 0.018694761591 9.47077946703e-23)
(0.0303590865045 0.0211383160168 1.2242504106e-22)
(0.0237785774655 0.00101525687776 -1.19523354574e-23)
(0.0248592265843 0.00314764659573 -1.05143885216e-22)
(0.0259035615951 0.00524558851815 -1.81152605275e-22)
(0.0266031894459 0.00741072555195 -1.73332956938e-23)
(0.0269850342166 0.00961635728668 1.14762699426e-22)
(0.0272080981683 0.011864490344 1.55061283522e-22)
(0.02738144954 0.0141604708829 1.28505614978e-22)
(0.0275533028845 0.016506645677 1.21531145262e-22)
(0.0277354191905 0.0188990903227 1.30624541218e-22)
(0.0279308946369 0.0213365636254 1.93752256354e-22)
(0.0216949673041 0.00100955757715 -5.94934528111e-23)
(0.02274855573 0.00316387322146 -2.75228263796e-22)
(0.0237513383108 0.00528039664995 -3.42458867824e-22)
(0.0244092367315 0.00747128987171 -1.12405914811e-22)
(0.0247482890967 0.00970563106168 9.18567980743e-23)
(0.0249265253161 0.0119821154572 1.43035158691e-22)
(0.025054631011 0.0143033130252 1.46707396857e-22)
(0.0251831372875 0.0166680460383 1.47902053509e-22)
(0.025329082051 0.0190764758662 1.97668053425e-22)
(0.0254934621365 0.0215270638362 2.41807346617e-22)
(0.019610625594 0.00099970597498 -6.44795286144e-24)
(0.0206255456484 0.00316249083338 -2.54753169707e-22)
(0.0215782393329 0.00528683530348 -4.14042847531e-22)
(0.0221878048158 0.00749732268785 -1.80623634465e-22)
(0.0224821766927 0.00975685673506 6.53437084441e-23)
(0.0226155853879 0.0120618861048 1.56394134381e-22)
(0.022699511307 0.0144123042314 1.80319518068e-22)
(0.0227886000117 0.0168068852923 2.01236909326e-22)
(0.0229029840074 0.0192378816679 2.65642776107e-22)
(0.0230354901546 0.0217011556314 2.57419888492e-22)
(0.0175388604101 0.000986745256569 4.38626112891e-22)
(0.0185025502641 0.00314404983938 -9.36477442077e-23)
(0.0193935873028 0.00526664614423 -3.18309094228e-22)
(0.0199460230718 0.00748958502985 -1.41899456842e-22)
(0.0201894809701 0.00977103038069 8.47782594367e-23)
(0.0202727995259 0.0121042977539 1.9038183638e-22)
(0.0203060568378 0.0144885290178 2.78872015082e-22)
(0.0203562805748 0.0169194356687 4.19797551913e-22)
(0.0204403036361 0.0193844790166 5.51881176201e-22)
(0.0205461464325 0.0218752059201 6.13933574312e-22)
(0.0154925246058 0.000968017125122 9.9788537312e-22)
(0.0163914180364 0.00310904682496 2.56699735895e-22)
(0.0172083189069 0.00521831299141 -7.826231379e-23)
(0.0176917230258 0.00744577912416 7.46236854722e-24)
(0.0178734692582 0.00974319816044 2.04363938112e-22)
(0.0178973862035 0.0121001466211 4.5277469655e-22)
(0.0178787123529 0.0145248110952 9.53533163169e-22)
(0.0178835263602 0.0170065469828 1.73683536751e-21)
(0.0179447668274 0.0195049238425 2.43763932735e-21)
(0.0180197482384 0.0220013058135 2.76400406684e-21)
(0.0134825333291 0.00094141912629 1.19696619415e-21)
(0.0143029235996 0.00305386780061 5.08461444744e-22)
(0.0150333219766 0.00513774293465 1.23155002208e-22)
(0.0154340157237 0.00735927036066 2.31175154607e-22)
(0.0155350295838 0.00966578697317 7.12809304112e-22)
(0.0154817177258 0.0120530771271 1.9470729681e-21)
(0.0154026853388 0.014524623112 4.74566981698e-21)
(0.0131777536019 0.00952339620357 3.13422509033e-21)
)
;

boundaryField
{
    back
    {
        type            noSlip;
    }
    sides
    {
        type            noSlip;
    }
    bottom
    {
        type            noSlip;
    }
    front
    {
        type            noSlip;
    }
    atmosphere
    {
        type            pressureInletOutletVelocity;
        value           nonuniform List<vector> 0();
    }
    floatingObject
    {
        type            movingWallVelocity;
        value           nonuniform List<vector> 0();
    }
    procBoundary4to0
    {
        type            processor;
        value           nonuniform List<vector> 8((0.0440163939907 0.000506094670771 -2.09479245223e-22) (0.0450751092143 0.00142371134391 -8.81488068493e-23) (0.046302036769 0.0023531158546 7.25827808188e-24) (0.0473898856628 0.0032918236067 6.39178581841e-23) (0.0483604112715 0.00425172310943 3.53533954523e-23) (0.0493549129834 0.00525848105155 7.40040960953e-24) (0.0504792179297 0.0063226612532 -4.19895459893e-24) (0.0517768728476 0.00744399869758 -1.0014348134e-23));
    }
    procBoundary4to3
    {
        type            processor;
        value           nonuniform List<vector> 
13
(
(0.0153640073262 0.0170637014014 9.07292001255e-21)
(0.0154360948449 0.0195846623422 1.30601582117e-20)
(0.0155053418593 0.0220013644536 1.49424557719e-20)
(0.0115161905225 0.000908441884562 1.31318384498e-21)
(0.0122517822871 0.00297799071672 6.43309115081e-22)
(0.0128814048709 0.00502046807849 3.82862310955e-22)
(0.0131812947891 0.00721737495526 9.43160066336e-22)
(0.0130170737804 0.011943525133 9.45101123909e-21)
(0.0153640073262 0.0170637014014 9.07292001255e-21)
(0.0128461152526 0.0144742841813 2.36749052306e-20)
(0.0131812947891 0.00721737495526 9.43160066336e-22)
(0.0130170737804 0.011943525133 9.45101123909e-21)
(0.0108168205454 0.00927934525132 1.33859607285e-20)
)
;
    }
    procBoundary4to5
    {
        type            processor;
        value           nonuniform List<vector> 
18
(
(0.0519401296381 0.010200249364 1.44534185167e-24)
(0.0503952696061 0.0116873002407 1.08478570868e-23)
(0.0503952696061 0.0116873002407 1.08478570868e-23)
(0.0519246893268 0.0133963144392 2.40145388261e-23)
(0.0516695500296 0.0171290487923 4.51463993033e-23)
(0.0493852600953 0.0188440647769 4.52179503339e-23)
(0.0468412036938 0.0203557133223 4.62055565209e-23)
(0.0440905572352 0.0215870936481 5.53884417471e-23)
(0.0412275883238 0.0224724039631 6.10891992472e-23)
(0.0383738941286 0.0230160340266 1.44743927324e-23)
(0.0356306154799 0.0233063209008 1.48701392936e-22)
(0.0330422884426 0.023478583185 2.81901351936e-22)
(0.0305764391804 0.0236233321474 4.19726592359e-22)
(0.028143909061 0.0238182533132 4.7016784266e-22)
(0.0256741302965 0.0240195026978 2.20623407233e-22)
(0.0231790061513 0.0242029880559 3.73928207579e-22)
(0.0206468729584 0.0244126052937 6.83531537798e-22)
(0.0180273999781 0.024557096034 3.07652073373e-21)
)
;
    }
}


// ************************************************************************* //
