/*--------------------------------*- C++ -*----------------------------------*\
| =========                 |                                                 |
| \\      /  F ield         | OpenFOAM: The Open Source CFD Toolbox           |
|  \\    /   O peration     | Version:  v2012                                 |
|   \\  /    A nd           | Website:  www.openfoam.com                      |
|    \\/     M anipulation  |                                                 |
\*---------------------------------------------------------------------------*/
FoamFile
{
    version     2.0;
    format      ascii;
    class       volScalarField;
    location    "2.7";
    object      alpha.water;
}
// * * * * * * * * * * * * * * * * * * * * * * * * * * * * * * * * * * * * * //

dimensions      [0 0 0 0 0 0 0];


internalField   nonuniform List<scalar> 
167
(
0.999998641801
0.999998124471
0.999996372549
0.999995956233
0.999997405345
0.999999257478
0.876064815188
0.169349404943
-3.06118320527e-42
0.999998391873
0.999997462286
0.999997243848
0.999997902896
0.999998049973
0.879735718748
0.183954283849
-2.24910492344e-53
0.999999549076
0.999998449196
0.999997765319
0.999998040877
0.999997902896
0.875495068996
0.195029457951
8.61646471409e-28
1.00000123138
0.999999791164
0.999998804242
0.999997950372
0.99999815742
0.999998444396
0.885227697881
0.204352259021
-2.9675400373e-28
1.00000200214
1.00000007681
0.999998954625
0.99999801946
0.999998208724
0.999999366853
0.897122638926
0.212204547882
1.4115374496e-23
1.0000023753
1.00000027706
0.999999037617
0.999998158741
0.999998313939
0.999999817077
0.902559127779
0.209065872144
7.08094937365e-05
1.00000446117
1.000001779
1.00000042815
0.999999203838
0.999998365049
0.999998341005
0.999999817079
0.901644912866
0.205425103875
-1.44560289665e-20
1.00000603355
1.00000310673
1.00000195018
1.00000067628
0.999999495174
0.999998731012
0.999998698558
0.999999856805
0.894489128489
0.190287728803
-1.15648231732e-19
1.00000515017
1.00000367063
1.00000230215
1.00000105181
0.999999963535
0.999999322434
0.999999248708
0.999999938651
0.886397301981
0.175740619805
0
1.00000547827
1.00000266792
1.00000149144
1.00000058165
1.00000004809
0.9999999835
0.999999984659
0.880178556637
0.163696186585
-2.32596653999e-23
1.00000527369
1.00000284683
1.00000197396
1.00000129052
1.00000084255
1
0.999999994272
0.874038463245
0.150752141736
-1.37863451556e-23
1.00000490428
1.00000297805
1.00000242918
1.00000198801
1.0000015287
1
0.999999990304
0.86648728704
0.136438863404
-1.02157810343e-28
1.00000488152
1.0000031594
1.0000028708
1.00000257307
1.00000180409
1
0.999999983948
0.857449523876
0.123315190146
-9.27984376875e-27
1.00000389902
1.00000321078
1.00000317055
1.00000301531
1.00000137314
1
0.999999979557
0.84721478935
0.112317400673
-6.11227844002e-25
1.00000355404
1.00000294638
1.00000321289
1.0000034028
1.00000323404
1.000000297
1
0.999999972748
0.834736940942
0.104828248616
-3.82221951596e-23
1.00000270934
1.00000294233
1.0000033108
1.00000346677
1.00000323537
1
0.999999999064
0.999999862763
0.82094221131
0.102448216076
-8.91044864475e-22
1.00000157711
1.000001737
1.00000180957
1.00000180915
1.00000152831
0.999999864287
0.999999873725
0.999999781453
0.80109439484
0.106462608484
-7.34397382261e-22
)
;

boundaryField
{
    back
    {
        type            zeroGradient;
    }
    sides
    {
        type            zeroGradient;
    }
    bottom
    {
        type            zeroGradient;
    }
    front
    {
        type            zeroGradient;
    }
    atmosphere
    {
        type            inletOutlet;
        inletValue      uniform 0;
        value           nonuniform List<scalar> 
17
(
0
0
0
0
0
7.08094937365e-05
0
-1.15648231732e-19
0
0
0
0
0
0
0
0
0
)
;
    }
    floatingObject
    {
        type            zeroGradient;
    }
    procBoundary11to9
    {
        type            processor;
        value           nonuniform List<scalar> 9(1.00000001955 0.999999093434 0.999996967096 0.999996149756 0.999997703156 0.999999950292 0.863091125116 0.151377609679 3.28692043842e-33);
    }
    procBoundary11to10
    {
        type            processor;
        value           nonuniform List<scalar> 
23
(
1.00000053258
1.00000034005
1.00000034005
1.00000073116
1.00000073116
1.00000172437
1.00000201088
1.00000301202
1.00000301202
1.00000408618
1.00000408618
1.00000373297
1.00000420998
1.00000623173
1.00000623173
1.00000410515
1.00000383267
1.00000293824
1.00000315857
1.00000315857
1.00000210946
1.00000143856
1.0000011727
)
;
    }
}


// ************************************************************************* //
