/*--------------------------------*- C++ -*----------------------------------*\
| =========                 |                                                 |
| \\      /  F ield         | OpenFOAM: The Open Source CFD Toolbox           |
|  \\    /   O peration     | Version:  v2012                                 |
|   \\  /    A nd           | Website:  www.openfoam.com                      |
|    \\/     M anipulation  |                                                 |
\*---------------------------------------------------------------------------*/
FoamFile
{
    version     2.0;
    format      ascii;
    class       volScalarField;
    location    "3.2";
    object      ddt0(k);
}
// * * * * * * * * * * * * * * * * * * * * * * * * * * * * * * * * * * * * * //

dimensions      [0 2 -3 0 0 0 0];


internalField   nonuniform List<scalar> 
164
(
-0.00210759010935
-0.00308166714176
-0.00519874821202
-0.00936208224203
-0.015091647826
-0.0196330497063
-0.0103896527586
-0.0219416853908
-0.00239446457355
-0.00386004106986
-0.00665252676419
-0.0106222550308
-0.0152931497163
-0.0188244558857
-0.00433402132772
0.0249196258351
-0.00239340195663
-0.00385849681277
-0.00664735395342
-0.0106173877574
-0.0153117259908
-0.0193701083108
-0.00407868594079
0.163128734708
-0.00210927026846
-0.00308307909351
-0.00520445919532
-0.00938504962815
-0.0151860143915
-0.021073770798
-0.0299577063702
-0.0400013188233
-0.00489948624641
-0.00896812507226
-0.0152181386341
-0.0224288196054
-0.0395109522809
-0.109029515687
-0.00446725297344
-0.00831122093003
-0.0147890536992
-0.0232656779993
-0.0305569024468
0.0261294497619
-0.00390940620565
-0.00745383203948
-0.0142276977012
-0.0239536169494
-0.00869518543276
0.124057624585
-0.00350603605933
-0.00675361719426
-0.0138004795857
-0.0255493978494
-0.0329096456972
0.259857725807
-0.00318869990142
-0.00614334659951
-0.0133141036974
-0.0264421717893
-0.04790204457
0.0777062897228
-0.00294787342103
-0.00561421245474
-0.0125428853664
-0.0257036760859
-0.0491966215883
-0.168112737919
-0.00286018822742
-0.00527913255193
-0.0114352156437
-0.0233011575516
-0.0474861224602
-0.245713170669
-0.0029933518207
-0.00523159651605
-0.010362137459
-0.0208362927616
-0.0468545569476
-0.188418873742
-0.00331399992733
-0.00538672243909
-0.00957500687519
-0.0184740322676
-0.0448644448237
-0.135087989328
-0.00327249648184
-0.00520894462743
-0.00866328968713
-0.0147101953169
-0.028124743378
0.0382738928002
-0.0029583520251
-0.00468192542856
-0.00761601544333
-0.0106773951346
-0.0112404049524
0.0389784152262
-0.00277633052064
-0.00432339226194
-0.00691379322322
-0.00870219322294
-0.00575701809024
0.0895210733011
-0.00281142716587
-0.00423309114775
-0.0063786373187
-0.0086403362085
-0.0229725966998
-0.00938216174865
-0.00281021194073
-0.00403515045574
-0.00546962094046
-0.00647243244152
-0.0180136230542
-0.0654141023841
-0.0026785843463
-0.00353852527668
-0.00417237675977
-0.0033547705283
-0.0150929027282
-0.0808067264005
-0.00237360830119
-0.00281939785045
-0.00251516217306
0.000321698212308
-0.011333847162
-0.137716094292
-0.00211363480911
-0.00209374723998
-0.000690877936866
0.00533408350141
-0.00206019066839
-0.204481086353
-0.00192960191714
-0.00154062971831
0.000841815595978
0.010262206203
0.00554035809968
0.0011286344035
-0.00182762952007
-0.00126885825157
0.00164321341262
0.015588714636
0.0372276528943
0.0245846483211
-0.00178507023373
-0.00120786243562
0.00183224666971
0.0205059333126
0.0759341055556
0.0660619358763
0.00208108579686
0.0226554288868
0.0888807290585
0.0779134846551
0.00251861266716
0.0226107502929
0.0821985561509
0.0668556591387
0.00312876885789
0.0211819276885
0.0641744938234
0.0312416526858
)
;

boundaryField
{
    back
    {
        type            calculated;
        value           nonuniform List<scalar> 
164
(
-0.00210759010935
-0.00308166714176
-0.00519874821202
-0.00936208224203
-0.015091647826
-0.0196330497063
-0.0103896527586
-0.0219416853908
-0.00239446457355
-0.00386004106986
-0.00665252676419
-0.0106222550308
-0.0152931497163
-0.0188244558857
-0.00433402132772
0.0249196258351
-0.00239340195663
-0.00385849681277
-0.00664735395342
-0.0106173877574
-0.0153117259908
-0.0193701083108
-0.00407868594079
0.163128734708
-0.00210927026846
-0.00308307909351
-0.00520445919532
-0.00938504962815
-0.0151860143915
-0.021073770798
-0.0299577063702
-0.0400013188233
-0.00489948624641
-0.00896812507226
-0.0152181386341
-0.0224288196054
-0.0395109522809
-0.109029515687
-0.00446725297344
-0.00831122093003
-0.0147890536992
-0.0232656779993
-0.0305569024468
0.0261294497619
-0.00390940620565
-0.00745383203948
-0.0142276977012
-0.0239536169494
-0.00869518543276
0.124057624585
-0.00350603605933
-0.00675361719426
-0.0138004795857
-0.0255493978494
-0.0329096456972
0.259857725807
-0.00318869990142
-0.00614334659951
-0.0133141036974
-0.0264421717893
-0.04790204457
0.0777062897228
-0.00294787342103
-0.00561421245474
-0.0125428853664
-0.0257036760859
-0.0491966215883
-0.168112737919
-0.00286018822742
-0.00527913255193
-0.0114352156437
-0.0233011575516
-0.0474861224602
-0.245713170669
-0.0029933518207
-0.00523159651605
-0.010362137459
-0.0208362927616
-0.0468545569476
-0.188418873742
-0.00331399992733
-0.00538672243909
-0.00957500687519
-0.0184740322676
-0.0448644448237
-0.135087989328
-0.00327249648184
-0.00520894462743
-0.00866328968713
-0.0147101953169
-0.028124743378
0.0382738928002
-0.0029583520251
-0.00468192542856
-0.00761601544333
-0.0106773951346
-0.0112404049524
0.0389784152262
-0.00277633052064
-0.00432339226194
-0.00691379322322
-0.00870219322294
-0.00575701809024
0.0895210733011
-0.00281142716587
-0.00423309114775
-0.0063786373187
-0.0086403362085
-0.0229725966998
-0.00938216174865
-0.00281021194073
-0.00403515045574
-0.00546962094046
-0.00647243244152
-0.0180136230542
-0.0654141023841
-0.0026785843463
-0.00353852527668
-0.00417237675977
-0.0033547705283
-0.0150929027282
-0.0808067264005
-0.00237360830119
-0.00281939785045
-0.00251516217306
0.000321698212308
-0.011333847162
-0.137716094292
-0.00211363480911
-0.00209374723998
-0.000690877936866
0.00533408350141
-0.00206019066839
-0.204481086353
-0.00192960191714
-0.00154062971831
0.000841815595978
0.010262206203
0.00554035809968
0.0011286344035
-0.00182762952007
-0.00126885825157
0.00164321341262
0.015588714636
0.0372276528943
0.0245846483211
-0.00178507023373
-0.00120786243562
0.00183224666971
0.0205059333126
0.0759341055556
0.0660619358763
0.00208108579686
0.0226554288868
0.0888807290585
0.0779134846551
0.00251861266716
0.0226107502929
0.0821985561509
0.0668556591387
0.00312876885789
0.0211819276885
0.0641744938234
0.0312416526858
)
;
    }
    sides
    {
        type            calculated;
        value           nonuniform List<scalar> 0();
    }
    bottom
    {
        type            calculated;
        value           nonuniform List<scalar> 0();
    }
    front
    {
        type            calculated;
        value           nonuniform List<scalar> 
164
(
-0.00210759010935
-0.00308166714176
-0.00519874821202
-0.00936208224203
-0.015091647826
-0.0196330497063
-0.0103896527586
-0.0219416853908
-0.00239446457355
-0.00386004106986
-0.00665252676419
-0.0106222550308
-0.0152931497163
-0.0188244558857
-0.00433402132772
0.0249196258351
-0.00239340195663
-0.00385849681277
-0.00664735395342
-0.0106173877574
-0.0153117259908
-0.0193701083108
-0.00407868594079
0.163128734708
-0.00210927026846
-0.00308307909351
-0.00520445919532
-0.00938504962815
-0.0151860143915
-0.021073770798
-0.0299577063702
-0.0400013188233
-0.00489948624641
-0.00896812507226
-0.0152181386341
-0.0224288196054
-0.0395109522809
-0.109029515687
-0.00446725297344
-0.00831122093003
-0.0147890536992
-0.0232656779993
-0.0305569024468
0.0261294497619
-0.00390940620565
-0.00745383203948
-0.0142276977012
-0.0239536169494
-0.00869518543276
0.124057624585
-0.00350603605933
-0.00675361719426
-0.0138004795857
-0.0255493978494
-0.0329096456972
0.259857725807
-0.00318869990142
-0.00614334659951
-0.0133141036974
-0.0264421717893
-0.04790204457
0.0777062897228
-0.00294787342103
-0.00561421245474
-0.0125428853664
-0.0257036760859
-0.0491966215883
-0.168112737919
-0.00286018822742
-0.00527913255193
-0.0114352156437
-0.0233011575516
-0.0474861224602
-0.245713170669
-0.0029933518207
-0.00523159651605
-0.010362137459
-0.0208362927616
-0.0468545569476
-0.188418873742
-0.00331399992733
-0.00538672243909
-0.00957500687519
-0.0184740322676
-0.0448644448237
-0.135087989328
-0.00327249648184
-0.00520894462743
-0.00866328968713
-0.0147101953169
-0.028124743378
0.0382738928002
-0.0029583520251
-0.00468192542856
-0.00761601544333
-0.0106773951346
-0.0112404049524
0.0389784152262
-0.00277633052064
-0.00432339226194
-0.00691379322322
-0.00870219322294
-0.00575701809024
0.0895210733011
-0.00281142716587
-0.00423309114775
-0.0063786373187
-0.0086403362085
-0.0229725966998
-0.00938216174865
-0.00281021194073
-0.00403515045574
-0.00546962094046
-0.00647243244152
-0.0180136230542
-0.0654141023841
-0.0026785843463
-0.00353852527668
-0.00417237675977
-0.0033547705283
-0.0150929027282
-0.0808067264005
-0.00237360830119
-0.00281939785045
-0.00251516217306
0.000321698212308
-0.011333847162
-0.137716094292
-0.00211363480911
-0.00209374723998
-0.000690877936866
0.00533408350141
-0.00206019066839
-0.204481086353
-0.00192960191714
-0.00154062971831
0.000841815595978
0.010262206203
0.00554035809968
0.0011286344035
-0.00182762952007
-0.00126885825157
0.00164321341262
0.015588714636
0.0372276528943
0.0245846483211
-0.00178507023373
-0.00120786243562
0.00183224666971
0.0205059333126
0.0759341055556
0.0660619358763
0.00208108579686
0.0226554288868
0.0888807290585
0.0779134846551
0.00251861266716
0.0226107502929
0.0821985561509
0.0668556591387
0.00312876885789
0.0211819276885
0.0641744938234
0.0312416526858
)
;
    }
    atmosphere
    {
        type            calculated;
        value           nonuniform List<scalar> 
27
(
0.00011987132882
0.453282211091
-1.00907193579
0.171251453852
0.113569269231
0.245070507178
0.644911783868
-1.19555041317
4.97038740827
1.18672936203
0.174798539336
0.404483300724
4.98517081235
5.90240677347
0.03897316912
0.217115740775
-4.73953621202e-06
-0.0726602973332
-0.107276602485
-0.454039449914
-2.65956239176
-0.000868356333954
-0.000807783302836
0.0489905405091
0.0533927088292
0.0543551250046
-0.000688430073057
)
;
    }
    floatingObject
    {
        type            calculated;
        value           nonuniform List<scalar> 4(-0.00210759010935 -0.00239446457355 -0.00239340195663 -0.00210927026846);
    }
    procBoundary6to3
    {
        type            processor;
        value           nonuniform List<scalar> 8(-0.00228446119582 -0.00303670347307 -0.0048878931604 -0.00893337539705 -0.0150844695819 -0.0208389247893 -0.00354964863759 0.0625788596794);
    }
    procBoundary6to7
    {
        type            processor;
        value           nonuniform List<scalar> 
11
(
-0.00221800941869
-0.0021424621349
-0.00206863116405
-0.00201846354703
-0.00198696172537
-0.00196833638519
-0.00176714716849
-0.00116874999249
-0.00116874999249
-0.00106321407224
-0.00090322743617
)
;
    }
    procBoundary6to8
    {
        type            processor;
        value           nonuniform List<scalar> 
16
(
-0.00228721925101
-0.00304131981983
-0.00304131981983
-0.00280071742144
-0.00258310673624
-0.00244053152509
-0.00234191251736
-0.00226628557345
-0.00223411123859
-0.00228496202274
-0.00243023350613
-0.00241041115198
-0.00228539679595
-0.00222589982317
-0.00225382266315
-0.0022583011126
)
;
    }
    procBoundary6to9
    {
        type            processor;
        value           nonuniform List<scalar> 4(0.00379466393215 0.0207601426243 0.0471427274472 0.0171565151622);
    }
}


// ************************************************************************* //
