/*--------------------------------*- C++ -*----------------------------------*\
| =========                 |                                                 |
| \\      /  F ield         | OpenFOAM: The Open Source CFD Toolbox           |
|  \\    /   O peration     | Version:  v2012                                 |
|   \\  /    A nd           | Website:  www.openfoam.com                      |
|    \\/     M anipulation  |                                                 |
\*---------------------------------------------------------------------------*/
FoamFile
{
    version     2.0;
    format      ascii;
    class       volVectorField;
    location    "3.2";
    object      ddt0(rho,U);
}
// * * * * * * * * * * * * * * * * * * * * * * * * * * * * * * * * * * * * * //

dimensions      [1 -2 -2 0 0 0 0];


internalField   nonuniform List<vector> 
164
(
(-98.6709849174 -23.603269572 2.35346995001e-15)
(-66.3118405326 -108.983252403 1.50025494667e-15)
(-69.3052099121 -113.496401241 8.47974674092e-16)
(-83.3818194276 -153.051475108 1.08401539166e-15)
(-73.7391571667 -132.106346032 1.79605629366e-16)
(5.90557846056 33.7589903102 1.84358494198e-15)
(10.190286128 61.2091490454 7.51527656338e-16)
(8.11649620894 4.45666374913 9.61291822044e-18)
(-99.1399496957 -2.62472063876 1.67585784426e-16)
(-50.5997019022 -64.3176298363 2.03389176727e-16)
(-46.7996161611 -101.712397432 3.85106709973e-16)
(-59.7445247319 -159.583035974 4.36172577572e-16)
(-62.0438148618 -175.138577062 4.41232726342e-17)
(-27.9845789616 13.6172205513 2.18409030001e-15)
(-23.2009871578 50.3585943764 1.03622972803e-15)
(-7.2098761554 0.570833497878 -1.2581771265e-17)
(78.5133556632 -5.19587697611 1.62755218203e-16)
(27.4927605956 -69.2644592738 1.90642152261e-16)
(16.488635628 -107.615707518 3.27459139888e-16)
(17.0644220004 -170.443475925 3.35613595842e-16)
(-3.46771221916 -193.880766998 -9.99612514429e-17)
(-23.3329216452 -0.980248328226 2.20614675062e-15)
(-25.9399362349 53.3171638218 1.03265991152e-15)
(-19.4933107232 8.0062878074 -2.41573097608e-17)
(82.5115087204 -23.9016777759 2.32906907155e-15)
(48.6590542382 -114.601718569 1.49654404968e-15)
(46.2011111214 -127.741736616 8.3396945791e-16)
(51.0917859967 -176.334530713 1.03196222939e-15)
(30.6197417991 -164.019269815 1.10106743865e-16)
(-4.25491159866 14.5557113898 1.99350205065e-15)
(4.96209747474 55.1141560231 9.64478399252e-16)
(-29.7760184452 0.746941700131 -1.44357313334e-17)
(71.1663475991 -114.669520951 2.10496248664e-15)
(84.6907147105 -162.539621002 1.77001957117e-15)
(80.3120616289 -141.623815148 7.37213924708e-16)
(-23.2757255215 33.173256546 1.51454168342e-15)
(-36.3479660502 74.5495808741 7.83259616303e-16)
(32.1401233948 -38.3931569777 6.22455765051e-18)
(101.380831622 -121.70788797 2.95022777498e-15)
(114.081853412 -157.617134904 1.507312949e-15)
(119.70717265 -123.625153651 5.28405131278e-16)
(-12.9559836731 62.9324959284 7.71575652633e-16)
(-29.6985988011 62.9626929805 2.48855013116e-16)
(11.1783618252 6.5143226605 9.02317879593e-18)
(113.400458013 -116.15783966 9.93256695702e-16)
(133.546488337 -145.193858636 4.75539873557e-16)
(142.822139288 -97.7200893157 1.60880884665e-16)
(-2.5104414726 118.263350849 1.62476599539e-16)
(10.5578923846 67.2555410773 5.77504630687e-17)
(39.4967047441 11.7556422041 -3.73671936989e-18)
(129.832009716 -98.4969059969 1.12345348115e-16)
(160.981224136 -131.519972673 6.45967553568e-17)
(180.962560511 -96.7730100534 1.04055610224e-17)
(31.8368267932 134.339455853 -3.56112539566e-17)
(-7.11790616159 75.1619988058 -1.88973454413e-17)
(12.4282111524 -6.17026074986 8.34323642488e-19)
(143.949868742 -71.5053593914 -7.43329517372e-18)
(189.370298542 -97.0284760231 2.75734005377e-17)
(240.063398848 -44.7808139129 1.16887310317e-17)
(87.3674493081 195.779765915 -1.39019866684e-16)
(17.4400182719 78.5626614807 -1.85902556102e-17)
(22.867158293 -17.30584597 -8.82357463534e-20)
(153.552562907 -32.8575995196 4.27418477333e-18)
(205.671721195 -36.6993882576 -6.85627766628e-18)
(276.139754117 54.9124484808 -2.57597990473e-17)
(98.3695775825 277.571627792 -1.27904178332e-16)
(8.57877072488 71.7204331378 -3.69307314294e-17)
(25.0815295851 12.0563216937 -1.51503024823e-18)
(149.1271426 11.3057303154 1.45888294467e-17)
(195.81125161 31.6402309563 -3.28740529702e-17)
(266.160262085 153.514249652 -8.8881498838e-17)
(33.4975221083 319.442845394 -2.67185468664e-16)
(-22.2556351947 51.8103193228 -3.3669696742e-17)
(-7.10829409487 36.342178978 -4.84335234391e-18)
(134.213565226 51.0367973564 1.85639152367e-17)
(168.535452384 84.7262772821 5.60911419209e-18)
(217.732079456 204.157453357 -7.76020806433e-17)
(-43.1076467972 295.657029158 -3.51753545392e-16)
(-41.6272449663 33.083813982 -5.24370393733e-17)
(-26.8470078409 9.72322361549 -5.22059782185e-18)
(111.846876256 82.2770765888 4.11914193375e-17)
(131.086452115 119.661373078 9.31273819756e-17)
(160.942200901 221.014446494 -3.75490097196e-17)
(-80.8358688248 245.528922298 -2.97466090977e-16)
(-35.7412508454 19.113282993 -5.15370562073e-17)
(-19.9626569372 -4.39971826428 -2.15977299964e-18)
(85.5510169504 100.919547595 4.84720208738e-17)
(95.4714356478 137.458438652 1.31612356107e-16)
(105.967365043 210.443346591 1.7098289002e-16)
(-101.877955269 192.25575572 -1.27234819518e-16)
(-27.4384031104 11.6218844231 -3.4472045552e-17)
(-8.44116447329 -4.99213174266 -1.9468501587e-19)
(59.6810287851 107.910681372 2.68559096376e-17)
(62.8743205907 142.082667412 1.15890211329e-16)
(50.4434288422 197.010575535 1.5586369263e-16)
(-101.726894586 154.33279514 -9.64581408158e-18)
(-16.6886581049 7.25710892491 -1.96973121276e-17)
(-2.9866626954 -2.01907853493 1.10144191042e-19)
(34.4088023634 109.941411377 2.35340113434e-17)
(28.4026809949 143.599904797 7.67076729854e-17)
(-0.35091405919 186.561337184 1.60589190413e-16)
(-89.2195992914 127.212245357 6.13326669826e-17)
(-6.40646505617 4.50762921178 -5.69669414008e-18)
(-0.757182357171 -0.266992062623 -1.46408832298e-19)
(9.81978144099 108.303050001 1.73154809969e-17)
(-4.14921648095 137.426871848 4.69922454589e-17)
(-31.8324578119 166.569081744 8.04144694027e-17)
(-69.9023040676 97.5264351545 5.56162581997e-17)
(-1.29681866822 2.41091186149 -4.98037727302e-19)
(-0.312902448086 -0.170162925938 1.43790308097e-19)
(-12.708287003 102.086476778 -1.28864853961e-18)
(-34.0842665275 128.620143348 -1.97807091601e-19)
(-64.964529613 151.083238331 1.89611695093e-17)
(-48.7237665898 77.9304513817 2.35007307847e-17)
(4.27657013924 1.56171462062 4.00792094316e-19)
(0.192592183098 -0.481718597255 -2.16992008689e-19)
(-30.7073717545 87.2898462643 -4.5043016533e-18)
(-47.8600971445 106.808766366 -3.44415723777e-18)
(-65.7876095607 137.638276066 2.25039009583e-17)
(-24.1618025524 69.9609941599 4.26313308713e-17)
(9.84867689321 0.0666208223582 8.25948550508e-19)
(0.523396164825 -0.708178265989 -6.44242758349e-19)
(-45.6919093798 76.8620325509 2.12013763219e-19)
(-56.9856329439 99.4949756728 8.71121728642e-18)
(-63.9655884702 114.061279872 3.08679954361e-19)
(-7.46854517444 47.1271027751 1.64223084823e-17)
(15.102973217 1.26919540048 9.83428335747e-19)
(0.207291601919 -0.0972644261042 -9.98453846592e-19)
(-58.8293024835 60.0306324126 4.25233518048e-18)
(-75.1334985825 76.4558444169 -1.46670614384e-18)
(-91.3594354649 84.6906993643 9.7159979747e-19)
(-18.1392467462 36.7821814213 1.75259723975e-17)
(29.0659807987 3.63957697296 2.03383686981e-18)
(-0.579109932939 0.944120568973 9.65399262484e-19)
(-66.8337208987 39.7849383995 3.17279239797e-18)
(-87.6767756282 47.2904175466 8.7471377262e-18)
(-111.329206585 45.613602578 -1.4854441707e-17)
(-39.0492350722 20.0922404139 5.62650133682e-18)
(47.4142266697 9.28579492096 3.40169927298e-18)
(-0.318888696169 0.810499600317 -3.48116525162e-19)
(-68.5937370615 18.3983574133 -1.2926932195e-18)
(-91.6807995433 16.9462439455 6.78637317988e-18)
(-120.826416265 0.987023975544 -1.3559582885e-17)
(-55.691941196 -2.30827920021 5.84010997835e-18)
(57.9612630042 16.0112074052 5.03231043328e-18)
(0.0667450289357 0.569420606232 1.33223767303e-19)
(-64.1806936401 -1.89178202342 -1.2836932256e-18)
(-86.3915228498 -12.1572701217 -2.70747007547e-18)
(-116.401154536 -42.7550237426 2.86730020987e-17)
(-53.967355218 -27.6509443714 1.54602348405e-17)
(58.534514453 19.4052071554 4.58038129261e-18)
(0.231626907918 0.198628933167 7.47015507697e-20)
(-97.9741894204 -74.9889563073 5.48358193575e-17)
(-31.1157386592 -47.9118878543 2.29428775253e-17)
(50.9083545333 18.2898718329 7.55186668599e-19)
(0.32758006683 -0.0700398731314 -2.54220338093e-20)
(-69.1645097664 -94.3820362186 5.01027736699e-17)
(5.4112746271 -60.7490299514 2.07866696419e-17)
(42.0656327735 15.3272294022 -7.79738014008e-18)
(0.354919158413 -0.227905199917 -1.26803530593e-19)
(-35.4383740723 -98.2498299476 6.32792448048e-17)
(53.2995242806 -62.6187793668 -3.00153512607e-18)
(36.6176418056 12.5761140928 -8.38397637719e-18)
(0.369521285901 -0.426795568856 -2.29144834356e-20)
)
;

boundaryField
{
    back
    {
        type            calculated;
        value           uniform (0 0 0);
    }
    sides
    {
        type            calculated;
        value           nonuniform List<vector> 0();
    }
    bottom
    {
        type            calculated;
        value           nonuniform List<vector> 0();
    }
    front
    {
        type            calculated;
        value           uniform (0 0 0);
    }
    atmosphere
    {
        type            calculated;
        value           nonuniform List<vector> 
27
(
(-0.00046966578394 4.45587724408 -1.27795609258e-21)
(-29.1126064625 0.570833497878 -3.0114609794e-17)
(12.3244273787 8.0062878074 -7.44465146279e-18)
(-28.2585619199 0.746831375266 -1.88058586266e-17)
(32.4716158356 -38.3937961874 3.37366811642e-18)
(9.5821208757 6.51436029658 7.84361721016e-18)
(14.8903497122 11.7556231995 -1.75590425356e-18)
(-3.18872273017 -7.68192170281 1.37780402734e-19)
(32.7696587881 -18.0344839085 -3.61536262565e-19)
(54.6422231048 11.9598554002 -2.42537942171e-19)
(2.40464456484 36.4046909384 -4.83997178901e-18)
(-20.7327200485 9.72322361574 -5.02649252327e-18)
(20.3844986179 -4.4018302405 1.06679930022e-17)
(12.2516423418 -4.99783386516 6.78232731109e-18)
(-2.9858231626 -2.01947867789 1.1183730897e-19)
(0.357469894249 -0.266992065424 1.5020619044e-19)
(7.16690684598e-06 -0.170162925617 -1.43693445968e-23)
(0.174598733126 -0.481718597255 -2.22335764188e-19)
(0.446369395605 -0.708178265989 -6.53260134315e-19)
(-0.961241415753 -0.0972644261043 -1.45486131232e-18)
(-10.0188018637 0.944120568336 5.95239499669e-18)
(-0.0021216182041 0.810499600319 -1.91864519095e-22)
(-0.00241287337122 0.569420598719 -4.27232556548e-22)
(0.0926039143998 0.198628933165 2.54479236327e-20)
(0.10291630881 -0.070039873131 1.47436811249e-21)
(0.117449840902 -0.227905199917 -3.31861112786e-20)
(0.000800006275078 -0.426795568856 1.38863280944e-21)
)
;
    }
    floatingObject
    {
        type            calculated;
        value           nonuniform List<vector> 4((0 0 0) (0 0 0) (-8.9394173587e-12 0 0) (0 0 0));
    }
    procBoundary6to3
    {
        type            processor;
        value           nonuniform List<vector> 8((-65.129854469 -100.49732312 6.68339956121e-15) (-82.5569519218 -82.4909541408 6.25864627481e-15) (-85.0171784698 -94.455208836 2.10329399037e-15) (-104.38700294 -133.21571852 1.72215322676e-15) (-105.606725881 -115.265785667 6.76963051121e-16) (-16.3806109036 46.6431936505 1.53912348737e-15) (-5.99956363442 63.9812892601 5.10943360866e-16) (58.3484347779 30.0423419094 -5.27936956092e-18));
    }
    procBoundary6to7
    {
        type            processor;
        value           nonuniform List<vector> 
11
(
(-18.7171612797 72.9701412316 -1.66488049702e-18)
(-32.3379129373 62.5674596335 6.79750494384e-19)
(-42.9124770578 49.1993819699 1.3178854805e-18)
(-49.2115046707 33.9169720807 -5.51405833746e-20)
(-50.9064395337 18.0643766339 -1.77967483777e-19)
(-48.2132903944 3.13347777706 -4.79217219088e-19)
(-54.3729446984 -18.8197939275 -1.44641639168e-18)
(-72.9880539089 -36.5490712526 9.34429184948e-19)
(-72.9880539089 -36.5490712526 9.34429184948e-19)
(-53.5207713853 -52.9385713307 4.42831752381e-18)
(-31.520156988 -60.112874666 9.40237691921e-18)
)
;
    }
    procBoundary6to8
    {
        type            processor;
        value           nonuniform List<vector> 
16
(
(61.9177060208 -109.477237783 6.72289395842e-15)
(72.9103692196 -94.8562696215 6.28365515501e-15)
(72.9103692196 -94.8562696215 6.28365515501e-15)
(78.5017265775 -103.527392692 1.6217679936e-15)
(89.2661853579 -98.934925316 6.22152005194e-16)
(101.052625856 -80.6471320572 6.15342660228e-17)
(111.372900329 -55.4972260024 -5.08530121229e-17)
(118.664168541 -25.6403234621 -9.4583218094e-18)
(117.67213677 5.64177582015 2.27631032968e-18)
(109.948931694 34.0372549743 9.9700503303e-18)
(95.3125573016 58.812923075 1.34916637148e-17)
(75.3126141539 74.7760657244 7.87070979311e-18)
(54.7735501004 82.2072424948 6.10984784042e-18)
(35.5484842229 85.5133242871 6.84369758982e-18)
(15.9739495273 85.8682244707 4.06769698776e-18)
(-2.6248049494 81.7294751376 -1.52172975152e-18)
)
;
    }
    procBoundary6to9
    {
        type            processor;
        value           nonuniform List<vector> 4((-3.63609528698 -87.0928627077 -1.57904269412e-17) (85.1834467079 -50.4747764033 2.54105564269e-18) (34.9573106112 14.9204270584 2.70581895007e-18) (0.364658874633 -0.199217537968 1.71536424998e-20));
    }
}


// ************************************************************************* //
