/*--------------------------------*- C++ -*----------------------------------*\
| =========                 |                                                 |
| \\      /  F ield         | OpenFOAM: The Open Source CFD Toolbox           |
|  \\    /   O peration     | Version:  v2012                                 |
|   \\  /    A nd           | Website:  www.openfoam.com                      |
|    \\/     M anipulation  |                                                 |
\*---------------------------------------------------------------------------*/
FoamFile
{
    version     2.0;
    format      ascii;
    class       volScalarField;
    location    "3.2";
    object      epsilon;
}
// * * * * * * * * * * * * * * * * * * * * * * * * * * * * * * * * * * * * * //

dimensions      [0 2 -3 0 0 0 0];


internalField   nonuniform List<scalar> 
164
(
0.00257876738483
0.00281599557413
0.00420468233996
0.0067848468957
0.0108781363002
0.0170130859033
0.0353449431032
0.178973999245
0.00283386497698
0.00356207631332
0.0054811300881
0.00825984183684
0.0119432103514
0.0170695530555
0.0319207056819
0.151557364448
0.00283485327563
0.00356381711158
0.00548460377478
0.00826422640765
0.0119441793651
0.0170117170606
0.0301880774118
0.134395655273
0.00257920117468
0.00281710020406
0.00420615715042
0.00678432358931
0.0108680245121
0.0168800208435
0.031111539866
0.0985986368385
0.00353377834822
0.00579843314973
0.00990362414726
0.0164835838383
0.0310625224845
0.0818759517144
0.00330635279984
0.00522472378944
0.00913626721777
0.0160997416998
0.0305537198791
0.090626281029
0.00310950674481
0.00475955062593
0.00852304688481
0.0158781315429
0.0310037021772
0.12849069855
0.00296746911234
0.0044356227187
0.00809019520242
0.015843714445
0.031786737023
0.0979450111361
0.00288078320323
0.00422819919371
0.00777051073618
0.0157166531925
0.0332661228708
0.0871851938209
0.00285560490823
0.00413851863872
0.00753474443078
0.0153395256376
0.033923730083
0.0909291278046
0.00290475901805
0.00417890062465
0.00737347966262
0.0147954874152
0.0346547418322
0.105285322261
0.00301226135536
0.00431273058187
0.00729186267006
0.0142070025126
0.0336661722461
0.0940209588023
0.00311392332747
0.0044368893559
0.00722367407302
0.0135167596416
0.0316004114824
0.0910661247516
0.00311263253291
0.00443781237164
0.0070901565123
0.0126202048507
0.0262902904643
0.0521420256788
0.00306542132261
0.0043770334837
0.00699038690205
0.0123746647135
0.0268991914715
0.0502225621168
0.00304939941416
0.00434517441033
0.00695718438117
0.0128881005829
0.0345667771791
0.131049371396
0.00304551715395
0.00429523464187
0.00680843139805
0.0130897122298
0.0385380889808
0.143020981387
0.00299200604876
0.00414450930613
0.00648822081823
0.0125157553193
0.0334806765087
0.0824380345044
0.00288720207577
0.00391811397751
0.00618587671206
0.0125305664236
0.0350771740373
0.0909855746814
0.00276849222899
0.00368180476533
0.00600117761709
0.0131498248705
0.0393188702795
0.117088064695
0.00267703972736
0.00349713875759
0.00587331691693
0.0138686895778
0.0437798591823
0.14991206658
0.00262599289544
0.00338108848268
0.00573109469707
0.0142474476594
0.0480250597088
0.16184783106
0.00260131590111
0.00329820013766
0.00544525498952
0.0133115897032
0.0472244250017
0.160927455012
0.00258773332473
0.00322430541386
0.00506629553351
0.0116235869597
0.0431808349771
0.156019595987
0.00479791324534
0.0106109508047
0.0407847825624
0.154363315355
0.00476602690273
0.0107225141762
0.0412507383899
0.156319486815
0.0049409205871
0.0118932977775
0.0453396885732
0.162738863097
)
;

boundaryField
{
    back
    {
        lowReCorrection 0;
        blending        stepwise;
        n               2;
        type            epsilonWallFunction;
        value           nonuniform List<scalar> 
164
(
0.00257876738483
0.00281599557413
0.00420468233996
0.0067848468957
0.0108781363002
0.0170130859033
0.0353449431032
0.178973999245
0.00283386497698
0.00356207631332
0.0054811300881
0.00825984183684
0.0119432103514
0.0170695530555
0.0319207056819
0.151557364448
0.00283485327563
0.00356381711158
0.00548460377478
0.00826422640765
0.0119441793651
0.0170117170606
0.0301880774118
0.134395655273
0.00257920117468
0.00281710020406
0.00420615715042
0.00678432358931
0.0108680245121
0.0168800208435
0.031111539866
0.0985986368385
0.00353377834822
0.00579843314973
0.00990362414726
0.0164835838383
0.0310625224845
0.0818759517144
0.00330635279984
0.00522472378944
0.00913626721777
0.0160997416998
0.0305537198791
0.090626281029
0.00310950674481
0.00475955062593
0.00852304688481
0.0158781315429
0.0310037021772
0.12849069855
0.00296746911234
0.0044356227187
0.00809019520242
0.015843714445
0.031786737023
0.0979450111361
0.00288078320323
0.00422819919371
0.00777051073618
0.0157166531925
0.0332661228708
0.0871851938209
0.00285560490823
0.00413851863872
0.00753474443078
0.0153395256376
0.033923730083
0.0909291278046
0.00290475901805
0.00417890062465
0.00737347966262
0.0147954874152
0.0346547418322
0.105285322261
0.00301226135536
0.00431273058187
0.00729186267006
0.0142070025126
0.0336661722461
0.0940209588023
0.00311392332747
0.0044368893559
0.00722367407302
0.0135167596416
0.0316004114824
0.0910661247516
0.00311263253291
0.00443781237164
0.0070901565123
0.0126202048507
0.0262902904643
0.0521420256788
0.00306542132261
0.0043770334837
0.00699038690205
0.0123746647135
0.0268991914715
0.0502225621168
0.00304939941416
0.00434517441033
0.00695718438117
0.0128881005829
0.0345667771791
0.131049371396
0.00304551715395
0.00429523464187
0.00680843139805
0.0130897122298
0.0385380889808
0.143020981387
0.00299200604876
0.00414450930613
0.00648822081823
0.0125157553193
0.0334806765087
0.0824380345044
0.00288720207577
0.00391811397751
0.00618587671206
0.0125305664236
0.0350771740373
0.0909855746814
0.00276849222899
0.00368180476533
0.00600117761709
0.0131498248705
0.0393188702795
0.117088064695
0.00267703972736
0.00349713875759
0.00587331691693
0.0138686895778
0.0437798591823
0.14991206658
0.00262599289544
0.00338108848268
0.00573109469707
0.0142474476594
0.0480250597088
0.16184783106
0.00260131590111
0.00329820013766
0.00544525498952
0.0133115897032
0.0472244250017
0.160927455012
0.00258773332473
0.00322430541386
0.00506629553351
0.0116235869597
0.0431808349771
0.156019595987
0.00479791324534
0.0106109508047
0.0407847825624
0.154363315355
0.00476602690273
0.0107225141762
0.0412507383899
0.156319486815
0.0049409205871
0.0118932977775
0.0453396885732
0.162738863097
)
;
    }
    sides
    {
        lowReCorrection 0;
        blending        stepwise;
        n               2;
        type            epsilonWallFunction;
        value           nonuniform List<scalar> 0();
    }
    bottom
    {
        lowReCorrection 0;
        blending        stepwise;
        n               2;
        type            epsilonWallFunction;
        value           nonuniform List<scalar> 0();
    }
    front
    {
        lowReCorrection 0;
        blending        stepwise;
        n               2;
        type            epsilonWallFunction;
        value           nonuniform List<scalar> 
164
(
0.00257876738483
0.00281599557413
0.00420468233996
0.0067848468957
0.0108781363002
0.0170130859033
0.0353449431032
0.178973999245
0.00283386497698
0.00356207631332
0.0054811300881
0.00825984183684
0.0119432103514
0.0170695530555
0.0319207056819
0.151557364448
0.00283485327563
0.00356381711158
0.00548460377478
0.00826422640765
0.0119441793651
0.0170117170606
0.0301880774118
0.134395655273
0.00257920117468
0.00281710020406
0.00420615715042
0.00678432358931
0.0108680245121
0.0168800208435
0.031111539866
0.0985986368385
0.00353377834822
0.00579843314973
0.00990362414726
0.0164835838383
0.0310625224845
0.0818759517144
0.00330635279984
0.00522472378944
0.00913626721777
0.0160997416998
0.0305537198791
0.090626281029
0.00310950674481
0.00475955062593
0.00852304688481
0.0158781315429
0.0310037021772
0.12849069855
0.00296746911234
0.0044356227187
0.00809019520242
0.015843714445
0.031786737023
0.0979450111361
0.00288078320323
0.00422819919371
0.00777051073618
0.0157166531925
0.0332661228708
0.0871851938209
0.00285560490823
0.00413851863872
0.00753474443078
0.0153395256376
0.033923730083
0.0909291278046
0.00290475901805
0.00417890062465
0.00737347966262
0.0147954874152
0.0346547418322
0.105285322261
0.00301226135536
0.00431273058187
0.00729186267006
0.0142070025126
0.0336661722461
0.0940209588023
0.00311392332747
0.0044368893559
0.00722367407302
0.0135167596416
0.0316004114824
0.0910661247516
0.00311263253291
0.00443781237164
0.0070901565123
0.0126202048507
0.0262902904643
0.0521420256788
0.00306542132261
0.0043770334837
0.00699038690205
0.0123746647135
0.0268991914715
0.0502225621168
0.00304939941416
0.00434517441033
0.00695718438117
0.0128881005829
0.0345667771791
0.131049371396
0.00304551715395
0.00429523464187
0.00680843139805
0.0130897122298
0.0385380889808
0.143020981387
0.00299200604876
0.00414450930613
0.00648822081823
0.0125157553193
0.0334806765087
0.0824380345044
0.00288720207577
0.00391811397751
0.00618587671206
0.0125305664236
0.0350771740373
0.0909855746814
0.00276849222899
0.00368180476533
0.00600117761709
0.0131498248705
0.0393188702795
0.117088064695
0.00267703972736
0.00349713875759
0.00587331691693
0.0138686895778
0.0437798591823
0.14991206658
0.00262599289544
0.00338108848268
0.00573109469707
0.0142474476594
0.0480250597088
0.16184783106
0.00260131590111
0.00329820013766
0.00544525498952
0.0133115897032
0.0472244250017
0.160927455012
0.00258773332473
0.00322430541386
0.00506629553351
0.0116235869597
0.0431808349771
0.156019595987
0.00479791324534
0.0106109508047
0.0407847825624
0.154363315355
0.00476602690273
0.0107225141762
0.0412507383899
0.156319486815
0.0049409205871
0.0118932977775
0.0453396885732
0.162738863097
)
;
    }
    atmosphere
    {
        type            inletOutlet;
        inletValue      uniform 0.1;
        value           nonuniform List<scalar> 
27
(
0.1
0.1
0.1
0.0985986368385
0.0818759517144
0.090626281029
0.1
0.1
0.1
0.0909291278046
0.105285322261
0.0940209588023
0.1
0.1
0.1
0.1
0.1
0.0824380345044
0.0909855746814
0.117088064695
0.14991206658
0.1
0.1
0.1
0.1
0.1
0.1
)
;
    }
    floatingObject
    {
        lowReCorrection 0;
        blending        stepwise;
        n               2;
        type            epsilonWallFunction;
        value           nonuniform List<scalar> 4(0.00257876738483 0.00283386497698 0.00283485327563 0.00257920117468);
    }
    procBoundary6to3
    {
        type            processor;
        value           nonuniform List<scalar> 8(0.0020044696635 0.0024899908712 0.00353316904037 0.00580132340393 0.00991922990304 0.0166140377981 0.0349833766859 0.184022815971);
    }
    procBoundary6to7
    {
        type            processor;
        value           nonuniform List<scalar> 
11
(
0.00246517946767
0.00242520036165
0.00239465182062
0.00237709817056
0.00236848732351
0.00236411427179
0.00257874982369
0.00316793022017
0.00316793022017
0.00315073959573
0.0031688253681
)
;
    }
    procBoundary6to8
    {
        type            processor;
        value           nonuniform List<scalar> 
16
(
0.00200496284819
0.002490763906
0.002490763906
0.00252329149379
0.00250570581286
0.00247549696331
0.00245368697255
0.00244904537474
0.00246945748531
0.00251271326221
0.0025544527058
0.0025496841158
0.00252707882502
0.00252069467356
0.00252120611115
0.00250222142885
)
;
    }
    procBoundary6to9
    {
        type            processor;
        value           nonuniform List<scalar> 4(0.00510397643323 0.0128783240177 0.0477003638818 0.164247010969);
    }
}


// ************************************************************************* //
