/*--------------------------------*- C++ -*----------------------------------*\
| =========                 |                                                 |
| \\      /  F ield         | OpenFOAM: The Open Source CFD Toolbox           |
|  \\    /   O peration     | Version:  v2012                                 |
|   \\  /    A nd           | Website:  www.openfoam.com                      |
|    \\/     M anipulation  |                                                 |
\*---------------------------------------------------------------------------*/
FoamFile
{
    version     2.0;
    format      ascii;
    class       volScalarField;
    location    "3.2";
    object      k;
}
// * * * * * * * * * * * * * * * * * * * * * * * * * * * * * * * * * * * * * //

dimensions      [0 2 -2 0 0 0 0];


internalField   nonuniform List<scalar> 
164
(
0.00384094670079
0.00492834088985
0.00641951778611
0.00879623346124
0.0120133568443
0.0161992564202
0.0267063988782
0.0780401495019
0.00408800535308
0.00576018478984
0.00765315679227
0.0100293206397
0.0127971947269
0.016248913776
0.0250214508619
0.0708381825923
0.004088978372
0.00576209201616
0.00765646856062
0.010032931261
0.0127975228958
0.016203565516
0.0241216926818
0.0668638616651
0.00384136019174
0.00492962848294
0.00642098690318
0.00879553516219
0.0120044669421
0.0160894938436
0.0242284305732
0.052053173022
0.0057127837396
0.00791325499264
0.0112687248774
0.0158099668299
0.0240578794852
0.0455264004262
0.00546854217171
0.0073832586324
0.0106730512781
0.0155452187885
0.0239279827038
0.0499935624775
0.00525531975534
0.00694395139626
0.0101882811354
0.0153890398911
0.0244260931565
0.0644441369103
0.0050985411473
0.00663088304486
0.0098396075816
0.0153410831557
0.0245735985862
0.0564090843653
0.00500268856197
0.00642874664904
0.00958056035553
0.0152425592276
0.0251144836145
0.0521463279118
0.0049769663433
0.00634431168689
0.00939327983556
0.0150013288113
0.0253622936609
0.0479074037825
0.00503574220685
0.00639111606171
0.00927272515561
0.014669852051
0.0257354870772
0.0517735680642
0.00515810040661
0.00652911556614
0.00921917814123
0.0143062029337
0.0252559313837
0.0490712739074
0.00526949970067
0.0066528916676
0.00917280312921
0.0138655325028
0.0242526041473
0.0512928416502
0.00526875324792
0.00665673055248
0.0090721046495
0.0132929619741
0.0216595210385
0.0389806171799
0.00521981971953
0.00660344831463
0.00900228242609
0.0131810267921
0.0222273185318
0.035863056477
0.0052043088402
0.00657667109009
0.00898467780349
0.0135787284361
0.0263681320983
0.0656649779673
0.0051992875425
0.0065271563604
0.00886340766357
0.0137234227718
0.0281022337702
0.0681255415839
0.00513774188935
0.00637529978387
0.00859509598959
0.013350897821
0.0256350850803
0.0462368794357
0.00501821698619
0.00614597321566
0.00834412116133
0.0134112606342
0.0265161167595
0.0491783099045
0.00488332101069
0.00590619315235
0.0082022625734
0.0139070655765
0.02865915228
0.0575646468608
0.00477868126615
0.00571754044981
0.00811493967979
0.014487824883
0.0309204999265
0.0672616844132
0.0047204260998
0.00559897210751
0.00800946030651
0.0148293422754
0.0329608720237
0.0740893433111
0.00469238515736
0.00551154039048
0.00775671265043
0.0142779143376
0.0331450167509
0.0742179683995
0.00467671308173
0.0054299895233
0.00739988026458
0.0131625345498
0.0319221188015
0.0733395226223
0.00714314911871
0.0124508627435
0.0310212545531
0.0730191523547
0.00711931258784
0.0125350051651
0.0311600217096
0.0734686965795
0.0073011137804
0.0133786924616
0.0328385287129
0.0749388946422
)
;

boundaryField
{
    back
    {
        type            kqRWallFunction;
        value           nonuniform List<scalar> 
164
(
0.00384094670079
0.00492834088985
0.00641951778611
0.00879623346124
0.0120133568443
0.0161992564202
0.0267063988782
0.0780401495019
0.00408800535308
0.00576018478984
0.00765315679227
0.0100293206397
0.0127971947269
0.016248913776
0.0250214508619
0.0708381825923
0.004088978372
0.00576209201616
0.00765646856062
0.010032931261
0.0127975228958
0.016203565516
0.0241216926818
0.0668638616651
0.00384136019174
0.00492962848294
0.00642098690318
0.00879553516219
0.0120044669421
0.0160894938436
0.0242284305732
0.052053173022
0.0057127837396
0.00791325499264
0.0112687248774
0.0158099668299
0.0240578794852
0.0455264004262
0.00546854217171
0.0073832586324
0.0106730512781
0.0155452187885
0.0239279827038
0.0499935624775
0.00525531975534
0.00694395139626
0.0101882811354
0.0153890398911
0.0244260931565
0.0644441369103
0.0050985411473
0.00663088304486
0.0098396075816
0.0153410831557
0.0245735985862
0.0564090843653
0.00500268856197
0.00642874664904
0.00958056035553
0.0152425592276
0.0251144836145
0.0521463279118
0.0049769663433
0.00634431168689
0.00939327983556
0.0150013288113
0.0253622936609
0.0479074037825
0.00503574220685
0.00639111606171
0.00927272515561
0.014669852051
0.0257354870772
0.0517735680642
0.00515810040661
0.00652911556614
0.00921917814123
0.0143062029337
0.0252559313837
0.0490712739074
0.00526949970067
0.0066528916676
0.00917280312921
0.0138655325028
0.0242526041473
0.0512928416502
0.00526875324792
0.00665673055248
0.0090721046495
0.0132929619741
0.0216595210385
0.0389806171799
0.00521981971953
0.00660344831463
0.00900228242609
0.0131810267921
0.0222273185318
0.035863056477
0.0052043088402
0.00657667109009
0.00898467780349
0.0135787284361
0.0263681320983
0.0656649779673
0.0051992875425
0.0065271563604
0.00886340766357
0.0137234227718
0.0281022337702
0.0681255415839
0.00513774188935
0.00637529978387
0.00859509598959
0.013350897821
0.0256350850803
0.0462368794357
0.00501821698619
0.00614597321566
0.00834412116133
0.0134112606342
0.0265161167595
0.0491783099045
0.00488332101069
0.00590619315235
0.0082022625734
0.0139070655765
0.02865915228
0.0575646468608
0.00477868126615
0.00571754044981
0.00811493967979
0.014487824883
0.0309204999265
0.0672616844132
0.0047204260998
0.00559897210751
0.00800946030651
0.0148293422754
0.0329608720237
0.0740893433111
0.00469238515736
0.00551154039048
0.00775671265043
0.0142779143376
0.0331450167509
0.0742179683995
0.00467671308173
0.0054299895233
0.00739988026458
0.0131625345498
0.0319221188015
0.0733395226223
0.00714314911871
0.0124508627435
0.0310212545531
0.0730191523547
0.00711931258784
0.0125350051651
0.0311600217096
0.0734686965795
0.0073011137804
0.0133786924616
0.0328385287129
0.0749388946422
)
;
    }
    sides
    {
        type            kqRWallFunction;
        value           nonuniform List<scalar> 0();
    }
    bottom
    {
        type            kqRWallFunction;
        value           nonuniform List<scalar> 0();
    }
    front
    {
        type            kqRWallFunction;
        value           nonuniform List<scalar> 
164
(
0.00384094670079
0.00492834088985
0.00641951778611
0.00879623346124
0.0120133568443
0.0161992564202
0.0267063988782
0.0780401495019
0.00408800535308
0.00576018478984
0.00765315679227
0.0100293206397
0.0127971947269
0.016248913776
0.0250214508619
0.0708381825923
0.004088978372
0.00576209201616
0.00765646856062
0.010032931261
0.0127975228958
0.016203565516
0.0241216926818
0.0668638616651
0.00384136019174
0.00492962848294
0.00642098690318
0.00879553516219
0.0120044669421
0.0160894938436
0.0242284305732
0.052053173022
0.0057127837396
0.00791325499264
0.0112687248774
0.0158099668299
0.0240578794852
0.0455264004262
0.00546854217171
0.0073832586324
0.0106730512781
0.0155452187885
0.0239279827038
0.0499935624775
0.00525531975534
0.00694395139626
0.0101882811354
0.0153890398911
0.0244260931565
0.0644441369103
0.0050985411473
0.00663088304486
0.0098396075816
0.0153410831557
0.0245735985862
0.0564090843653
0.00500268856197
0.00642874664904
0.00958056035553
0.0152425592276
0.0251144836145
0.0521463279118
0.0049769663433
0.00634431168689
0.00939327983556
0.0150013288113
0.0253622936609
0.0479074037825
0.00503574220685
0.00639111606171
0.00927272515561
0.014669852051
0.0257354870772
0.0517735680642
0.00515810040661
0.00652911556614
0.00921917814123
0.0143062029337
0.0252559313837
0.0490712739074
0.00526949970067
0.0066528916676
0.00917280312921
0.0138655325028
0.0242526041473
0.0512928416502
0.00526875324792
0.00665673055248
0.0090721046495
0.0132929619741
0.0216595210385
0.0389806171799
0.00521981971953
0.00660344831463
0.00900228242609
0.0131810267921
0.0222273185318
0.035863056477
0.0052043088402
0.00657667109009
0.00898467780349
0.0135787284361
0.0263681320983
0.0656649779673
0.0051992875425
0.0065271563604
0.00886340766357
0.0137234227718
0.0281022337702
0.0681255415839
0.00513774188935
0.00637529978387
0.00859509598959
0.013350897821
0.0256350850803
0.0462368794357
0.00501821698619
0.00614597321566
0.00834412116133
0.0134112606342
0.0265161167595
0.0491783099045
0.00488332101069
0.00590619315235
0.0082022625734
0.0139070655765
0.02865915228
0.0575646468608
0.00477868126615
0.00571754044981
0.00811493967979
0.014487824883
0.0309204999265
0.0672616844132
0.0047204260998
0.00559897210751
0.00800946030651
0.0148293422754
0.0329608720237
0.0740893433111
0.00469238515736
0.00551154039048
0.00775671265043
0.0142779143376
0.0331450167509
0.0742179683995
0.00467671308173
0.0054299895233
0.00739988026458
0.0131625345498
0.0319221188015
0.0733395226223
0.00714314911871
0.0124508627435
0.0310212545531
0.0730191523547
0.00711931258784
0.0125350051651
0.0311600217096
0.0734686965795
0.0073011137804
0.0133786924616
0.0328385287129
0.0749388946422
)
;
    }
    atmosphere
    {
        type            inletOutlet;
        inletValue      uniform 0.1;
        value           nonuniform List<scalar> 
27
(
0.1
0.1
0.1
0.052053173022
0.0455264004262
0.0499935624775
0.1
0.1
0.1
0.0479074037825
0.0517735680642
0.0490712739074
0.1
0.1
0.1
0.1
0.1
0.0462368794357
0.0491783099045
0.0575646468608
0.0672616844132
0.1
0.1
0.1
0.1
0.1
0.1
)
;
    }
    floatingObject
    {
        type            kqRWallFunction;
        value           nonuniform List<scalar> 4(0.00384094670079 0.00408800535308 0.004088978372 0.00384136019174);
    }
    procBoundary6to3
    {
        type            processor;
        value           nonuniform List<scalar> 8(0.00393173996107 0.0045370559467 0.00571223913897 0.0079162509044 0.0112823254827 0.0159214805079 0.0265859489903 0.0778260299236);
    }
    procBoundary6to7
    {
        type            processor;
        value           nonuniform List<scalar> 
11
(
0.00451963338101
0.00447139187111
0.00443475433142
0.00441375097901
0.00440355348363
0.00439842039087
0.00466617654669
0.00536723910187
0.00536723910187
0.00534969931343
0.00537300655563
)
;
    }
    procBoundary6to8
    {
        type            processor;
        value           nonuniform List<scalar> 
16
(
0.00393235434063
0.0045379477256
0.0045379477256
0.0045816386686
0.00456358356002
0.00452877320436
0.00450348166718
0.00449895639502
0.00452461146766
0.00457685359411
0.00462550118496
0.00462003886772
0.00459446435935
0.00458759892362
0.00458777616243
0.0045644757783
)
;
    }
    procBoundary6to9
    {
        type            processor;
        value           nonuniform List<scalar> 4(0.00746983649896 0.0140703061953 0.0336225035288 0.0751642129971);
    }
}


// ************************************************************************* //
