/*--------------------------------*- C++ -*----------------------------------*\
| =========                 |                                                 |
| \\      /  F ield         | OpenFOAM: The Open Source CFD Toolbox           |
|  \\    /   O peration     | Version:  v2012                                 |
|   \\  /    A nd           | Website:  www.openfoam.com                      |
|    \\/     M anipulation  |                                                 |
\*---------------------------------------------------------------------------*/
FoamFile
{
    version     2.0;
    format      ascii;
    class       volScalarField;
    location    "0.3";
    object      alpha.water;
}
// * * * * * * * * * * * * * * * * * * * * * * * * * * * * * * * * * * * * * //

dimensions      [0 0 0 0 0 0 0];


internalField   nonuniform List<scalar> 
1984
(
1.00000002346
1.00000002612
1.00000002673
1.0000000265
1.00000002615
1.00000003691
1.00000004896
1.00000005757
1.00000007832
1.00000005058
1.00000005226
1.00000005199
1.00000004685
1.00000003993
1.00000002941
1.00000001774
1
0.99999999998
0.999999988765
0.880448907769
1.00000002614
1.00000002824
1.00000002861
1.00000002798
1.00000002721
1.00000003644
1.00000005157
1.00000005431
1.00000009474
1.00000005879
1.00000005656
1.00000005449
1.0000000494
1.00000003894
1.00000002793
1.00000001283
1
0.999999999966
0.999999987369
0.88049741189
1.00000002703
1.00000002891
1.00000002889
1.00000002792
1.00000002663
1.00000003503
1.00000003906
1.00000007198
1.00000007988
1.00000008025
1.00000006255
1.00000005749
1.00000004838
1.00000003749
1.0000000224
1.00000000685
0.999999996463
0.999999996829
0.999999983595
0.878872675312
1.00000002718
1.00000002881
1.00000002832
1.00000002668
1.00000002449
1.00000002645
1.00000004073
1.00000004722
1.00000012739
1.0000000954
1.00000007524
1.00000005926
1.00000004747
1.00000003244
1.00000001635
0.9999999989
0.999999985337
0.999999985753
0.999999971928
0.876973238339
1.00000002717
1.00000002849
1.00000002741
1.00000002499
1.00000002196
1.00000002066
1.00000002733
1.00000004722
1.0000000708
1.000000134
1.00000010999
1.00000005889
1.00000004364
1.00000002722
1.00000000807
0.999999990143
0.999999975568
0.999999976038
0.999999961245
0.874444946798
1.00000002718
1.00000002811
1.00000002635
1.00000002307
1.00000001941
1.00000001689
1.00000001965
1.00000003993
1.00000006298
1.00000008148
1.00000010697
1.00000005516
1.0000000393
1.00000002093
1.00000000081
0.99999998222
0.999999968138
0.999999968652
0.999999952569
0.871285531029
1.00000002719
1.00000002769
1.00000002521
1.000000021
1.00000001659
1.00000001366
1.00000001524
1.00000003282
1.00000005712
1.00000007294
1.00000009938
1.00000005071
1.00000003454
1.00000001559
0.999999995673
0.999999975725
0.999999963257
0.999999963874
0.999999946097
0.867471505044
1.00000002713
1.0000000272
1.00000002404
1.00000001893
1.00000001361
1.00000001022
1.00000001133
1.00000002713
1.00000004995
1.00000006635
1.00000008969
1.00000004591
1.00000003009
1.00000001122
0.999999991596
0.999999971909
0.999999961672
0.999999962072
0.999999942245
0.862975118536
1.00000002692
1.00000002659
1.00000002285
1.00000001697
1.00000001083
1.00000000676
1.00000000764
1.00000002162
1.00000004455
1.0000000587
1.00000008139
1.00000004146
1.00000002631
1.0000000079
0.999999988861
0.99999996988
0.999999961655
0.99999996174
0.999999939338
0.857765538493
1.00000002649
1.00000002581
1.00000002161
1.00000001517
1.00000000834
1.00000000375
1.00000000415
1.00000001742
1.00000003792
1.0000000531
1.00000007197
1.00000003705
1.00000002287
1.00000000529
0.999999987145
0.999999969006
0.999999961655
0.999999961853
0.99999993603
0.851808038526
1.00000002582
1.00000002484
1.00000002034
1.00000001352
1.00000000627
1.00000000114
1.00000000129
1.00000001305
1.00000003347
1.00000004581
1.0000000644
1.00000003301
1.00000001989
1.00000000339
0.999999986311
0.999999969235
0.999999961731
0.99999996234
0.999999932107
0.845063005615
1.00000002491
1.00000002372
1.00000001907
1.00000001212
1.00000000465
0.999999999349
0.99999999897
1.00000001004
1.0000000271
1.00000004044
1.00000005488
1.00000002874
1.000000017
1.00000000205
0.99999998626
0.999999970588
0.99999996365
0.999999965209
0.999999929237
0.837485050136
1.00000002382
1.00000002249
1.0000000179
1.00000001107
1.00000000367
0.999999998065
0.9999999973
1.00000000622
1.00000002259
1.00000003227
1.000000047
1.00000002488
1.00000001474
1.00000000151
0.999999987252
0.999999973379
0.999999967931
0.999999969712
0.999999926866
0.829022078565
1.00000002259
1.0000000212
1.00000001683
1.00000001032
1.00000000293
0.999999996974
0.999999995151
1.00000000163
1.00000001358
1.00000002783
1.00000003548
1.00000002296
1.00000001504
1.00000000487
0.999999990416
0.999999978219
0.999999973025
0.999999975128
0.999999923495
0.819614229473
1.00000002114
1.00000001968
1.00000001561
1.00000000926
1.00000000147
0.999999996285
0.999999990451
0.999999992413
1.00000001083
1.00000001179
1.00000004
1.00000002351
1.00000002227
1.00000000692
0.999999997242
0.999999978454
0.999999976285
0.999999976445
0.99999991474
0.809192654643
1.00000002168
1.00000002002
1.00000001438
1.00000000713
1.00000000609
0.999999990863
0.999999981032
0.999999988603
0.999999992868
1.00000002041
1.00000001963
1.00000002779
1.00000001899
1.00000001489
0.999999996441
0.999999986581
0.999999975642
0.999999975558
0.999999900026
0.797678035051
1.00000002331
1.00000001853
1.00000001367
1.00000001678
0.999999993988
0.999999990259
0.99999998221
0.999999966489
0.999999997392
1.00000000856
1.00000003262
1.00000003355
1.00000003513
1.00000002035
1.00000000681
0.999999983136
0.999999976217
0.999999978105
0.999999883999
0.784978773115
1.00000002101
1.00000001983
1.00000001932
1.00000000025
1.0000000041
0.999999985491
0.999999979173
0.999999985547
0.999999997372
1.00000000464
1.00000001409
1.00000001748
1.00000001905
1.0000000142
1.00000000775
0.999999998654
0.999999997267
0.999999996902
0.999999879778
0.770988825766
1.00000002913
1.00000002502
1.00000001813
1.00000000858
0.999999998434
0.999999992704
0.999999988951
0.999999991651
0.999999996989
1.00000000361
1.00000001042
1.000000015
1.00000001708
1.00000001559
1.0000000112
1
0.999999999996
0.999999998871
0.999999853547
0.755584938742
1.00000001331
1.00000001201
1.00000001687
1.00000000445
0.999999997376
0.999999992635
0.999999990874
0.999999991665
0.999999996081
1.00000000185
1.00000000817
1.000000013
1.00000001608
1.0000000161
1.00000001344
1
0.999999999994
0.999999998434
0.999999815112
0.738623218761
1.00000000897
1.00000000771
1.00000000579
1.00000000031
0.999999995339
0.999999991325
0.999999989623
0.999999990411
0.999999994066
0.999999999485
1.00000000539
1.00000001063
1.00000001433
1.00000001566
1.000000014
1
0.999999999993
0.999999997714
0.999999764742
0.719934896462
1.00000000725
1.00000000608
1.00000000297
0.999999998459
0.9999999937
0.999999989821
0.999999987889
0.999999988398
0.999999991409
0.999999996419
1.00000000222
1.00000000769
1.00000001194
1.00000001415
1.00000001314
1
0.999999999991
0.999999996626
0.999999698684
0.69932093645
1.00000000912
1.00000000731
1.00000000335
0.99999999803
0.999999992111
0.99999998695
0.999999983752
0.999999983256
0.999999985575
0.999999990815
0.99999999792
1.00000000495
1.0000000108
1.00000001435
1.00000001378
1
0.999999999989
0.999999995176
0.999999612063
0.676545197986
1.00000001287
1.00000001002
1.00000000442
0.999999997083
0.99999998862
0.999999981255
0.999999976179
0.999999972474
0.999999977137
0.999999984636
0.999999995119
1.00000000501
1.00000001291
1.00000001776
1.00000001681
1
0.999999999987
0.999999993146
0.999999498071
0.651325718315
1.00000001472
1.00000001132
1.00000000486
0.999999996026
0.999999986223
0.99999997697
0.99999996613
0.999999964418
0.999999965519
0.999999980495
0.999999994605
1.00000000618
1.00000001553
1.00000002134
1.00000001961
1
0.999999999985
0.99999999176
0.999999347123
0.62332352707
1.0000000206
1.00000001653
1.00000000798
0.999999996171
0.999999982056
0.999999966137
0.999999950172
0.999999938298
0.99999993818
0.999999970602
0.999999993255
1.00000001013
1.00000002502
1.00000003477
1.00000003243
1
0.999999999989
0.999999987529
0.999999150532
0.592128183867
1.00000001137
1.00000000852
1.00000000296
0.99999999562
0.999999987154
0.999999976005
0.999999968754
0.999999962979
0.999999953653
0.999999990485
1.00000000272
1.00000001603
1.00000002768
1.00000003524
1.00000002882
1
1
0.99999998108
0.999998878528
0.557239732194
1.00000000787
1.00000000488
1.00000000017
0.999999993802
0.999999987218
0.999999981181
0.999999976949
0.999999976802
0.999999974455
0.999999995815
1.00000001159
1.00000002811
1.00000004003
1.00000004734
1.00000003547
1
1.00000000003
0.999999973157
0.999998516376
0.518045325589
1.00000000457
1.00000000145
0.999999996633
0.999999990839
0.999999985455
0.999999981653
0.999999980755
0.999999987833
1.00000000052
1.00000001732
1.00000003175
1.00000004231
1.00000005442
1.00000006097
1.00000004121
1
1.00000000012
0.999999962131
0.999998030457
0.473803013793
1.00000000098
0.999999997298
0.999999992508
0.999999987346
0.999999983062
0.999999981087
0.999999983637
0.999999995776
1.00000001521
1.00000003432
1.00000005345
1.00000005661
1.00000006824
1.00000007311
1.00000004273
1
1.00000000012
0.99999994701
0.999500136461
0.424138669241
0.999999996552
0.999999992547
0.999999988124
0.999999983674
0.999999980596
0.999999980594
0.999999986363
1.00000000177
1.00000002756
1.00000004989
1.00000007422
1.0000000695
1.00000007983
1.00000008194
1.00000003692
1
1.00000000017
0.999999920383
0.996668237388
0.369830044317
0.999999991789
0.999999987735
0.999999983659
0.999999980017
0.9999999782
0.999999980212
0.999999988425
1.00000000788
1.0000000384
1.00000006361
1.00000009252
1.00000007972
1.00000008789
1.00000008591
1.00000001887
1.00000000001
1.00000000029
0.99999987135
0.990025574953
0.311134468695
0.999999987117
0.99999998301
0.999999979298
0.999999976437
0.999999975873
0.999999979631
0.999999990004
1.00000001275
1.00000004693
1.00000007415
1.00000010663
1.00000008607
1.00000009131
1.00000008366
1
1.00000000003
0.99999999721
0.999999775638
0.9773130378
0.249229581491
0.999999982699
0.999999978552
0.999999975146
0.999999972928
0.999999973421
0.999999978511
0.99999999049
1.00000001566
1.00000005191
1.00000007988
1.00000011452
1.00000008745
1.00000008928
1.00000007585
1
1.00000000012
1.00000000958
0.999999617945
0.955446657026
0.186187949416
0.999999978682
0.99999997447
0.999999971244
0.99999996943
0.999999970601
0.999999976545
0.999999989465
1.0000000158
1.0000000522
1.0000000794
1.00000011433
1.00000008311
1.00000008142
1.00000006256
1
1.00000000005
1.00000001435
0.999999396885
0.920401557664
0.124924467226
0.99999997497
0.999999970648
0.999999967434
0.999999965678
0.999999967266
0.999999973491
0.999999986622
1.00000001305
1.00000004753
1.00000007235
1.00000010529
1.00000007321
1.00000006833
1.0000000454
1
1.00000000002
0.999999991135
0.999999015601
0.867888866093
0.0693668589937
0.999999971366
0.999999966744
0.999999963265
0.999999961342
0.999999962808
0.999999969047
0.999999982114
1.00000000853
1.0000000395
1.00000006059
1.00000008906
1.00000005935
1.0000000517
1.00000002565
1
1.00000000018
0.99999997918
0.99999852144
0.794129043287
0.0206696997016
0.999999969847
0.999999964477
0.999999960399
0.999999958244
0.999999957078
0.999999964104
0.999999978662
1.00000000493
1.00000003197
1.0000000492
1.00000007058
1.00000004475
1.00000003462
1.0000000142
1.00000000001
1.00000000352
0.999999978069
0.999998108796
0.685547775908
0
0.9999999694
0.999999963721
0.999999959202
0.999999955612
0.999999956035
0.999999963407
0.99999998018
1.00000000593
1.00000003252
1.00000005108
1.00000006122
1.00000003744
1.00000002478
1.00000001059
1.00000000003
1.0000000028
0.999999983741
0.999089772113
0.550916775418
0
0.999999959136
0.999999954041
0.999999949791
0.99999994634
0.999999954984
0.999999964423
0.999999989399
1.00000002412
1.00000006026
1.00000005073
1.00000009105
1.0000000345
1.00000002083
0.999999994766
0.999999982865
0.999999996559
0.999999985622
0.988656579175
0.417689369875
0
0.999999938872
0.999999932203
0.999999928739
0.999999929355
0.999999943333
0.999999963779
1.00000001325
1.00000004661
1.00000005557
1.00000008736
1.00000008777
1.00000004154
0.999999989897
0.999999943701
0.999999931617
0.999999982418
0.999999956848
0.966490722044
0.302307231988
0
0.999999921216
0.999999910283
0.999999879468
0.999999883291
0.999999903406
0.999999977145
1.00000001425
1.0000000628
1.00000010336
1.00000010548
1.00000011476
1.0000000636
0.999999983579
0.999999880951
0.999999909191
0.99999997351
0.99999996948
0.938821237484
0.214124471368
0
0.999999867834
0.999999829984
0.999999818927
0.999999813315
0.999999831682
0.999999889587
1.00000001437
1.00000005781
1.00000009151
1.00000010059
1.00000009492
1.00000005171
0.999999984834
0.999999870908
0.999999900755
0.999999973514
0.999999973518
0.918184674169
0.156384581786
6.2654335953e-22
0.999999897162
0.999999876265
0.999999862911
0.999999861661
0.999999844605
0.999999955679
1.00000002362
1.00000006774
1.00000009882
1.00000010914
1.00000009732
1.00000005884
1.00000001991
0.999999884482
0.999999913416
0.999999973518
0.999999973515
0.926007054924
0.169737693061
-3.8486875723e-23
0.999999897507
0.999999891984
0.999999891789
0.999999909522
0.999999940285
0.999999989389
1.00000003983
1.00000008248
1.00000011169
1.00000011894
1.00000010214
1.00000006025
1.00000002184
0.999999932443
0.999999866014
0.999999968419
0.999999973512
0.978085314021
0.250481073176
1.40770515734e-21
0.999999878827
0.999999872873
0.999999887121
0.999999915853
0.999999960909
1.00000000235
1.0000000512
1.00000009242
1.00000012104
1.00000012463
1.00000010087
1.00000005472
1.000000016
0.999999893007
0.999999866006
0.99999995554
0.999999978355
0.999999994509
0.441253521046
0.000920172081082
0.999999871732
0.999999871732
0.999999888033
0.999999921285
0.999999966933
1.00000000861
1.00000005505
1.00000010061
1.0000001247
1.00000012023
1.00000008996
1.00000004114
0.99999997802
0.99999981682
0.999999886352
0.9999999762
0.999999971677
1
0.713483246493
0.0133082734637
0.999999876265
0.999999878334
0.99999989772
0.999999929054
0.999999971407
1.00000001018
1.00000005846
1.00000008086
1.00000007503
1.00000005828
1.00000002603
1.0000000219
0.999999808435
0.999999772558
0.999999954012
1.00000003334
1.00000004022
1
1
0.0591972015835
0.999999887176
0.999999891831
0.999999909171
0.99999993727
0.999999974154
1.00000001117
1.00000004099
1.00000002422
0.999999772563
0.999999772745
0.99999996462
1.00000010657
1.00000019151
1
1
0.195041796193
0.999999887406
0.999999894743
0.999999912045
0.99999993862
0.999999972678
1.00000000489
1.00000003317
1.00000002347
0.999999775192
0.999999907022
1.00000003012
1.00000018042
1.00000027994
1
1
0.731504271677
0.999999886406
0.999999891615
0.999999909516
0.999999938123
0.999999974703
1.00000001156
1.00000003916
1.00000003601
0.999999756041
0.999999940923
1.00000003551
1.00000014916
1.00000020964
1
1
0.731504411429
0.999999886919
0.999999889963
0.999999908492
0.999999941185
0.999999980677
1.00000001767
1.00000005712
1.00000003563
0.999999708898
0.999999803729
0.999999996049
1.00000006627
1.00000010343
1
1
0.195042054272
0.999999846807
0.999999843778
0.999999862038
0.999999908555
0.99999996429
1.00000002035
1.00000006349
1.00000008212
1.00000006664
1.00000002683
0.999999989016
0.999999934826
0.999999721015
0.999999715774
0.999999840704
0.999999994157
1.00000001757
1
1
0.0591971979094
0.999999905056
0.999999903509
0.999999919512
0.999999949292
0.999999982643
1.00000001903
1.00000004687
1.00000005747
1.00000004669
1.00000001261
0.9999999809
0.999999954944
0.99999984359
0.999999715774
0.999999715774
0.999999963424
1
1
0.713483084694
0.0133082239767
0.999999905056
0.999999902679
0.999999917806
0.999999948151
0.999999982411
1.00000001797
1.00000004528
1.00000005557
1.00000004491
1.000000013
0.999999982068
0.999999964971
0.999999829094
0.999999715774
0.999999715774
0.999999922554
1
1.00000000206
0.441253365396
0.000920159827489
0.999999890582
0.99999989058
0.999999910086
0.999999942927
0.999999978832
1.00000001403
1.00000004137
1.00000005263
1.00000004479
1.00000001779
0.999999988931
0.999999969352
0.99999980728
0.999999715774
0.999999746057
0.999999935989
0.999999998957
0.978085556313
0.250481086387
-1.03777160561e-21
0.999999880203
0.99999988315
0.99999990501
0.999999937589
0.999999972652
1.00000000668
1.00000003388
1.00000004692
1.00000004312
1.0000000226
0.999999997873
0.999999967844
0.999999881845
0.999999737965
0.999999778376
0.999999937037
0.999999994631
0.926007518278
0.169737876163
2.44461511648e-21
0.999999879889
0.999999883182
0.999999904416
0.999999934579
0.999999966898
0.999999998976
1.00000002445
1.00000003908
1.00000003962
1.00000002609
1.00000000717
0.999999972058
0.999999919322
0.999999903684
0.999999909618
0.999999947659
0.99999998187
0.91818448353
0.15638480468
9.70834312266e-22
0.999999883416
0.999999893396
0.999999910933
0.999999936512
0.999999964395
0.999999992079
1.00000001551
1.00000003071
1.00000003489
1.00000002802
1.00000001416
0.999999988702
0.999999962166
0.999999972296
1
1
0.999999999272
0.938821365398
0.214124589815
-2.9398934327e-25
0.99999990474
0.999999911657
0.999999924855
0.999999944377
0.99999996623
0.999999988709
1.0000000088
1.00000002343
1.00000003019
1.00000002866
1.00000001992
1.00000000485
0.999999996546
0.999999989407
1.00000000331
1
1
0.966490817205
0.302307272184
1.99295781593e-42
0.999999929777
0.999999935494
0.999999943907
0.999999956156
0.999999971309
0.999999987975
1.00000000422
1.00000001782
1.0000000263
1.00000002891
1.00000002503
1.00000001702
1.0000000111
1.00000000185
1
1.00000000009
1.00000001456
0.988656763891
0.417689450834
9.41147719171e-24
0.999999956244
0.999999959255
0.999999962687
0.999999968013
0.999999976905
0.999999988221
1.00000000197
1.00000001494
1.00000002426
1.00000002932
1.00000002825
1.00000002479
1.0000000187
1.00000000777
1
1.00000000821
0.999999997008
0.999089812733
0.550916910668
1.24559863496e-42
0.999999972698
0.99999997366
0.999999974106
0.99999997622
0.9999999813
0.999999990402
1.00000000321
1.00000001487
1.00000002585
1.00000003113
1.00000003042
1.00000002659
1.00000002066
1.00000000833
1
1.00000000657
0.999999982658
0.999998110858
0.685547899337
-3.50324616081e-44
0.999999978385
0.999999978012
0.999999976522
0.999999976096
0.99999997924
0.999999988049
0.999999999718
1.00000001544
1.0000000267
1.00000003332
1.00000003513
1.00000003389
1.00000002187
1.00000000485
1
1.00000000171
0.999999979404
0.999998520965
0.794129136888
0.0206697128079
1.00000000139
1.00000000156
1.00000000011
0.999999998569
0.999999998157
1.0000000003
1.0000000053
1.00000001253
1.00000002748
1.00000003723
1.00000004238
1.00000004514
1.0000000301
1.00000001224
1
1.00000000018
0.999999990906
0.999999011676
0.867888923312
0.0693668973919
1.00000000566
1.00000000474
1.00000000317
1.00000000175
1.00000000161
1.00000000335
1.00000000699
1.00000001217
1.00000001789
1.00000002292
1.00000002919
1.00000004078
1.00000004064
1.00000002454
0.999999995615
0.999999997312
1.00000000927
0.999999388879
0.92040158855
0.124924528123
1.0000000064
1.00000000562
1.00000000439
1.00000000344
1.00000000357
1.00000000515
1.0000000083
1.00000001267
1.00000001725
1.00000002125
1.00000002524
1.0000000299
1.00000003417
1.00000002939
0.999999993862
0.999999995086
1.00000000235
0.99999960826
0.955446666012
0.186188029159
1.00000000586
1.00000000532
1.00000000442
1.00000000386
1.00000000418
1.00000000578
1.0000000088
1.0000000128
1.00000001704
1.00000002083
1.00000002436
1.00000002917
1.00000003319
1.0000000279
0.999999996138
0.999999997347
0.999999992039
0.999999768094
0.977313016824
0.249229674639
1.00000000487
1.00000000459
1.00000000403
1.00000000362
1.00000000397
1.00000000552
1.00000000831
1.00000001204
1.0000000161
1.00000001982
1.00000002309
1.00000002788
1.00000003243
1.00000002945
0.999999998489
0.999999998818
0.999999995999
0.999999863167
0.990025549023
0.311134558162
1.0000000042
1.00000000424
1.00000000372
1.00000000323
1.0000000034
1.00000000458
1.00000000693
1.00000001023
1.00000001396
1.00000001743
1.00000002036
1.00000002465
1.00000002837
1.00000002663
1
0.99999999999
0.99999999895
0.999999916598
0.996668212779
0.36983012238
1.00000000431
1.00000000452
1.00000000385
1.00000000305
1.00000000269
1.00000000321
1.00000000484
1.00000000749
1.00000001067
1.00000001373
1.0000000162
1.00000001942
1.0000000212
1.00000002009
1
0.999999999998
1.00000000004
0.999999945074
0.999500125447
0.424138722828
1.00000000555
1.00000000575
1.00000000472
1.00000000326
1.00000000204
1.00000000159
1.00000000226
1.00000000404
1.00000000657
1.00000000917
1.00000001121
1.00000001302
1.00000001341
1.00000001209
1
0.999999999999
0.999999999758
0.999999960107
0.999998026272
0.473803044864
1.00000001024
1.00000000953
1.00000000737
1.00000000442
1.00000000146
0.999999999353
0.999999998568
0.999999999243
1.00000000114
1.00000000378
1.00000000615
1.00000000764
1.00000000791
1.00000000663
0.999999999375
0.999999998998
0.999999998979
0.999999970387
0.999998511138
0.518045342914
1.00000001582
1.00000001406
1.00000001019
1.00000000507
0.999999999891
0.99999999576
0.999999993502
0.999999993607
0.999999995992
0.999999999368
1.00000000279
1.00000000492
1.00000000503
1.0000000024
0.99999999827
0.999999998593
0.999999998676
0.999999977747
0.999998873176
0.557239740872
1.00000001905
1.00000001684
1.0000000119
1.00000000543
0.999999998851
0.999999993398
0.999999990244
0.999999989953
0.999999992739
0.999999997189
1.00000000143
1.00000000422
1.00000000463
1.00000000259
1
0.999999999817
0.999999999756
0.999999985527
0.999999146028
0.592128164995
1.00000002507
1.00000002259
1.00000001632
1.00000000769
0.999999998683
0.999999990973
0.999999986131
0.999999985886
0.999999988792
0.999999995259
1.00000000174
1.00000000668
1.00000000869
1.00000000784
1.00000000247
1
0.999999999982
0.999999991076
0.999999344897
0.623323526083
1.00000001432
1.00000001284
1.00000000911
1.00000000406
0.999999998936
0.999999994787
0.999999992639
0.999999992758
0.999999995803
1.00000000008
1.00000000494
1.00000000905
1.00000001168
1.00000001276
1.00000001039
1
0.999999999984
0.999999992748
0.99999949717
0.65132572482
1.00000001278
1.00000001143
1.00000000804
1.00000000354
0.999999999065
0.999999995658
0.999999994232
0.99999999531
0.999999998859
1.00000000382
1.00000000943
1.00000001443
1.00000001792
1.00000001965
1.00000001763
1
0.999999999987
0.999999995143
0.999999612108
0.676545214697
1.00000001167
1.00000001032
1.00000000716
1.00000000309
0.999999999173
0.99999999644
0.999999995753
0.999999997738
1.00000000188
1.0000000078
1.00000001411
1.00000001974
1.00000002343
1.00000002503
1.00000002236
1
0.999999999991
0.999999996751
0.999999699171
0.699320958252
1.0000000107
1.00000000929
1.00000000629
1.00000000268
0.99999999931
0.999999997243
0.999999997216
0.999999999938
1.0000000048
1.0000000114
1.00000001814
1.00000002418
1.00000002732
1.00000002786
1.00000002364
1
0.999999999993
0.999999997839
0.999999765112
0.719934912723
1.00000000961
1.00000000812
1.0000000055
1.00000000288
0.999999999784
0.999999997885
0.999999998193
1.0000000016
1.00000000729
1.00000001471
1.00000002182
1.00000003208
1.00000003471
1.00000003162
1.00000002322
1
0.999999999994
0.999999998476
0.999999815061
0.738623216567
1.0000000084
1.0000000084
1.00000000843
1.00000000324
1.00000000016
0.999999997401
0.999999999337
1.00000000235
1.00000001076
1.00000001684
1.00000004263
1.0000000402
1.00000004074
1.00000002959
1.00000001904
1
0.999999996619
0.999999996734
0.999999850236
0.755584910635
1.00000001299
1.00000001264
1.00000000646
1.00000000594
1.00000000007
0.999999999049
0.999999998671
1.00000000547
1.00000001107
1.00000004018
1.00000003286
1.00000006243
1.00000004026
1.00000003181
1.00000000705
0.999999992695
0.999999972363
0.999999976742
0.999999858995
0.770988826876
1.00000001356
1.00000001252
1.00000001175
1.00000001098
1.00000000244
0.999999997962
1.00000000026
1.00000000463
1.00000002241
1.00000002688
1.00000008416
1.000000072
1.00000006573
1.00000003799
1.00000001596
0.99999998252
0.999999970165
0.999999969999
0.999999876766
0.784978757969
1.00000001916
1.00000003019
1.00000001483
1.00000000652
1.00000000335
1.0000000016
1.00000000263
1.00000000525
1.00000001347
1.00000002842
1.00000005117
1.00000008359
1.00000006057
1.00000001793
0.999999999648
0.999999979307
0.999999971839
0.999999972128
0.999999896678
0.797678030449
1.00000002742
1.00000002996
1.00000001264
1.00000000789
1.00000000482
1.00000000356
1.00000000436
1.00000000678
1.00000001247
1.00000003978
1.00000004278
1.00000005803
1.00000005047
1.00000001344
0.999999994851
0.999999976849
0.999999970882
0.999999971266
0.999999909282
0.809192652228
1.00000002583
1.00000003403
1.00000001298
1.00000000862
1.000000006
1.00000000488
1.00000000599
1.00000000852
1.00000001785
1.00000003692
1.00000006007
1.00000008024
1.00000002774
1.00000001012
0.999999993304
0.999999975767
0.999999970785
0.999999970795
0.999999919981
0.819614221897
1.00000003588
1.00000001642
1.00000001234
1.00000000889
1.00000000654
1.00000000585
1.0000000068
1.00000000976
1.00000002231
1.00000006199
1.00000004554
1.00000007159
1.00000002663
1.00000001066
0.999999993751
0.999999978472
0.999999970933
0.999999971654
0.999999929216
0.829022066571
1.00000001619
1.00000001432
1.00000001154
1.00000000873
1.00000000685
1.00000000621
1.00000000726
1.00000001228
1.00000005888
1.00000004034
1.00000006663
1.00000006046
1.00000002714
1.00000001164
0.999999997067
0.999999982102
0.999999975053
0.999999976139
0.999999940373
0.837485031984
1.00000001376
1.00000001288
1.00000001082
1.00000000853
1.00000000689
1.00000000635
1.00000000807
1.00000003597
1.00000003756
1.00000006872
1.00000008251
1.00000003759
1.0000000264
1.00000001385
1.00000000013
0.999999987455
0.999999979874
0.999999980687
0.999999950399
0.845062982851
1.00000001248
1.00000001205
1.00000001035
1.00000000835
1.00000000687
1.00000000651
1.00000001426
1.00000003222
1.00000004466
1.00000008814
1.0000000407
1.00000003386
1.00000002569
1.00000001535
1.00000000352
0.999999992505
0.999999985114
0.999999985826
0.99999995984
0.851808014864
1.0000000119
1.00000001164
1.00000001008
1.00000000819
1.00000000681
1.0000000067
1.00000001649
1.00000002201
1.00000005064
1.00000005002
1.00000004202
1.00000003206
1.00000002517
1.00000001652
1.0000000069
0.99999999719
0.999999991181
0.99999999179
0.999999969231
0.857765513569
1.00000001168
1.00000001146
1.00000000992
1.00000000804
1.00000000677
1.00000000655
1.00000001125
1.00000002412
1.00000003253
1.00000007043
1.00000005231
1.00000003
1.00000002431
1.00000001801
1.00000000991
1.00000000087
0.999999998304
0.999999998685
0.999999978742
0.862975091533
1.00000001162
1.00000001139
1.00000000984
1.00000000794
1.00000000672
1.0000000064
1.00000000846
1.0000000188
1.00000002689
1.00000003462
1.00000004628
1.00000002779
1.00000002454
1.00000001946
1.00000001367
1.00000000522
1
0.999999999955
0.999999982692
0.86747149328
1.0000000116
1.00000001137
1.00000000982
1.00000000791
1.00000000666
1.00000000642
1.00000000746
1.00000001483
1.00000002423
1.0000000346
1.0000000406
1.00000002647
1.00000002477
1.00000002187
1.00000001709
1.00000001009
1
0.999999999959
0.999999984482
0.87128554198
1.00000001162
1.00000001142
1.0000000099
1.00000000804
1.00000000673
1.00000000641
1.00000000702
1.00000001365
1.00000003719
1.00000002314
1.00000004938
1.00000002723
1.00000002642
1.00000002401
1.00000002108
1.00000001416
1
0.999999999962
0.999999985883
0.874444981789
1.00000001174
1.0000000116
1.00000001019
1.00000000843
1.00000000717
1.00000000668
1.00000000725
1.00000002626
1.00000002073
1.00000003826
1.00000003816
1.00000002845
1.00000002776
1.00000002711
1.00000002416
1.00000001863
1
0.999999999964
0.999999986916
0.876973298157
1.00000001272
1.00000001204
1.00000001058
1.00000000899
1.00000000779
1.00000000729
1.00000001127
1.00000001918
1.0000000338
1.000000047
1.00000002771
1.00000002872
1.00000002983
1.00000002925
1.00000002753
1.00000002142
1
0.999999999965
0.999999987649
0.878872760731
1.00000001316
1.00000001215
1.00000001077
1.00000000931
1.00000000838
1.00000000792
1.00000001247
1.00000002712
1.00000002331
1.00000004359
1.00000002879
1.00000003034
1.00000003088
1.00000003111
1.00000002861
1.00000002291
1
0.999999999966
0.9999999879
0.880497504129
1.00000000644
1.00000000584
1.00000000508
1.00000000454
1.00000000427
1.00000000422
1.00000001356
1.00000001014
1.00000001776
1.00000002424
1.00000001522
1.00000001559
1.00000001608
1.00000001523
1.00000001382
1.00000000946
1
0.99999999998
0.999999988804
0.880449010401
)
;

boundaryField
{
    back
    {
        type            zeroGradient;
    }
    sides
    {
        type            zeroGradient;
    }
    bottom
    {
        type            zeroGradient;
    }
    front
    {
        type            zeroGradient;
    }
    atmosphere
    {
        type            inletOutlet;
        inletValue      uniform 0;
        value           nonuniform List<scalar> 
100
(
0
0
0
0
0
0
0
0
0
0
0
0
0
0
0
0
0
0
0
0
0
0
0
0
0
0
0
0
0
0
0
0
0
0
0
0
0
0
0
0
0
0
0
0
0
0
0
0.0591972015835
0.195041796193
0.731504271677
0.731504411429
0.195042054272
0.0591971979094
0
0
0
0
0
0
0
0
0
0
0
0
0
0
0
0
0
0
0
0
0
0
0
0
0
0
0
0
0
0
0
0
0
0
0
0
0
0
0
0
0
0
0
0
0
0
0
)
;
    }
    floatingObject
    {
        type            zeroGradient;
    }
}


// ************************************************************************* //
