/*--------------------------------*- C++ -*----------------------------------*\
| =========                 |                                                 |
| \\      /  F ield         | OpenFOAM: The Open Source CFD Toolbox           |
|  \\    /   O peration     | Version:  v2012                                 |
|   \\  /    A nd           | Website:  www.openfoam.com                      |
|    \\/     M anipulation  |                                                 |
\*---------------------------------------------------------------------------*/
FoamFile
{
    version     2.0;
    format      ascii;
    class       volScalarField;
    location    "0.3";
    object      epsilon;
}
// * * * * * * * * * * * * * * * * * * * * * * * * * * * * * * * * * * * * * //

dimensions      [0 2 -3 0 0 0 0];


internalField   nonuniform List<scalar> 
1984
(
0.1041944054
0.103832668107
0.105101457997
0.105247964148
0.105295135894
0.105334650945
0.105372827804
0.105409837325
0.105445491073
0.105479588303
0.105511948368
0.105542387995
0.105570733489
0.105596825489
0.105620689061
0.105645671748
0.105727567186
0.106624834888
0.116755774032
0.210495481905
0.103872621226
0.0941033722701
0.0961734113406
0.0964183765098
0.0964650607925
0.0964949396102
0.0965235360405
0.0965517305471
0.0965793829121
0.0966063043082
0.0966323411288
0.0966573416689
0.0966811719162
0.0967037423192
0.0967253499873
0.096751356687
0.0968514241496
0.0977949751767
0.106485583447
0.170472743552
0.105199682355
0.0962512665416
0.0985222262697
0.0987898593108
0.0988356174592
0.0988626605755
0.0988885005935
0.0989140332807
0.0989390175791
0.0989632094979
0.0989864038577
0.0990084297742
0.0990291323408
0.0990483976031
0.0990664871897
0.0990888705504
0.0991869639468
0.10013661238
0.108772311605
0.171633735507
0.105361524937
0.0965173892202
0.0988131479953
0.099081098438
0.099124154017
0.0991486353701
0.0991722815449
0.0991959003725
0.0992191756753
0.0992417799135
0.0992634705422
0.0992840432896
0.0993033225997
0.099321173982
0.0993378476999
0.0993588800159
0.0994564650513
0.100410991007
0.109063155948
0.17178500341
0.105414611368
0.0965682927793
0.0988642666787
0.0991297773913
0.099170249463
0.0991924618282
0.0992141923998
0.0992362079773
0.099258131931
0.0992796071307
0.0993003242317
0.0993200487055
0.0993385910607
0.0993557919283
0.0993718918681
0.0993925229053
0.09949093066
0.100454723169
0.109149845985
0.17185921777
0.105460689102
0.0966003933256
0.0988944392233
0.099157694862
0.0991959245459
0.0992160765131
0.0992359952873
0.0992564549789
0.0992770582056
0.0992974156408
0.0993172043199
0.0993361445089
0.0993540278117
0.0993706765979
0.099386326491
0.0994067404896
0.099506536641
0.100482779389
0.109235345191
0.171942269794
0.105507852801
0.0966321593124
0.0989244340491
0.0991858487718
0.0992221801932
0.0992404954855
0.0992587247239
0.0992776799011
0.0992969703401
0.0993161976087
0.0993350222346
0.0993531458347
0.0993703408562
0.0993864143151
0.0994016022092
0.099421836156
0.0995234327126
0.100515057564
0.109337741952
0.172041569426
0.105556782375
0.096665073404
0.0989558118017
0.0992157258376
0.0992504639894
0.099267172702
0.0992838664736
0.0993014083695
0.0993194319559
0.0993375432138
0.0993553990696
0.0993726902913
0.0993891768325
0.0994046543683
0.0994193655178
0.0994394505586
0.0995432661284
0.100553264598
0.10945867284
0.172158212509
0.105607671427
0.0966992969607
0.0989886553631
0.0992473286215
0.099280731209
0.0992960509584
0.099311375751
0.0993276226064
0.099344456634
0.0993615000415
0.099378412219
0.0993948828174
0.0994106637227
0.099425543799
0.0994397789608
0.0994597617191
0.099566254324
0.100597773977
0.109598820543
0.172292892756
0.105660694872
0.0967349269604
0.0990230012386
0.0992806330264
0.0993129148208
0.099327042506
0.0993411638067
0.099356246164
0.0993719898488
0.0993880363639
0.099404056602
0.0994197416517
0.0994348415413
0.0994491418383
0.0994629186243
0.0994828646994
0.099592544427
0.100648941495
0.109758996516
0.172446351404
0.10571603027
0.0967720723079
0.0990589185474
0.0993156648088
0.099347005647
0.0993601169953
0.0993731929664
0.0993872461377
0.0994020099404
0.0994171496316
0.0994323476978
0.0994473029937
0.0994617659118
0.09947552205
0.0994888746664
0.0995088703329
0.0996223097634
0.100707192641
0.109940176128
0.172619421851
0.105773853764
0.0968108507864
0.0990964994932
0.0993524857199
0.0993830387736
0.0993952910223
0.0994074713414
0.099420630659
0.09943453408
0.0994488679498
0.0994633312346
0.0994776290564
0.0994915164503
0.099504780895
0.0995177599596
0.0995379140432
0.0996557591428
0.100773032942
0.110143499803
0.172813048518
0.105834335574
0.0968513837397
0.0991358496827
0.0993911804717
0.0994210794634
0.0994326156657
0.0994440424453
0.0994564432374
0.0994696101618
0.0994832514769
0.0994970793727
0.0995108083918
0.09952419826
0.0995370399349
0.0995497127837
0.0995701589306
0.0996931415419
0.100847057072
0.110370286416
0.173028306897
0.105897635472
0.0968937918881
0.0991770813939
0.0994318476466
0.0994612130752
0.0994721662861
0.0994829767838
0.0994947547187
0.0995073160417
0.099520386719
0.0995336934915
0.0995469576396
0.0995599444467
0.0995724490099
0.0995849000725
0.0996057994499
0.0997347513331
0.100929960613
0.110622054413
0.173266424992
0.10596389778
0.0969381916335
0.09922030845
0.0994745930087
0.0995035372296
0.0995140351597
0.0995243657021
0.0995356592509
0.0995477520279
0.0995603840848
0.0995733004413
0.0995862180153
0.0995989138335
0.0996111836098
0.0996235173172
0.09964506231
0.0997809350561
0.101022555754
0.110900553051
0.173528809502
0.106033246257
0.0969846918502
0.0992656418712
0.0995195237815
0.0995481565055
0.0995583261961
0.0995683127153
0.0995792670899
0.0995910336666
0.099603378171
0.0996160404795
0.0996287538073
0.099641288532
0.0996534498198
0.0996657910937
0.0996882163948
0.0998320993524
0.101125794701
0.111207794911
0.17381707453
0.106105774611
0.0970333877918
0.0993131850667
0.0995667454074
0.099595175386
0.0996051445016
0.0996149316266
0.0996256982044
0.0996373044932
0.0996495170787
0.0996620893777
0.0996747606461
0.0996872910019
0.0996994886125
0.0997119915562
0.0997355698337
0.0998887229193
0.101240783183
0.111546098852
0.174133072734
0.106181538822
0.0970843586451
0.0993630300734
0.0996163498794
0.0996446930205
0.0996545988507
0.0996643324417
0.0996750705452
0.0996866876206
0.0996989509761
0.0997116152272
0.0997244260174
0.0997371319972
0.0997495465853
0.0997623986552
0.0997874721877
0.0999513632353
0.101368829517
0.111918153906
0.174478951972
0.106260549987
0.0971376595198
0.0994152487568
0.0996684196717
0.0996967952984
0.099706774334
0.0997166350333
0.0997275429322
0.0997393733064
0.0997518992958
0.0997648741332
0.0997780396655
0.0997911362187
0.0998039768892
0.0998173978785
0.0998443629027
0.100020689283
0.101511455062
0.112327056462
0.174857185616
0.106342737793
0.0971932986131
0.0994698805062
0.0997230099124
0.0997515488044
0.0997617831123
0.099771957406
0.0997832433065
0.0997955164082
0.0998085479491
0.0998220856801
0.0998358622536
0.0998496059755
0.0998631261087
0.0998773854639
0.0999067255313
0.100097481834
0.101670464456
0.112776424127
0.175270664882
0.106427994361
0.0972512755163
0.0995269366265
0.0997801521862
0.0998090197845
0.0998196900212
0.0998303936599
0.0998423003505
0.0998552820556
0.099869103466
0.0998835018329
0.0998981953983
0.0999128947448
0.0999274019627
0.0999428292488
0.0999751336569
0.100182672479
0.101847995843
0.113270481034
0.175722774205
0.106516096036
0.0973115279884
0.0995864120218
0.0998398518274
0.099869219973
0.0998805393284
0.0998920222501
0.0999048326074
0.099918834702
0.0999337818863
0.0999493955915
0.0999653734623
0.0999814017408
0.0999972711509
0.100014271678
0.100050262085
0.100277374737
0.102046596102
0.113814186002
0.176217505788
0.106606709023
0.0973739292019
0.099648222107
0.0999020532419
0.0999321241215
0.0999443400827
0.0999568939461
0.0999709400635
0.0999863309992
0.100002803806
0.10002005844
0.100037764649
0.10005557641
0.100073268164
0.100092343118
0.100132908676
0.10038292758
0.102269316317
0.114413391669
0.176759608816
0.106699361019
0.0974382780953
0.0997122233905
0.0999666450076
0.0999976546959
0.100011056244
0.100025023173
0.100040697256
0.100057915942
0.100076392678
0.100095800657
0.100115773568
0.100135923978
0.10015600471
0.100177776935
0.100224019834
0.100500948665
0.10251982969
0.115075040878
0.177354789089
0.10679341564
0.0975042821722
0.099778193489
0.100033443693
0.100065669776
0.100080596535
0.10009637842
0.100114146051
0.100133713096
0.100154767378
0.100176946917
0.100199840954
0.100223010725
0.10024618163
0.100271429346
0.100324723772
0.100633403068
0.10280258255
0.115807420066
0.178009992052
0.10688805144
0.0975715447271
0.0998458168304
0.100102176907
0.100135942472
0.100152790861
0.100170862828
0.100191271585
0.100213807599
0.100238130197
0.100263831328
0.100290446083
0.100317474064
0.100344606512
0.100374306175
0.100436374833
0.10078269551
0.1031229976
0.116620479344
0.178733807868
0.106982193121
0.0976395127743
0.0999146375102
0.100172443551
0.100208130625
0.100227369639
0.100248292105
0.100271991758
0.100298232769
0.100326646105
0.100356766598
0.100388070263
0.100419982065
0.100452155119
0.100487534991
0.100560556863
0.100951753869
0.103487687564
0.117526207964
0.179537065445
0.107074569723
0.0977075394656
0.0999841172926
0.100243759907
0.100281808067
0.100303982144
0.100328409359
0.100356168845
0.100387003807
0.100420492064
0.100456128771
0.100493315054
0.100531385649
0.10056995175
0.100612567575
0.100699301415
0.101144277626
0.10390483696
0.118539160027
0.180433772997
0.107163577833
0.0977747628243
0.100053521802
0.100315459068
0.100356379083
0.100382119493
0.100410816247
0.100443536831
0.100480002173
0.100519755881
0.100562233487
0.100606756922
0.100652558325
0.100699205057
0.100751029114
0.100854993719
0.101364800902
0.104384510218
0.119676999634
0.181442498894
0.10724728866
0.097840127561
0.100121936767
0.100386702766
0.100431084897
0.100461124652
0.100494985395
0.100533729988
0.10057706115
0.100624489236
0.10067539506
0.100729017376
0.100784485281
0.10084132451
0.100904864289
0.101030564734
0.101618990366
0.104939197032
0.120961245272
0.182588213128
0.107323450323
0.0979023663206
0.100188244475
0.100456451542
0.100504971916
0.100540154115
0.100580212072
0.100626217349
0.100677865422
0.10073464266
0.100795883262
0.100860745242
0.100928257099
0.100997930167
0.101076378582
0.101229598399
0.101913910281
0.105584349421
0.12241836239
0.183905742949
0.107389450153
0.0979599751137
0.10025110253
0.100523443003
0.100576864686
0.100618151375
0.100665593654
0.100720291591
0.100781952346
0.100850056105
0.100923908037
0.101002598963
0.101085067829
0.101170867837
0.101268293596
0.101456464056
0.102258306816
0.106338749827
0.124081840842
0.185444899307
0.107442325818
0.0980111973867
0.100308917255
0.100586166185
0.100645341711
0.100693817404
0.100749998905
0.100815034973
0.100888675727
0.100970424069
0.10105958772
0.101155220948
0.101256204827
0.101362221361
0.101483797815
0.101716459453
0.102662947106
0.10722542359
0.125993654735
0.187253907522
0.107478826779
0.0980540184433
0.100359824417
0.100642837842
0.100708712948
0.100765587457
0.100832035003
0.100909287406
0.10099717115
0.101095258794
0.101202912035
0.101319202901
0.101443018673
0.101574306192
0.101726574819
0.102015935989
0.103141060559
0.108273415129
0.128197771958
0.189338548605
0.107495521913
0.0980861283489
0.100401666163
0.100691390796
0.100765006315
0.100831619636
0.100910030409
0.101001613991
0.10110632185
0.101223849653
0.101353695367
0.101495033215
0.101646869212
0.101809626211
0.10200077532
0.102362283228
0.103708371259
0.109517428555
0.130754043229
0.191749022587
0.107490254853
0.0981035382796
0.100431652752
0.100729447418
0.100811974137
0.100889788505
0.100982026256
0.10109028658
0.101214725035
0.101355222052
0.101511523374
0.101683027925
0.101869039115
0.102070764044
0.10231087464
0.102763681188
0.10438311564
0.111000370563
0.133721472832
0.19449186766
0.107477388049
0.0980914452802
0.10044350715
0.100753883249
0.100847098657
0.100937675049
0.101045683117
0.101173203012
0.101320644948
0.101488083757
0.101675691578
0.101883235327
0.10211059084
0.102360170692
0.102661305993
0.103228201622
0.105183968316
0.112767592233
0.137125062175
0.197391241892
0.107452212003
0.0980485631918
0.100434378431
0.100762028877
0.10086793968
0.100972985471
0.101098806967
0.101248004318
0.101421627721
0.101620353113
0.101845046958
0.102095302338
0.102372178149
0.102679842669
0.103055770129
0.103761777249
0.106123044425
0.114824329614
0.140649955127
0.198416297805
0.107407452278
0.097976400655
0.100402696743
0.100751317767
0.100871768524
0.100993081296
0.101139102506
0.101313072739
0.101516428709
0.101750378853
0.102016788702
0.102317162279
0.102653590561
0.103030669015
0.103495851284
0.104364260346
0.107191132642
0.117058377237
0.143951347124
0.199298353587
0.107334715125
0.0978764716554
0.10034722576
0.100719354799
0.100855893194
0.100995235009
0.101163866024
0.101365902594
0.10160326595
0.101877825653
0.102191690109
0.102547615231
0.102950358931
0.1034108034
0.103980543572
0.105025678815
0.108338314217
0.119394187672
0.147479299456
0.201278807428
0.107228691016
0.0977496604817
0.1002667509
0.100664010046
0.10081787395
0.100976790131
0.10117034539
0.101403937259
0.101680291407
0.102001401507
0.102369225831
0.102788328584
0.103264959198
0.103812466686
0.104492409134
0.105714003156
0.109450682746
0.121662503217
0.150738261075
0.20304707244
0.107087177273
0.0975970085176
0.100160543013
0.100583705156
0.100755720878
0.100935482307
0.101156206477
0.101425083239
0.101745983758
0.102120120888
0.102549528122
0.103039742191
0.103599119211
0.104244997997
0.105042208856
0.106386606644
0.1103729352
0.12359819478
0.153506354468
0.204294637465
0.106910517831
0.0974214993351
0.100029303903
0.100477916254
0.100668275491
0.100869606834
0.101119553901
0.101427942582
0.10180023492
0.102234830469
0.10273338851
0.103302709004
0.103952613296
0.104701025664
0.105615518142
0.107082954865
0.111142944114
0.124393387861
0.153064493969
0.203884470406
0.106701446397
0.0972286446429
0.0998757652866
0.10034779313
0.100555567017
0.100778350534
0.101059096136
0.101412354413
0.101845204206
0.102348484408
0.102923557128
0.103580441786
0.104329257197
0.105183595417
0.106215644524
0.107797738526
0.111839547425
0.123570877997
0.147397000031
0.193586014439
0.106465477828
0.097026597296
0.0997051899024
0.100196591157
0.100419277706
0.100661639191
0.100973467447
0.101378388993
0.101881234232
0.102459618586
0.103117761368
0.103873751554
0.104732525908
0.105690076174
0.1068253617
0.108461245149
0.112300416852
0.122114511031
0.141156728123
0.191588865479
0.106211253655
0.096826022845
0.0995257518215
0.100030372588
0.100262820505
0.100518843493
0.100853990651
0.101295667816
0.10182020703
0.102446217517
0.103189023063
0.104084352703
0.105112089862
0.106190445592
0.107406331479
0.109033259145
0.112492552597
0.120304930042
0.136153399358
0.206392194278
0.105950163459
0.0966390350133
0.0993486170501
0.0998584280059
0.100091117099
0.100343049426
0.100635534887
0.100777636284
0.100657968578
0.101015979163
0.10180530878
0.103029630521
0.104706328812
0.10629767626
0.107782617907
0.109469511728
0.112481474888
0.118455443342
0.132050049742
0.205898565485
0.105695256524
0.0964771678263
0.0991869983255
0.0996915711703
0.0999059175892
0.100089157529
0.0998697249381
0.096654634768
0.117820855334
0.115303480122
0.11628418638
0.119912048928
0.098315122766
0.103826101576
0.106974765255
0.109369977938
0.112227176833
0.117052497429
0.128940258396
0.192920691049
0.105462693223
0.0963533719166
0.0990579794461
0.0995393382826
0.0996772883588
0.0995814186309
0.0978387145337
0.110354639601
0.123064486991
0.101229605164
0.105496630343
0.108640445665
0.111700810863
0.116133524433
0.125556647423
0.174515609968
0.105283569128
0.0962742790632
0.098989459989
0.0994716466393
0.0995937053874
0.0994098637408
0.0972568956396
0.107142224796
0.111758243875
0.0982045030196
0.10352260875
0.107264527205
0.110803884429
0.115201271371
0.12210266948
0.15193229565
0.105283572553
0.0962742806953
0.098989461417
0.0994716488776
0.0995937098104
0.09940987079
0.0972569076777
0.107142228496
0.11175840217
0.0982047931556
0.103523149392
0.107265106461
0.110804836186
0.115203198134
0.122107548966
0.151948509751
0.105462702486
0.096353377697
0.0990579847347
0.0995393456364
0.0996772996995
0.0995814350281
0.0978387315414
0.110354656021
0.123064792573
0.101230114662
0.105497710842
0.108641557815
0.11170246774
0.116136504331
0.125562166182
0.174534593924
0.105695255901
0.096477164348
0.099186994909
0.0996915719566
0.0999059268254
0.100089176223
0.0998697476286
0.0966546544035
0.117820865361
0.115303491532
0.116284199801
0.119912106235
0.0983152964424
0.103826617775
0.106976110809
0.109371308305
0.112229154049
0.117055847988
0.128945359536
0.192933513256
0.105950180532
0.0966390475129
0.0993486295239
0.0998584426021
0.10009113449
0.100343067769
0.10063554931
0.100777639445
0.100657958805
0.101015964785
0.101805305149
0.103029681211
0.104706516138
0.106298183289
0.107783933093
0.109470865417
0.112483537703
0.118458780271
0.132054085993
0.205901235265
0.106211260566
0.0968260295592
0.0995257618124
0.100030387712
0.100262840599
0.100518865624
0.100854010176
0.101295679631
0.10182020889
0.102446215342
0.103189034824
0.104084415829
0.105112275849
0.106190913768
0.107407514038
0.109034503631
0.112494454972
0.120307868335
0.136156224781
0.206393201117
0.106465467711
0.0970265926246
0.0997051932502
0.100196604262
0.100419301086
0.100661667088
0.100973496036
0.101378414057
0.101881253702
0.102459636709
0.103117793556
0.103873829857
0.104732710312
0.105690497139
0.106826366119
0.108462310444
0.112302021372
0.122116836684
0.141158644716
0.191589459792
0.106701421508
0.0972286315354
0.0998757641679
0.100347804117
0.100555601129
0.100778386121
0.101059133224
0.1014123924
0.101845240812
0.102348522041
0.102923607224
0.10358053204
0.10432943777
0.105183967258
0.106216467514
0.107798624473
0.111840838317
0.123572561916
0.147398106365
0.193586247371
0.106910486382
0.0974214850011
0.100029301204
0.100477937859
0.100668302709
0.100869653737
0.101119595598
0.101427988483
0.101800281599
0.102234878428
0.10273344422
0.103302799866
0.103952779839
0.104701346957
0.105616184372
0.107083678597
0.111143937427
0.124394482436
0.153065037068
0.20388454474
0.107087140552
0.0975969853119
0.100160537887
0.100583710511
0.100755746961
0.100935511604
0.101156243131
0.101425126075
0.101746019962
0.102120153034
0.102549550438
0.103039799799
0.103599238743
0.104245247572
0.105042725234
0.106387160741
0.110373623208
0.123598798218
0.15350661111
0.204294666747
0.107228660113
0.0977496426242
0.100266743149
0.100664017155
0.100817893292
0.100976824137
0.101170386562
0.101403982348
0.101680344642
0.102001450935
0.102369274632
0.102788420725
0.103265117076
0.103812745445
0.104492914411
0.10571453443
0.109451254043
0.121662909378
0.150738389287
0.203047072919
0.107334695805
0.0978764643406
0.100347227433
0.100719366769
0.10085591623
0.100995270706
0.10116391432
0.101365958557
0.10160332714
0.101877892424
0.102191758035
0.10254772631
0.102950527527
0.103411086552
0.103981002528
0.105026128204
0.108338737257
0.119394425317
0.147479327827
0.201278801374
0.107407450659
0.0979764087374
0.100402711094
0.100751339315
0.10087179866
0.100993121593
0.101139153908
0.101313136233
0.101516502658
0.101750457162
0.10201688241
0.102317292352
0.102653768331
0.103030939809
0.103496246206
0.104364612782
0.107191421756
0.117058495228
0.143951351868
0.199298341858
0.107452226562
0.0980485852485
0.100434404543
0.100762059307
0.100867975926
0.10097302944
0.101098860463
0.10124807058
0.101421706563
0.101620436165
0.101845148724
0.102095438211
0.102372349939
0.102680087794
0.103056092955
0.103762045793
0.106123235628
0.114824398111
0.140649948868
0.198416280416
0.10747740725
0.0980914715484
0.100443535672
0.100753913756
0.100847132602
0.100937714396
0.101045731804
0.101173264616
0.101320720509
0.101488163753
0.101675791318
0.101883367599
0.102110748771
0.102360381351
0.102661562097
0.103228400818
0.105184101555
0.112767633852
0.137125050638
0.197391225288
0.10749027817
0.0981035657628
0.10043168267
0.100729479603
0.100812009115
0.100889826847
0.100982068832
0.101090334872
0.10121478546
0.101355293716
0.101511614246
0.10168315226
0.101869183942
0.102070944784
0.102311073747
0.102763826076
0.104383209553
0.111000395817
0.133721456808
0.194491849812
0.107495547208
0.0980861570939
0.100401697549
0.100691424457
0.100765042295
0.100831657769
0.100910070109
0.101001653343
0.101106360492
0.10122389192
0.101353748668
0.10149513136
0.101646993407
0.101809785932
0.102000925423
0.102362386484
0.103708435373
0.109517442532
0.130754023878
0.191749003295
0.107478851121
0.0980540462475
0.100359855119
0.100642871081
0.100708748543
0.100765624833
0.100832073058
0.100909323508
0.100997203491
0.101095289999
0.101202945725
0.101319257546
0.101443099205
0.101574422125
0.101726688882
0.102016008621
0.103141103011
0.108273420214
0.128197749649
0.189338527595
0.107442347328
0.0980112226418
0.100308945717
0.100586197585
0.100645375768
0.100693853308
0.100750035219
0.100815068814
0.100888704705
0.100970450132
0.101059613722
0.101155261032
0.101256259849
0.101362296697
0.101483882727
0.101716509633
0.10266297389
0.107225421959
0.125993629982
0.187253885032
0.107389467873
0.097959996993
0.100251127898
0.10052347171
0.100576896421
0.100618185216
0.100665628018
0.100720323456
0.100781979071
0.100850078985
0.100923930003
0.10100263186
0.101085111848
0.101170927092
0.101268360107
0.101456498094
0.10225832218
0.106338743173
0.124081814592
0.185444876199
0.107323464103
0.0979023846462
0.100188266451
0.10045647713
0.100505000827
0.100540185414
0.100580244184
0.100626247278
0.100677890325
0.100734663289
0.100795902654
0.100860772875
0.100928292871
0.100997977311
0.101076431038
0.101229621721
0.10191391827
0.105584339074
0.122418335226
0.183905719655
0.107247298984
0.097840142652
0.100121955476
0.100386725145
0.100431110711
0.10046115304
0.100495014921
0.100533757808
0.100577084244
0.100624508005
0.100675412732
0.100729040741
0.100784514051
0.100841361983
0.100904908111
0.101030584393
0.101618994883
0.104939184272
0.120961217883
0.182588190084
0.107163585802
0.097774775522
0.100053537851
0.100315478562
0.100356401846
0.100382144742
0.100410842675
0.100443561804
0.100480022632
0.100519772591
0.100562249944
0.100606776849
0.100652581856
0.100699236446
0.10075106842
0.100855015924
0.101364806694
0.104384496664
0.119676973171
0.181442476903
0.107074578524
0.097707552466
0.0999841329354
0.100243778214
0.10028182887
0.100304004412
0.100328430841
0.100356186575
0.100387015824
0.100420503666
0.100456143352
0.10049333329
0.100531405072
0.100569975726
0.100612602666
0.100699330123
0.101144290707
0.103904825274
0.118539136599
0.180433753352
0.106982203096
0.097639526154
0.0999146527235
0.100172460582
0.100208149481
0.100227390615
0.100248312592
0.100272009828
0.100298252134
0.100326661844
0.100356783436
0.100388087237
0.10041999668
0.100452167984
0.100487548925
0.100560570461
0.10095176442
0.103487679182
0.117526187944
0.179537048109
0.106888050936
0.0975715477558
0.0998458218357
0.100102184591
0.100135953178
0.10015280457
0.100170878071
0.100191285183
0.100213820576
0.10023814081
0.100263837924
0.100290448369
0.100317471397
0.100344600266
0.10037429808
0.100436368987
0.100782692696
0.103122983496
0.116620458135
0.178733790762
0.106793426963
0.0975042958685
0.0997782078933
0.100033458256
0.100065684307
0.100080610953
0.100096393481
0.100114159935
0.100133727343
0.100154782946
0.100176962307
0.100199855982
0.100223024898
0.100246194632
0.100271441597
0.100324733739
0.100633407615
0.102802579569
0.115807408337
0.178009980939
0.106699364027
0.0974382832834
0.099712229732
0.0999666525458
0.0999976635177
0.100011066168
0.10002503385
0.100040708585
0.100057926654
0.100076403164
0.100095809996
0.100115781574
0.100135930762
0.100156010635
0.100177782154
0.100224023806
0.100500949566
0.10251982604
0.115075031056
0.17735478007
0.106606714734
0.0973739361798
0.0996482295333
0.0999020609879
0.0999321322299
0.0999443485928
0.0999569028399
0.09997094931
0.0999863405514
0.100002813712
0.100020068354
0.100037774373
0.100055585859
0.100073277391
0.100092351998
0.100132916537
0.100382932525
0.102269316519
0.114413385184
0.176759601969
0.106516103525
0.0973115359658
0.0995864199806
0.0998398596921
0.0998692276545
0.0998805468333
0.0998920296994
0.0999048402137
0.0999188427161
0.0999337905343
0.0999494048951
0.0999653833094
0.0999814118875
0.0999972813722
0.100014281463
0.100050270606
0.100277380224
0.102046597112
0.113814180961
0.176217500144
0.106428000743
0.0972512820841
0.0995269426044
0.0997801587435
0.099809026611
0.0998196967713
0.0998304003261
0.0998423071787
0.0998552893427
0.0998691115253
0.0998835107032
0.0998982049401
0.0999129043762
0.0999274113284
0.0999428375477
0.0999751400598
0.100182675464
0.101847994558
0.113270474398
0.17572276785
0.106342740533
0.0971932999382
0.0994698750952
0.0997230111627
0.0997515542112
0.0997617891685
0.0997719633949
0.0997832496976
0.0997955235511
0.0998085565112
0.0998220955604
0.0998358743647
0.0998496174038
0.099863136012
0.099877392592
0.0999067290009
0.100097480623
0.101670458572
0.112776413369
0.17527065625
0.106260544072
0.0971376555728
0.0994152468371
0.0996684216125
0.0996967929831
0.0997067788171
0.0997166407271
0.0997275497157
0.0997393822041
0.0997519102992
0.0997648931861
0.0997780585452
0.0997911520449
0.0998039877765
0.0998174043822
0.0998443625678
0.100020683935
0.101511443607
0.112327041933
0.174857175457
0.106181543406
0.0970843662514
0.09936303618
0.0996163584588
0.0996446930261
0.0996545949402
0.099664333678
0.0996750777416
0.09968669678
0.0996989701026
0.0997116369848
0.0997244567956
0.0997371508142
0.0997495592552
0.099762403485
0.0997874720145
0.0999513550061
0.10136881704
0.111918138345
0.174478942003
0.10610578459
0.0970334013263
0.0993131976827
0.0995667620884
0.0995951804107
0.0996051451612
0.0996149304372
0.0996256945727
0.0996373040783
0.0996495204025
0.0996621113538
0.0996747951393
0.0996873078272
0.0996994936105
0.0997119913404
0.0997355638611
0.0998887129464
0.101240769935
0.11154608483
0.174133064122
0.10603325911
0.0969847159058
0.0992656545488
0.0995195280138
0.0995481576004
0.0995583247023
0.0995683101949
0.0995792606926
0.0995910290954
0.099603374468
0.0996160473067
0.0996287863937
0.0996413093151
0.0996534455253
0.0996657831722
0.0996882051186
0.0998320880433
0.101125784007
0.111207786716
0.17381706987
0.105963907476
0.0969382046762
0.0992203129565
0.0994745958711
0.0995035394344
0.0995140367495
0.0995243659753
0.0995356572846
0.0995477471177
0.0995603876727
0.09957330214
0.099586237189
0.0995989285973
0.0996111817828
0.0996235112277
0.0996450550763
0.0997809261493
0.101022548459
0.110900547678
0.173528807626
0.10589764255
0.0968938006299
0.0991770843009
0.0994318501502
0.0994612158716
0.0994721693549
0.0994829799001
0.0994947563294
0.0995073169763
0.0995203925659
0.0995337076105
0.0995469922662
0.0995599518547
0.0995724500318
0.0995848981841
0.0996057951658
0.0997347459595
0.100929955218
0.11062205185
0.173266424937
0.105834343577
0.0968513858
0.0991358513027
0.0993911827501
0.0994210826959
0.0994326197645
0.0994440469892
0.0994564469265
0.0994696146512
0.0994832662148
0.0994970898159
0.0995108350817
0.0995242066402
0.0995370442584
0.0995497145146
0.0995701588006
0.0996931399229
0.100847055224
0.110370286792
0.173028308894
0.105773854081
0.0968108512579
0.099096500577
0.0993524879106
0.0993830423006
0.0993952957874
0.0994074769345
0.0994206366234
0.0994345506
0.0994488808716
0.0994633476024
0.0994776501801
0.0994915249439
0.0995047867138
0.0995177644365
0.0995379172708
0.099655761518
0.100773034866
0.110143504108
0.17281305313
0.105716029713
0.0967720724399
0.0990589195148
0.0993156670263
0.0993470093131
0.0993601220313
0.0993731993504
0.0993872592177
0.0994020242775
0.0994171714622
0.0994323713572
0.0994473131735
0.0994617736648
0.099475529192
0.0994888814521
0.0995088768285
0.0996223156111
0.100707198096
0.109940184243
0.172619429063
0.105660694476
0.0967349272263
0.0990230023035
0.0992806352652
0.0993129184035
0.099327047447
0.0993411714833
0.0993562581117
0.0993720051574
0.0993880628603
0.0994040608114
0.0994197484066
0.0994348488073
0.0994491498513
0.099462927389
0.0994828738858
0.0995925533314
0.100648950099
0.109759007985
0.172446360956
0.105607671563
0.0966992975559
0.0989886565834
0.0992473307813
0.0992807344608
0.0992960552946
0.0993113826603
0.0993276303909
0.0993444694374
0.0993615126933
0.099378415269
0.0993948882816
0.0994106705305
0.0994255522758
0.099439789162
0.099459773025
0.0995662658605
0.100597785183
0.109598834847
0.172292904226
0.105556783164
0.0966650743774
0.0989558131495
0.0992157277995
0.0992504666927
0.0992671761104
0.0992838711203
0.0993014146556
0.0993194391101
0.0993375588089
0.0993554058267
0.0993726947761
0.0993891829032
0.0994046629372
0.0994193765448
0.0994394634806
0.0995432796551
0.100553277914
0.109458689354
0.172158225418
0.10550785423
0.0966321606424
0.0989244354786
0.0991858504519
0.0992221822489
0.0992404978486
0.0992587273177
0.0992776826749
0.0992969723869
0.0993161996232
0.0993350242595
0.0993531485844
0.0993703460934
0.0993864225651
0.0994016136333
0.0994218499737
0.0995234475948
0.100515072295
0.109337759972
0.172041583273
0.105460691085
0.0966003949526
0.098894440685
0.0991576962281
0.0991959259294
0.0992160779433
0.0992359964539
0.09925645543
0.0992770575565
0.099297414672
0.0993172027048
0.0993361457095
0.0993540320402
0.0993706843217
0.0993863376854
0.0994067545365
0.0995065519743
0.100482794746
0.109235363928
0.171942284231
0.105414613723
0.0965682945494
0.0988642680517
0.0991297783666
0.0991702501435
0.0991924621982
0.0992141917717
0.0992362058604
0.0992581298626
0.0992795947861
0.0993003210144
0.0993200488547
0.0993385944732
0.0993557987624
0.0993719023939
0.0993925362737
0.0994909455688
0.100454738154
0.109149864729
0.171859232408
0.105361527264
0.0965173907138
0.0988131488969