/*--------------------------------*- C++ -*----------------------------------*\
| =========                 |                                                 |
| \\      /  F ield         | OpenFOAM: The Open Source CFD Toolbox           |
|  \\    /   O peration     | Version:  v2012                                 |
|   \\  /    A nd           | Website:  www.openfoam.com                      |
|    \\/     M anipulation  |                                                 |
\*---------------------------------------------------------------------------*/
FoamFile
{
    version     2.0;
    format      ascii;
    class       surfaceScalarField;
    location    "0.3";
    object      phi;
}
// * * * * * * * * * * * * * * * * * * * * * * * * * * * * * * * * * * * * * //

dimensions      [0 3 -1 0 0 0 0];
oriented        oriented;


internalField   nonuniform List<scalar> 
3840
(
-1.10017208104e-05
1.10017281133e-05
-2.2663282575e-05
1.16615721267e-05
-3.42647672639e-05
1.16015021824e-05
-4.56772742703e-05
1.1412533422e-05
-5.68986149997e-05
1.12213747174e-05
-6.79068687731e-05
1.10082754196e-05
-7.86684280653e-05
1.07615609965e-05
-8.91452793455e-05
1.04768300385e-05
-9.9297542633e-05
1.01522225223e-05
-0.000109084470944
9.78684776476e-06
-0.000118464842972
9.38024563852e-06
-0.000127397030195
8.93202584026e-06
-0.000135838476454
8.44126929245e-06
-0.000143743718347
7.90506579777e-06
-0.000151057867569
7.31399445139e-06
-0.000157697414915
6.63942503052e-06
-0.000163512829373
5.81533417041e-06
-0.000168174332235
4.66146163546e-06
-0.000171472855844
3.29852657883e-06
8.472557291e-06
-1.17211867918e-05
2.27229217226e-05
-2.33929967352e-05
2.33333918784e-05
-3.50335380287e-05
2.32420612516e-05
-4.65944733599e-05
2.29734967912e-05
-5.80043439696e-05
2.26312816818e-05
-6.92123491059e-05
2.22163062984e-05
-8.01745063243e-05
2.17237199141e-05
-9.0848373735e-05
2.1150700596e-05
-0.000101191812051
2.04955852708e-05
-0.000111162671704
1.97576130495e-05
-0.00012071902922
1.89364649644e-05
-0.00012981943061
1.80322559843e-05
-0.000138423806828
1.70454605186e-05
-0.000146495573569
1.59766594517e-05
-0.000154008388912
1.482666462e-05
-0.000160967951986
1.35988869942e-05
-0.000167450644181
1.22979707691e-05
-0.000173740252497
1.0951057086e-05
-0.000180248714746
9.80701507078e-06
7.20055365061e-06
-1.18144785087e-05
3.4537401608e-05
-2.36085961333e-05
3.5127513502e-05
-3.53450289372e-05
3.49785077625e-05
-4.69898596494e-05
3.4618354136e-05
-5.84860560744e-05
3.41275164255e-05
-6.97837524039e-05
3.35140342452e-05
-8.08377001245e-05
3.27777004217e-05
-9.16043502834e-05
3.19173068401e-05
-0.000102040706669
3.09319266372e-05
-0.000112104142029
2.98209097767e-05
-0.000121752118014
2.85842953541e-05
-0.000130942836184
2.7222803487e-05
-0.000139635738938
2.57381890464e-05
-0.00014779273573
2.4133499242e-05
-0.000155380059741
2.24138723775e-05
-0.000162370378125
2.05891390357e-05
-0.000168742539518
1.8670120159e-05
-0.000174458419578
1.66669624656e-05
-0.000179105576994
1.44542237587e-05
9.32776036693e-06
-1.18621688353e-05
4.63995624518e-05
-2.38187879497e-05
4.70841273094e-05
-3.57058531374e-05
4.68655798762e-05
-4.74815552396e-05
4.63940802606e-05
-5.91022562174e-05
4.57482581942e-05
-7.05237207291e-05
4.4935544537e-05
-8.1702192834e-05
4.39561948806e-05
-9.2594255827e-05
4.28093903225e-05
-0.000103156565967
4.14940910017e-05
-0.000113345644523
4.00098901306e-05
-0.000123118440598
3.83569244765e-05
-0.000132432059625
3.65362572138e-05
-0.000141244495669
3.45504662985e-05
-0.000149515107178
3.24039825353e-05
-0.000157204986507
3.0103672159e-05
-0.000164276323524
2.76604582612e-05
-0.000170688567841
2.50824018875e-05
-0.000176381844588
2.23603081069e-05
-0.000181125408378
1.91978642064e-05
1.18029195396e-05
-1.19872871232e-05
5.83868293609e-05
-2.41169505236e-05
5.92137736657e-05
-3.61803386607e-05
5.89289663452e-05
-4.81261408315e-05
5.83399027555e-05
-5.9913968801e-05
5.75361288476e-05
-7.15021069409e-05
5.65237392828e-05
-8.28478827943e-05
5.53020183116e-05
-9.39080478354e-05
5.38695534429e-05
-0.00010463896121
5.22249462179e-05
-0.000114996538907
5.03672484029e-05
-0.000124936363885
4.82965483685e-05
-0.000134414288986
4.60140270983e-05
-0.000143386465494
4.35225058673e-05
-0.00015180953102
4.08269504977e-05
-0.000159640667829
3.79347721527e-05
-0.000166836759115
3.48565801768e-05
-0.000173352096853
3.15978266872e-05
-0.000179130269113
2.81385893647e-05
-0.000183973346859
2.40410405918e-05
1.45652098947e-05
-1.21703793927e-05
7.05571743701e-05
-2.45035093395e-05
7.15468732307e-05
-3.67752007419e-05
7.12006462572e-05
-4.89292574547e-05
7.04939751954e-05
-6.09254080564e-05
6.95323226257e-05
-7.27227132743e-05
6.83211075277e-05
-8.42789426869e-05
6.68583098754e-05
-9.55508371102e-05
6.51414601215e-05
-0.00010649423494
6.3168282211e-05
-0.000117064232381
6.09371175172e-05
-0.000127215281201
5.84473942388e-05
-0.000136901388734
5.56999924139e-05
-0.000146076659322
5.26976592792e-05
-0.000154695210795
4.94454343854e-05
-0.0001627113184
4.59508806756e-05
-0.000170079074594
4.22244101868e-05
-0.000176751844115
3.8270724773e-05
-0.000182677139217
3.40640252733e-05
-0.000187677016353
2.90410334301e-05
1.7528908883e-05
-1.23991357965e-05
8.29562605203e-05
-2.49729934316e-05
8.41206862331e-05
-3.74895819967e-05
8.37172127001e-05
-4.98907061833e-05
8.28951097268e-05
-6.21359205e-05
8.17775802669e-05
-7.41845352237e-05
8.03697888925e-05
-8.5994439487e-05
7.86682840844e-05
-9.75221653676e-05
7.66692082039e-05
-0.00010872293063
7.43689980238e-05
-0.000119550764876
7.17648288169e-05
-0.000129958678407
6.88551206786e-05
-0.000139898811251
6.56399954415e-05
-0.000149322990645
6.21217390698e-05
-0.000158182795497
5.83051955599e-05
-0.000166429899441
5.41980155566e-05
-0.000174016263379
4.98108807518e-05
-0.000180894741029
4.51493613342e-05
-0.000187015190861
4.01846388593e-05
-0.000192206018446
3.42319888326e-05
2.06598861194e-05
-1.26686358575e-05
9.56248311193e-05
-2.55215286878e-05
9.69735198648e-05
-3.83210205921e-05
9.65166712863e-05
-5.10083482631e-05
9.55824414954e-05
-6.35432312214e-05
9.43125054324e-05
-7.58852177384e-05
9.27118454394e-05
-8.79922379456e-05
9.07753786835e-05
-9.98205056785e-05
8.84975094469e-05
-0.000111324501785
8.58729466719e-05
-0.000122457016413
8.28972353325e-05
-0.00013316938531
7.95673101259e-05
-0.000143411611378
7.58821004054e-05
-0.000153132980402
7.18430204834e-05
-0.000162282271726
6.74544596431e-05
-0.000170808312832
6.27241080321e-05
-0.00017866054857
5.76632449917e-05
-0.000185790220424
5.22792122972e-05
-0.000192146951467
4.65415485161e-05
-0.000197556926797
3.96421000004e-05
2.39571177809e-05
-1.29761186966e-05
0.000108600869197
-2.61458291053e-05
0.000110143156644
-3.9266210412e-05
0.000109637007698
-5.2278724033e-05
0.000108594951697
-6.51436961242e-05
0.000107177516951
-7.78211134513e-05
0.000105389333097
-9.02690170667e-05
0.000103223359607
-0.000102443297983
0.000100671826009
-0.00011429759208
9.77272049385e-05
-0.000125783312167
9.43828472923e-05
-0.00013684984044
9.06336740432e-05
-0.000147444716641
8.64768623295e-05
-0.000157514283483
8.19125078089e-05
-0.000167004036899
7.69441960756e-05
-0.000175859355205
7.15794899882e-05
-0.000184026315159
6.58303464895e-05
-0.000191453093109
5.9706181039e-05
-0.000198086701632
5.31753442245e-05
-0.000203746873011
4.53024116143e-05
2.74354279592e-05
-1.33194337833e-05
0.000121920207732
-2.68425108039e-05
0.00012366614617
-4.03209526577e-05
0.000123115392875
-5.36970128453e-05
0.000121970999636
-6.69320898228e-05
0.000120412627568
-7.9986912855e-05
0.000118444224111
-9.28198114232e-05
0.000116056333436
-0.000105386406923
0.000113238460547
-0.000117639461701
0.000109980218003
-0.000129528822859
0.000106272110232
-0.000141001659452
0.000102106345642
-0.000152002634609
9.74777256825e-05
-0.000162474623186
9.23844201942e-05
-0.000172359176272
8.68287366984e-05
-0.000181597394311
8.08177771646e-05
-0.000190130929247
7.43640284479e-05
-0.000197903477759
6.74789250972e-05
-0.000204857686955
6.01297430954e-05
-0.000210804189828
5.12490556706e-05
3.11185493434e-05
-1.3696413009e-05
0.000135616512107
-2.76076442481e-05
0.000137577277102
-4.14799067848e-05
0.000136987587109
-5.52567891534e-05
0.000135747859553
-6.89012704173e-05
0.000134057134062
-8.23752130288e-05
0.000131918226797
-9.5637493509e-05
0.000129318682992
-0.000108643605415
0.000126244602462
-0.000121345408476
0.000122681982268
-0.000133691063555
0.000118617656976
-0.000145625196693
0.000114040319117
-0.000157089131669
0.00010894154901
-0.000168021646245
0.000103316858638
-0.000178359538756
9.7166616392e-05
-0.000188038640622
9.04969474093e-05
-0.000196994989451
8.3320522768e-05
-0.000205166417113
7.56505456893e-05
-0.000212489837278
6.74533491434e-05
-0.000218764564887
5.75239213551e-05
3.50368597669e-05
-1.4104528507e-05
0.000149720920567
-2.8436392797e-05
0.000151909030114
-4.2736251317e-05
0.000151287366448
-5.69496470591e-05
0.00014996122174
-7.1041732419e-05
0.000148149232802
-8.49759857112e-05
0.000145852528505
-9.87121867958e-05
0.000143054939917
-0.000112205897279
0.000139738334401
-0.000125408143921
0.000135884171251
-0.000138265236874
0.000131474640298
-0.000150718963622
0.000126493869369
-0.000162706768367
0.000120929236131
-0.000174162601532
0.000114772610139
-0.000185017569408
0.000108021564645
-0.000195201091753
0.000100680530169
-0.000204642262301
9.27618287834e-05
-0.000213271584982
8.42800504741e-05
-0.000221018947277
7.52008857907e-05
-0.000227670153008
6.41752574852e-05
3.92269277815e-05
-1.4540667232e-05
0.000164261459368
-2.93226826753e-05
0.000166690926158
-4.40812820942e-05
0.000166045877472
-5.87647183291e-05
0.000164644612951
-7.33410296961e-05
0.000162725543658
-8.77759148186e-05
0.000160287444948
-0.000102030516118
0.000157309580159
-0.000116060772727
0.000153768592174
-0.000129816964926
0.000149640295848
-0.000143243485091
0.00014490102718
-0.000156278927533
0.000139529121836
-0.000168856280181
0.000133506460327
-0.00018090384234
0.000126820078301
-0.000192345946994
0.000119463634482
-0.000203104289019
0.000111438914338
-0.000213099499429
0.000102757153872
-0.000222253110255
9.34338215131e-05
-0.000230486558949
8.34344882862e-05
-0.000237569763683
7.12585811045e-05
4.3732034245e-05
-1.50009396075e-05
0.000179262266374
-3.02588646574e-05
0.000181948727657
-4.55039487313e-05
0.000181290866682
-6.0688088276e-05
0.000179828697159
-7.57830791973e-05
0.000177820519413
-9.07575896684e-05
0.000175261970088
-0.000105574724539
0.000172126736224
-0.00012019120391
0.000168385055538
-0.000134556793828
0.000164005782803
-0.000148613874995
0.000158957942362
-0.000162297554035
0.000153212562372
-0.000175535735258
0.000146744465867
-0.000188250124671
0.000139534321982
-0.000200357047917
0.000131570462417
-0.000211768954352
0.00012285080819
-0.000222396249641
0.000113384512
-0.000232149562233
0.000103187259246
-0.000240940199224
9.22252560908e-05
-0.000248519493583
7.8837996139e-05
4.86033541808e-05
-1.54804867388e-05
0.000194742621479
-3.12353447021e-05
0.000197703462843
-4.6990321829e-05
0.000197045746725
-6.27021096438e-05
0.00019554042315
-7.83473267216e-05
0.000193465711627
-9.38985431259e-05
0.000190813183796
-0.000109321589647
0.000187549776048
-0.000124574551806
0.000183637975423
-0.000139606956681
0.000179038038465
-0.000154359226944
0.000173710028546
-0.00016876271249
0.000167615689887
-0.000182739483106
0.000160720986236
-0.00019620368929
0.000152998279722
-0.000209062208511
0.00014442881134
-0.000221216501715
0.00013500500258
-0.00023256463162
0.000124732665923
-0.000243004054337
0.000113626765476
-0.000252433863244
0.000101655207362
-0.000260583707306
8.69879581695e-05
5.39017373538e-05
-1.59732800975e-05
0.000210715755535
-3.22401787945e-05
0.000213970228342
-4.85229869906e-05
0.000213328457216
-6.47846148759e-05
0.000211801989638
-8.10077826151e-05
0.000209688830606
-9.71701094781e-05
0.000206975486663
-0.000113241158827
0.000203620828065
-0.00012918111421
0.000199577866301
-0.000144939720601
0.000194796538596
-0.00016045562892
0.000189225691988
-0.000175656036632
0.000182815754005
-0.000190456736757
0.000175521375109
-0.000204763022387
0.000167304285452
-0.00021847079557
0.000158136334909
-0.000231468394681
0.000148002471169
-0.000243639133148
0.000136903357201
-0.000254864401537
0.000124852110751
-0.000265028691996
0.000111819598092
-0.000273836203873
9.57955849257e-05
5.97001520013e-05
-1.64718632335e-05
0.000227187456501
-3.32585729348e-05
0.000230756804837
-5.00803471476e-05
0.000230150128005
-6.69079654342e-05
0.000228629511173
-8.37318270875e-05
0.000226512658725
-0.000100536084019
0.000223779731661
-0.00011729518672
0.000220379916493
-0.000133972419962
0.000216255072541
-0.000150518511662
0.000211342461137
-0.000166870499489
0.000205577421586
-0.000182951393895
0.000198896251111
-0.00019866993107
0.000191239485732
-0.00021392143888
0.00018255534157
-0.000228588934668
0.000172803455208
-0.000242545328944
0.000161958586865
-0.00025565612644
0.000150014047666
-0.000267783364872
0.000136979361812
-0.000278793701346
0.000122830052077
-0.000288361632022
0.000105363638044
6.60869977636e-05
-1.69671047132e-05
0.000244154400577
-3.42723974753e-05
0.000248061950278
-5.16357703027e-05
0.000247513373366
-6.90379601121e-05
0.000246031646911
-8.6478974171e-05
0.000243953621136
-0.000103951122419
0.000241251829478
-0.000121435384314
0.000237864177488
-0.000138899390536
0.000233719055613
-0.000156295685495
0.000228738677297
-0.000173560365184
0.000222841961066
-0.000190612214379
0.00021594789311
-0.000207352379849
0.000207979397881
-0.000223664884414
0.000198867566821
-0.000239417889167
0.000188556195634
-0.000254466019768
0.000177006492772
-0.000268653486577
0.000164201358323
-0.000281818725447
0.000150144508332
-0.000293806862912
0.000134818146209
-0.000304257447989
0.000115814228217
7.31704918027e-05
-1.74479456303e-05
0.00026160212219
-3.52595542872e-05
0.00026587335656
-5.31568017627e-05
0.000265410450771
-7.11327585856e-05
0.000264007532702
-8.91992571486e-05
0.000262020038809
-0.000107358901668
0.000259411472446
-0.000125601101688
0.000256106381087
-0.000143899515715
0.000252017453244
-0.000162209870227
0.000247048968797
-0.00018046811166
0.000241100077454
-0.000198589073209
0.000234068663362
-0.000216465796202
0.000225855873667
-0.000233969733622
0.000216371222277
-0.000250951956628
0.000205538131862
-0.000267245605572
0.000193299879071
-0.000282669394009
0.000179624931969
-0.000297033116592
0.000164508073316
-0.000310155686575
0.000147940611975
-0.000321635564372
0.00012729407799
8.10849387881e-05
-1.79009226074e-05
0.000279502943585
-3.6193296339e-05
0.000284165632283
-5.46040169569e-05
0.000283821027136
-7.31413569053e-05
0.00028254479604
-9.18315254874e-05
0.000280710199713
-0.000110690052569
0.000278270014152
-0.000129717117676
0.000275133462977
-0.000148894551184
0.000271194883403
-0.000168183044525
0.000266337413105
-0.000187519672458
0.000260436595242
-0.000206815945355
0.000253364757094
-0.00022595657584
0.000244996264603
-0.000244799235821
0.000235213599044
-0.000263175526018
0.000223914123762
-0.00028089347002
0.000211017536376
-0.000297741317365
0.000196472530445
-0.000313494094363
0.000180260653543
-0.000327938773185
0.000162385153218
-0.000340625360254
0.000139980621369
8.99989855776e-05
-1.8310160622e-05
0.000297813018679
-3.70417627191e-05
0.000302897153501
-5.59301881384e-05
0.00030270939455
-7.50022870443e-05
0.000301616869614
-9.43017351525e-05
0.000300009654898
-0.000113859947854
0.00029782825616
-0.000133690823472
0.000294964371603
-0.000153787094317
0.000291291168104
-0.000174116795819
0.000286667085496
-0.000194620009388
0.000280939719293
-0.000215206080716
0.000273950670483
-0.000235751597004
0.000265541559598
-0.000256099453721
0.000255561187145
-0.000276059356209
0.000243873735319
-0.000295410170175
0.000230368064474
-0.000313903886932
0.000214965991793
-0.000331273361557
0.00019762992125
-0.000347266618097
0.000178378263941
-0.000361376467325
0.000154090425511
0.000100127539084
-1.86567007992e-05
0.000316469636662
-3.77669891171e-05
0.000322007363504
-5.70790826528e-05
0.000322021434375
-7.66420883757e-05
0.000321179856389
-9.6520771251e-05
0.000319888353952
-0.000116766019623
0.000318073546544
-0.000137409016474
0.000315607418658
-0.000158456829891
0.000312339016884
-0.000179887996794
0.000308098249098
-0.000201648273166
0.000302699935254
-0.000223646759862
0.000295949031197
-0.000245752772278
0.000287647383469
-0.000267793878721
0.000277602057242
-0.000289555588345
0.000265635183432
-0.000310783258574
0.000251595474177
-0.000331185959711
0.000235368457328
-0.000350445523165
0.00021688929226
-0.000368262454806
0.000196195059919
-0.000384062333472
0.000169890266723
0.000111748974683
-1.89182982295e-05
0.000335387813318
-3.83243025006e-05
0.000341413259822
-5.7984192484e-05
0.000341681250062
-7.79735451954e-05
0.000341169181243
-9.83823010129e-05
0.00034029713151
-0.000119285000066
0.000338976308861
-0.000140734427027
0.000337056931474
-0.000162756289089
0.000334360960172
-0.000185343783481
0.000330685792512
-0.000208452051626
0.000325808195304
-0.000231992920712
0.000319489821988
-0.000255830263095
0.000311484578507
-0.000279776537985
0.000301548130235
-0.000303591168828
0.000289449582022
-0.000326981535618
0.000274985605082
-0.000349606307206
0.000257993012325
-0.00037108587659
0.000238368680511
-0.000391062933086
0.000216171983665
-0.000408884372855
0.000187711668739
0.000125230686124
-1.90690531735e-05
0.000354456690155
-3.86616100354e-05
0.000361005664621
-5.85677269807e-05
0.000361587265943
-7.88941221202e-05
0.000361495544324
-9.976049945e-05
0.000361163551499
-0.000121269947405
0.000360485863673
-0.000143501938411
0.000359289068138
-0.000166506150228
0.000357365339617
-0.000190295842383
0.000354475607533
-0.000214840631086
0.000350353033886
-0.000240059480573
0.000344708634593
-0.000265814060048
0.000337239038151
-0.000291903178552
0.000327637065283
-0.000318059145062
0.000315605330856
-0.000343947127235
0.000300873362673
-0.000369167270885
0.000283212943894
-0.000393266514949
0.00026246773889
-0.000415817547598
0.000238722874376
-0.000436076416223
0.000207970496513
0.000141068311199
-1.90791655438e-05
0.000373535654822
-3.87188214612e-05
0.000380645147883
-5.87396229519e-05
0.000381607955282
-7.92845024796e-05
0.000382040394515
-0.000100507992547
0.00038238710078
-0.000122547256845
0.000382525263783
-0.000145514559797
0.000382256589368
-0.000169490114715
0.000381341121896
-0.000194513923739
0.000379499616957
-0.000220577112261
0.000376416321143
-0.000247612079718
0.000371743597341
-0.000275483543197
0.000365110406044
-0.000303980020614
0.000356133379861
-0.000332807212732
0.000344432321823
-0.000361584660763
0.000329650595987
-0.000389845601159
0.00031147367327
-0.000417050015734
0.000289671960827
-0.000442686527658
0.000264359237953
-0.000465909135207
0.000231193060818
0.000159947881524
-1.89147791797e-05
0.000392450146987
-3.84274727325e-05
0.000400157586488
-5.83968436676e-05
0.000401577152587
-7.90073676317e-05
0.000402650860873
-0.000100453884163
0.000403833688633
-0.000122913837208
0.000404985420141
-0.00014653938187
0.000405882448606
-0.000171449189519
0.000406251306931
-0.000197718662024
0.00040576953361
-0.000225369334152
0.000404067160604
-0.000254356112046
0.000400730394637
-0.000284554735865
0.000395308914138
-0.000315749594429
0.000387328014931
-0.000347622794923
0.000376305231474
-0.000379746583212
0.000361774062906
-0.000411579378447
0.00034330614366
-0.000442479545359
0.000320571826607
-0.000471835506083
0.000293714958568
-0.000498692960931
0.000258050418154
0.000182847183176
-1.85378664142e-05
0.000410987862202
-3.7710505951e-05
0.000419330094977
-5.74229643373e-05
0.000421289529806
-7.79066268385e-05
0.000423134511589
-9.94023823136e-05
0.000425329506051
-0.000122134778331
0.000427717963924
-0.000146303975778
0.000430051846967
-0.000172076542934
0.000432024106124
-0.000199574075896
0.00043326737187
-0.000228860072843
0.000433353238283
-0.000259924052058
0.000431794366812
-0.000292664884366
0.00042804965481
-0.000326872856787
0.000421535827075
-0.000362213436473
0.000411645604327
-0.000398213171254
0.000397773566619
-0.000434249545122
0.000379342282919
-0.000469564237991
0.000355886306379
-0.000503426635902
0.000327577196427
-0.00053477675212
0.000289400493997
0.000211203784024
-1.79064840756e-05
0.000428894216716
-3.64826608352e-05
0.000437906162835
-5.56885056845e-05
0.000440495314588
-7.58073783573e-05
0.000443253390068
-9.71319986413e-05
0.000446654199352
-0.000119941320071
0.000450527417437
-0.00014449262632
0.000454603328398
-0.000171011522478
0.000458543188665
-0.000199678924001
0.000461935019934
-0.000230615201372
0.000464289620525
-0.000263860578567
0.000465039740602
-0.00029935380047
0.00046354274125
-0.00033690703114
0.000459088853223
-0.00037618170909
0.000450920029851
-0.00041666578736
0.000438257369818
-0.000457654085112
0.000420330308995
-0.000498258487642
0.000396490470331
-0.000537605915902
0.000366924452957
-0.000574537391363
0.000326331929309
0.000247187614671
-1.69755210255e-05
0.000445869624333
-3.4651672974e-05
0.000455582223409
-5.30521495805e-05
0.000458895749086
-7.25169251035e-05
0.000462718187555
-9.33960930791e-05
0.000467533451467
-0.000116030487397
0.000473161941929
-0.000140744532486
0.000479317525653
-0.000167835640935
0.000485634427674
-0.000197559764879
0.000491659192782
-0.000230112693094
0.000496842505995
-0.000265606620018
0.000500533563918
-0.00030404254295
0.000501978473243
-0.000345278423943
0.000500324477009
-0.000388992726845
0.000494634030705
-0.000434650542934
0.000483914867383
-0.000481471005342
0.000467150466862
-0.00052843235891
0.000443451566242
-0.000574500726118
0.000412992644037
-0.00061836332307
0.000370194482627
0.000294091736211
-1.56963418248e-05
0.000461565864547
-3.21188981234e-05
0.000472004700325
-4.9362548789e-05
0.000476139369219
-6.78271480893e-05
0.000481182818166
-8.7924851526e-05
0.000487631243474
-0.000110066058168
0.000495303274175
-0.000134653003868
0.000503904603543
-0.00016206920507
0.000513050717049
-0.000192663905237
0.000522253881896
-0.000226730956027
0.000530909447687
-0.000264481380024
0.000538283787838
-0.000306008991565
0.000543505841696
-0.000351250007594
0.000545565190773
-0.000399933625139
0.000543317308835
-0.000451529926085
0.000535510822226
-0.000505203029894
0.000520823250597
-0.0005598114213
0.000498059697415
-0.000614194738088
0.000467375796038
-0.00066666664178
0.000422666351044
0.000356895393973
-1.40200644908e-05
0.000475585833802
-2.8783333828e-05
0.000486767895459
-4.44621315803e-05
0.000491818139884
-6.1518198812e-05
0.000498238916986
-8.04290968647e-05
0.000506542225337
-0.0001016817489
0.000516556039905
-0.000125767178782
0.000527990143465
-0.000153170446626
0.000540454035185
-0.000184354777642
0.000553438148956
-0.000219738723707
0.00056629322644
-0.00025966532416
0.000578210104923
-0.000304360839055
0.000588201073458
-0.000353884108196
0.0005950881287
-0.000408063845996
0.000597496689626
-0.000466420819563
0.000593867444111
-0.00052809904981
0.000582501166999
-0.000591843147367
0.00056180355148
-0.000656361402072
0.000531893906617
-0.000719891206737
0.000486196160216
0.000443798707406
-1.18987530753e-05
0.000487484491851
-2.45456943704e-05
0.000499414760899
-3.81933663761e-05
0.000505465780663
-5.3365178622e-05
0.000513410753079
-7.06068327057e-05
0.000523783950842
-9.04875081248e-05
0.000536436811271
-0.000113597253072
0.000551099974636
-0.000140538472152
0.000567395270753
-0.000171910855808
0.000584810424989
-0.000208287997394
0.000602670154958
-0.000250184387568
0.000620106147736
-0.000298008250126
0.000636024628864
-0.000352000986641
0.000649080523098
-0.000412157866382
0.000657653214415
-0.000478124521228
0.000659833761845
-0.000549087919715
0.000653464276034
-0.000623675933223
0.000636391355289
-0.000700356230121
0.00060857408592
-0.000778613268327
0.000564453186756
0.000565710966537
-9.29023498563e-06
0.000496774626861
-1.93147619588e-05
0.000509439205567
-3.04043065061e-05
0.000516555285202
-4.31456420777e-05
0.000526152100595
-5.81525359238e-05
0.000538790900785
-7.60798496528e-05
0.000554364202551
-9.76244326621e-05
0.000572644623102
-0.000123521421747
0.000593292250701
-0.000154530025782
0.000615818891478
-0.000191411872736
0.000639551760221
-0.000234898235814
0.000663592123966
-0.000285638827
0.000686764904748
-0.000344133748127
0.000707575105465
-0.000410637335137
0.000724156461356
-0.000485033489749
0.00073422960495
-0.000566673878401
0.000735104410336
-0.000654211645502
0.000723928948942
-0.000746060448298
0.000700422811746
-0.000841452036269
0.00065984481551
0.000727682468975
-6.1681217843e-06
0.000502942641725
-1.30136301897e-05
0.000516284624365
-2.09526740135e-05
0.000524494280327
-3.06485461992e-05
0.000535847974198
-4.27708120194e-05
0.000550913210676
-5.80575296821e-05
0.000569650985267
-7.73179628789e-05
0.00059190511006
-0.000101432724044
0.000617406990455
-0.000131342810577
0.000645728828642
-0.0001680319389
0.000676240638218
-0.000212497695306
0.000708057480907
-0.000265698615724
0.000739965512812
-0.000328485379041
0.000770361538262
-0.000401492649455
0.000797163406338
-0.000484996326566
0.000817732992523
-0.000578704115518
0.000828811973526
-0.000681527998964
0.000826752686762
-0.000791987915427
0.000810882677764
-0.00090974830452
0.000777605239952
0.000941210590812
-2.51771481005e-06
0.000505460245188
-5.56571409735e-06
0.000519332530674
-9.70491633299e-06
0.000528633430401
-1.56920466463e-05
0.000541835102181
-2.41998704267e-05
0.000559421075263
-3.60481357666e-05
0.000581499314115
-5.21603936257e-05
0.000608017422926
-7.35770841509e-05
0.000638823662873
-0.000101436591677
0.000673588192757
-0.000136977520046
0.000711781324307
-0.000181514848168
0.000752594418135
-0.000236386621322
0.000794836976812
-0.000302897971229
0.000836872555713
-0.000382209235505
0.000876474341416
-0.000475185865139
0.000910709331314
-0.000582172474382
0.000935798360026
-0.000702786448168
0.000947366519582
-0.000836313161625
0.000944409340221
-0.000983180330218
0.000924472410092
0.00122222670034
1.72761279774e-06
0.0005037325233
3.11969429417e-06
0.000517940360905
3.3051081419e-06
0.000528447969821
1.80233071139e-06
0.000543337883469
-2.25689272945e-06
0.000563480347188
-9.74820797342e-06
0.000588990702778
-2.16866023204e-05
0.000619955884707
-3.92912657715e-05
0.000656428322338
-6.38952026759e-05
0.000698192000369
-9.70227403135e-05
0.000744908630871
-0.000140355566451
0.000795926863657
-0.000195674767707
0.000850155854658
-0.000264847078091
0.000906044502269
-0.000349718589682
0.00096134548127
-0.000451973217217
0.00101296362398
-0.000572919070302
0.00105674395146
-0.000713779646947
0.00108822692438
-0.0008763207826
0.00110695040811
-0.00105790559831
0.00110605718597
0.0015755352979
6.66706905926e-06
0.000497065356332
1.29900613313e-05
0.000511617294561
1.83437248291e-05
0.000523094274683
2.19737561883e-05
0.000539707871401
2.31674159808e-05
0.00056228675178
2.10045630557e-05
0.000591153645086
1.43672910505e-05
0.000626593239199
1.97009871403e-06
0.000668825522628
-1.78600756476e-05
0.000718022047638
-4.69448050935e-05
0.000773993118927
-8.7358786302e-05
0.000836340443475
-0.000141359134562
0.000904155826261
-0.000211476292951
0.000976161216567
-0.000300394606927
0.00105026332547
-0.000410849870499
0.00112341845366
-0.000545332032395
0.00119122576426
-0.000707725665943
0.0012506203145
-0.000907148081798
0.00130637273424
-0.00112251311457
0.00132142228116
0.0018911162137
1.20613726742e-05
0.000485003905396
2.39223736656e-05
0.000499756242224
3.49971767091e-05
0.000512019462409
4.46304704241e-05
0.000530074617647
5.20998128146e-05
0.000554817492134
5.64757903622e-05
0.000586777770691
5.65496078459e-05
0.000626519511908
5.07901847918e-05
0.000674584948196
3.74152236753e-05
0.000731396849728
1.43307887673e-05
0.000797077252735
-2.09042715594e-05
0.00087157501581
-7.11673976876e-05
0.000954418466873
-0.000139713610267
0.00104470684236
-0.000230151734169
0.00114070081687
-0.000346540666142
0.00123980679311
-0.00049302458468
0.00133770919051
-0.000678477312567
0.00143607272677
-0.000910700803388
0.00153859598852
-0.00114137819426
0.00155210724429
0.00173864167609
1.78680193905e-05
0.000467135834271
3.57497252544e-05
0.000481874514419
5.31394662945e-05
0.000494629739571
6.94909949023e-05
0.000513723152456
8.4164763318e-05
0.000540143825468
9.62637132097e-05
0.0005746789366
0.000104534496196
0.000618248817027
0.000107352756348
0.000671766679875
0.000102665122287
0.000736084256036
8.79956698232e-05
0.000811746271398
6.04913223121e-05
0.000899078647596
1.69629412928e-05
0.000997946078182
-4.64007952732e-05
0.00110806963148
-0.000134460054886
0.001228759022
-0.000252829404192
0.0013581751467
-0.000407543034412
0.00149242199398
-0.000613796400463
0.00164232556203
-0.0008795625645
0.00180436203566
-0.00117825538731
0.00185080572212
0.00175555625232
2.39701840448e-05
0.000443165651865
4.8245152765e-05
0.000457599572907
7.24153863312e-05
0.000470459564424
9.6143316835e-05
0.000489995302064
0.000118946745032
0.0005173405079
0.000140027169464
0.000553598630689
0.000158157448651
0.000600118676701
0.000171570883873
0.000658353207956
0.000177938877825
0.000729715875723
0.000174494795699
0.000815189810854
0.000158190633964
0.000915381593729
0.00012523416362
0.00103090130798
7.1209792224e-05
0.00116209241769
-9.38859533236e-06
0.00130935577096
-0.000124139337112
0.00147292432027
-0.000280491901811
0.00164877340375
-0.000491328340283
0.00185316131598
-0.000794541723074
0.00210757526689
-0.00117713727083
0.00223340659443
0.0018844729018
3.01686194679e-05
0.000412997096719
6.10174005552e-05
0.000426750877175
9.22773351906e-05
0.000439199705282
0.000123905507466
0.000458367311039
0.000155684866887
0.000485561287935
0.000187019205565
0.000522264552219
0.000216756563957
0.000570381464925
0.000243053421215
0.00063205630042
0.000263220033291
0.000709549058441
0.000274171830324
0.000804237267259
0.000272556940951
0.000916995208845
0.000254585582666
0.00104887111301
0.000215729141852
0.00120094703493
0.00015035818964
0.00137472472041
4.94487518605e-05
0.00157383202356