/*--------------------------------*- C++ -*----------------------------------*\
| =========                 |                                                 |
| \\      /  F ield         | OpenFOAM: The Open Source CFD Toolbox           |
|  \\    /   O peration     | Version:  v2012                                 |
|   \\  /    A nd           | Website:  www.openfoam.com                      |
|    \\/     M anipulation  |                                                 |
\*---------------------------------------------------------------------------*/
FoamFile
{
    version     2.0;
    format      ascii;
    class       volVectorField;
    location    "4";
    object      ddtCorrDdt0(U);
}
// * * * * * * * * * * * * * * * * * * * * * * * * * * * * * * * * * * * * * //

dimensions      [0 1 -2 0 0 0 0];


internalField   nonuniform List<vector> 
1984
(
(-0.00515623327526 0.00513942483294 3.77565680001e-23)
(-0.00539166070294 0.0150364719091 -1.23433294728e-22)
(-0.00539727825145 0.0253674727621 8.73995854192e-23)
(-0.00538251077727 0.0356354222416 1.1744178768e-22)
(-0.00537092255082 0.0458853648184 1.07320696558e-22)
(-0.00535594863913 0.0560850288311 5.68861202976e-24)
(-0.00530807469661 0.0661695711524 -1.08416161156e-22)
(-0.00520665514755 0.0760635984697 -3.17415703215e-22)
(-0.00502655648786 0.0856172141879 -1.8075452747e-22)
(-0.00473546611787 0.0946693197413 -2.57821355057e-23)
(-0.00426834627607 0.102993428953 1.42638820459e-22)
(-0.00354618520465 0.110145976984 5.94325523312e-24)
(-0.0023960862896 0.115444265949 1.71372289667e-22)
(-0.000552196923522 0.117974957046 -3.10776596079e-22)
(0.00281129541613 0.1171083629 -5.38026244811e-23)
(0.00841056414684 0.106414131339 -7.3084384801e-22)
(0.00681422028608 0.097857955201 -8.04862428599e-21)
(-0.0210707615272 0.0713783921567 -1.00302077137e-20)
(-0.269290633749 -0.133859861326 -5.53432956091e-20)
(-1.31505556308 1.50281376257 1.60445754811e-20)
(-0.0150464778266 0.00538726960093 5.61794976925e-23)
(-0.0153369610176 0.0152785119248 -3.323173181e-23)
(-0.0153415089254 0.0255790220625 9.04186232375e-23)
(-0.0153420080611 0.0358861869257 2.18344281257e-22)
(-0.0153354452682 0.0462090714247 3.25510200686e-22)
(-0.0152954399581 0.0565251751114 1.00928081681e-22)
(-0.0151673513869 0.0667727269913 -6.59493181303e-23)
(-0.014878275659 0.0768779811225 -1.03990469031e-22)
(-0.0143727838375 0.0867015543641 1.57543974882e-23)
(-0.0135411646134 0.0961158554254 5.14604166397e-23)
(-0.0122469891829 0.104923866879 2.92264126984e-23)
(-0.0102621352279 0.112777030967 8.44104351944e-23)
(-0.0072611517684 0.119231687185 1.61522433677e-22)
(-0.00270286002506 0.123742978161 8.44655682968e-22)
(0.00422325024381 0.127070857227 1.67028425104e-21)
(0.0144675445055 0.125489193695 -6.46546512914e-22)
(0.0207440912878 0.121508184449 -1.1015272916e-21)
(0.0264178008753 0.106977562103 -1.24709855327e-21)
(-0.0219787503651 0.0464761264553 -3.22031109507e-23)
(-0.795038445699 -1.44779675277 -3.45372245816e-20)
(-0.0253213453267 0.00539385140013 -4.64952998259e-23)
(-0.0255924389933 0.0152378209761 2.67664908526e-23)
(-0.0256497651356 0.0255597737123 1.99282815941e-23)
(-0.0257122408016 0.0358768717396 1.76265113025e-22)
(-0.0257498769099 0.0462542291724 1.642200444e-22)
(-0.0257280468709 0.0566681806568 1.64886757705e-22)
(-0.0255727614519 0.0670897631231 -1.36781425605e-23)
(-0.0251879009932 0.0774479729437 3.21348098652e-23)
(-0.0244537379465 0.087636908264 -3.63523510468e-23)
(-0.0232471976757 0.0975683635132 3.97693775286e-23)
(-0.0213558682285 0.107121063244 5.33023679274e-23)
(-0.0184299611594 0.116070879937 2.25525703903e-22)
(-0.0140193971248 0.124128337388 2.39801532877e-22)
(-0.00749606114223 0.130906363956 -2.12058342614e-21)
(0.0018907094806 0.137288617226 5.30596805835e-21)
(0.0145611319611 0.138572817103 -1.60484809529e-20)
(0.0233311002884 0.131584044487 -1.13875832978e-20)
(0.0402184751556 0.120342285232 3.29131834758e-20)
(0.197337893173 0.26531282181 -4.74163019736e-20)
(0.319635891103 -0.101428168502 -1.57843594776e-20)
(-0.0355213336192 0.0053544971583 -1.1933367405e-22)
(-0.0358338461019 0.0151563140971 -2.71043663263e-22)
(-0.0359508155548 0.0254679908735 -6.96629538397e-24)
(-0.0360910615942 0.035784284367 1.32007378529e-22)
(-0.0362211455642 0.0462119894774 1.11393934692e-22)
(-0.036292325747 0.0567439887124 4.71066447268e-23)
(-0.0362113653266 0.0673705233183 2.82170444166e-23)
(-0.0358691481759 0.0780723175827 -4.76789539767e-23)
(-0.0351069055367 0.0887447472742 -1.6677023101e-23)
(-0.0337336711357 0.0993387961751 9.10097326069e-23)
(-0.0315317126466 0.109869795882 2.78435585889e-23)
(-0.0281385489968 0.120239513491 -6.32348157409e-24)
(-0.0229647917041 0.130285990239 -7.15922315989e-23)
(-0.0153508896928 0.139877777411 -1.89724806154e-22)
(-0.00450241090463 0.149583417674 -9.40546957591e-23)
(0.0107018931833 0.15702574612 1.30890932301e-21)
(0.0231052647348 0.151049422864 3.277914222e-21)
(0.0534731618161 0.147062996668 1.46347751437e-20)
(0.17751438649 0.255323704857 1.14434115682e-20)
(0.0944387809855 0.275245413851 -1.45803151458e-19)
(-0.0456300915967 0.00530177906354 3.3252224154e-23)
(-0.0459956860639 0.0150240661618 -3.2528436521e-22)
(-0.0462034859286 0.0252836613735 7.17680842735e-24)
(-0.0464555112914 0.0355814209053 6.4272591393e-23)
(-0.0467283037722 0.0460395293112 7.43113429375e-23)
(-0.0469663841119 0.0566793970348 3.43341708625e-23)
(-0.0470717125343 0.0675204407966 1.33706334496e-24)
(-0.046917471803 0.0785634708029 -2.32903175232e-23)
(-0.0463485239438 0.0897963296217 -1.94858844385e-23)
(-0.0451089605059 0.101191754269 1.30777664111e-23)
(-0.042953257112 0.112777490573 -4.99187652411e-24)
(-0.0395418214122 0.124687097131 1.79395603761e-23)
(-0.0343116460179 0.13690500175 1.5231581051e-22)
(-0.0265468015183 0.149384837172 -7.13412834905e-22)
(-0.0154330411978 0.1630755541 -7.21781414041e-22)
(0.000242367031834 0.176599344517 -1.54385715284e-21)
(0.014266239991 0.170209522358 -1.23299649532e-20)
(0.0469984458121 0.173953753869 1.00461955735e-20)
(0.0771742176627 0.26524245858 -1.09645370655e-20)
(0.164416801818 0.206579730034 5.66175817734e-22)
(-0.0556163674193 0.00523772385338 8.07124770734e-24)
(-0.0560740979721 0.01482722938 -1.20060241328e-22)
(-0.0563841567732 0.0249776653841 3.1939335187e-23)
(-0.0567911620049 0.0352272715328 5.9887817468e-23)
(-0.0572682301581 0.045676935581 4.79155500871e-23)
(-0.0577610375825 0.0563880263868 3.1053012476e-23)
(-0.0581691955594 0.0674115542197 2.05684343992e-25)
(-0.0583635620506 0.078784897241 -5.69054541544e-24)
(-0.0581777797589 0.090532895929 1.16257706517e-24)
(-0.0573991581621 0.102718288314 -3.92062692915e-24)
(-0.0557098006275 0.115436454981 5.3415745843e-24)
(-0.0527807721522 0.128868837084 1.29214881993e-22)
(-0.0481232940759 0.143200056997 2.50506559041e-22)
(-0.0410577112414 0.158684868786 1.51257786542e-22)
(-0.0308537641425 0.17560117348 -5.0318629702e-22)
(-0.0170504275357 0.193886001392 -3.44977012037e-21)
(-0.00265181853944 0.186917354695 -1.54391273037e-20)
(0.0273988235906 0.198702316364 1.16855615672e-20)
(0.0698699136969 0.264566690393 -2.6595818176e-20)
(0.285756214708 0.036123881081 -4.37643374755e-21)
(-0.0654280473054 0.00514173986007 3.94444736209e-23)
(-0.0660133181579 0.0145448159766 -6.06585633575e-23)
(-0.0664420397728 0.0245307366839 1.12290684018e-23)
(-0.067048864612 0.0346610269769 8.63401932807e-23)
(-0.0677982582937 0.0450427387815 8.66203174902e-23)
(-0.0686335247915 0.0557657283825 2.12306350553e-23)
(-0.069468023162 0.0669119296293 1.57884644006e-23)
(-0.0701702874711 0.07854706941 -1.51240396136e-24)
(-0.0705902792277 0.0907390087669 2.9747958127e-24)
(-0.0705178630787 0.103623828156 -7.83315618402e-24)
(-0.0696845364143 0.117356246772 -9.66600596264e-26)
(-0.0677664744974 0.132226458765 5.95098984425e-23)
(-0.0643023874381 0.148529911432 4.4106486134e-22)
(-0.0587303241161 0.166529838979 9.05774379706e-22)
(-0.0505484710576 0.186048702602 4.17269490265e-21)
(-0.0389970949683 0.208045403487 -2.35526958267e-20)
(-0.0261713465032 0.199357848979 -2.42506557347e-20)
(-0.00015942216123 0.214352216086 1.35237940637e-21)
(0.196076412723 0.225180741191 2.01851536561e-20)
(0.952696394315 -0.495891063531 8.89665211319e-20)
(-0.0750035267176 0.0050073048413 4.43800827415e-23)
(-0.0757303845882 0.0141512543773 -7.76830166085e-23)
(-0.0763128554926 0.0238993540146 4.26032557355e-23)
(-0.0771612311876 0.0338283366808 7.47475362611e-23)
(-0.0782440894318 0.0440630676139 6.86482377686e-23)
(-0.0795113233622 0.0547061589874 4.73150473153e-23)
(-0.0808829073136 0.0658692544077 9.69491074296e-24)
(-0.0822529883967 0.0776541942222 2.43138364524e-24)
(-0.0834793653418 0.0901687903297 -1.07777130548e-23)
(-0.0843811097031 0.103594993495 6.95340573136e-24)
(-0.0847309750379 0.11814108666 3.3183891806e-23)
(-0.0842403083642 0.134189222035 4.91703764734e-23)
(-0.0825543684519 0.152127407094 3.29136522906e-22)
(-0.0792210369667 0.172311343829 7.19677000421e-22)
(-0.0738204497626 0.194362092721 3.64462500788e-21)
(-0.065335645286 0.218625356275 -6.68213410134e-21)
(-0.0541709260668 0.209386520922 -3.91642924016e-20)
(-0.0336860335317 0.22757807164 8.43525857391e-21)
(0.389274953405 0.230957320892 3.83451643107e-20)
(2.13412475267 -0.408134055414 -9.40460252369e-21)
(-0.0842691557684 0.00482696005721 -7.79739909696e-23)
(-0.0851463350261 0.0136247018725 -1.59553852266e-22)
(-0.0859068821571 0.0230515109689 -6.45375573303e-23)
(-0.0870354516756 0.0326795512521 4.23516980402e-23)
(-0.0885055392935 0.0426583115528 5.44411442841e-23)
(-0.0902850383212 0.053112631323 -3.85406850256e-24)
(-0.0922996535129 0.0641629807092 2.71873005667e-23)
(-0.0944687372327 0.0759419528275 -1.57093397998e-24)
(-0.0966766926255 0.0885946698743 2.30471989468e-24)
(-0.098781940128 0.10234305931 -3.78477264873e-24)
(-0.100598611108 0.117450480061 7.07459821515e-24)
(-0.101897609056 0.134335125939 6.91744795746e-23)
(-0.102404615982 0.153431224525 1.66150752543e-22)
(-0.101803374561 0.175115086401 3.79568348208e-22)
(-0.0998026164299 0.199024256322 1.77299236552e-21)
(-0.095241403986 0.224953420505 -9.44696338415e-22)
(-0.0854274050793 0.215380219716 1.18545982608e-21)
(-0.075534163872 0.234657078949 1.03420987392e-20)
(0.393168535876 0.338112072754 7.87873786207e-21)
(2.82435903114 0.529186491254 1.73340872115e-19)
(-0.0931385323966 0.00460038792945 -1.392526789e-22)
(-0.0941574843071 0.0129551229734 -2.3139044414e-22)
(-0.0951232781204 0.0219554259278 -9.08977591383e-23)
(-0.0965612487167 0.0311720087093 2.18483907827e-23)
(-0.0984645162661 0.0407738319703 4.41334704802e-23)
(-0.100813223362 0.0508948418952 1.72825765162e-23)
(-0.103560140973 0.0616764624396 2.1526218976e-24)
(-0.106637598718 0.0732666796226 1.61890431905e-25)
(-0.109969433051 0.0858382237645 -2.49392380268e-23)
(-0.11344952208 0.099643505978 -1.94113376383e-24)
(-0.11696941172 0.114981146718 1.34355716811e-23)
(-0.120326243934 0.132315123172 2.57334955886e-23)
(-0.123339224893 0.152101800778 6.45358731169e-23)
(-0.125756891498 0.174725498383 2.54758692531e-22)
(-0.12732247815 0.199962285322 2.03027513371e-22)
(-0.126833844536 0.227336353367 5.48797072985e-22)
(-0.119001463903 0.218749657794 -1.65725936089e-20)
(-0.123308668797 0.239065392859 6.56564994851e-21)
(-0.15241876094 0.560157308972 3.31862352316e-20)
(0.154019432143 4.28799948477 -2.73204584966e-20)
(-0.101495542245 0.00432703190922 -1.48312832777e-23)
(-0.102672177774 0.0121335861584 -1.80356144894e-22)
(-0.103853371498 0.0205855854305 -3.88867859506e-23)
(-0.105625035129 0.0292739041315 4.09538283961e-23)
(-0.1079876607 0.0383628939997 3.71655303651e-23)
(-0.110947217024 0.0479979681909 2.54028419027e-23)
(-0.114478359215 0.0583278241771 -2.38680964461e-24)
(-0.118545753557 0.06952003407 -7.35458869784e-24)
(-0.123103244632 0.0817654710307 1.01376460104e-23)
(-0.128091684765 0.0953130410532 4.15555024722e-23)
(-0.133453470923 0.110527497965 2.11394191519e-23)
(-0.139075819605 0.127891663806 3.03350810943e-23)
(-0.14482750165 0.14787923837 9.58747489495e-23)
(-0.150524840653 0.170940493821 1.49400474713e-22)
(-0.155956997308 0.197110088119 -2.05428160336e-22)
(-0.159910034134 0.225928881315 3.74019313977e-21)
(-0.153459213004 0.218765314653 8.63080662402e-21)
(-0.168751609923 0.238390408171 1.03726701115e-20)
(-0.732892844879 0.391870282585 4.74014924447e-20)
(-2.62535216085 0.785632815836 1.63909723469e-19)
(-0.109235275193 0.00399482831499 1.18963116476e-22)
(-0.110580107697 0.0111440327989 -3.63382149564e-23)
(-0.111975390427 0.0189351309895 1.14662245148e-23)
(-0.114088228907 0.0269662265566 2.52528005587e-23)
(-0.116925280926 0.0354025744541 3.49302398597e-23)
(-0.12051876009 0.0443826972925 1.51625156935e-23)
(-0.124861688161 0.0540673102457 2.38458697061e-23)
(-0.129952407474 0.0646293796897 -6.06099165232e-24)
(-0.135790090818 0.0762734156759 5.23427169258e-24)
(-0.142371735656 0.0892661886303 3.58210043298e-23)
(-0.14965849949 0.103954329105 -1.83600305768e-23)
(-0.157673354853 0.120861648466 -3.59105895419e-23)
(-0.166342689378 0.140532224831 4.54543897633e-23)
(-0.175612501953 0.163459107716 3.13707245359e-22)
(-0.185336767229 0.190076041533 -2.3031618247e-22)
(-0.194298598175 0.22093777751 5.20987246235e-22)
(-0.189299461939 0.217034965426 2.3666445724e-21)
(-0.208150982642 0.235780231864 5.61351648509e-21)
(-0.844236271347 0.334961584696 7.04597706337e-21)
(-2.35284276389 0.036642770524 -4.76070268809e-20)
(-0.116253630105 0.00361101967238 4.17691497545e-23)
(-0.117759697192 0.00999185318997 -1.86883655055e-22)
(-0.119370671705 0.0170046039503 -1.14875533772e-22)
(-0.121816271921 0.0242456651829 -1.23711327591e-23)
(-0.125129918986 0.0318775310196 6.93059021927e-23)
(-0.129348066433 0.0400371605298 1.50849484482e-23)
(-0.13449913231 0.0488828325683 4.76592387146e-24)
(-0.140617034472 0.0585826211999 2.29506813984e-23)
(-0.147732113107 0.0693325062576 2.84600269437e-23)
(-0.155900302754 0.0814225041112 -1.41356731842e-23)
(-0.16516347334 0.0951858931605 1.49967244176e-23)
(-0.175595829471 0.111131606248 2.7845618164e-23)
(-0.187272461551 0.129840166313 2.30116695428e-23)
(-0.200257340693 0.151868294484 6.44816211302e-22)
(-0.214550166739 0.17796078411 4.80675066613e-21)
(-0.229053252277 0.209624149139 -1.29718230017e-21)
(-0.227851622138 0.21115863493 -1.79753174925e-20)
(-0.246831609401 0.231099576049 1.17794161633e-21)
(-0.778314534513 0.304142589327 -1.1581047361e-20)
(-1.32887431365 -0.471699679231 -2.38999111121e-21)
(-0.122449451615 0.00317125785549 3.43886074858e-23)
(-0.124104784821 0.00867877445627 -2.77329600384e-22)
(-0.125924711907 0.0147995051547 -1.94679381349e-22)
(-0.12868607713 0.0211227179051 -6.22753966485e-23)
(-0.132445899373 0.0278125237711 1.3451986086e-23)
(-0.137261714681 0.0349879660118 3.68357362446e-23)
(-0.143186548274 0.0427895551063 4.5865505176e-23)
(-0.150278629429 0.0513930588567 1.61787847083e-25)
(-0.158620925146 0.0609838969016 1.51678272131e-23)
(-0.168314715274 0.071821433704 1.99407732467e-24)
(-0.179481606736 0.0842252477941 1.02339803395e-23)
(-0.192294983726 0.0986811003827 6.5825736327e-23)
(-0.206926228595 0.115778975845 1.40485485602e-22)
(-0.223637324489 0.136093503966 3.09001483501e-22)
(-0.242660995242 0.160537626317 -1.23870901738e-21)
(-0.263392137293 0.191654191643 7.37370987886e-21)
(-0.269862090305 0.202504195135 2.06294850591e-20)
(-0.293385668128 0.225554621324 -3.25559395665e-20)
(-0.815334168345 0.385955011049 7.31115140826e-21)
(-0.472812153683 0.279697442681 -1.78691864384e-19)
(-0.127728039053 0.00268663498356 -8.87703131407e-23)
(-0.129522582083 0.00722210455985 -2.50460911482e-22)
(-0.131523864529 0.0123400016685 -1.62034580604e-22)
(-0.134570212891 0.0176335666165 -9.67598203065e-23)
(-0.138730340269 0.0232407229372 -2.58748298234e-23)
(-0.144086241842 0.029273436582 3.81418418561e-24)
(-0.150703359266 0.0358638191394 9.23923360024e-24)
(-0.158685063191 0.0431531961243 -1.09420716991e-23)
(-0.168151215075 0.0512992152509 1.74124234754e-23)
(-0.179246200833 0.0605596497908 3.16836572651e-23)
(-0.192168110611 0.0711830138402 -7.2076372154e-23)
(-0.207173809704 0.0836266245808 -2.12147129702e-23)
(-0.224538737668 0.0983995453467 -9.44389607574e-23)
(-0.244686409683 0.11592790751 -1.33378148034e-22)
(-0.268064154563 0.136849760127 7.03426526133e-22)
(-0.294310643255 0.163452176352 6.8741441113e-21)
(-0.316919492025 0.182729572341 -6.8840647977e-21)
(-0.364497534387 0.206217873303 1.08239095179e-20)
(-1.20526891185 0.532097985561 -5.62820610104e-20)
(-0.37102910008 0.80898826681 3.2234528856e-19)
(-0.131992604298 0.00215495225685 2.67790246156e-23)
(-0.133923131368 0.00563790668656 -6.43955561377e-23)
(-0.136073683409 0.00966382608769 -3.97668484389e-23)
(-0.139361050346 0.0138213930811 -3.24468020135e-23)
(-0.143846070205 0.0182382831443 -2.87339436376e-24)
(-0.149647765797 0.0230021291681 7.47484824964e-24)
(-0.156858550577 0.0282020571668 1.76886822842e-23)
(-0.165590700681 0.0339574636884 6.5818722338e-24)
(-0.176022534241 0.0404284680815 1.11948602801e-23)
(-0.188333979425 0.047805160139 4.19636611454e-23)
(-0.202796421003 0.0562801556824 -1.10152152241e-22)
(-0.219645894423 0.0662473740225 4.86114628859e-25)
(-0.239336980706 0.0781204142113 -4.34663183124e-24)
(-0.262297003927 0.0921562546845 -1.80021090697e-23)
(-0.289048914494 0.108991441637 -1.1529433001e-21)
(-0.319299378516 0.130269611979 1.21735799843e-20)
(-0.357886545604 0.150983374546 1.07012523638e-20)
(-0.428519063633 0.167975816997 7.70824782925e-21)
(-1.71863088002 0.370355938866 -1.63726009422e-20)
(-0.917595541803 0.840817981692 7.3789256249e-20)
(-0.135190339629 0.00158955689249 3.82455163497e-22)
(-0.137220530434 0.00395064624183 1.54905456613e-22)
(-0.139490006118 0.0068122063508 8.73901763436e-23)
(-0.142937561201 0.0097660231957 2.23341034267e-23)
(-0.147677240532 0.01290117232 -3.91692388181e-23)
(-0.15382234556 0.0162603610239 2.6216452314e-23)
(-0.161481428222 0.0199407848921 1.4668041896e-23)
(-0.170807817287 0.0240100248352 9.92558780062e-23)
(-0.181975673443 0.0285777044344 8.73762566514e-24)
(-0.195262076868 0.0338019564253 2.74666222262e-23)
(-0.210935118647 0.0398719894491 1.1240636585e-23)
(-0.229293787286 0.0470330255752 4.32457767824e-23)
(-0.250837077493 0.0555945563453 1.44572189907e-23)
(-0.275976370527 0.0658229409463 -3.7628683595e-23)
(-0.305207417679 0.0782487344024 -2.90664652585e-21)
(-0.338894931693 0.0939705079772 -2.34894383399e-21)
(-0.385997641526 0.115120226284 1.05124678996e-21)
(-0.443582883668 0.121847773338 1.82509686373e-21)
(-1.33383685746 0.107618608266 2.70373729361e-19)
(-2.09256103251 -0.265294898328 1.90070962539e-19)
(-0.137265264856 0.00100550028733 4.13447386332e-22)
(-0.139368179545 0.0022012240731 1.86528806111e-22)
(-0.141697203361 0.00385512479456 1.31352949527e-22)
(-0.145245061953 0.00553167162276 6.98067998409e-23)
(-0.150132388179 0.00729190618059 6.26263289478e-23)
(-0.156472977595 0.00918422025318 1.33126000963e-23)
(-0.164406199821 0.0112213346404 -1.2742679834e-24)
(-0.174115559627 0.01347082225 -8.4726789422e-24)
(-0.185783441613 0.0159856707631 -1.20227848222e-23)
(-0.199685331562 0.0188565897042 2.14221391721e-23)
(-0.216170273676 0.0222487608882 1.98150863457e-23)
(-0.235618361858 0.0262989183814 1.43612760015e-22)
(-0.258461119093 0.0312629142241 -6.7765114397e-23)
(-0.285283435164 0.0374070094343 -3.01421230845e-22)
(-0.316514194786 0.0449349967791 2.29438130032e-21)
(-0.352538421901 0.0547287555422 -7.26669347396e-22)
(-0.401345647334 0.0771765736777 -1.3970488345e-20)
(-0.449783812806 0.0815682431042 -2.59284062001e-21)
(-0.485978160234 -0.122292292163 -2.90224432159e-19)
(-0.341595322727 -2.9830260927 1.73951338329e-19)
(-0.138172682984 0.00040718900044 1.893388807e-22)
(-0.1403372046 0.00042981287779 9.2989975794e-24)
(-0.142673172137 0.000838022705993 3.60842948319e-23)
(-0.146244580017 0.00121443184459 6.13982243531e-23)
(-0.15114579526 0.00158799081034 5.92599290806e-23)
(-0.157532869958 0.00194064262625 1.0118151694e-23)
(-0.165554249144 0.00227820951822 5.25495035585e-24)
(-0.175370978624 0.00261993479653 -1.17912736836e-23)
(-0.187237660018 0.00299208136444 1.49821838e-23)
(-0.201402855004 0.00340269695196 -1.31743117986e-23)
(-0.218242624983 0.00391611011165 1.13602714497e-22)
(-0.238237836844 0.00466982537993 1.12703735982e-22)
(-0.261854328578 0.0057180770416 -4.3578352814e-23)
(-0.289602882924 0.00721598024564 2.66789514204e-22)
(-0.322201137858 0.00963704690903 -1.41024935856e-21)
(-0.36011440089 0.0122792636795 8.03352772536e-21)
(-0.408974405262 0.0339360435445 -1.75827381401e-20)
(-0.452916428712 0.0389425982991 -2.1474013509e-20)
(0.132347631777 -0.11047647083 -1.95486656134e-19)
(8.4501149812 -5.98420986094 -5.10628864663e-19)
(-0.137932814847 -0.000191759299435 -1.03031736841e-23)
(-0.140117867535 -0.00133607455303 -3.46258364259e-22)
(-0.142409689231 -0.00215291331346 -7.04251038692e-23)
(-0.145899722833 -0.00307211919124 1.4077365796e-23)
(-0.150715090808 -0.00410497704739 3.95651424858e-23)
(-0.156998372017 -0.00529042490833 5.40596063132e-23)
(-0.164886639668 -0.00665169802139 6.75385179499e-23)
(-0.174559918379 -0.00822684935635 -1.15931623404e-22)
(-0.186261581239 -0.0100529275917 1.3966850455e-23)
(-0.200303325126 -0.0121576798309 9.79275392031e-23)
(-0.217040781474 -0.0146010000499 -2.30961859966e-22)
(-0.236958843122 -0.0173868418591 1.66900900945e-22)
(-0.260675982069 -0.020384598446 1.98715220683e-22)
(-0.288664500881 -0.0237360190158 6.61336961716e-22)
(-0.321630349116 -0.0268992622008 -2.3831365479e-21)
(-0.359932176462 -0.0321476750963 9.0875366328e-21)
(-0.407804141722 -0.014243268105 -3.64396578827e-20)
(-0.434688224249 -0.00554654838544 4.91556501602e-20)
(0.226266050417 -0.060460516267 -6.75678320052e-20)
(20.8328343127 -4.7483322766 6.6907963609e-19)
(-0.136551052652 -0.000774059676421 -1.0704304181e-22)
(-0.138728955793 -0.00303962665549 -1.51525255399e-22)
(-0.140916400676 -0.00504957634114 -4.51823203051e-23)
(-0.144247199466 -0.00723246727171 1.0893555758e-23)
(-0.148850682778 -0.00962491002827 1.01445545035e-23)
(-0.154853628644 -0.0122951797235 -1.05516509524e-23)
(-0.162397467365 -0.0153122778594 4.85113779131e-23)
(-0.171655370669 -0.0187660337235 3.20067863883e-24)
(-0.182864780839 -0.0227541613105 3.36914580607e-23)
(-0.196332103782 -0.027382536123 4.56163381524e-23)
(-0.212461782469 -0.0327613527072 1.19591737916e-23)
(-0.231700319316 -0.0390364736316 -3.51855468298e-23)
(-0.254682678593 -0.0463105827628 7.48400047512e-23)
(-0.282167130595 -0.0546617342042 8.94642839316e-22)
(-0.314845504126 -0.0635944556036 -2.33050149201e-21)
(-0.353510843887 -0.0753375516026 -1.96688763978e-21)
(-0.402714444694 -0.0568149793449 8.05605311842e-21)
(-0.437203810739 -0.0333999950083 1.9533326514e-20)
(-0.18492616567 -0.0213237028346 1.0893339089e-19)
(12.222730932 13.9149764291 9.41245571576e-20)
(-0.134074635466 -0.0013310475801 1.3389638853e-22)
(-0.136218646158 -0.00465206283964 -2.96069747204e-23)
(-0.138253578917 -0.00777850673713 2.6336959469e-23)
(-0.141343007274 -0.0111488197951 8.39527304734e-24)
(-0.145606904664 -0.0148169289819 6.48010758048e-23)
(-0.151171233346 -0.0188896726284 6.698393279e-23)
(-0.158159944557 -0.023475078196 1.40175190339e-23)
(-0.166739572949 -0.0287031282699 -2.01038325577e-23)
(-0.17712956877 -0.0347351759843 6.57489379624e-23)
(-0.189622071926 -0.0417576781186 3.10052114567e-23)
(-0.204587671151 -0.0499845417647 -2.85375279455e-23)
(-0.222525215685 -0.0596761500061 1.32397394564e-22)
(-0.24402022814 -0.071141505131 -1.12607436458e-22)
(-0.269849110727 -0.0847087866421 6.0989839963e-22)
(-0.301121162352 -0.100701496164 -2.59516855303e-21)
(-0.338942391035 -0.121817111932 3.32301998146e-22)
(-0.389859120998 -0.11641616449 4.33463329666e-21)
(-0.448254686805 -0.0859749630993 1.26104165837e-20)
(-0.878142208561 -0.168622746994 7.37864283292e-19)
(-22.2173898463 11.5149186735 -4.65108852178e-19)
(-0.130604385031 -0.00184483711587 2.47973712819e-22)
(-0.132669590145 -0.00612504933256 3.25410372355e-23)
(-0.134506427267 -0.0102764932632 -2.67556950535e-23)
(-0.137276439336 -0.0147259668179 1.11069865857e-23)
(-0.141095875177 -0.0195584644283 7.04040390501e-23)
(-0.146077510709 -0.0249022067967 1.77897106952e-23)
(-0.152323845257 -0.0309054513041 4.482117224e-23)
(-0.159983870272 -0.037747569361 8.03268134192e-23)
(-0.169249804411 -0.045641334203 9.95712179201e-23)
(-0.180386740818 -0.0548416493475 1.70649451777e-23)
(-0.193723611471 -0.0656671215441 2.53776405047e-23)
(-0.209698174489 -0.0785073993655 1.66297603712e-22)
(-0.228858090434 -0.0938630350857 1.75421571988e-22)
(-0.251867634771 -0.112398989455 2.7918150933e-22)
(-0.279872546716 -0.135057128436 3.03550390262e-21)
(-0.312954337813 -0.165559781477 4.18631795871e-21)
(-0.357030192107 -0.176220485087 -6.26154106698e-22)
(-0.405276803288 -0.143945990484 8.74528913934e-21)
(-0.891623478797 -0.3325449197 -1.53948810912e-19)
(-18.7881956679 -9.37734873757 -4.24351829192e-19)
(-0.126224595161 -0.00230031327721 2.97628723211e-22)
(-0.128201955559 -0.00742221956704 4.67780460801e-23)
(-0.129796332472 -0.0124808900252 -2.99087659586e-23)
(-0.132183062835 -0.0178770515128 -2.18121608378e-24)
(-0.135464527296 -0.0237230633448 3.78490317589e-23)
(-0.139735961962 -0.0301697848695 6.71642282425e-24)
(-0.145084997758 -0.0374024831603 -2.88378635183e-24)
(-0.15161874012 -0.0456353998903 -1.298135559e-23)
(-0.159502518745 -0.0551337238029 7.54454842518e-23)
(-0.168945622752 -0.0662185869544 4.61779487462e-24)
(-0.180241052282 -0.0792835675439 9.18741586582e-23)
(-0.193719843992 -0.0948280659849 1.54883222177e-22)
(-0.209827278826 -0.113489882524 2.19011672842e-23)
(-0.229039639301 -0.13611366627 -2.71564987598e-22)
(-0.252128117482 -0.163735343539 -1.19586904498e-21)
(-0.278635947748 -0.19989996665 -2.55994149427e-21)
(-0.311186756266 -0.218627582632 -2.99275073838e-21)
(-0.33681516423 -0.184855840912 -8.53092439726e-21)
(-0.601224106518 -0.310351089408 -1.52016261565e-19)
(-2.59334870474 -4.7249889908 -2.00377173705e-18)
(-0.121061436157 -0.00269255987134 2.54287587647e-22)
(-0.122936204338 -0.00852252298827 -8.35670433322e-23)
(-0.124259135766 -0.0143439800673 -4.25300899369e-23)
(-0.126216101475 -0.0205303444571 1.27974629838e-24)
(-0.128892577051 -0.0272151810444 2.24973021515e-23)
(-0.132366496552 -0.0345680647752 2.35720627169e-24)
(-0.136689169144 -0.0427947205248 9.75539431818e-24)
(-0.141938472735 -0.0521514141365 -1.15842605531e-23)
(-0.148240808423 -0.0629432453985 4.05775226183e-24)
(-0.155746769709 -0.0755488588291 8.7809049056e-24)
(-0.164679975445 -0.0904110632461 -2.61591212753e-23)
(-0.175268303333 -0.1080841899 1.311949787e-23)
(-0.187813884866 -0.129310811091 -4.97848775357e-23)
(-0.20262585672 -0.154937358654 -6.33860901031e-22)
(-0.220265307644 -0.185908072124 -4.74961025184e-22)
(-0.240240519007 -0.22510834963 -2.25334137675e-21)
(-0.26293269615 -0.247191187928 1.20654548858e-20)
(-0.264011534095 -0.211807325779 1.33264550892e-21)
(-0.252472515113 -0.305404739004 -6.71336157283e-19)
(-0.88374057332 -2.01692430563 -1.4526005152e-18)
(-0.115258067167 -0.00302094514191 1.02924834823e-22)
(-0.117013594109 -0.00941044892222 3.58328779708e-23)
(-0.1180448617 -0.0158347047958 1.49795694217e-24)
(-0.119543419766 -0.0226411575759 -6.79141736412e-23)
(-0.121572525373 -0.0299729582464 1.28626741959e-23)
(-0.124185920902 -0.0380052218841 -6.98104774158e-24)
(-0.127402606313 -0.0469726890084 7.45786770974e-24)
(-0.131257124164 -0.0571617796419 7.314472591e-24)
(-0.135821784541 -0.0689040601016 8.15682930379e-24)
(-0.141224261769 -0.082619742452 2.77990477277e-23)
(-0.147572146508 -0.0987764579496 -6.93253615074e-23)
(-0.155010887135 -0.117956214805 1.14818600051e-23)
(-0.163678101042 -0.140966103465 -5.65113801602e-23)
(-0.173765728681 -0.16872675624 -3.19438799916e-25)
(-0.185960240997 -0.202070101431 -9.2872833485e-22)
(-0.200678151917 -0.243058343707 -2.46177525125e-21)
(-0.220474544599 -0.262751379707 -6.34300171736e-21)
(-0.219947516063 -0.212852893998 7.99298480762e-21)
(-0.0800968507449 -0.278552248365 7.29211417292e-21)
(-0.887640085234 0.650163009977 -4.91554267534e-20)
(-0.108905719681 -0.00329112098743 1.83548071132e-22)
(-0.110537572519 -0.010084055175 -1.45383795572e-22)
(-0.111278527517 -0.016942829387 5.06601312089e-23)
(-0.112318297172 -0.0241911920891 -6.00366014195e-24)
(-0.113699690334 -0.0319650283035 4.21761897092e-24)
(-0.115457823043 -0.0404500240278 2.18712098595e-23)
(-0.117578382862 -0.0498842108276 9.57845445422e-24)
(-0.120035107399 -0.0605663008314 1.18802705522e-23)
(-0.122841313169 -0.0728846721014 4.99638444362e-23)
(-0.126067218482 -0.0872640427955 1.30368867751e-23)
(-0.129713961759 -0.10416522863 5.58608636255e-23)
(-0.133849463215 -0.124172354528 5.76733614744e-23)
(-0.138341882783 -0.148146236465 5.67270264125e-23)
(-0.143213849038 -0.177284509112 -3.91432657727e-22)
(-0.148994581249 -0.21304399632 1.36976014264e-21)
(-0.15698116997 -0.259778706215 -6.51060202265e-21)
(-0.172924463879 -0.295090965905 1.86671213289e-20)
(-0.197441534713 -0.244667901157 -3.78893955319e-21)
(-0.185187706821 -0.361545108205 -6.50269203374e-20)
(-3.54747501494 2.95021936014 7.23384740404e-19)
(-0.102114852828 -0.00349917818361 1.62637818065e-22)
(-0.103625492758 -0.0105437922066 -7.48725342557e-23)
(-0.10409535893 -0.0176727360558 3.66846768735e-23)
(-0.104699618986 -0.0251957442718 4.81042676464e-23)
(-0.105473032038 -0.0332253468194 2.85422742131e-23)
(-0.10643388315 -0.041944470972 2.12899038921e-24)
(-0.107529629166 -0.0515808318711 7.39319411174e-24)
(-0.10869197047 -0.0624348783721 5.70295785738e-24)
(-0.109868357081 -0.0749180594774 1.00033006965e-23)
(-0.111003786282 -0.0894386959652 -4.39193747862e-26)
(-0.111989680623 -0.106485382494 2.48837513925e-23)
(-0.112775640046 -0.126525196443 3.88508773514e-24)
(-0.112945398533 -0.150347416304 -1.36558220505e-23)
(-0.112100348625 -0.179383207683 -4.79580502372e-22)
(-0.109744110319 -0.215630673418 -1.49102028841e-21)
(-0.105657574478 -0.266386169385 -3.81412475444e-21)