/*--------------------------------*- C++ -*----------------------------------*\
| =========                 |                                                 |
| \\      /  F ield         | OpenFOAM: The Open Source CFD Toolbox           |
|  \\    /   O peration     | Version:  v2012                                 |
|   \\  /    A nd           | Website:  www.openfoam.com                      |
|    \\/     M anipulation  |                                                 |
\*---------------------------------------------------------------------------*/
FoamFile
{
    version     2.0;
    format      ascii;
    class       volScalarField;
    location    "4";
    object      k_0;
}
// * * * * * * * * * * * * * * * * * * * * * * * * * * * * * * * * * * * * * //

dimensions      [0 2 -2 0 0 0 0];


internalField   nonuniform List<scalar> 
1984
(
0.00160047052153
0.00187088451025
0.00195925747202
0.00199342994026
0.00201016095921
0.00202158811021
0.00203161896173
0.00204158802735
0.00205220211072
0.00206475970006
0.00208260216992
0.002113932397
0.00217653377978
0.00231193137402
0.00265388798248
0.00369456707589
0.00670179120078
0.0132848942468
0.0249522892948
0.0428011196706
0.00187631598376
0.00231096270841
0.0024442935557
0.00249436138674
0.00251664801503
0.00253007052234
0.00254095713383
0.00255152535758
0.0025629345634
0.00257721982673
0.00259932693524
0.00264067649612
0.00272647125028
0.00291757253065
0.003400967864
0.00476430441493
0.00828049848791
0.0153462794744
0.0270172785662
0.0472614839981
0.00197015417928
0.00245397052333
0.00260469690956
0.00266096688061
0.00268511415983
0.00269898929694
0.00271002852872
0.00272073989627
0.00273250648562
0.00274760493573
0.00277155352535
0.00281695233677
0.00291140777488
0.00312192511156
0.00364591535359
0.0050672037784
0.00863428843965
0.0158722029351
0.0285937526858
0.0623002247317
0.00200759716581
0.0025104409289
0.00266845048673
0.00272725639656
0.00275193469154
0.00276571587212
0.00277656191309
0.00278717374559
0.00279894989245
0.00281430691448
0.00283884119128
0.00288539357144
0.0029820623491
0.00319743405445
0.00373270468772
0.005163728915
0.00869746933372
0.0159727769757
0.0293397966022
0.0626156611477
0.00202535866635
0.00253563859307
0.00269657762741
0.00275624103841
0.00278084181046
0.00279426462934
0.00280474139642
0.00281506000962
0.00282666577408
0.00284184160813
0.00286618228111
0.00291225245452
0.00300761402456
0.00322084053228
0.00375625802824
0.00519125337226
0.00869417142857
0.0159281276457
0.0294448892254
0.0525338907648
0.00203629435858
0.00254962589376
0.00271173528572
0.0027715432248
0.00279581454784
0.00280876589481
0.00281878715671
0.00282870981966
0.00283996684941
0.00285478256912
0.0028784758371
0.00292327142775
0.00301585755672
0.00322400159627
0.00375529986367
0.00519811701196
0.00870652916978
0.0159600387688
0.029984076798
0.0531850963918
0.00204485644375
0.00255970749112
0.00272230126457
0.00278199274944
0.00280585914184
0.00281831752686
0.00282785703019
0.00283733449957
0.00284816169219
0.00286247592259
0.00288537746716
0.0029286489632
0.00301819598531
0.00322069379059
0.00374395813819
0.00518216836012
0.00868824954061
0.0159608781626
0.0302911678538
0.0558960881947
0.00205260681874
0.0025684043391
0.0027312683813
0.00279079347129
0.00281427065335
0.00282626375454
0.00283533273165
0.0028443604472
0.00285473498391
0.00286849558729
0.00289053012457
0.00293223860246
0.0030189282024
0.00321629066772
0.00372972399026
0.00514979779293
0.00862565260992
0.0159184688553
0.0308089241452
0.057574916356
0.0020599703012
0.00257658834851
0.00273967122938
0.00279905025758
0.00282218593575
0.00283376572816
0.00284240353381
0.00285100235457
0.00286092383459
0.00287412225667
0.00289528124946
0.00293542596223
0.00301922304901
0.00321095575335
0.00371173059364
0.00510181599525
0.00852294573398
0.0157818063796
0.0308779978781
0.0580253831763
0.0020670922742
0.00258450520296
0.00274782893705
0.00280710915068
0.00282995929091
0.00284117668806
0.00284943329064
0.00285763898442
0.0028671364765
0.00287978898026
0.00290007274879
0.0029386528918
0.00301949434815
0.00320482978461
0.00368890743189
0.00503569446211
0.00838000053968
0.0155930214345
0.0308237887482
0.0580098054915
0.00207403271834
0.002592153299
0.00275579959317
0.00281504454513
0.00283767128141
0.00284858153988
0.00285650245509
0.00286435892795
0.00287346389339
0.0028856001321
0.00290504951587
0.00294213101616
0.00302028863855
0.00319997653652
0.00366888449386
0.00497396072827
0.00825231666636
0.0154562137822
0.0307752838723
0.0581711605992
0.00208075604791
0.00259963625081
0.00276359991149
0.00282285222395
0.00284530982163
0.0028559680252
0.0028636019509
0.00287115072157
0.00287990691437
0.00289155798374
0.00291020021404
0.00294587823061
0.00302185009079
0.00319841163125
0.00366072574277
0.00494461575742
0.00818550817898
0.0153995652897
0.0307381994096
0.0582894247007
0.00208720089727
0.00260682937533
0.00277119646083
0.0028305109008
0.00285284506398
0.00286329970037
0.00287069461319
0.00287797858427
0.0028864210095
0.00289762956244
0.00291549219272
0.00294970213182
0.00302311098232
0.00319543406408
0.00364746038624
0.00490633129798
0.00811547185188
0.0153046998181
0.0306110535566
0.0600238350312
0.00209341084591
0.00261380369713
0.00277857149622
0.00283798053612
0.00286023872389
0.00287053280126
0.00287773308448
0.00288479928012
0.00289297239699
0.00290377084949
0.00292086919096
0.00295351241772
0.00302371284208
0.00318868783621
0.00362249372632
0.00483871301848
0.00798457868752
0.0150758528466
0.0301874463109
0.0579665392328
0.0020993854815
0.00262041628502
0.00278567116232
0.00284523239945
0.0028674571974
0.00287763253733
0.00288467412367
0.00289156368062
0.00289951169106
0.00290995809747
0.00292632499144
0.00295737208881
0.00302379959669
0.00317917920413
0.00358748550169
0.00474802320524
0.00779790141549
0.0146704679805
0.0294768764997
0.0592764279181
0.00210510333606
0.00262676242699
0.00279248687638
0.0028522342573
0.00287446116524
0.0028845602441
0.00289148874689
0.00289823985063
0.00290602240706
0.00291615452442
0.00293190065779
0.00296152641116
0.00302481918929
0.00317282006533
0.0035620379021
0.00467624767742
0.00761071715531
0.0141446068135
0.0281110498691
0.0570834799579
0.0021105421081
0.00263281050987
0.00279900350192
0.0028589494205
0.00288122979191
0.00289129024234
0.00289814484141
0.00290479795943
0.0029124390787
0.00292233807536
0.00293754712273
0.00296599257224
0.00302699283875
0.00317075372439
0.00355046932912
0.00463476043294
0.00746413688285
0.0135549531988
0.0252807543726
0.0478573609677
0.00211571006333
0.00263847797933
0.00280518498691
0.0028653831417
0.00288773094377
0.0028977892094
0.00290461173761
0.0029112157634
0.00291876851128
0.00292847049674
0.00294319990579
0.00297050313737
0.00302921511968
0.00316870065555
0.0035388334394
0.0045956881674
0.00734594346296
0.0131764708635
0.0242569218153
0.0471806226728
0.00212050875815
0.00264381379243
0.00281104706459
0.00287150238812
0.00289395183608
0.00290404398918
0.00291085958192
0.00291744240381
0.00292494143374
0.00293447715062
0.00294873472511
0.00297481190482
0.00303071928635
0.00316404306627
0.0035192119968
0.00454204699701
0.00723347070746
0.0129338068705
0.0234653139023
0.042049522853
0.00212495000179
0.00264880167074
0.00281656491097
0.00287729858888
0.00289988152427
0.00291001681577
0.00291685184297
0.00292344180346
0.00293092314276
0.00294033784977
0.00295414628624
0.00297895360918
0.00303170091282
0.00315766353187
0.00349486093593
0.00447892322386
0.00712027040361
0.0127607517764
0.0231463439327
0.0527117085914
0.00212908715425
0.00265345223119
0.0028217291442
0.00288275143303
0.00290547284886
0.00291568252544
0.00292256501409
0.00292918944264
0.00293668239432
0.0029460163713
0.00295943605468
0.00298303151856
0.00303269917741
0.0031513738471
0.00347152803998
0.00442009038434
0.00700681743147
0.0125166219158
0.0222220455399
0.040283844174
0.00213282202826
0.00265774074512
0.00282651624113
0.00288782767453
0.00291070520203
0.00292100949849
0.002927964304
0.00293465632776
0.00294219479153
0.00295148499473
0.00296458194091
0.0029870982864
0.0030339653452
0.00314614976976
0.00345146357554
0.0043683458563
0.00690037467066
0.0123317488673
0.0225758855612
0.0485253345514
0.00213613234057
0.00266163141214
0.00283090578905
0.00289250501812
0.00291554575322
0.00292595997034
0.00293300933116
0.00293979575739
0.00294741745639
0.00295671385552
0.00296955544891
0.00299113434026
0.00303554499532
0.00314212978432
0.00343459550979
0.00432096193845
0.006789463602
0.0120742154813
0.0217473330782
0.0494619646545
0.00213894981068
0.00266508265985
0.00283486381399
0.00289675148958
0.00291996162233
0.00293049790175
0.00293766329598
0.00294456859321
0.00295230623057
0.00296165610713
0.00297432036452
0.00299510079898
0.00303732478965
0.00313877722105
0.00341851378876
0.00427029702359
0.00665896866999
0.0117627751022
0.020323615611
0.0398529096364
0.00214127293843
0.00266809296011
0.00283835440514
0.00290052901764
0.00292391647426
0.00293459103808
0.00294188939714
0.00294894345492
0.00295682361542
0.00296627270616
0.00297883429076
0.00299893588176
0.0030391555157
0.00313552486431
0.0034009287446
0.00420896926543
0.00650501127137
0.0115039690884
0.0201280620064
0.0387995053085
0.00214312321321
0.00267060457809
0.00284132268156
0.00290378505361
0.00292736069358
0.00293818771382
0.0029456421132
0.00295286119165
0.00296090168966
0.00297052370814
0.00298305677374
0.00300260496688
0.00304098364107
0.00313217886499
0.00338081406389
0.00413369327525
0.00632010820981
0.0112852826196
0.0217057304925
0.06244926821
0.00214441370618
0.00267258483122
0.00284373118155
0.00290648652731
0.00293027308152
0.00294128145063
0.00294892478171
0.00295634700896
0.00296459041545
0.00297438421224
0.0029869433191
0.00300605456049
0.00304281416369
0.00312929575283
0.00336193057652
0.00405794292358
0.00612040323752
0.011055507384
0.0224088327484
0.0574314297523
0.00214514795389
0.00267401818319
0.00284552567302
0.00290855650934
0.00293256358058
0.00294377791735
0.00295163380559
0.00295928600738
0.00296776979791
0.00297777859914
0.0029904385008
0.00300931178049
0.00304482092756
0.00312784514199
0.00334980653235
0.00400441440717
0.00595401871871
0.0107719427797
0.0214955782911
0.0486794019326
0.00214536137547
0.00267481321126
0.00284662863452
0.00290993553478
0.00293418678565
0.00294563362276
0.0029537324725
0.00296165134289
0.00297045253141
0.00298075147156
0.00299358200074
0.00301234740015
0.00304700345583
0.00312800926866
0.00334585650426
0.00398231437095
0.00585923848814
0.0106858327309
0.0226222481223
0.0605516205551
0.00214504678744
0.00267485729971
0.00284693830975
0.00291054685603
0.00293508288
0.00294680185317
0.00295517878483
0.0029633976652
0.00297253168843
0.00298318149261
0.00299630753556
0.00301517508001
0.00304953880909
0.00313010255392
0.00334873858542
0.00398193744987
0.00580969123589
0.010577280457
0.0232627013055
0.0619096885154
0.00214426874326
0.00267409805846
0.0028463492358
0.00291029479666
0.00293518028363
0.00294722583028
0.00295592593274
0.00296448811637
0.00297400386731
0.00298506618333
0.00299861341918
0.00301791237597
0.00305301867153
0.00313600407331
0.00336108922888
0.00399716691771
0.00576374708659
0.0103037921051
0.0235136120925
0.0683284431436
0.00214301716885
0.00267244128419
0.00284478250764
0.00290910185346
0.00293441142067
0.00294685203934
0.00295593057091
0.00296488923656
0.00297484307086
0.00298639353397
0.0030005250781
0.00302075761874
0.00305837424844
0.00314892885935
0.00339011735162
0.00403321767515
0.00571076079331
0.010044834025
0.0246746466706
0.0708703989432
0.0021411223875
0.00266977774643
0.00284218272548
0.00290693017356
0.00293273633013
0.00294564135976
0.00295516035363
0.00296457496773
0.00297502803281
0.00298714787642
0.00300205762784
0.0030238825454
0.00306635375756
0.00317139008148
0.00344253930471
0.00410671018427
0.00573242073705
0.0102299448444
0.0267410761477
0.0723371736442
0.00213849169101
0.00266606652119
0.00283850610297
0.00290373416595
0.00293010809869
0.00294354731023
0.00295357551739
0.00296350741194
0.00297452742293
0.00298730996838
0.00300320276897
0.00302724988849
0.00307664901249
0.00320183464932
0.00351409169767
0.00421918823952
0.00587668041368
0.010979186872
0.0294678699224
0.073844139511
0.0021350393016
0.00266128334322
0.00283370555908
0.00289945780402
0.00292647377603
0.00294052499656
0.00295112751837
0.0029616488143
0.00297330824798
0.00298683825533
0.00300384107442
0.00303036738956
0.00308720009204
0.00323319064291
0.0035877887285
0.00434650485672
0.0061048499682
0.011860731974
0.0315669062424
0.0745198897684
0.00213068736668
0.00265536760046
0.00282773137117
0.00289405373448
0.00292178370106
0.00293652310924
0.00294778335751
0.00295897540372
0.00297134681336
0.00298567749229
0.00300376806675
0.00303241735972
0.00309504878856
0.00325634305783
0.00364252184857
0.00445151618952
0.00632489738589
0.0125400622554
0.032640820661
0.0747924257466
0.00212536416464
0.00264826459113
0.00282054728384
0.00288747658878
0.00291599802793
0.00293151583753
0.00294352713988
0.00295547258678
0.00296863377359
0.00298381633863
0.00300287345517
0.00303301943517
0.00309896238846
0.00326789793407
0.00367060593303
0.00451590641786
0.0065021397137
0.0130138206954
0.0330613363547
0.0748520273882
0.00211901638309
0.00263998205784
0.00281214505861
0.00287971472005
0.00290909974765
0.00292548541738
0.00293833863784
0.00295113434519
0.00296518041207
0.00298127234976
0.0030013671527
0.00303296837277
0.00310151990101
0.00327498978964
0.00368502145497
0.00455147650309
0.00663285635506
0.0133095534062
0.0329212648902
0.0747059354081
0.00211156148519
0.00263051673529
0.00280253541196
0.00287077066553
0.00290107724048
0.00291841483363
0.00293221194258
0.00294596983627
0.00296100620178
0.00297813542405
0.00299944380553
0.00303277539671
0.0031043109318
0.00328208596666
0.00369626637283
0.00457607580024
0.00672670156307
0.0135684823173
0.0331611244448
0.0747280591671
0.00210309871942
0.00261986189826
0.00279172357047
0.00286065025664
0.00289193301076
0.00291030589278
0.00292515889144
0.00294001618704
0.00295616409112
0.0029744378887
0.00299687223656
0.00303122738193
0.00310313379946
0.00327939897631
0.00369094434415
0.00458404905129
0.00682265382603
0.0139549063076
0.0341146960463
0.0749828789563
0.00209343245702
0.00260810133996
0.00277979617242
0.00284940993572
0.00288169666404
0.00290118251388
0.0029172176434
0.00293327717851
0.00295069286546
0.002970179319
0.00299345924917
0.00302724552704
0.00309442904681
0.00325819952521
0.00365557996616
0.0045694397495
0.00692557971942
0.0143381136244
0.0347529830339
0.075139818606
0.00208284980551
0.00259537867372
0.00276688726394
0.00283715004043
0.00287044861867
0.00289108863259
0.00290836150963
0.00292578237041
0.00294465294066
0.00296554267717
0.00298973550602
0.00302260984894
0.00308382447257
0.00323272049782
0.00361717777835
0.0045793799572
0.0071403743246
0.0147709468959
0.0348292522335
0.0751477514409
0.00207129917321
0.00258188923868
0.00275316737007
0.00282402177566
0.00285824994077
0.00288000585569
0.00289854789895
0.00291739661797
0.00293782715973
0.00296033951616
0.00298586904285
0.00301891356285
0.00307724158437
0.0032185265381
0.00360137675027
0.00462101900321
0.00738442267549
0.0152215106774
0.0349648791105
0.0751852070584
0.00205894382516
0.00256793401005
0.00273896406132
0.00281024524087
0.00284521588661
0.00286783066452
0.00288728885321
0.00290714933333
0.00292891801156
0.00295318823305
0.00298054679915
0.00301526901349
0.0030757522326
0.00322196881618
0.00361929691986
0.00468473010543
0.00757169626207
0.0156601752294
0.0357108436339
0.0754819006898
0.00204613544137
0.00255394610797
0.00272465676922
0.00279607996199
0.00283126742802
0.00285381469923
0.0028726354019
0.00289138421997
0.00291310610534
0.00293896100325
0.00296833005354
0.00300542745998
0.00307305002099
0.00324008333247
0.00366957873807
0.00476542531016
0.00769152945795
0.0160397467057
0.036841544195
0.0759938399695
0.00203342387243
0.00254046079419
0.00271075169299
0.00278176993093
0.00281593464112
0.00283575946238
0.00284886225386
0.00285898274604
0.00287577360409
0.0029024023304
0.00293319900035
0.00297080730641
0.0030512076537
0.00326744612262
0.00376370280982
0.00491850466178
0.00788430127205
0.0164544549045
0.0379617049983
0.0765373770029
0.00202114943319
0.00252812160832
0.00269778526819
0.00276747422349
0.00279809615847
0.00280861483828
0.0028008713789
0.00277631933927
0.00276452013748
0.00279144096988
0.00282258088612
0.00286057241765
0.00298526959912
0.00330278924871
0.00391325397049
0.00517065960121
0.00817916649824
0.0168082621424
0.0386609159891
0.0769267589406
0.00200998595059
0.00251751570768
0.00268627775091
0.00275338898281
0.00277687270105
0.00276737033293
0.00270431119078
0.00255472746634
0.00236351532291
0.00235704294655
0.00240488794524
0.00256223019579
0.00291433792033
0.00342025454924
0.0041730073994
0.00555961029525
0.00862290976774
0.0172119640464
0.0391054368463
0.0771066913667
0.00200029088442
0.00250887715448
0.002676920098
0.00274116955665
0.00275697945624
0.00272894399728
0.0026183222643
0.0022329391427
0.0029314388286
0.00380028386637
0.00472482029589
0.0061645668356
0.00924062064801
0.0177558026693
0.0389905035842
0.0769036390695
0.00199379040898
0.00250400270571
0.00267190087533
0.00273456433708
0.00274593955406
0.00270713880535
0.00257034444803
0.00210927428752
0.00318219131136
0.00429043391168
0.00531980029831
0.00672275105159
0.00966612482654
0.0177932093271
0.0379754919773
0.0763413109092
0.00199373852202
0.00250396382516
0.00267187923722
0.00273455700652
0.00274594374554
0.00270718228146
0.00257048074571
0.00210977073992
0.00318319808684
0.00429406703651
0.00532932680231
0.00674522028461
0.00967001561555
0.0175572181176
0.037191597435
0.0759536097333
0.00200023097671
0.00250882430484
0.00267689589165
0.00274117748123
0.00275702193854
0.00272904686714
0.00261852838002
0.00223418765774
0.00293096440207
0.00380086112425
0.00473272791203
0.00619946764547
0.00936351223093
0.0180932600288
0.0391877975583
0.0767229317426
0.00200992945125
0.00251746915136
0.00268625998113
0.0027534164252
0.00277694435574
0.0027673932504
0.00270413755638
0.00255450776436
0.00236392222617
0.00235750306137
0.00240552254903
0.00256334429741
0.00291566150142
0.0034230188516
0.00418482579179
0.00560673198739
0.00882920042597
0.0178795712635
0.0396682448037
0.0770162270705
0.00202117562007
0.00252813536182
0.00269781652786
0.0027675443537
0.00279821529834
0.00280878063495
0.00280111971566
0.00277671105229
0.00276505504882
0.00279199485858
0.00282324142003
0.00286185783034
0.00298810194867
0.00331017519836
0.00393779371786
0.00525270466242
0.00841065383375
0.0172005342274
0.0387631954056
0.0768125567288
0.00203350754254
0.00254050886395
0.00271081524571
0.00278187024049
0.00281608378822
0.00283596843956
0.00284914638049
0.00285935528543
0.00287619792893
0.00290289149316
0.00293384114407
0.00297203258842
0.00305446265803
0.00327686239676
0.00379677623585
0.00503217755587
0.00816910320396
0.0167024255489
0.0377717711203
0.0763921827539
0.00204624584513
0.00255401623167
0.00272474223396
0.00279619502897
0.00283142247985
0.00285402130079
0.00287290573181
0.00289170639866
0.00291347653171
0.00293938282299
0.00296889560573
0.00300639505301
0.00307538505113
0.0032475057945
0.00369632339879
0.00486062290591
0.00794919850949
0.0162889677829
0.0364950487811
0.0757926165952
0.00205904867359
0.00256801646561
0.00273905358804
0.00281037771548
0.00284538708699
0.0028680366804
0.00288754545373
0.00290744531041
0.0029292460129
0.00295356121881
0.00298098984386
0.0030159758888
0.00307727922367
0.00322624396284
0.00363246655762
0.0047303940819
0.00773059597696
0.0159740668207
0.0357115126398
0.075365480133
0.00207143294773
0.00258198948823
0.00275328381103
0.00282416462001
0.00285844715379
0.00288023247918
0.00289879779931
0.00291767361897
0.00293813349321
0.00296069111862
0.00298626320366
0.00301946257369
0.00307820947716
0.00322039805669
0.00360405464626
0.00462844513262
0.00747167862212
0.0157754446608
0.0361768512839
0.075434069251
0.00208302322482
0.00259550221455
0.00276701823607
0.00283731105567
0.0028706346686
0.00289131054659
0.00290860456036
0.00292604812491
0.00294492386323
0.0029658312252
0.00299007997524
0.00302306182058
0.00308454540616
0.00323388817557
0.00361884784325
0.00459267139407
0.00729122596393
0.0156023738935
0.0366483929225
0.0755977267024
0.00209361016949
0.00260824087555
0.00277994189951
0.00284957526169
0.00288189093366
0.00290140093825
0.00291744755608
0.00293352314603
0.00295094908565
0.00297045872302
0.00299379024144
0.00302767068779
0.00309515273518
0.00325998003412
0.00366354785721
0.00462033904758
0.00720501342851
0.0151764943164
0.0357271799437
0.0753617135438
0.00210327554509
0.0026200032892
0.00279187455577
0.00286082304149
0.00289213092942
0.00291052939138
0.00292540486487
0.00294026375338
0.00295642542733
0.00297472430932
0.00299720883067
0.00303164563663
0.00310371628359
0.00328054948485
0.00369545057229
0.0046161335666
0.00701624468098
0.0145808543626
0.0348041740844
0.075097953192
0.00211172836818
0.00263065829212
0.0028026912753
0.00287095082902
0.00290128498271
0.00291864907932
0.00293246932008
0.00294624646886
0.00296129644455
0.00297844931406
0.00299980281191
0.00303319767915
0.00310476644105
0.00328241978371
0.00369591688786
0.0045762983018
0.00676751332063
0.0138978210509
0.0341946572952
0.0749802779523
0.00211918237399
0.00264012835285
0.00281230598375
0.00287990092953
0.00290931485817
0.00292572872528
0.00293860650714
0.00295142724279
0.00296549891603
0.00298161432601
0.00300175159942
0.00303338651263
0.00310187947924
0.00327475693916
0.00368192771648
0.00453704610856
0.00659246876302
0.0134225098387
0.0338720682531
0.0750368611939
0.00212552344021
0.00264840748367
0.00282070447562
0.00288766021864
0.00291621350698
0.00293176240227
0.00294380094927
0.00295577539211
0.00296896801828
0.00298417476588
0.0030032754302
0.00303341632928
0.00309921431923
0.00326755455965
0.00366819896449
0.00450699468938
0.00647713180183
0.0130583351976
0.0335305479155
0.0751596236953
0.00213081941268
0.00265547003234
0.00282785748102
0.00289421052209
0.00292197503624
0.00293674898908
0.00294804543497
0.00295928037373
0.0029716864685
0.00298604856612
0.0030041730938
0.00303279315174
0.00309526280713
0.00325590781114
0.00364067905879
0.0044466782071
0.00631034404445
0.0125183721118
0.0326605901343
0.0749596032085
0.00213515124129
0.00266135257457
0.00283380667669
0.00289959711406
0.0029266505425
0.00294073903225
0.00295138458283
0.00296195665288
0.00297366755113
0.00298724421454
0.0030042960548
0.00303076996993
0.00308741572623
0.00323282085719
0.0035861469124
0.00434160039972
0.00608070943056
0.0117464471556
0.0312688532602
0.0744306619313
0.00213858726788
0.00266611011465
0.00283858797332
0.00290385940732
0.00293027385674
0.00294375389403
0.00295382731389
0.00296381563801
0.00297489927201
0.00298773826683
0.00300369799391
0.00302770264534
0.00307696815189
0.00320163509931
0.003512509182
0.00421269604655
0.00584726927155
0.0108554347825
0.0292943144612
0.0735864746756
0.00214120759982
0.00266980674534
0.00284225369181
0.00290704603204
0.00293289333976
0.00294583895997
0.00295540170881
0.00296487971107
0.00297540497237
0.00298758491138
0.00300257308546
0.00302435355903
0.00306673068048
0.00317136076108
0.00344095911913
0.00409915631125
0.00569790025008
0.010076239988
0.0262571000559
0.0713269401068
0.00214310200836
0.00267246619727
0.0028448474791
0.0029092111581
0.00293456141973
0.00294704179535
0.0029561637411
0.00296518722873
0.00297521755313
0.00298682988149
0.00300104386335
0.00302122426523
0.00305877087421
0.00314898298568
0.00338838171233
0.00402138129798
0.00564668531794
0.00972817686923
0.0237876775142
0.071491815546
0.00214435583116
0.00267412730246
0.00284641461376
0.0029104011176
0.00293532516104
0.00294740823721
0.00295614946243
0.00296477428163
0.00297436773586
0.00298548906166
0.0029991174459
0.00301835358757
0.00305339823505
0.00313610277128
0.003359417362
0.00398443720092
0.00568821273282
0.00991479346122
0.0225312291203
0.0708686823378
0.00214513819479
0.00267489183542
0.00284700491236
0.00291065161173
0.00293522386615
0.00294697754453
0.00295539161871
0.00296366734752
0.00297287521969
0.00298357896425
0.00299678163689
0.0030155801724
0.00304989446962
0.00313026593213
0.00334745879166
0.00397117943161
0.00574807200334
0.0102276508149
0.0215967191491
0.0615166533534
0.00214545388294
0.00267484964072
0.0028466963101
0.00291003994588
0.00293432531768
0.00294580373646
0.00295393564377
0.00296190388883
0.00297077111387
0.00298111722096
0.00299401239751
0.00301271065351
0.00304735002727
0.00312825136819
0.00334502785094
0.00397427901662
0.00581825212911
0.01047976105
0.0208582915891
0.0483487594715
0.00214523972249
0.00267405452906
0.00284559471021
0.00290866284278
0.00293270199608
0.00294394494324
0.00295183026245
0.00295952501165
0.00296809080981
0.00297813258355
0.00299081563901
0.00300963630094
0.00304514340515
0.003128096212
0.00334913282638
0.00399808757056
0.00593134336355
0.010779565803
0.0216149439163
0.0489239382233
0.00214450229446
0.00267261989772
0.00284380351591
0.002906596973
0.00293041374383
0.00294145030293
0.00294911857463
0.0029565712249
0.00296487379889
0.00297466540975
0.00298722380592
0.00300632457542
0.00304307492174
0.00312939518645
0.00336069298426
0.00405044818693
0.00610415410038
0.01115462036
0.023717043403
0.067006734956
0.00214320790808
0.00267064124082
0.00284140438965
0.00290390960522
0.00292751808892
0.00293837192163
0.00294585063509
0.00295309247045
0.0029611695049
0.00297076341608
0.00298328052148
0.00300281090436
0.00304113115906
0.00313190489868
0.00337800493263
0.00412144813944
0.00630153301764
0.0114691498966
0.0240521557923
0.0707018061926
0.00214136076399
0.00266814824725
0.00283844733966
0.00290065624635
0.00292406821662
0.00293475870202
0.00294207119848
0.00294913017795
0.00295701479239
0.0029664564775
0.00297900528067
0.00299909791654
0.00303925517116
0.00313503700536
0.00339690323459
0.00419179666968
0.00647095486435
0.0116366080397
0.0231372480541
0.0588619063036
0.00213904327089
0.00266515641004
0.00283496633038
0.00289688046096
0.00292010964064
0.00293065707334
0.00293782792844
0.00294473480653
0.00295246599898
0.00296180904224
0.00297447070486
0.00299526045728
0.00303749299938
0.00313871872152
0.00341636862731
0.00425790611489
0.00662736546856
0.0118037625571
0.0216568637293
0.0459135096555
0.00213622741439
0.00266171757527
0.00283101381412
0.00289263270093
0.00291568650625
0.00292610612288
0.00293315531026
0.00293993588982
0.00294754715422
0.00295683435394
0.00296967641964
0.00299128659479
0.0030358260518
0.0031428522382
0.0034363079444
0.00432169915102
0.00678070961562
0.0121095755811
0.0223528787729
0.0496977035787
0.00213291290551
0.00265783034125
0.00282662650631
0.00288795429708
0.00291084117449
0.00292114679665
0.00292809626697
0.00293477676275
0.00294229991489
0.00295157708053
0.00296467553885
0.00298724418323
0.00303439176458
0.00314789886355
0.00345813357621
0.00438488585455
0.00691749672423
0.0124377868786
0.0243195497594
0.0575758500573
0.00212916994864
0.00265353849982
0.00282183956201
0.00288287745049
0.00290560658444
0.00291581522657
0.00292268825641
0.00292929655905
0.00293676946241
0.00294608534639
0.00295950371846
0.00298317163077
0.0030332654589
0.00315399742819
0.00348214753396
0.00444792382809
0.00703591526253
0.012640029031
0.0247629702524
0.0588277761439
0.00212502828191
0.00264889236947
0.00281668231593
0.00287742982459
0.00290001424114
0.00291014588549
0.00291696826357
0.00292353690843
0.002930990926
0.00294037845834
0.00295417951562
0.0029790622894
0.0030322952869
0.00316058423754
0.00350632674346
0.00450748431405
0.00714325518149
0.0127715113671
0.023919177943
0.0469415682009
0.00212058847689
0.00264390731403
0.00281116113697
0.00287163109342
0.00289409004431
0.00290417174911
0.00291097115051
0.00291752711313
0.00292499016239
0.00293448940356
0.00294871974918
0.00297484926566
0.00303115797153
0.00316633023297
0.00352748469751
0.00455998595011
0.00724615840376
0.0129237418007
0.0233229597804
0.0382490430384
0.002115785931
0.00263857063956
0.00280529946214
0.00286550426969
0.00288786145109
0.00289791771675
0.00290472374658
0.00291129372573
0.00291880552326
0.00292845164198
0.0029431413562
0.00297043897652
0.00302938748978
0.00316993885397
0.00354295061713
0.00460362606515
0.00735929592061
0.0132094722837
0.0236990331454
0.0383188474866
0.00211062104097
0.00263290100875
0.00279910593527
0.00285906641046
0.00288134626961
0.00289140616238
0.00289824578318
0.00290487244431
0.00291247264724
0.00292231604957
0.00293744928905
0.0029658168694
0.00302682765814
0.00317079790007
0.00355081557739
0.00463600631252
0.00748883820863
0.0137211577019
0.0257272469396
0.044866981076
0.00210519188737
0.00262686244103
0.00279257857139
0.00285232923342
0.00287456479071
0.00288466465433
0.00289158340146
0.00289831794245
0.00290606042625
0.0029161460676
0.00293180979619
0.00296123909754
0.00302410868666
0.00317064945701
0.00355512827612
0.00466350482095
0.0076291193449
0.0142798128297
0.0280639916541
0.0543909296923
0.00209948049937
0.00262051299934
0.00278576094004
0.00284531958305
0.00286754785148
0.00287772559553
0.00288476276964
0.0028916399521
0.00289956811418
0.00290995873112
0.00292625517501
0.00295700839105
0.0030224409984
0.00317386350874
0.0035693208025
0.00471066462487
0.00779114578208
0.0148083461917
0.0298237968007
0.0648063208281
0.00209350263458
0.00261389873496
0.00277865674044
0.00283806351264
0.00286032458306
0.0028706211126
0.00287781869336
0.00288487991916
0.00289303869084
0.00290380313661
0.00292082933028
0.00295318000105
0.0030222754477
0.00318260309722
0.00360124288317
0.00479237165337
0.00795237498768
0.0151655860755
0.0307719844101
0.0640665706225
0.00208728054333
0.002606913791
0.00277127447434
0.00283058915615
0.0028529275741
0.00286338673095
0.00287078329545
0.00287806829115
0.0028865075895
0.00289769459107
0.00291553237445
0.00294959053687
0.0030224844866
0.00319254988375
0.00363689455312
0.00487991210402