/*--------------------------------*- C++ -*----------------------------------*\
| =========                 |                                                 |
| \\      /  F ield         | OpenFOAM: The Open Source CFD Toolbox           |
|  \\    /   O peration     | Version:  v2012                                 |
|   \\  /    A nd           | Website:  www.openfoam.com                      |
|    \\/     M anipulation  |                                                 |
\*---------------------------------------------------------------------------*/
FoamFile
{
    version     2.0;
    format      ascii;
    class       volVectorField;
    location    "3.5";
    object      U_0;
}
// * * * * * * * * * * * * * * * * * * * * * * * * * * * * * * * * * * * * * //

dimensions      [0 1 -1 0 0 0 0];


internalField   nonuniform List<vector> 
164
(
(-0.0178908494278 0.000917927949886 6.74157900803e-18)
(0.00474482159733 0.00093399208537 5.60968931957e-18)
(0.0150445518909 0.0039350256846 3.48750633905e-18)
(0.0255198684475 0.0143476604262 2.31862946681e-18)
(0.0293701097296 0.0216002743315 1.57407741929e-18)
(0.0309877984104 0.0468249002991 1.37461144522e-18)
(0.058997057073 0.0521365466951 1.28345971441e-18)
(0.765138549164 0.257943087672 1.16943352894e-18)
(-0.0213651819599 -0.0189414365049 4.40410109462e-18)
(-0.00340410065883 -0.019243505466 4.16780496647e-18)
(0.00541760979976 -0.0190656573243 3.06670750515e-18)
(0.0125375685377 -0.000997796684204 2.38334112203e-18)
(0.0137225664304 0.0170129132736 1.94067635295e-18)
(0.0133353264501 0.049589781576 1.80663501098e-18)
(0.0334959858979 0.0563547111814 1.70891506928e-18)
(0.512095389047 0.177095997759 1.63015761952e-18)
(0.0213755651902 -0.0189823807805 4.41574834313e-18)
(0.00331893861501 -0.0192680858251 4.18683050851e-18)
(-0.00557286230234 -0.0191337520711 3.10112358643e-18)
(-0.0129551138759 -0.00116015529392 2.41961576884e-18)
(-0.0146085880369 0.0165334122587 1.98544663243e-18)
(-0.0110923967465 0.0484602307018 1.85423630544e-18)
(0.00152121270892 0.0568234194793 1.75470699023e-18)
(0.0173573789878 0.533540263908 1.56920958358e-18)
(0.0180871465688 0.000760615386183 6.76365643738e-18)
(-0.00461656451427 0.000700053966484 5.63063455876e-18)
(-0.0150199438195 0.00358819551153 3.51172477537e-18)
(-0.0255469435213 0.0139132829994 2.33510656789e-18)
(-0.0288050382837 0.0203727970039 1.59471422341e-18)
(-0.0266515219907 0.0419446053217 1.38533400526e-18)
(-0.0271792648101 0.0433238651615 1.33675783202e-18)
(-0.570477911822 0.212568615649 1.21750760416e-18)
(-0.0147787548372 0.0301618809935 3.76483798651e-18)
(-0.0270670735684 0.0298213409443 1.95788194536e-18)
(-0.035134839694 0.027714673555 1.11522023059e-18)
(-0.0365065710412 0.040518157522 8.88918265121e-19)
(-0.0448274045946 0.0411457996109 7.77732187067e-19)
(-0.88994440285 0.275315216249 7.29823667927e-19)
(-0.00734730395598 0.0344447435479 2.99347542023e-18)
(-0.0226458182242 0.0355521318885 1.31681615044e-18)
(-0.0334927638739 0.0286724726884 5.94284321296e-19)
(-0.0378322177061 0.0391543854966 4.24643855948e-19)
(-0.0463212837617 0.0310253308974 3.73532290943e-19)
(-1.03574357178 -0.0864621910608 3.58007376485e-19)
(-0.0098377429054 0.0364945958003 1.1021740383e-18)
(-0.0208755672821 0.0380298211802 4.28090254364e-19)
(-0.0280920747745 0.028502584112 1.90848126403e-19)
(-0.0343720274141 0.0373595893211 1.22314783939e-19)
(-0.0459268051836 0.0316413793053 1.03622152424e-19)
(-0.738126910817 -0.218079183238 1.2689178227e-19)
(-0.0112606127758 0.0375011112732 2.06341639635e-19)
(-0.0181479921594 0.0392875544257 6.14822298307e-20)
(-0.0218343691731 0.030829403187 1.17501880147e-20)
(-0.0300364780092 0.0434173889218 -4.5588411939e-21)
(-0.0540860458095 0.034851856773 -3.83135128555e-21)
(-0.394961006094 -0.143121183775 1.08978219139e-20)
(-0.0127158384315 0.0368988595261 1.80427774181e-20)
(-0.0160640033625 0.0394367233859 -1.66955444225e-20)
(-0.0169135100698 0.0315023240144 -3.06818788737e-20)
(-0.027588139771 0.0454086356509 -3.48473592678e-20)
(-0.0383704755087 0.033625865304 -2.43966790303e-20)
(-0.145384787154 -0.0723672516513 -1.25157004721e-20)
(-0.0148092150121 0.0360400397297 -4.56258136356e-21)
(-0.0145326331136 0.0385636161868 -2.35197748636e-20)
(-0.0123478028494 0.031119591949 -4.49863267829e-20)
(-0.0231595564975 0.0413272716683 -5.9526583787e-20)
(-0.0130142082719 0.0230216644129 -3.01845725062e-20)
(-0.0383048056693 -0.064342563934 -2.56712032115e-20)
(-0.0167284736336 0.035095642449 -1.0177144308e-20)
(-0.0132881197749 0.0376239428416 -4.59936059459e-20)
(-0.00773985282409 0.0332501396014 -8.31769933871e-20)
(-0.016154027321 0.0427241266218 -1.01641411332e-19)
(0.0151519107917 0.0277206968284 -1.01799494147e-19)
(0.0265600596893 -0.063297160189 -8.44101804607e-20)
(-0.0190531893262 0.0345684044391 -1.98302155702e-20)
(-0.0138722490424 0.0377077980276 -6.65278259377e-20)
(-0.00577670243291 0.0376465864559 -1.35580046452e-19)
(-0.011290596298 0.0482912995933 -1.71542598038e-19)
(0.0492518939312 0.0419208831199 -2.12222644277e-19)
(0.134369258334 -0.0905888880531 -1.85876055242e-19)
(-0.0217087650409 0.0346600247035 -2.66460731032e-20)
(-0.0171091003803 0.0395256918196 -7.62668736078e-20)
(-0.0079788613404 0.0443220429925 -1.79129581457e-19)
(-0.0114988379235 0.0537532415115 -2.1864804794e-19)
(0.0749665110875 0.0496255331404 -2.21216068556e-19)
(0.326783821228 -0.0171950563334 -1.93471012595e-19)
(-0.0256344756414 0.0355408718096 -1.78425457443e-20)
(-0.0232679917043 0.0417409056671 -7.44189316665e-20)
(-0.0145858451042 0.0495935330663 -1.59924813055e-19)
(-0.0182076953439 0.0574103905897 -1.93315745803e-19)
(0.0601573675874 0.0600443470315 -9.37792356055e-20)
(0.160611948263 0.289961884516 -1.56727505371e-19)
(-0.0304835831441 0.0352788400206 -1.82734261035e-20)
(-0.0303064408194 0.0413848406309 -4.43272031225e-20)
(-0.0241765380302 0.0505963989385 -1.18620430316e-19)
(-0.0306638239414 0.0579769906181 -1.41364382299e-19)
(0.0249627101779 0.0694513518583 -1.44771207666e-19)
(-0.288710281503 0.268080650896 -1.24103971042e-19)
(-0.0349606605044 0.0333211661892 -1.22360447267e-20)
(-0.0368461001846 0.038807294736 -3.21219712725e-20)
(-0.0357552531272 0.0481783484284 -5.97575312182e-20)
(-0.043575327805 0.0554771080571 -7.97398635628e-20)
(0.0231348770751 0.0671998411589 -1.102275901e-19)
(-0.430475982072 0.0188156048208 -8.6267062171e-20)
(-0.0389639301169 0.0313351510368 -6.68487470274e-21)
(-0.0438415993809 0.0367558252503 -1.20614415321e-20)
(-0.0487949131465 0.0454211902139 -3.18439964458e-20)
(-0.0545311665935 0.0510854081058 -4.21938889714e-20)
(0.039261090116 0.065270699382 -5.56694206485e-20)
(-0.269814360229 -0.0709146683289 -1.13450356039e-19)
(-0.0426789051999 0.0300147832164 -3.54307388175e-21)
(-0.050435946489 0.0351849239087 -8.61552131163e-21)
(-0.0604659176944 0.0418380179917 -2.29009173729e-20)
(-0.0638191819934 0.0441861874318 -2.85308607531e-20)
(0.0586283606645 0.0580805431356 -3.72123391654e-20)
(-0.0894844687378 -0.0218605857739 -3.79536919544e-20)
(-0.0461099527972 0.029071660983 -6.27280001513e-21)
(-0.0557085639353 0.0338900771402 -1.22803243139e-20)
(-0.0687453564936 0.0375887614287 -1.31024165514e-20)
(-0.07180283572 0.0348392479914 -2.50664581807e-20)
(0.0772921015015 0.0486890281379 -2.59779399444e-20)
(-0.0231837316071 0.0055619039976 -2.66029115018e-20)
(-0.0494020713968 0.0278651178997 -8.11187935218e-21)
(-0.0591628242004 0.0324821003033 -8.3316054104e-21)
(-0.072592427474 0.0328810666509 -1.22382829076e-20)
(-0.0796256726314 0.0256345383187 -8.24964819423e-21)
(0.0700013229974 0.0428868826667 -1.05249756668e-20)
(-0.0150722792357 0.0783382095004 -3.58255350658e-20)
(-0.0528936178982 0.0255398486853 -2.94263794321e-21)
(-0.0619979601956 0.0302285299114 -1.01415916683e-20)
(-0.0742721789442 0.0292960977574 -1.13373080253e-20)
(-0.0880832981843 0.0216261681395 -1.21458173127e-20)
(0.0238423427091 0.0417755108494 -8.39627110702e-21)
(-0.0624235298926 0.178284732913 1.38305681514e-19)
(-0.0561201813373 0.0217399607262 -2.90386080878e-21)
(-0.0644921532504 0.0260412807681 -1.00130538768e-21)
(-0.0759951303404 0.0241243875521 -1.13687032427e-20)
(-0.0937208993517 0.0185425854442 -2.68336196844e-20)
(-0.0333702385475 0.0365815546481 -2.6942087951e-20)
(-0.0879375141291 0.0803753786003 -7.44454670869e-20)
(-0.0585168343173 0.0169125551903 -2.23939596022e-21)
(-0.0662621836874 0.0203365454732 -4.43572747567e-21)
(-0.0775433706398 0.0171484203933 -1.15294555789e-20)
(-0.0957628079128 0.0136820791967 -2.19973493531e-20)
(-0.0648745764528 0.0293332309741 -2.22256936494e-20)
(-0.0564299147391 0.0385094499589 -1.18080262962e-20)
(-0.0597722383116 0.0116292247302 -2.75817721923e-21)
(-0.0668427295852 0.0139545122145 -7.328114338e-21)
(-0.0776972982807 0.00940080775955 -7.58045733504e-21)
(-0.094969313311 0.00689376126551 -2.08593907387e-20)
(-0.0808574696875 0.0149924131293 -2.16640563802e-20)
(-0.037135522932 0.0053865491996 -8.27243697563e-22)
(-0.07641076739 0.00141529869467 -3.60101282427e-22)
(-0.0911525433002 -0.00116691811829 -6.00570377224e-21)
(-0.0821324550451 0.00515863658496 -6.61574175647e-21)
(-0.0244394513034 -0.0127157855817 -1.10152185858e-21)
(-0.0741159571017 -0.00621650391866 2.31042399525e-21)
(-0.0852100254677 -0.00949160138996 2.21478049948e-21)
(-0.0777437859356 -0.00202561149345 1.01993798471e-21)
(-0.0175339584241 -0.0255091444152 -2.61280886007e-21)
(-0.0706347830139 -0.0127784581446 7.49120880302e-21)
(-0.0774838692839 -0.0165564352353 -7.91940813159e-21)
(-0.0695681781945 -0.0100091582672 -7.17525251185e-21)
(-0.006468851774 -0.0341019699829 9.72366849574e-21)
)
;

boundaryField
{
    back
    {
        type            noSlip;
    }
    sides
    {
        type            noSlip;
    }
    bottom
    {
        type            noSlip;
    }
    front
    {
        type            noSlip;
    }
    atmosphere
    {
        type            pressureInletOutletVelocity;
        value           nonuniform List<vector> 
27
(
(0.765138549164 0.257943087672 1.16943352894e-18)
(0.512095389047 0.177095997759 1.63015761952e-18)
(0.0173573789878 0.533540263908 1.56920958358e-18)
(-0.570477911822 0.212568615649 1.21750760416e-18)
(-0.88994440285 0.275315216249 7.29823667927e-19)
(0 -0.0864621910608 0)
(0 -0.218079183238 0)
(0 -0.143121183775 0)
(0 -0.0723672516513 0)
(0 -0.064342563934 0)
(0 -0.063297160189 0)
(0 -0.0905888880531 0)
(0 -0.0171950563334 0)
(0.160611948263 0.289961884516 -1.56727505371e-19)
(-0.288710281503 0.268080650896 -1.24103971042e-19)
(-0.430475982072 0.0188156048208 -8.6267062171e-20)
(0 -0.0709146683289 0)
(0 -0.0218605857739 0)
(0 0.0055619039976 0)
(-0.0150722792357 0.0783382095004 -3.58255350658e-20)
(-0.0624235298926 0.178284732913 1.38305681514e-19)
(-0.0879375141291 0.0803753786003 -7.44454670869e-20)
(-0.0564299147391 0.0385094499589 -1.18080262962e-20)
(0 0.0053865491996 0)
(0 -0.0127157855817 0)
(0 -0.0255091444152 0)
(0 -0.0341019699829 0)
)
;
    }
    floatingObject
    {
        type            movingWallVelocity;
        value           nonuniform List<vector> 4((0 0 0) (0 0 0) (-1.38777878078e-16 0 0) (0 0 0));
    }
    procBoundary6to3
    {
        type            processor;
        value           nonuniform List<vector> 8((-0.016338580768 0.0341799619224 1.14332475615e-17) (0.000746305876924 0.0372956321852 7.80796463646e-18) (0.0150812908739 0.0304610189591 3.74087310464e-18) (0.0270370741538 0.0298026496485 2.02080263716e-18) (0.0354615558627 0.026315803291 1.14964571585e-18) (0.0399698594217 0.0405330836634 9.3811278029e-19) (0.0662299952457 0.0382569819809 8.82733857271e-19) (1.08184520343 0.159855265762 8.14837131938e-19));
    }
    procBoundary6to7
    {
        type            processor;
        value           nonuniform List<vector> 
11
(
(-0.0416359296167 0.0261638345668 -3.0063797083e-21)
(-0.0447925082681 0.024647374574 -2.70571335902e-21)
(-0.0481228284369 0.0223578892207 -1.27565263874e-21)
(-0.051162967603 0.0191679352238 -6.78686796703e-22)
(-0.0534880569306 0.0152608559091 -8.09557525743e-22)
(-0.0548909624964 0.0109850319349 -5.08867129057e-22)
(-0.0598923451534 0.00663884040035 -2.07680802127e-21)
(-0.0660179365013 0.00775524680822 -7.0952488714e-21)
(-0.0660179365013 0.00775524680822 -7.0952488714e-21)
(-0.0645548453984 0.00218419675281 -2.67301539172e-21)
(-0.0627325208065 -0.00314434062623 1.33638642563e-21)
)
;
    }
    procBoundary6to8
    {
        type            processor;
        value           nonuniform List<vector> 
16
(
(0.0166584083215 0.0338283288748 1.14429114806e-17)
(-0.00047269012092 0.0370144818165 7.81010133109e-18)
(-0.00047269012092 0.0370144818165 7.81010133109e-18)
(0.00356590682211 0.0364577454175 4.9931984239e-18)
(-0.0024783905149 0.0340586712788 2.03646080631e-18)
(-0.00751228111371 0.0347080001665 4.35323671696e-19)
(-0.0111250596127 0.0342413350844 4.61061657714e-20)
(-0.0144043479433 0.0335809482436 3.92777777246e-21)
(-0.0172653920059 0.0328791455114 -2.24029915762e-21)
(-0.0201651282738 0.0323484605355 -3.54240603343e-21)
(-0.0227513591687 0.0318237659558 -4.34659572043e-21)
(-0.0258047688045 0.0318416107988 -4.75418568606e-21)
(-0.0295735130483 0.0313584980283 -5.84891326425e-21)
(-0.0331308701067 0.0299239438887 -4.09301347201e-21)
(-0.0359996664005 0.0283669770363 -2.41063994228e-21)
(-0.0387521376717 0.0272368482784 -1.92036341741e-21)
)
;
    }
    procBoundary6to9
    {
        type            processor;
        value           nonuniform List<vector> 4((-0.0657080413725 -0.0180761772914 -1.10377080742e-20) (-0.0697698326676 -0.0219963722827 -1.61511051202e-20) (-0.0628832735748 -0.0167034490847 -1.54571733278e-20) (-0.00225950558013 -0.0329968373688 -3.08758299924e-22));
    }
}


// ************************************************************************* //
