/*--------------------------------*- C++ -*----------------------------------*\
| =========                 |                                                 |
| \\      /  F ield         | OpenFOAM: The Open Source CFD Toolbox           |
|  \\    /   O peration     | Version:  v2012                                 |
|   \\  /    A nd           | Website:  www.openfoam.com                      |
|    \\/     M anipulation  |                                                 |
\*---------------------------------------------------------------------------*/
FoamFile
{
    version     2.0;
    format      ascii;
    class       surfaceScalarField;
    location    "2.5";
    object      alphaPhi0.water;
}
// * * * * * * * * * * * * * * * * * * * * * * * * * * * * * * * * * * * * * //

dimensions      [0 3 -1 0 0 0 0];
oriented        oriented;


internalField   nonuniform List<scalar> 
300
(
-1.90815684548e-05
5.57023070037e-05
-3.75537263104e-05
5.10077375195e-05
-5.64831319071e-05
4.71049278813e-05
-7.81140830094e-05
4.41687177154e-05
-0.000105614459452
3.97165980819e-05
-0.000143779436038
2.92145511313e-05
-0.000201579367849
7.90038586937e-06
-0.000278805644389
4.72770768482e-06
-0.000329958612673
5.11517616674e-05
-0.000364338726192
3.4378284097e-05
-0.00040656914567
4.22238756645e-05
-0.000624625450285
0.000218043701832
-0.000444672643678
0.000547246473859
0.000448862609828
-1.92863522266e-05
7.49889819458e-05
-3.82443381259e-05
6.99660267679e-05
-5.76271351208e-05
6.64878974853e-05
-7.86688647389e-05
6.52104269525e-05
-0.000103725913864
6.47734311026e-05
-0.000138877214567
6.43654704683e-05
-0.000194289774109
6.33124276154e-05
-0.000261614906269
7.20522642879e-05
-0.000306405396508
9.5941625903e-05
-0.000373067855212
0.000101038631958
-0.000460566667493
0.000129718688863
-0.000513709018313
0.000271179718435
-0.000427301938784
0.000460832686138
0.000432401873441
-1.90429162571e-05
9.40324425836e-05
-3.78730966484e-05
8.87967574783e-05
-5.71805246648e-05
8.57958057186e-05
-7.80289740194e-05
8.60592440254e-05
-0.000101832018172
8.85767547173e-05
-0.000130891527897
9.34251491691e-05
-0.000168308459253
0.000100729513127
-0.000212141261384
0.000115885613742
-0.000253954989315
0.000137754827234
-0.000309909384182
0.000156992516306
-0.000376203082408
0.000196010415498
-0.000394084599631
0.000289058411937
-0.000331049231476
0.000397793445323
0.000419157867901
-1.84286098528e-05
0.000112461741561
-3.6628778964e-05
0.000106997651009
-5.52134635703e-05
0.00010438118456
-7.51092244658e-05
0.000105955641696
-9.70255159368e-05
0.00011049363801
-0.000121618301758
0.000118018512471
-0.000149746577612
0.000128858398856
-0.000179900322108
0.000146040138957
-0.00021049692449
0.000168352242716
-0.000247354503957
0.000193850244071
-0.00028465641882
0.000233311841302
-0.000293682286476
0.000298083455905
-0.000262834563455
0.000366943705469
0.000408333262066
-1.74151231364e-05
0.000129877576796
-3.45147654183e-05
0.000124098077558
-5.18416098429e-05
0.000121708877096
-6.99926961946e-05
0.000124107577177
-8.94249210394e-05
0.000129926763641
-0.00011034396878
0.000138938466251
-0.000132935241742
0.000151450589619
-0.000155900717491
0.000169006009954
-0.000178704828548
0.000191156912022
-0.000202570570971
0.000217715722913
-0.000222765497465
0.000253505637774
-0.000226141559832
0.000301458288754
-0.000211037131306
0.000351836897881
0.000393869952813
-1.60653104435e-05
0.000145943746699
-3.17279948371e-05
0.000139761709153
-4.74203434351e-05
0.000137402194981
-6.35849832367e-05
0.000140273169566
-8.04704235004e-05
0.000146813053572
-9.81261130137e-05
0.000156594934621
-0.000116325186245
0.000169650021775
-0.000134140223469
0.000186820980306
-0.000150878763298
0.00020789463324
-0.000166193724624
0.000233028920548
-0.000176832664
0.000264141532736
-0.000176697240757
0.000301318745389
-0.000164666835455
0.000339801306694
0.000374083283006
-1.44558084602e-05
0.000160400428855
-2.84785919874e-05
0.000153785433191
-4.23635316718e-05
0.000151288075196
-5.63973344758e-05
0.000154307852093
-7.08405779953e-05
0.000161257001514
-8.54561540881e-05
0.000171210657533
-9.9928874729e-05
0.000184122401399
-0.000113532046586
0.000200422827926
-0.000125722317964
0.000220082502891
-0.000135728349716
0.000243031363708
-0.000141388232108
0.000269796540636
-0.00013972822083
0.000299651766887
-0.000129918556075
0.000329981722888
0.000356961674338
-1.2656966629e-05
0.000173058237011
-2.49067184124e-05
0.000166036068808
-3.68685122138e-05
0.000163250707166
-4.88907509985e-05
0.000166330775865
-6.08494364671e-05
0.000173216037447
-7.26831573374e-05
0.00018304410433
-8.40889443718e-05
0.000195526988004
-9.44608094733e-05
0.000210792368194
-0.000103160199456
0.000228778167464
-0.000109475101111
0.000249341159472
-0.000111983410316
0.000272298202532
-0.000108952181634
0.000296611921487
-9.95660878003e-05
0.000320584622178
0.000342872509229
-1.08442241046e-05
0.000183903490166
-2.12393277838e-05
0.000176432212972
-3.13358392744e-05
0.000173348217727
-4.12458271941e-05
0.000176241579626
-5.10050061877e-05
0.000182975625925
-6.03751510406e-05
0.000192413867234
-6.91342398682e-05
0.000204284595391
-7.6870881918e-05
0.000218526021948
-8.31527706093e-05
0.000235055569827
-8.75865502364e-05
0.000253768755836
-8.97813241365e-05
0.000274485216337
-8.97236733961e-05
0.000296544795462
-8.81788698832e-05
0.000319028480276
0.000340773768323
-8.96097900246e-06
0.000192865837356
-1.75453392875e-05
0.000185018044112
-2.5774614416e-05
0.000181578999657
-3.37740918116e-05
0.000184242423387
-4.14378300163e-05
0.000190640259007
-4.86830537333e-05
0.000199659043304
-5.51076307969e-05
0.000210707733804
-6.0577701751e-05
0.000223993018777
-6.47313642634e-05
0.000239204456006
-6.72050085307e-05
0.000256235649185
-6.79039863624e-05
0.000275176226558
-6.68295770408e-05
0.000295460928702
-6.46256451643e-05
0.000316812083023
0.000338517213148
-7.10812024439e-06
-1.39091836473e-05
-2.03973114475e-05
-2.65649321869e-05
-3.23655452453e-05
-3.75721466698e-05
-4.21030848901e-05
-4.55328853742e-05
-4.7671455465e-05
0.000241338084631
-4.82943599835e-05
0.000256851849716
-4.69206926079e-05
0.000273794365729
-4.32803016417e-05
0.000291811435067
-3.71831301735e-05
0.000310703340643
0.000330655310922
-3.22844954555e-05
-3.13665774684e-05
-2.86218462796e-05
-2.3687527005e-05
0.000286867121778
-1.6821126864e-05
0.000303825354084
0.00032088672722
-1.05703677197e-05
-5.57018057074e-06
0.000312919425352
)
;

boundaryField
{
    back
    {
        type            calculated;
        value           uniform 0;
    }
    sides
    {
        type            calculated;
        value           nonuniform List<scalar> 0();
    }
    bottom
    {
        type            calculated;
        value           uniform 0;
    }
    front
    {
        type            calculated;
        value           uniform 0;
    }
    atmosphere
    {
        type            calculated;
        value           nonuniform List<scalar> 0();
    }
    floatingObject
    {
        type            calculated;
        value           uniform 0;
    }
    procBoundary8to3
    {
        type            processor;
        value           nonuniform List<scalar> 8(-3.66208755531e-05 -3.25357928321e-05 -2.81759999699e-05 -2.25386400002e-05 -1.22174597077e-05 8.94890276224e-06 4.98979363818e-05 7.24966947917e-05);
    }
    procBoundary8to6
    {
        type            processor;
        value           nonuniform List<scalar> 
16
(
-0.000727230108364
-0.000442900527368
-0.000450666282089
-0.000410848662752
-0.000317809051155
-0.00025201286265
-0.000196579183228
-0.000144884780821
-0.000112806125512
-8.54893121686e-05
-8.60939046355e-05
-6.23818604303e-05
-2.93324820888e-05
-7.06344887979e-06
2.38563307239e-06
1.71485348399e-05
)
;
    }
    procBoundary8to7
    {
        type            processor;
        value           nonuniform List<scalar> 
17
(
0.000199975534417
0.000191820864848
0.000188069020419
0.000190411885117
0.000196442322259
0.000204866183438
0.000215237593737
0.00022741998142
3.1732237069e-05
0.000241885941859
0.000255927167634
0.000271043943179
1.41260602403e-05
0.000283298763157
0.000298817713127
-1.08740372989e-05
0.000306634371951
)
;
    }
}


// ************************************************************************* //
