/*--------------------------------*- C++ -*----------------------------------*\
| =========                 |                                                 |
| \\      /  F ield         | OpenFOAM: The Open Source CFD Toolbox           |
|  \\    /   O peration     | Version:  v2012                                 |
|   \\  /    A nd           | Website:  www.openfoam.com                      |
|    \\/     M anipulation  |                                                 |
\*---------------------------------------------------------------------------*/
FoamFile
{
    version     2.0;
    format      ascii;
    class       surfaceScalarField;
    location    "0.5";
    object      phi;
}
// * * * * * * * * * * * * * * * * * * * * * * * * * * * * * * * * * * * * * //

dimensions      [0 3 -1 0 0 0 0];
oriented        oriented;


internalField   nonuniform List<scalar> 
306
(
-0.000188390528706
2.01433859113e-05
-0.000208170783836
1.9780204625e-05
-0.000227535974809
1.93651148927e-05
-0.000246429874856
1.88938023091e-05
-0.000264790635586
1.83606506627e-05
-0.000282545997493
1.77552488878e-05
-0.00029959289876
1.70467956533e-05
-0.00031574698378
1.61539930373e-05
-0.000330666560585
1.49195054679e-05
-0.000343353279895
1.26866721969e-05
-0.000354643045995
1.12897518777e-05
2.37959317085e-05
-0.000191874105793
4.06529607982e-05
-0.000212012672886
3.9918702893e-05
-0.000231727381531
3.90797359183e-05
-0.000250962942798
3.81292598765e-05
-0.000269663037889
3.70606330752e-05
-0.000287774590686
3.58666913169e-05
-0.000305267673575
3.45397784247e-05
-0.000322179655832
3.30658941591e-05
-0.000338650779314
3.13905699762e-05
-0.000355578768286
2.96146279076e-05
-0.000371825004627
2.75359853088e-05
2.3443339877e-05
-0.000192927353057
-0.000213197985751
6.01892603849e-05
-0.000233049308405
5.89309686297e-05
-0.000252425792345
5.75056434755e-05
-0.000271270456049
5.59051941915e-05
-0.000289527257863
5.41233961721e-05
-0.000307145461772
5.21579011627e-05
-0.000324079513467
4.99998850665e-05
-0.000340309190568
4.76202112169e-05
-0.000355827886944
4.51333096419e-05
-0.000369109639653
4.08177461862e-05
3.05166927509e-05
-0.0002144935185
-0.000234513707312
7.89510692316e-05
-0.000254066495899
7.70583432803e-05
-0.000273092830541
7.49314429844e-05
-0.000291532105262
7.2562596708e-05
-0.000309322098907
6.99478387812e-05
-0.000326393986183
6.70717403871e-05
-0.000342665035634
6.38912514116e-05
-0.000358017252474
6.04855331485e-05
-0.000371507493414
5.43080066005e-05
3.88422641495e-05
-0.000236409113365
9.91940810462e-05
-0.000256194878247
9.68440348753e-05
-0.000275461731446
9.41982315184e-05
-0.000294144412878
9.12452286443e-05
-0.000312173167167
8.79765659207e-05
-0.000329468705034
8.43672752713e-05
-0.000345932684524
8.03552483538e-05
-0.000361435541764
7.59884162609e-05
-0.000375197316794
6.80698109503e-05
4.79860186457e-05
-0.000238757911733
0.000119718017398
-0.000258838231121
0.000116924299091
-0.000278410916846
0.000113770873382
-0.000297407073074
0.000110241359763
-0.000315752108202
0.00010632159978
-0.000333362014861
0.000101977204689
-0.000350136807962
9.71300806949e-05
-0.000365947184729
9.17988336171e-05
-0.000380094128645
8.22167912056e-05
5.77532760367e-05
-0.000241550777926
0.000140581977121
-0.000261989628951
0.000137363110592
-0.000281937195158
0.00013371841353
-0.000301321641204
0.000129625800301
-0.00032006501117
0.000125064988911
-0.000338080824733
0.000119993059979
-0.00035526989473
0.000114319205116
-0.00037150249998
0.000108031488826
-0.000386109713137
9.68240449942e-05
6.80881258513e-05
-0.000244769431567
0.000161846456071
-0.00026563287791
0.000158226530501
-0.000286027177569
0.000154112700882
-0.0003058778136
0.000149476445013
-0.000325103775091
0.000144290983341
-0.000343615987902
0.000138505326477
-0.000361314555703
0.000132017835989
-0.000378066480087
0.000124783467984
-0.000393204124947
0.000111961732374
7.90225781088e-05
-0.000248389905243
0.000183572956576
-0.000269745884311
0.00017958249278
-0.000290661324329
0.000175028138019
-0.000311058894566
0.000169874032902
-0.000330854098588
0.000164086228202
-0.000349954102566
0.000157605390065
-0.000368255669325
0.000150319469413
-0.000385619671323
0.000142147525866
-0.000401366897228
0.000127709000907
9.06381880854e-05
-0.000252381918934
0.00020582385369
-0.000274300227712
0.000201500792879
-0.000295813926073
0.00019654184015
-0.000316842500283
0.00019090262993
-0.000337297185254
0.000184540957431
-0.000357079885565
0.000177388151532
-0.00037608138622
0.000169321036379
-0.000394154483529
0.000160220677515
-0.000410602851175
0.00014415740983
0.000103050143689
-0.00025670786223
0.000228662294685
-0.000279260247499
0.000224053175817
-0.000301452426879
0.000218734027393
-0.000323200223289
0.000212650451138
-0.000344409677653
0.000205750455963
-0.000364975860258
0.00019795439324
-0.000384781191641
0.00018912643069
-0.000403669179057
0.000179108715283
-0.000420924090616
0.000161412360031
0.000116405161135
-0.000261321573341
0.000252152062174
-0.000284581890769
0.000247313496071
-0.000307536376111
0.000241688522408
-0.000330096706875
0.000235210805686
-0.000352162768751
0.000227816558547
-0.000373621215816
0.000219412894107
-0.000394343894796
0.000209849166046
-0.000414164184068
0.000198929048476
-0.00043234658292
0.000179594793369
0.00013088600354
-0.000266166954551
0.00027635737038
-0.000290211254195
0.000271357799946
-0.00031401595859
0.000265493234102
-0.00033748818326
0.000258683048623
-0.000360520717907
0.000250849126073
-0.000382990195206
0.000241882415634
-0.000404755682924
0.00023161469983
-0.000425639650737
0.000219813050554
-0.000444888224529
0.00019884339587
0.000146720582711
-0.000271176187714
0.000301342497598
-0.000296082735265
0.000296264341501
-0.000320830081318
0.000290240571011
-0.000345320523953
0.000283173490275
-0.000369438894299
0.000274967510189
-0.00039305016496
0.000265493712345
-0.000415998219143
0.000254562783723
-0.000438093512137
0.000241908363571
-0.00045856712064
0.000219317025316
0.000164195344997
-0.000276267729074
0.000327171259353
-0.000302116708359
0.000322113288571
-0.000327903839085
0.000316027663392
-0.00035352660005
0.000308796223073
-0.000378861195484
0.000300302093843
-0.000403759281669
0.000290391804522
-0.00042804681877
0.000278850327712
-0.000451519983586
0.000265381534775
-0.000473399475726
0.000241196529043
0.000183672416533
-0.000281343475598
-0.000308216603503
-0.000335145449829
-0.00036202312978
-0.000388716934842
-0.00041506390609
-0.000440869106489
-0.000465909980482
-0.000489396230904
)
;

boundaryField
{
    back
    {
        type            calculated;
        value           uniform 0;
    }
    sides
    {
        type            calculated;
        value           uniform 0;
    }
    bottom
    {
        type            calculated;
        value           nonuniform List<scalar> 0();
    }
    front
    {
        type            calculated;
        value           uniform 0;
    }
    atmosphere
    {
        type            calculated;
        value           nonuniform List<scalar> 
16
(
-0.000378439002197
-0.000371472448593
-0.000376183019976
-0.000379833087453
-0.000384341091597
-0.000389861404407
-0.000396444580581
-0.000404138594894
-0.000412982525639
-0.000423014826577
-0.000434279129916
-0.00044682745002
-0.000460722832128
-0.000476041916682
-0.000492876584717
-0.000511328671528
)
;
    }
    floatingObject
    {
        type            calculated;
        value           nonuniform List<scalar> 0();
    }
    procBoundary1to0
    {
        type            processor;
        value           nonuniform List<scalar> 10(0.000353905974053 0.000348986364779 0.00034295645052 0.000335673851789 0.00032699586796 0.000316738755544 0.000304655519265 0.000290422398229 0.000264682785673 0.000205604815344);
    }
    procBoundary1to2
    {
        type            processor;
        value           nonuniform List<scalar> 
18
(
0.00016824711982
0.000171364495485
0.000172290784992
6.12894733282e-05
0.000194062622003
8.06200533154e-05
0.000216165984252
0.000218233885579
0.0002206867484
0.00022350490419
0.000226663369218
0.00023013100293
0.000233869414211
0.000237831814775
0.000241961663549
0.00024619107859
0.000250438970148
0.000254608742519
)
;
    }
}


// ************************************************************************* //
