/*--------------------------------*- C++ -*----------------------------------*\
| =========                 |                                                 |
| \\      /  F ield         | OpenFOAM: The Open Source CFD Toolbox           |
|  \\    /   O peration     | Version:  v2012                                 |
|   \\  /    A nd           | Website:  www.openfoam.com                      |
|    \\/     M anipulation  |                                                 |
\*---------------------------------------------------------------------------*/
FoamFile
{
    version     2.0;
    format      ascii;
    class       surfaceVectorField;
    location    "4.4";
    object      ddtCorrDdt0(Uf);
}
// * * * * * * * * * * * * * * * * * * * * * * * * * * * * * * * * * * * * * //

dimensions      [0 1 -2 0 0 0 0];


internalField   nonuniform List<vector> 
296
(
(0.0574394980819 0.0456436736143 1.13483062803e-20)
(0.0522755603118 0.0442873252788 2.59108670614e-20)
(0.0620110175857 0.0519504852359 1.36924214412e-20)
(0.0563909227574 0.05098931499 3.46308775687e-20)
(0.0674823831624 0.0582951012511 1.52401846807e-20)
(0.0613461242122 0.057674335222 3.77926626401e-20)
(0.073955086479 0.0648671779528 2.12935955153e-20)
(0.0670844815693 0.0646114595912 4.4878280291e-20)
(0.0815349543141 0.0714657713046 2.42210570514e-20)
(0.0740589506832 0.0719247208765 4.88224894254e-20)
(0.0903113131248 0.0783715102499 1.8660780258e-20)
(0.0820721767447 0.0791504972525 4.87361702429e-20)
(0.101081307665 0.0856334756141 9.58632779787e-21)
(0.0913327075715 0.0870636414404 3.35546493702e-20)
(0.11587927933 0.0942319985281 3.75540956118e-21)
(0.102735489514 0.0959581795028 1.10754567878e-20)
(0.130878084065 0.106444687616 -5.87433193055e-22)
(0.117941149639 0.108133353983 5.91816601896e-21)
(0.137741149264 0.125721523887 -2.42835846176e-22)
(0.126522028427 0.109828987139 1.00643218406e-21)
(0.0318708788941 0.144791405871 2.29857640271e-20)
(0.126053927251 0.103897364203 1.05897601505e-20)
(0.0126576087731 0.249524012958 7.6503325425e-21)
(0.0828051774131 0.170448673017 3.12986990241e-20)
(0.104914382675 0.217857147287 -1.18767346399e-20)
(0.0401824144611 0.00548663279814 5.1053456707e-23)
(0.0375880507296 0.00261577018121 -3.94315565819e-22)
(0.0401823441027 0.0109854145991 2.78656413796e-22)
(0.0373186493354 0.00842096207616 3.61869527499e-22)
(0.0406265442698 0.0166605958243 5.59417387445e-22)
(0.037500389359 0.0140603301411 5.40056691868e-22)
(0.0380109909098 0.0199786555815 2.06016515502e-21)
(0.0445321556101 0.0355232770676 1.64689460197e-20)
(0.0401785524522 0.0329928924284 2.3874610474e-20)
(0.047159386281 0.0424920341816 3.27866439672e-20)
(0.0421732975003 0.0402024477611 5.65566939223e-20)
(0.0507516866149 0.0496317041874 4.91934383498e-20)
(0.045179769658 0.0477494296726 9.84718693328e-20)
(0.0552537541065 0.0567959515598 5.87311187675e-20)
(0.0492631941408 0.055321399948 1.27096465074e-19)
(0.0605147647456 0.0640893652691 6.74307582503e-20)
(0.0540739127287 0.0628435110905 1.40017820007e-19)
(0.0668057078485 0.0718046851913 7.24071742011e-20)
(0.059374486161 0.0707990571067 1.8164781495e-19)
(0.0742349734404 0.0794106974128 7.3337602617e-20)
(0.0664398175553 0.0792534494234 2.13959584901e-19)
(0.0826828611222 0.0873289812737 6.36300393552e-20)
(0.0741268704348 0.0872256119685 1.88886199422e-19)
(0.0923511588554 0.0956791553965 3.50437783601e-20)
(0.0829462124817 0.095784320844 1.09508859376e-19)
(0.10399851348 0.106235914196 1.32382132455e-20)
(0.0921440735745 0.105418784169 3.67613645359e-20)
(0.114203635596 0.122183798651 7.51203139608e-21)
(0.101970966585 0.121530839647 1.60092305434e-20)
(0.119890457946 0.146916639379 1.18390281808e-20)
(0.101782608709 0.126490148772 4.15940760971e-21)
(0.0691390666691 0.161070831529 1.89026951475e-20)
(0.111911067515 0.126762143977 3.22329022357e-20)
(0.0538184441484 0.167815074195 1.17716318417e-20)
(0.0759848675862 0.136023978647 5.48645041901e-22)
(0.0504048705844 0.191761293647 5.23115025757e-21)
(0.0346507441571 0.00563215130229 -8.34994950267e-23)
(0.0319845328561 0.00267951585971 -6.41869134106e-22)
(0.0345485784072 0.011313634529 6.23269805571e-22)
(0.0316734748613 0.0085913129035 6.40905103044e-22)
(0.0347635982687 0.0172102117662 2.04080445945e-21)
(0.0316509290941 0.0143645053449 1.68454920904e-21)
(0.0352429502019 0.0234426533686 7.74068750024e-21)
(0.0318401952063 0.0204821208116 7.21566524427e-21)
(0.0360559203138 0.0301602707909 2.51789622808e-20)
(0.0322345632474 0.0270634760158 2.6913701061e-20)
(0.0374090607215 0.0374455077884 6.39623583767e-20)
(0.0329554175816 0.0342743713554 8.32947691369e-20)
(0.0396952777558 0.0453109060899 1.22241919288e-19)
(0.0343675530328 0.0423161885539 1.883006131e-19)
(0.0431903785682 0.0534282328982 1.76374896057e-19)
(0.0371164439558 0.0509257166983 3.05594627355e-19)
(0.04763485827 0.0614757763494 2.08383166313e-19)
(0.0412622747378 0.0594868468413 3.68681147585e-19)
(0.0525934067198 0.0697251225547 2.54234876706e-19)
(0.0458600113985 0.0679548821391 3.7368882433e-19)
(0.0588096153553 0.0785186281843 3.2320022565e-19)
(0.0506025962353 0.0770224995507 5.31267157942e-19)
(0.0663264349788 0.0869579609914 3.29508181706e-19)
(0.0580073189792 0.0864523753857 7.74389064665e-19)
(0.0744864169886 0.095163339526 2.34765019443e-19)
(0.0659154148934 0.0946071718906 5.38678966103e-19)
(0.0827283684391 0.103510839582 1.11226445551e-19)
(0.0745844742002 0.102654347809 2.27039833167e-19)
(0.0898228262795 0.115004345602 3.95323818337e-20)
(0.0806341595227 0.11153984202 7.16430695003e-20)
(0.093397080305 0.134281532612 1.2656606757e-20)
(0.0826832054922 0.12925404383 3.20821894406e-20)
(0.0968114328273 0.156347830861 2.45532816646e-20)
(0.0797137402983 0.137307148754 1.40945840584e-20)
(0.147169924779 0.183341564563 1.38788521301e-20)
(0.0848891861453 0.144819174393 5.27952771367e-20)
(0.120144769614 0.139498721081 -5.9918365422e-21)
(0.119786699561 0.140023973895 1.75031043078e-20)
(0.0268555946951 0.221063587725 -4.5661384254e-21)
(0.0290007232002 0.00567469618574 8.25354639639e-23)
(0.0263426088229 0.00268343343639 -4.75068793395e-22)
(0.0287608332741 0.0114397414418 1.70218450651e-21)
(0.0259471417398 0.00859102813102 1.29943372286e-21)
(0.0286898247006 0.0174278894642 6.85940999386e-21)
(0.0257092134283 0.0143732681245 5.04922114377e-21)
(0.0287305475953 0.0238229881609 2.63886788051e-20)
(0.0255004433734 0.0205338130068 2.13148056292e-20)
(0.028911815116 0.0308054841398 8.50295079171e-20)
(0.025313290249 0.027190883273 7.81687158087e-20)
(0.0294494413598 0.0387051941187 2.0763302386e-19)
(0.0251202611831 0.0346561208441 2.3225566542e-19)
(0.0310842621674 0.0476733845079 3.71653321166e-19)
(0.0254654403886 0.0436067525626 4.9145828629e-19)
(0.0344980035963 0.0570390367186 4.97900878883e-19)
(0.027814690496 0.0538500997501 7.28082679763e-19)
(0.0389903311424 0.0661258688339 5.33986805602e-19)
(0.0322349011509 0.0640635782622 7.41161694869e-19)
(0.0435170940755 0.0755191589335 6.50721105565e-19)
(0.0365181845688 0.0738114538892 5.88333770213e-19)
(0.0495920528294 0.0855180194378 9.82455996957e-19)
(0.0406455225319 0.0843552998751 9.42342899893e-19)
(0.0577976195014 0.0942776998304 9.83559849062e-19)
(0.0492772298115 0.0959071424686 1.2113503652e-18)
(0.0666299642774 0.101710211559 5.30953779828e-19)
(0.0585022359075 0.101728455854 9.21611068872e-19)
(0.0733327817222 0.108446322392 1.87456457116e-19)
(0.0678591771644 0.107116216072 7.31430967478e-20)
(0.07531170818 0.118788355896 6.41928771072e-20)
(0.0702962707638 0.114048049681 -2.05878984426e-20)
(0.0719511772085 0.134702080841 3.3520166742e-20)
(0.0667712754417 0.130600790071 2.23387994578e-20)
(0.0713254800963 0.156246228074 4.23365795305e-20)
(0.0581704543317 0.141249189648 1.00302241398e-20)
(0.0950838523469 0.17962524817 5.64195293144e-20)
(0.0614903504569 0.155092161786 4.96204072333e-20)
(0.0734047967546 0.201348329466 1.89288024246e-20)
(0.0979939603687 0.167276507353 9.48074430781e-20)
(0.0321865866706 0.223914776481 -7.08733882774e-20)
(0.0233481606992 0.00563273661464 7.41829465502e-22)
(0.0207436330154 0.00263202028039 -4.8598197809e-23)
(0.0229586136632 0.0113204892369 4.64647036012e-21)
(0.0202972705471 0.00840800308879 2.81266263305e-21)
(0.0225724536528 0.0172613525314 1.95046167791e-20)
(0.0198122920533 0.0140528960637 1.2553411552e-20)
(0.0221489626302 0.0236000011147 7.30948426328e-20)
(0.0192133752162 0.0201135403065 5.1736944804e-20)
(0.0217167871267 0.0304839821067 2.25394873312e-19)
(0.0184881873979 0.0267156300637 1.82248772563e-19)
(0.0212904094917 0.0386818102359 5.1608092785e-19)
(0.0169872170882 0.0340487908073 5.26722628689e-19)
(0.0219534345929 0.0491950008864 8.47887644886e-19)
(0.015020996086 0.0438234895009 1.01978442005e-18)
(0.0251759743148 0.0613549681736 9.71343495749e-19)
(0.0157249303916 0.0570156061822 1.16493213634e-18)
(0.0287968728355 0.0721048455581 7.9550865948e-19)
(0.0215573499163 0.0691537085707 7.55511582546e-19)
(0.0308517843536 0.0827320550631 8.79955564541e-19)
(0.0259601926591 0.0798993503202 3.33258536451e-19)
(0.0363560607652 0.0958059514062 1.17123726814e-18)
(0.0276340977234 0.0930845756058 8.02031243143e-19)
(0.0483956889421 0.104791650808 1.14940158501e-18)
(0.0403450262878 0.110052341278 6.69020784466e-19)
(0.0607993362889 0.106435829881 4.63800385792e-19)
(0.0569150853243 0.111095432526 -7.54732242896e-20)
(0.0662537110425 0.110436941814 -1.34901258811e-19)
(0.0639104098262 0.107658721776 -6.90733556885e-19)
(0.0634205720609 0.118984391968 -6.2441976092e-20)
(0.0617852702487 0.113492058571 -3.99134805847e-19)
(0.0549798370544 0.132074965081 -1.15114314445e-21)
(0.0537000366641 0.128265839961 -7.71240235458e-20)
(0.0502463404736 0.148253658395 1.73140518426e-20)
(0.04199808895 0.139644257559 -3.32901724889e-20)
(0.0513977941908 0.169342136778 8.8008320997e-20)
(0.0403276974848 0.156517681967 4.84550183513e-20)
(0.0364892235836 0.204095974012 5.0052523761e-21)
(0.0630889244621 0.167475211225 1.49489212948e-19)
(0.0229567468563 0.182437338352 -1.33579450176e-19)
(0.0178292616932 0.00544387291704 2.02223496974e-21)
(0.0153287917581 0.00253841315845 7.38661336864e-22)
(0.0172951570335 0.0109346183475 1.07196038249e-20)
(0.0148375803271 0.00805239172818 5.63752836673e-21)
(0.0165209750123 0.0166598038797 4.47857395769e-20)
(0.0141231595691 0.013333309171 2.42761009851e-20)
(0.0152909564563 0.0229092913525 1.60890874734e-19)
(0.0130070969967 0.0188857612078 9.50512612161e-20)
(0.0136447244865 0.0297741155529 4.8357652794e-19)
(0.01167441333 0.0251108200507 3.21196083518e-19)
(0.0118417124702 0.0375241358591 1.03042612089e-18)
(0.00929539479823 0.0323005325376 9.25442571264e-19)
(0.0107671041264 0.0501155178806 1.3368289115e-18)
(0.00249393516743 0.0431193891925 1.57901076849e-18)
(0.0138661731883 0.0672080429564 9.49100223134e-19)
(-0.00129068450373 0.0616918807774 1.22176347437e-18)
(0.0184458622448 0.0771486157668 2.93261459518e-19)
(0.0116989181088 0.0778849560039 5.42167240858e-19)
(0.0189603947393 0.0882133206409 2.55334215053e-19)
(0.0149766234476 0.0879709407097 -1.1913458638e-18)
(0.0250878391439 0.106858615987 2.99814759473e-19)
(0.0090657081764 0.106088854394 -4.81978478545e-20)
(0.047907861951 0.12304157471 -5.55854024833e-19)
(0.0242580618843 0.129575605188 -5.96668035741e-19)
(0.0651235803461 0.110126437558 -1.23000716697e-18)
(0.0699428098722 0.113763807663 -1.63795700109e-18)
(0.0635938477299 0.109187791603 -9.54967103921e-19)
(0.0649489963001 0.10326938199 -1.61004846195e-18)
(0.0546646165771 0.116098841964 -4.13816853301e-19)
(0.054941637145 0.1091661991 -7.80169634095e-19)
(0.0424008053479 0.127111617595 -1.0926305289e-19)
(0.0427206652054 0.12418885034 -1.84907384411e-19)
(0.0354460515005 0.137946565919 -2.14920598018e-21)
(0.0311733790974 0.135074492533 -9.9896731061e-20)
(0.0388009839466 0.147523024717 1.09935910302e-19)
(0.0306158959937 0.152063013253 3.35763311656e-20)
(0.0254611187771 0.171567351912 1.09045103953e-20)
(0.0386462610379 0.154608367424 1.10848923944e-19)
(-0.00234859936273 0.146146081574 -2.30660740548e-19)
(0.0125538661943 0.00519436663883 4.35395473385e-21)
(0.010152666533 0.00243942836839 1.8596547082e-21)
(0.0120064352029 0.0103067816777 1.91940255269e-20)
(0.00974351304286 0.007654816164 9.51334625308e-21)
(0.0111277255584 0.015383383549 7.45416226244e-20)
(0.00906902458488 0.0125076683358 3.75472578719e-20)
(0.00947143155212 0.0205659462676 2.5535647e-19)
(0.00785365277665 0.0172586104683 1.305792198e-19)
(0.00608026630944 0.0272047152483 7.63062126843e-19)
(0.00507238176765 0.0219319683734 3.92907477873e-19)
(-0.00104299444303 0.0357848701717 1.47402721886e-18)
(0.000759869529807 0.0263008328002 1.0009265414e-18)
(-0.0111432297225 0.0505486418895 1.46394533135e-18)
(-0.0122104075537 0.0327518788928 1.28613177912e-18)
(-0.00452445981245 0.0784345073234 8.14830492091e-19)
(-0.0291097924799 0.0386248793538 7.40065368808e-19)
(0.00751894373377 0.090176202627 -9.42440082462e-19)
(0.00621726717332 0.105194746302 -1.49487792671e-18)
(0.016905359339 0.114314451633 -9.44680643069e-19)
(0.0608970631673 0.138642350635 -1.678771012e-18)
(0.0808742091106 0.102136790068 -2.01799829608e-18)
(0.0593581641078 0.099886747557 -1.43525099212e-18)
(0.0427456903486 0.110347337347 -5.51260165206e-19)
(0.0308689155436 0.123369714159 -1.75541062582e-19)
(0.0267144621038 0.132343667426 -6.41711939153e-20)
(0.0336346969819 0.13526652063 3.44893448072e-20)
(0.0138382145415 0.153806155857 -1.30716327e-19)
(0.00751856404929 0.00499431952716 7.01904622742e-21)
(0.00516163472562 0.00235782374943 2.54793994464e-21)
(0.00706936939227 0.00984281958055 2.78665785981e-20)
(0.00489722867247 0.00731139718143 1.33791829408e-20)
(0.00627543853557 0.0145126516252 9.35848550476e-20)
(0.00440488789004 0.0117593381212 5.300117601e-20)
(0.00482429237179 0.0186095296673 2.68130227672e-19)
(0.00376855086105 0.015863677009 1.6352116743e-19)
(0.00166411404002 0.0215034360655 6.30771892428e-19)
(0.00219783224502 0.0190189416138 3.9127873191e-19)
(-0.00537499929658 0.0225497604078 8.13031101656e-19)
(-0.000256695543198 0.0202809355526 8.24968049105e-19)
(-0.0179608148886 0.0155893123614 5.62251816576e-19)
(-0.00521240140343 0.0210656808767 5.23851633974e-19)
(-0.0135038150423 0.0107799438165 -3.38672003349e-19)
(0.00269162149497 0.00480467622956 8.908076658e-21)
(0.000337302710731 0.00231829128935 2.66451113657e-21)
(0.00248505835474 0.00935351801978 3.85137803527e-20)
(0.000329331024869 0.00714016841316 1.51028846423e-20)
(0.0020553027092 0.0134352977869 1.22937488393e-19)
(0.000308146390644 0.0113414881184 6.18827446902e-20)
(0.00127025998015 0.0169417236334 2.86669671668e-19)
(0.000254295725602 0.0151091026807 1.84558520586e-19)
(0.000169960466475 0.0191971051789 5.85474888588e-19)
(-5.60047540348e-05 0.0179857659975 3.88027950539e-19)
(-0.00142862367726 0.0187992788304 5.35788581422e-19)
(0.000154680965423 0.0190313573445 7.8307735056e-19)
(-0.00470697405092 0.0135082209936 -3.77072185951e-19)
(0.000105096560141 0.019149305681 2.94561880525e-19)
(2.32953972403e-05 0.00890727323512 -1.02268473267e-18)
(-0.00202974390219 0.00479859726477 8.85931912091e-21)
(-0.00450347457015 0.00235292159255 2.26271923718e-21)
(-0.00184509453773 0.00933185071285 3.84718489798e-20)
(-0.00424366386191 0.00729147128539 1.28653863994e-20)
(-0.00145147092573 0.0133786571213 1.23503776884e-19)
(-0.00377181054504 0.0117218666583 5.29327187291e-20)
(-0.000720286023614 0.0166808601713 2.85916799457e-19)
(-0.00306977042911 0.0158007978637 1.64248098209e-19)
(0.000287957206188 0.019311540422 5.85630412511e-19)
(-0.00269427705605 0.0189089601833 3.90708099373e-19)
(0.00173729126892 0.01871839648 5.41850649662e-19)
(0.000760912161217 0.0201059551839 8.25226149707e-19)
(0.00481939115432 0.0134195768061 -3.51050666196e-19)
(0.00543863856523 0.0208540421296 5.32080691249e-19)
(0.0134709836783 0.0107318309839 -3.0637263334e-19)
(-0.00688210669786 0.00497762225959 6.26878651568e-21)
(-0.00644622084652 0.00980717325988 2.73262561487e-20)
(-0.00566397041932 0.0144764798816 9.3677040054e-20)
(-0.00416798062933 0.0187113182133 2.69039398125e-19)
(-0.001096161942 0.0210954224253 6.30303836569e-19)
(0.00569741815427 0.0222826922663 8.15456191293e-19)
(0.018042000097 0.0153919762743 5.76758724105e-19)
)
;

boundaryField
{
    back
    {
        type            calculated;
        value           uniform (0 0 0);
    }
    sides
    {
        type            calculated;
        value           nonuniform List<vector> 0();
    }
    bottom
    {
        type            calculated;
        value           uniform (0 0 0);
    }
    front
    {
        type            calculated;
        value           uniform (0 0 0);
    }
    atmosphere
    {
        type            calculated;
        value           nonuniform List<vector> 7((-1.05834999853e-08 0.173618723355 3.78469002719e-28) (-8.64680768416e-10 0.222286661382 -3.45122165764e-27) (2.4717272499e-11 0.162992267066 -1.96428756298e-29) (-1.54294043094e-09 0.195924859516 -2.07587612128e-28) (-2.76533869214e-09 0.213046981057 -1.34927821454e-26) (1.17091520002e-08 0.196514540988 7.68490625173e-26) (-4.76791878393e-07 0.159952133841 -8.71579442704e-25));
    }
    floatingObject
    {
        type            calculated;
        value           nonuniform List<vector> 8((0 5.97858085184e-21 -7.4732260648e-22) (0 0 -7.4732260648e-22) (0 0 0) (0 1.19571617037e-20 -7.4732260648e-22) (-1.49464521296e-21 0 0) (0 0 -7.4732260648e-22) (0 0 -7.4732260648e-22) (0 0 0));
    }
    procBoundary3to4
    {
        type            processor;
        value           nonuniform List<vector> 
13
(
(0.0584916250753 0.0406469974704 5.76531651869e-21)
(0.0626429774341 0.0464978471306 7.89796228038e-21)
(0.0676824432011 0.0523123100049 8.63453704095e-21)
(0.0430375636231 0.00250585387967 -4.40856731966e-22)
(0.042766286773 0.00811227376734 2.87480148262e-22)
(0.0431071801567 0.0135180383951 1.9704937878e-22)
(0.0438598470709 0.0191285383853 5.2016510616e-22)
(0.0467045976474 0.0311833952881 5.82743560086e-21)
(0.0537590783838 0.0393526611417 7.36137783097e-21)
(0.0490661714682 0.0376360366408 1.42371547368e-20)
(0.0414461536851 0.0225898041573 1.94264281339e-21)
(0.0427006084757 0.0288665147071 6.31881335184e-21)
(0.0388571722522 0.0262649969103 7.62316515862e-21)
)
;
    }
    procBoundary3to5
    {
        type            processor;
        value           nonuniform List<vector> 10((0.0736559909992 0.0582077872089 9.70015552411e-21) (0.0806996803035 0.0642515253368 1.52888538798e-20) (0.0890441886429 0.0703158502176 1.30036501952e-20) (0.0986835411845 0.0768389653757 8.87603827123e-21) (0.111415383277 0.0840684067391 2.29622924728e-21) (0.130214464906 0.0918036593778 2.68632859623e-21) (0.145820863079 0.0899837589539 -3.46308651557e-21) (0.145174088894 0.079951062171 2.54525198847e-20) (0.1875853653 0.137992650369 2.00121514418e-20) (0.0290952141346 0.189828896022 -3.0414218956e-20));
    }
    procBoundary3to6
    {
        type            processor;
        value           nonuniform List<vector> 8((0.106592729672 0.0714414055672 -1.72075028013e-18) (0.0673261328672 0.0884447754739 -1.53557617791e-18) (0.0445664509643 0.102749524457 -7.66922516219e-19) (0.0297421375713 0.121366818337 -2.08950112853e-19) (0.0222105768315 0.131439660732 -1.53460024571e-19) (0.0274414577137 0.146974955836 -2.71014141268e-20) (0.0197054858832 0.153830260069 3.27167740246e-20) (-0.00887703250274 0.137306666835 -3.8818682019e-19));
    }
    procBoundary3to8
    {
        type            processor;
        value           nonuniform List<vector> 8((-0.00953234916931 0.00242922831592 1.50313670163e-21) (-0.0091200762777 0.00761910425174 8.98746880236e-21) (-0.00847845631747 0.0124543791929 3.7644029607e-20) (-0.00732815025963 0.01723220254 1.31197106866e-19) (-0.00508067303867 0.0217174684105 3.95592133315e-19) (-0.00040500427188 0.0258604970875 1.00090371791e-18) (0.012379649859 0.032305176613 1.28987421939e-18) (0.0288952382677 0.03820757743 7.51564427042e-19));
    }
}


// ************************************************************************* //
