/*--------------------------------*- C++ -*----------------------------------*\
| =========                 |                                                 |
| \\      /  F ield         | OpenFOAM: The Open Source CFD Toolbox           |
|  \\    /   O peration     | Version:  v2012                                 |
|   \\  /    A nd           | Website:  www.openfoam.com                      |
|    \\/     M anipulation  |                                                 |
\*---------------------------------------------------------------------------*/
FoamFile
{
    version     2.0;
    format      ascii;
    class       volScalarField;
    location    "4.4";
    object      k;
}
// * * * * * * * * * * * * * * * * * * * * * * * * * * * * * * * * * * * * * //

dimensions      [0 2 -2 0 0 0 0];


internalField   nonuniform List<scalar> 
164
(
0.0024645828125
0.00248169366717
0.00250109415516
0.00252531164877
0.00256346696883
0.00264540205504
0.00285947581704
0.00346141628888
0.00518008308659
0.00968320005795
0.0194656489177
0.0379595216421
0.0750701456786
0.00174631111427
0.00217581257381
0.00231791978256
0.00237647497241
0.00242399335385
0.00244045076354
0.00245735406259
0.00247583206121
0.00249675996652
0.00252232892473
0.00256089013653
0.00264184383353
0.00285836795712
0.00349302463665
0.00533134288452
0.0100175434143
0.0198828192134
0.038253231675
0.0750433108186
0.00173543344304
0.00216388342438
0.00230585207787
0.00236479041114
0.00239408254874
0.00241355628024
0.00243067661056
0.00244832935429
0.00246803080572
0.00249087048446
0.00251872694001
0.0025599122872
0.00264509829894
0.00287207664971
0.00353888409397
0.00546923464098
0.0103027259224
0.0201790329139
0.038207222822
0.0748943755517
0.00172420442027
0.00215189951147
0.00229369589396
0.00235276683288
0.00238214018241
0.00240131744814
0.00241754945384
0.00243410305503
0.00245410421684
0.00247914024263
0.00250976163027
0.00255498018517
0.00265077475016
0.00290093854676
0.00360086563789
0.00559232339856
0.0105567465868
0.020550454789
0.0384771893809
0.0748972646177
0.00171307570914
0.00214025275327
0.00228180272306
0.00234049810985
0.00236871102309
0.00238497367559
0.0023957548643
0.00240540567755
0.00242177486793
0.00244874500893
0.00248115973217
0.00253087171286
0.00265186902923
0.0029535415169
0.00371146264761
0.00576273899334
0.0107736878659
0.0206900400717
0.0382656930336
0.0747293553293
0.00170226932507
0.00212939798849
0.00227054093848
0.00232799315451
0.00235256191253
0.00235961929201
0.00235182355865
0.00233361561616
0.00232611170392
0.0023528579883
0.00238954829573
0.00245773061845
0.00265380899365
0.00305047422051
0.00389526946584
0.00600590088064
0.0109858785631
0.0207151259115
0.0379499604918
0.0745014937115
0.00169227042252
0.00211973623483
0.00226024013751
0.00231531188362
0.00233275279719
0.00231899632364
0.00225691576872
0.00213161254045
0.00197043019735
0.00197775550148
0.00204507812621
0.00228073179496
0.00268134495603
0.00324305531346
0.00418913758863
0.00634504171157
0.0111872208467
0.0205234017811
0.0372157127695
0.0740858152439
0.0016833848204
0.00211168303399
0.00225161686295
0.00230398210924
0.00231466879753
0.00228712663187
0.00218998958766
0.00187357914558
0.00167742636917
0.00210710247469
0.00224706937943
0.00229815565598
0.0023050345351
0.00226823532901
0.00214842423955
0.00176146671739
0.0016773826291
0.00210706610195
0.00224704856977
0.00229814909046
0.00230504389144
0.00226828265551
0.00214854622295
0.00176178987431
0.00168331501019
0.00211163034912
0.00225159450398
0.00230399210785
0.00231471572593
0.00228722147766
0.00219015683434
0.00187409443779
)
;

boundaryField
{
    back
    {
        type            kqRWallFunction;
        value           nonuniform List<scalar> 
164
(
0.0024645828125
0.00248169366717
0.00250109415516
0.00252531164877
0.00256346696883
0.00264540205504
0.00285947581704
0.00346141628888
0.00518008308659
0.00968320005795
0.0194656489177
0.0379595216421
0.0750701456786
0.00174631111427
0.00217581257381
0.00231791978256
0.00237647497241
0.00242399335385
0.00244045076354
0.00245735406259
0.00247583206121
0.00249675996652
0.00252232892473
0.00256089013653
0.00264184383353
0.00285836795712
0.00349302463665
0.00533134288452
0.0100175434143
0.0198828192134
0.038253231675
0.0750433108186
0.00173543344304
0.00216388342438
0.00230585207787
0.00236479041114
0.00239408254874
0.00241355628024
0.00243067661056
0.00244832935429
0.00246803080572
0.00249087048446
0.00251872694001
0.0025599122872
0.00264509829894
0.00287207664971
0.00353888409397
0.00546923464098
0.0103027259224
0.0201790329139
0.038207222822
0.0748943755517
0.00172420442027
0.00215189951147
0.00229369589396
0.00235276683288
0.00238214018241
0.00240131744814
0.00241754945384
0.00243410305503
0.00245410421684
0.00247914024263
0.00250976163027
0.00255498018517
0.00265077475016
0.00290093854676
0.00360086563789
0.00559232339856
0.0105567465868
0.020550454789
0.0384771893809
0.0748972646177
0.00171307570914
0.00214025275327
0.00228180272306
0.00234049810985
0.00236871102309
0.00238497367559
0.0023957548643
0.00240540567755
0.00242177486793
0.00244874500893
0.00248115973217
0.00253087171286
0.00265186902923
0.0029535415169
0.00371146264761
0.00576273899334
0.0107736878659
0.0206900400717
0.0382656930336
0.0747293553293
0.00170226932507
0.00212939798849
0.00227054093848
0.00232799315451
0.00235256191253
0.00235961929201
0.00235182355865
0.00233361561616
0.00232611170392
0.0023528579883
0.00238954829573
0.00245773061845
0.00265380899365
0.00305047422051
0.00389526946584
0.00600590088064
0.0109858785631
0.0207151259115
0.0379499604918
0.0745014937115
0.00169227042252
0.00211973623483
0.00226024013751
0.00231531188362
0.00233275279719
0.00231899632364
0.00225691576872
0.00213161254045
0.00197043019735
0.00197775550148
0.00204507812621
0.00228073179496
0.00268134495603
0.00324305531346
0.00418913758863
0.00634504171157
0.0111872208467
0.0205234017811
0.0372157127695
0.0740858152439
0.0016833848204
0.00211168303399
0.00225161686295
0.00230398210924
0.00231466879753
0.00228712663187
0.00218998958766
0.00187357914558
0.00167742636917
0.00210710247469
0.00224706937943
0.00229815565598
0.0023050345351
0.00226823532901
0.00214842423955
0.00176146671739
0.0016773826291
0.00210706610195
0.00224704856977
0.00229814909046
0.00230504389144
0.00226828265551
0.00214854622295
0.00176178987431
0.00168331501019
0.00211163034912
0.00225159450398
0.00230399210785
0.00231471572593
0.00228722147766
0.00219015683434
0.00187409443779
)
;
    }
    sides
    {
        type            kqRWallFunction;
        value           nonuniform List<scalar> 0();
    }
    bottom
    {
        type            kqRWallFunction;
        value           nonuniform List<scalar> 10(0.00174631111427 0.00173543344304 0.00172420442027 0.00171307570914 0.00170226932507 0.00169227042252 0.0016833848204 0.00167742636917 0.0016773826291 0.00168331501019);
    }
    front
    {
        type            kqRWallFunction;
        value           nonuniform List<scalar> 
164
(
0.0024645828125
0.00248169366717
0.00250109415516
0.00252531164877
0.00256346696883
0.00264540205504
0.00285947581704
0.00346141628888
0.00518008308659
0.00968320005795
0.0194656489177
0.0379595216421
0.0750701456786
0.00174631111427
0.00217581257381
0.00231791978256
0.00237647497241
0.00242399335385
0.00244045076354
0.00245735406259
0.00247583206121
0.00249675996652
0.00252232892473
0.00256089013653
0.00264184383353
0.00285836795712
0.00349302463665
0.00533134288452
0.0100175434143
0.0198828192134
0.038253231675
0.0750433108186
0.00173543344304
0.00216388342438
0.00230585207787
0.00236479041114
0.00239408254874
0.00241355628024
0.00243067661056
0.00244832935429
0.00246803080572
0.00249087048446
0.00251872694001
0.0025599122872
0.00264509829894
0.00287207664971
0.00353888409397
0.00546923464098
0.0103027259224
0.0201790329139
0.038207222822
0.0748943755517
0.00172420442027
0.00215189951147
0.00229369589396
0.00235276683288
0.00238214018241
0.00240131744814
0.00241754945384
0.00243410305503
0.00245410421684
0.00247914024263
0.00250976163027
0.00255498018517
0.00265077475016
0.00290093854676
0.00360086563789
0.00559232339856
0.0105567465868
0.020550454789
0.0384771893809
0.0748972646177
0.00171307570914
0.00214025275327
0.00228180272306
0.00234049810985
0.00236871102309
0.00238497367559
0.0023957548643
0.00240540567755
0.00242177486793
0.00244874500893
0.00248115973217
0.00253087171286
0.00265186902923
0.0029535415169
0.00371146264761
0.00576273899334
0.0107736878659
0.0206900400717
0.0382656930336
0.0747293553293
0.00170226932507
0.00212939798849
0.00227054093848
0.00232799315451
0.00235256191253
0.00235961929201
0.00235182355865
0.00233361561616
0.00232611170392
0.0023528579883
0.00238954829573
0.00245773061845
0.00265380899365
0.00305047422051
0.00389526946584
0.00600590088064
0.0109858785631
0.0207151259115
0.0379499604918
0.0745014937115
0.00169227042252
0.00211973623483
0.00226024013751
0.00231531188362
0.00233275279719
0.00231899632364
0.00225691576872
0.00213161254045
0.00197043019735
0.00197775550148
0.00204507812621
0.00228073179496
0.00268134495603
0.00324305531346
0.00418913758863
0.00634504171157
0.0111872208467
0.0205234017811
0.0372157127695
0.0740858152439
0.0016833848204
0.00211168303399
0.00225161686295
0.00230398210924
0.00231466879753
0.00228712663187
0.00218998958766
0.00187357914558
0.00167742636917
0.00210710247469
0.00224706937943
0.00229815565598
0.0023050345351
0.00226823532901
0.00214842423955
0.00176146671739
0.0016773826291
0.00210706610195
0.00224704856977
0.00229814909046
0.00230504389144
0.00226828265551
0.00214854622295
0.00176178987431
0.00168331501019
0.00211163034912
0.00225159450398
0.00230399210785
0.00231471572593
0.00228722147766
0.00219015683434
0.00187409443779
)
;
    }
    atmosphere
    {
        type            inletOutlet;
        inletValue      uniform 0.1;
        value           uniform 0.1;
    }
    floatingObject
    {
        type            kqRWallFunction;
        value           nonuniform List<scalar> 8(0.00197043019735 0.00197775550148 0.00204507812621 0.00228073179496 0.00187357914558 0.00176146671739 0.00176178987431 0.00187409443779);
    }
    procBoundary3to4
    {
        type            processor;
        value           nonuniform List<scalar> 
13
(
0.00247107885127
0.00248692914652
0.00250513019345
0.00175654490207
0.002187366994
0.00232961993571
0.0023876957505
0.00243348561639
0.00244887640001
0.00244887640001
0.00240517994045
0.00240517994045
0.00240517994045
)
;
    }
    procBoundary3to5
    {
        type            processor;
        value           nonuniform List<scalar> 10(0.00252872930892 0.00256816178606 0.00265474776957 0.00287255489671 0.00344721624601 0.00504195250279 0.00934624611104 0.0190532936155 0.037599185349 0.0750112502714);
    }
    procBoundary3to6
    {
        type            processor;
        value           nonuniform List<scalar> 8(0.00269794367566 0.00356085201276 0.0046359895122 0.00676666945164 0.0113704814618 0.0203253064614 0.0367139326646 0.0738571119432);
    }
    procBoundary3to8
    {
        type            processor;
        value           nonuniform List<scalar> 8(0.00169218739565 0.00211969043583 0.00226022935339 0.00231534107931 0.00233280986339 0.00231900980125 0.00225682929208 0.00213162122355);
    }
}


// ************************************************************************* //
