/*--------------------------------*- C++ -*----------------------------------*\
| =========                 |                                                 |
| \\      /  F ield         | OpenFOAM: The Open Source CFD Toolbox           |
|  \\    /   O peration     | Version:  v2012                                 |
|   \\  /    A nd           | Website:  www.openfoam.com                      |
|    \\/     M anipulation  |                                                 |
\*---------------------------------------------------------------------------*/
FoamFile
{
    version     2.0;
    format      ascii;
    class       volScalarField;
    location    "2.2";
    object      epsilon;
}
// * * * * * * * * * * * * * * * * * * * * * * * * * * * * * * * * * * * * * //

dimensions      [0 2 -3 0 0 0 0];


internalField   nonuniform List<scalar> 
167
(
0.00501694474985
0.00505689816697
0.00507448714896
0.00508798811874
0.00510211570588
0.00511813051454
0.00513721848693
0.00516318615654
0.00449088587818
0.00487727556985
0.00500159740657
0.00504203460945
0.00506008945973
0.00507405618203
0.0050886880977
0.00510527927123
0.00512506196998
0.00515204697585
0.00519963229231
0.00447454701695
0.004860603734
0.00498539065081
0.00502640145924
0.00504499907087
0.00505951164458
0.00507472834719
0.00509197158647
0.0051125343388
0.00514066129843
0.00519027475092
0.0044572342633
0.00484303546459
0.00496835634378
0.0050100224941
0.00502924762247
0.0050443889262
0.00506026395827
0.00507822227115
0.00509965095964
0.00512904134528
0.00430305533935
0.00443905655705
0.00482457828887
0.00495053220822
0.00499294365114
0.0050128860284
0.00502873868435
0.0050453531832
0.00506409552447
0.00508645721601
0.00511721253264
0.00428459174525
0.00442009168635
0.00480532996643
0.00493199031472
0.00497523671643
0.00499598267788
0.00501262843712
0.00503005424662
0.00504966184134
0.00507302418243
0.00510519229131
0.00426512334276
0.00440039917565
0.00478539252364
0.00491282498334
0.00495698884758
0.00497862828669
0.00499615095598
0.00501446457728
0.0050350102478
0.00505942607108
0.00424468645334
0.00438007189871
0.0047648441338
0.00489312089364
0.00493830186853
0.00496093970454
0.00497943963515
0.00499872530642
0.00502026221422
0.00422331904361
0.00435916662759
0.00474376181082
0.00487296889462
0.00491926923475
0.00494302042071
0.00496260613855
0.00498295103775
0.00500554278265
0.00420103510546
0.00433770572906
0.00472214612187
0.00485234040999
0.00489989326806
0.00492489039522
0.00494567047597
0.00496715666265
0.00499085952571
0.00501868653258
0.00417767666534
0.00431541370841
0.00469959098389
0.0048308425836
0.00487977397291
0.00490614589339
0.00492821551296
0.00495090888167
0.00497575259321
0.0050047322336
0.0041523880241
0.00429090089309
0.00467441312733
0.0048066568301
0.00485705179519
0.00488489585035
0.00490832874669
0.00493225664781
0.00495822676384
0.0049883094906
0.00412197148676
0.00425948692841
0.00464076155996
0.0047734983837
0.00482527313711
0.004854610991
0.00487940943294
0.00490452225052
0.00493152580655
0.00496256102109
0.00407560461173
0.00420595232274
0.00458037526343
0.00471195447751
0.00476461199486
0.00479526539126
0.00482128037739
0.00484740033083
0.00487520517207
0.00490691530707
0.00397877329244
0.00408428253198
0.0044399441218
0.00456603570226
0.00461812479876
0.00464951181198
0.00467636875675
0.00470314451826
0.00473138582818
0.0037289778778
0.00376534533378
0.0040732451613
0.00418349851189
0.00423136808235
0.00426197443795
0.00428879778304
0.0043155611082
0.00434360129518
0.00335149587267
0.00370642591475
0.00394718035873
0.00403746485701
0.00408307110415
0.00411733995383
0.00414973330178
0.00418276943997
0.00421740406713
)
;

boundaryField
{
    back
    {
        lowReCorrection 0;
        blending        stepwise;
        n               2;
        type            epsilonWallFunction;
        value           nonuniform List<scalar> 
167
(
0.00501694474985
0.00505689816697
0.00507448714896
0.00508798811874
0.00510211570588
0.00511813051454
0.00513721848693
0.00516318615654
0.00449088587818
0.00487727556985
0.00500159740657
0.00504203460945
0.00506008945973
0.00507405618203
0.0050886880977
0.00510527927123
0.00512506196998
0.00515204697585
0.00519963229231
0.00447454701695
0.004860603734
0.00498539065081
0.00502640145924
0.00504499907087
0.00505951164458
0.00507472834719
0.00509197158647
0.0051125343388
0.00514066129843
0.00519027475092
0.0044572342633
0.00484303546459
0.00496835634378
0.0050100224941
0.00502924762247
0.0050443889262
0.00506026395827
0.00507822227115
0.00509965095964
0.00512904134528
0.00430305533935
0.00443905655705
0.00482457828887
0.00495053220822
0.00499294365114
0.0050128860284
0.00502873868435
0.0050453531832
0.00506409552447
0.00508645721601
0.00511721253264
0.00428459174525
0.00442009168635
0.00480532996643
0.00493199031472
0.00497523671643
0.00499598267788
0.00501262843712
0.00503005424662
0.00504966184134
0.00507302418243
0.00510519229131
0.00426512334276
0.00440039917565
0.00478539252364
0.00491282498334
0.00495698884758
0.00497862828669
0.00499615095598
0.00501446457728
0.0050350102478
0.00505942607108
0.00424468645334
0.00438007189871
0.0047648441338
0.00489312089364
0.00493830186853
0.00496093970454
0.00497943963515
0.00499872530642
0.00502026221422
0.00422331904361
0.00435916662759
0.00474376181082
0.00487296889462
0.00491926923475
0.00494302042071
0.00496260613855
0.00498295103775
0.00500554278265
0.00420103510546
0.00433770572906
0.00472214612187
0.00485234040999
0.00489989326806
0.00492489039522
0.00494567047597
0.00496715666265
0.00499085952571
0.00501868653258
0.00417767666534
0.00431541370841
0.00469959098389
0.0048308425836
0.00487977397291
0.00490614589339
0.00492821551296
0.00495090888167
0.00497575259321
0.0050047322336
0.0041523880241
0.00429090089309
0.00467441312733
0.0048066568301
0.00485705179519
0.00488489585035
0.00490832874669
0.00493225664781
0.00495822676384
0.0049883094906
0.00412197148676
0.00425948692841
0.00464076155996
0.0047734983837
0.00482527313711
0.004854610991
0.00487940943294
0.00490452225052
0.00493152580655
0.00496256102109
0.00407560461173
0.00420595232274
0.00458037526343
0.00471195447751
0.00476461199486
0.00479526539126
0.00482128037739
0.00484740033083
0.00487520517207
0.00490691530707
0.00397877329244
0.00408428253198
0.0044399441218
0.00456603570226
0.00461812479876
0.00464951181198
0.00467636875675
0.00470314451826
0.00473138582818
0.0037289778778
0.00376534533378
0.0040732451613
0.00418349851189
0.00423136808235
0.00426197443795
0.00428879778304
0.0043155611082
0.00434360129518
0.00335149587267
0.00370642591475
0.00394718035873
0.00403746485701
0.00408307110415
0.00411733995383
0.00414973330178
0.00418276943997
0.00421740406713
)
;
    }
    sides
    {
        lowReCorrection 0;
        blending        stepwise;
        n               2;
        type            epsilonWallFunction;
        value           nonuniform List<scalar> 9(0.00335149587267 0.00370642591475 0.00394718035873 0.00403746485701 0.00408307110415 0.00411733995383 0.00414973330178 0.00418276943997 0.00421740406713);
    }
    bottom
    {
        lowReCorrection 0;
        blending        stepwise;
        n               2;
        type            epsilonWallFunction;
        value           nonuniform List<scalar> 
13
(
0.00430305533935
0.00428459174525
0.00426512334276
0.00424468645334
0.00422331904361
0.00420103510546
0.00417767666534
0.0041523880241
0.00412197148676
0.00407560461173
0.00397877329244
0.0037289778778
0.00335149587267
)
;
    }
    front
    {
        lowReCorrection 0;
        blending        stepwise;
        n               2;
        type            epsilonWallFunction;
        value           nonuniform List<scalar> 
167
(
0.00501694474985
0.00505689816697
0.00507448714896
0.00508798811874
0.00510211570588
0.00511813051454
0.00513721848693
0.00516318615654
0.00449088587818
0.00487727556985
0.00500159740657
0.00504203460945
0.00506008945973
0.00507405618203
0.0050886880977
0.00510527927123
0.00512506196998
0.00515204697585
0.00519963229231
0.00447454701695
0.004860603734
0.00498539065081
0.00502640145924
0.00504499907087
0.00505951164458
0.00507472834719
0.00509197158647
0.0051125343388
0.00514066129843
0.00519027475092
0.0044572342633
0.00484303546459
0.00496835634378
0.0050100224941
0.00502924762247
0.0050443889262
0.00506026395827
0.00507822227115
0.00509965095964
0.00512904134528
0.00430305533935
0.00443905655705
0.00482457828887
0.00495053220822
0.00499294365114
0.0050128860284
0.00502873868435
0.0050453531832
0.00506409552447
0.00508645721601
0.00511721253264
0.00428459174525
0.00442009168635
0.00480532996643
0.00493199031472
0.00497523671643
0.00499598267788
0.00501262843712
0.00503005424662
0.00504966184134
0.00507302418243
0.00510519229131
0.00426512334276
0.00440039917565
0.00478539252364
0.00491282498334
0.00495698884758
0.00497862828669
0.00499615095598
0.00501446457728
0.0050350102478
0.00505942607108
0.00424468645334
0.00438007189871
0.0047648441338
0.00489312089364
0.00493830186853
0.00496093970454
0.00497943963515
0.00499872530642
0.00502026221422
0.00422331904361
0.00435916662759
0.00474376181082
0.00487296889462
0.00491926923475
0.00494302042071
0.00496260613855
0.00498295103775
0.00500554278265
0.00420103510546
0.00433770572906
0.00472214612187
0.00485234040999
0.00489989326806
0.00492489039522
0.00494567047597
0.00496715666265
0.00499085952571
0.00501868653258
0.00417767666534
0.00431541370841
0.00469959098389
0.0048308425836
0.00487977397291
0.00490614589339
0.00492821551296
0.00495090888167
0.00497575259321
0.0050047322336
0.0041523880241
0.00429090089309
0.00467441312733
0.0048066568301
0.00485705179519
0.00488489585035
0.00490832874669
0.00493225664781
0.00495822676384
0.0049883094906
0.00412197148676
0.00425948692841
0.00464076155996
0.0047734983837
0.00482527313711
0.004854610991
0.00487940943294
0.00490452225052
0.00493152580655
0.00496256102109
0.00407560461173
0.00420595232274
0.00458037526343
0.00471195447751
0.00476461199486
0.00479526539126
0.00482128037739
0.00484740033083
0.00487520517207
0.00490691530707
0.00397877329244
0.00408428253198
0.0044399441218
0.00456603570226
0.00461812479876
0.00464951181198
0.00467636875675
0.00470314451826
0.00473138582818
0.0037289778778
0.00376534533378
0.0040732451613
0.00418349851189
0.00423136808235
0.00426197443795
0.00428879778304
0.0043155611082
0.00434360129518
0.00335149587267
0.00370642591475
0.00394718035873
0.00403746485701
0.00408307110415
0.00411733995383
0.00414973330178
0.00418276943997
0.00421740406713
)
;
    }
    atmosphere
    {
        type            inletOutlet;
        inletValue      nonuniform List<scalar> 0();
        value           nonuniform List<scalar> 0();
    }
    floatingObject
    {
        lowReCorrection 0;
        blending        stepwise;
        n               2;
        type            epsilonWallFunction;
        value           nonuniform List<scalar> 0();
    }
    procBoundary10to9
    {
        type            processor;
        value           nonuniform List<scalar> 
15
(
0.00503137738352
0.00507094898322
0.00508815923484
0.00510127236445
0.00511498287738
0.00513051938242
0.0051489968706
0.00517405116334
0.00450625350829
0.00489298651232
0.00489298651232
0.00435210836438
0.00433680959693
0.00432046609787
0.00432046609787
)
;
    }
    procBoundary10to11
    {
        type            processor;
        value           nonuniform List<scalar> 
23
(
0.00520899456315
0.00520899456315
0.00530658658623
0.00530107475316
0.00518097552747
0.00518097552747
0.0051716630843
0.00516224531428
0.00509305204961
0.00509305204961
0.00504578324817
0.00504578324817
0.00503220819463
0.00503220819463
0.00505676200205
0.00504423457349
0.005029126643
0.00500448089768
0.00494952055421
0.00476331478227
0.00476331478227
0.00437488933913
0.00425508874362
)
;
    }
}


// ************************************************************************* //
