/*--------------------------------*- C++ -*----------------------------------*\
| =========                 |                                                 |
| \\      /  F ield         | OpenFOAM: The Open Source CFD Toolbox           |
|  \\    /   O peration     | Version:  v2012                                 |
|   \\  /    A nd           | Website:  www.openfoam.com                      |
|    \\/     M anipulation  |                                                 |
\*---------------------------------------------------------------------------*/
FoamFile
{
    version     2.0;
    format      ascii;
    class       surfaceScalarField;
    location    "2.2";
    object      phi;
}
// * * * * * * * * * * * * * * * * * * * * * * * * * * * * * * * * * * * * * //

dimensions      [0 3 -1 0 0 0 0];
oriented        oriented;


internalField   nonuniform List<scalar> 
304
(
4.65389233019e-05
0.000241572055499
5.84010856132e-05
0.00024375677552
7.06271431828e-05
0.000246711023858
8.32881750908e-05
0.000250211250301
9.64782337762e-05
0.00025414599895
0.000110308440324
0.000258368872503
0.000124843016083
0.00026275717502
0.000267161542574
2.48066675993e-05
0.000232065567795
3.68580131665e-05
0.000229008298916
4.9037212875e-05
0.000229393270917
6.1441288025e-05
0.000231353191591
7.41507742477e-05
0.000234002073912
8.72169412963e-05
0.000237145619288
0.000100723987127
0.000240639380831
0.00011475226387
0.00024434073459
0.000129257752411
0.000248251111735
0.000144365264915
0.000252052203795
0.000255598909115
2.59673780333e-05
0.000219278665348
3.85752411229e-05
0.000216400772612
5.12764423278e-05
0.00021669244208
6.41603448858e-05
0.000218469716942
7.72840233338e-05
0.000220878867481
9.07199144001e-05
0.000223710205864
0.000104503997031
0.000226855714267
0.000118626224145
0.000230218750588
0.000133108082899
0.00023376878782
0.000147962745989
0.000237196780839
2.69840274214e-05
0.000206018197585
4.0119573866e-05
0.000203265520955
5.32829621966e-05
0.000203529372567
6.65986900581e-05
0.00020515435491
8.01242754767e-05
0.000207353688534
9.38834446338e-05
0.00020995146632
0.000107912157361
0.000212827411086
0.000122158218474
0.000215972964857
0.000136658142188
0.000219268937928
0.000222616216068
1.41923754884e-05
0.000197187688889
2.79487995976e-05
0.000192261998877
4.15088048786e-05
0.000189705738326
5.51110330302e-05
0.000189927390326
6.88397870822e-05
0.000191425886461
8.2735698527e-05
0.000193458109522
9.68099585281e-05
0.000195877577694
0.000111114473767
0.000198523284028
0.000125468856212
0.000201618933996
0.000139949015008
0.000204789376316
0.000208106311029
1.46266147114e-05
0.00018256122609
2.882456473e-05
0.00017806418413
4.281422277e-05
0.000175716218616
5.6814298335e-05
0.000175927474186
7.09255024499e-05
0.00017731488123
8.51745274768e-05
0.000179209332394
9.95806919387e-05
0.000181471710744
0.000114060938477
0.000184043378247
0.000128679877873
0.000187000810586
0.000143297007755
0.000190173033277
1.5032661963e-05
0.000167528626741
2.96253090063e-05
0.000163471590781
4.40100083665e-05
0.000161331578347
5.83982453819e-05
0.000161539316696
7.28748298343e-05
0.00016283841147
8.74672391405e-05
0.000164617082688
0.000102190756674
0.000166748400641
0.000116969747742
0.000169264948297
0.000131838248369
0.00017213297681
1.53999230311e-05
0.000152128701175
3.03685722098e-05
0.00014850293658
4.51299242794e-05
0.000146570227089
5.98676523007e-05
0.000146801603177
7.46984039713e-05
0.000148007695963
8.96330192674e-05
0.000149682527561
0.000104716704978
0.000151664880758
0.000119866652953
0.000154115335396
0.000156900959942
1.57343891922e-05
0.000136394276212
3.10562858241e-05
0.000133181006807
4.61268763998e-05
0.000131499603524
6.12427335703e-05
0.000131685708218
7.64412822859e-05
0.000132809098439
9.17608021173e-05
0.000134362944603
0.000107154381334
0.000136271290143
0.000122655618045
0.000138614124218
0.000141305578126
1.60297717582e-05
0.000120364468411
3.16578201137e-05
0.000117552925266
4.70761616517e-05
0.000116081212454
6.24992518323e-05
0.000116262526162
7.80206402292e-05
0.000117287552344
9.36745526684e-05
0.000118708785751
0.000109434669651
0.000120510847635
0.000125361170878
0.000122687295001
0.000141414855091
0.000125251615677
0.000128275294862
1.62736886321e-05
0.000104090768591
3.21892409092e-05
0.000101637355298
4.79082437774e-05
0.00010036214215
6.36430358918e-05
0.000100527563117
7.94897966012e-05
0.000101440463121
9.54834018446e-05
0.000102714651516
0.000111619004445
0.000104374507451
0.000127949591788
0.000106355837351
0.000144471144628
0.000108729135686
0.000111559950359
1.64675333119e-05
8.76232586622e-05
3.26104683036e-05
8.5494413556e-05
4.86256168684e-05
8.43468833588e-05
6.46623230539e-05
8.44905561321e-05
8.08324922081e-05
8.52697169338e-05
9.71164882865e-05
8.64297384721e-05
0.000113619828531
8.786990535e-05
0.000130349406994
8.96247476342e-05
0.000147338731329
9.17382433955e-05
9.42800522649e-05
1.65535923078e-05
7.10697140558e-05
3.29370500095e-05
6.91109341896e-05
4.92461946746e-05
6.80375417777e-05
6.55759240139e-05
6.81603327948e-05
8.19913832295e-05
6.88533547358e-05
9.85918000474e-05
6.98279387405e-05
0.000115417280968
7.10425836403e-05
0.000132519156569
7.25207538027e-05
0.000149950453289
7.43045890014e-05
7.6458414614e-05
1.65286042242e-05
5.45411516814e-05
3.32132536003e-05
5.24262074328e-05
4.98118737401e-05
5.14385865617e-05
6.64120471684e-05
5.15594189274e-05
8.31097520643e-05
5.21543740131e-05
9.99836454459e-05
5.2952181402e-05
0.000117104451521
5.39193906334e-05
0.000134544272264
5.5077971966e-05
0.000152376955999
5.64682440216e-05
1.66727538423e-05
3.78683949151e-05
3.36967358274e-05
3.54020450724e-05
5.06332201867e-05
3.45015824646e-05
6.75307928795e-05
3.46608190888e-05
8.45167968411e-05
3.51667151202e-05
0.000101681088189
3.57855885825e-05
0.000119117610831
3.64799105911e-05
0.00013690879937
3.72832144824e-05
3.82286381384e-05
1.76430816066e-05
2.02252184635e-05
3.51662988183e-05
1.7878506097e-05
5.2468561873e-05
1.71985880358e-05
6.97381353522e-05
1.73899490429e-05
8.71075052202e-05
1.77953904915e-05
0.000104712279459
1.81782562947e-05
0.000122631272099
1.85578887985e-05
0.000140940733037
1.89705505465e-05
1.94415004906e-05
2.02251008412e-05
3.81033170998e-05
5.53013604117e-05
7.26904476124e-05
9.04846628359e-05
0.000108661497878
0.000127217922988
0.000146186775434
)
;

boundaryField
{
    back
    {
        type            calculated;
        value           uniform 0;
    }
    sides
    {
        type            calculated;
        value           uniform 0;
    }
    bottom
    {
        type            calculated;
        value           uniform 0;
    }
    front
    {
        type            calculated;
        value           uniform 0;
    }
    atmosphere
    {
        type            calculated;
        value           nonuniform List<scalar> 0();
    }
    floatingObject
    {
        type            calculated;
        value           nonuniform List<scalar> 0();
    }
    procBoundary10to9
    {
        type            processor;
        value           nonuniform List<scalar> 
15
(
-0.000253157104346
-0.000255618039638
-0.000258936133859
-0.000262871290262
-0.000267335330731
-0.000272199007974
-0.000277292653985
-0.000282522681522
-0.000244269934298
-3.49530146644e-05
-0.000241059127682
-1.26016379955e-05
-1.31799652791e-05
-1.37230617433e-05
-0.000211379612606
)
;
    }
    procBoundary10to11
    {
        type            processor;
        value           nonuniform List<scalar> 
23
(
0.000140201177741
-0.000271286834447
0.000160049345233
0.000163112242675
0.000240447718433
0.000151238392514
0.000154459226392
0.000157844423991
0.000193559571408
0.00014673513137
0.000175277080679
0.000135099228291
0.000138251232446
-0.000144437698624
0.000157577326883
0.000161185689409
0.000164617222668
0.000167769794496
0.000170691217583
5.81421863168e-05
0.000155145122514
0.00015972491545
0.000165627763091
)
;
    }
}


// ************************************************************************* //
