/*--------------------------------*- C++ -*----------------------------------*\
| =========                 |                                                 |
| \\      /  F ield         | OpenFOAM: The Open Source CFD Toolbox           |
|  \\    /   O peration     | Version:  v2012                                 |
|   \\  /    A nd           | Website:  www.openfoam.com                      |
|    \\/     M anipulation  |                                                 |
\*---------------------------------------------------------------------------*/
FoamFile
{
    version     2.0;
    format      ascii;
    class       volScalarField;
    location    "3.1";
    object      nut;
}
// * * * * * * * * * * * * * * * * * * * * * * * * * * * * * * * * * * * * * //

dimensions      [0 2 -1 0 0 0 0];


internalField   nonuniform List<scalar> 
164
(
0.000453877181368
0.000676569775245
0.000698533776632
0.000706988956028
0.000709978302547
0.000708937680957
0.00070157102632
0.000681444615851
0.000494360709079
0.000492806202367
0.000498073122747
0.00050590823248
0.000708747327858
0.000762064566242
0.000455152851765
0.000677987815051
0.000700004541165
0.000708722357615
0.000712559042002
0.000714005701837
0.000713328213518
0.000710056509328
0.000709040135252
0.000711872003353
0.000716564453989
0.000721730523476
0.000733671088854
0.00076522710759
0.000456540083932
0.000679660051798
0.00070169100531
0.000710520172871
0.000714728850381
0.000717229759064
0.000718993337561
0.00072043791395
0.000722380358698
0.000725625792881
0.000729405661941
0.000733408322389
0.000741469420085
0.000763468760576
0.000457977934573
0.000681491388246
0.000703501796484
0.000712326951729
0.000716606006099
0.000719367989321
0.000721727721612
0.000724117653514
0.000726816563712
0.000730019606129
0.000733526242834
0.000737420515243
0.00074386533754
0.000760396586239
0.000459406017631
0.000683389361015
0.000705358274532
0.000714114152182
0.000718326407906
0.000721053409527
0.000723432191029
0.00072588447964
0.000728578575907
0.00073157030403
0.000734825135072
0.000738540008679
0.000744242856575
0.000758155189804
0.000460776561987
0.000685278083837
0.000707192491244
0.000715842645808
0.000719929245563
0.000722522838119
0.000724759861612
0.000727055890366
0.000729555509788
0.000732298043739
0.000735305460804
0.000738835067958
0.000744325760367
0.000757686559345
0.000462055923971
0.000687096619592
0.000708949397698
0.000717474410745
0.000721412218604
0.000723846203364
0.00072590963794
0.00072801365353
0.000730298820874
0.000732810637869
0.000735612842202
0.000739073595003
0.000744943019693
0.000759830852566
0.000463224430909
0.000688804460546
0.000710589592933
0.000718979747585
0.000722762771561
0.000725035883426
0.000726930762022
0.000728854330434
0.000730946465439
0.000733264022792
0.000735920472306
0.000739467977474
0.000746278486944
0.000764354944926
0.000464274716029
0.00069037456786
0.000712090929418
0.000720344334995
0.000723972220894
0.000726091549617
0.000727831232086
0.000729593048718
0.000731516418518
0.000733668095663
0.000736204967965
0.000739849276921
0.000747548283631
0.000768514769124
0.000465198119908
0.000691788407879
0.000713439923623
0.000721557680564
0.000725036507069
0.000727012088054
0.000728610932542
0.000730228035927
0.000732000171335
0.000733993885846
0.000736365007572
0.000739818266058
0.000747256937656
0.000767964860188
0.00046599687718
0.000693039764845
0.000714629010998
0.000722617236379
0.000725955194143
0.000727798417091
0.000729270398178
0.000730758827539
0.000732395363728
0.000734243576132
0.000736447135661
0.000739638547784
0.000746446267245
0.000765652313945
0.00073270328648
0.000734424394764
0.00073649906101
0.000739560513392
0.0007461917949
0.000765010710507
0.000739474744242
0.000746109917927
0.000765053660254
0.000763097920703
)
;

boundaryField
{
    back
    {
        type            nutkWallFunction;
        blending        stepwise;
        Cmu             0.09;
        kappa           0.41;
        E               9.8;
        value           nonuniform List<scalar> 
164
(
6.32997666048e-05
7.00705161609e-05
7.21171081137e-05
7.28976795947e-05
7.3168004592e-05
7.30537192744e-05
7.23315723126e-05
7.0436033328e-05
6.81922624239e-05
6.80790074231e-05
6.88165830757e-05
6.99478297628e-05
7.32764537835e-05
7.85297535765e-05
6.34575489755e-05
7.02024403013e-05
7.22526498366e-05
7.30571967178e-05
7.34080750423e-05
7.35357892615e-05
7.34621403223e-05
7.31499368998e-05
7.30142310185e-05
7.3301155666e-05
7.37497452694e-05
7.42194393802e-05
7.54050250038e-05
7.86625386566e-05
6.36290522971e-05
7.03571594402e-05
7.24075435954e-05
7.32219067388e-05
7.36077280414e-05
7.38360336504e-05
7.39954217319e-05
7.41226284799e-05
7.42935663671e-05
7.46013744069e-05
7.49566967556e-05
7.53219104354e-05
7.61045443557e-05
7.83510645862e-05
6.38067970184e-05
7.05259473623e-05
7.25734920681e-05
7.33870265091e-05
7.37793648954e-05
7.40326649308e-05
7.42494590699e-05
7.44686486654e-05
7.4716288898e-05
7.5015122367e-05
7.5343382545e-05
7.57047672056e-05
7.63192529639e-05
7.7977435346e-05
6.39833032953e-05
7.07003405547e-05
7.27433167208e-05
7.35500607087e-05
7.39360742049e-05
7.41862681196e-05
7.44054441601e-05
7.46318822758e-05
7.48808477826e-05
7.51586820085e-05
7.54619287091e-05
7.58074135423e-05
7.63447953481e-05
7.7709562447e-05
6.4152658473e-05
7.08734093925e-05
7.29108444696e-05
7.37075727737e-05
7.40818370623e-05
7.43196014566e-05
7.45256535668e-05
7.47378302212e-05
7.4969065053e-05
7.52231428339e-05
7.55019344013e-05
7.58283424577e-05
7.63383264612e-05
7.76134125986e-05
6.4310701408e-05
7.10396558697e-05
7.30711206943e-05
7.38561962807e-05
7.42166494358e-05
7.44395630525e-05
7.46294134006e-05
7.48236570357e-05
7.50348533869e-05
7.52669936517e-05
7.55255257297e-05
7.58432722742e-05
7.63818691424e-05
7.77747573775e-05
6.44550078863e-05
7.11954354105e-05
7.32205944695e-05
7.39932712144e-05
7.43394437103e-05
7.45474435974e-05
7.47215895654e-05
7.4898949404e-05
7.5092014809e-05
7.53057084329e-05
7.55499535697e-05
7.58748138384e-05
7.65010452215e-05
7.81963280434e-05
6.45847980946e-05
7.13383812591e-05
7.33573072092e-05
7.41175174359e-05
7.44494746378e-05
7.46432819607e-05
7.48030036994e-05
7.49652684977e-05
7.51425733442e-05
7.53408337334e-05
7.55745781036e-05
7.59128215461e-05
7.66430017017e-05
7.86756517195e-05
6.46988750962e-05
7.14668224512e-05
7.34800504577e-05
7.42280331659e-05
7.45464064049e-05
7.47270039733e-05
7.48736841639e-05
7.50224824195e-05
7.51856872784e-05
7.53692193893e-05
7.55875022844e-05
7.5907834183e-05
7.66136749199e-05
7.86245905682e-05
6.47975757428e-05
7.15802633557e-05
7.35881954476e-05
7.43246125808e-05
7.46302130669e-05
7.47986917644e-05
7.49336668562e-05
7.50705166106e-05
7.52210895431e-05
7.53910028362e-05
7.55932109268e-05
7.5886269124e-05
7.65187193799e-05
7.83373320276e-05
7.52488857628e-05
7.54069987466e-05
7.55970189634e-05
7.58767269658e-05
7.64857552004e-05
7.82379066004e-05
7.5871237476e-05
7.64865487402e-05
7.82628299867e-05
7.80969088049e-05
)
;
    }
    sides
    {
        type            nutkWallFunction;
        blending        stepwise;
        Cmu             0.09;
        kappa           0.41;
        E               9.8;
        value           nonuniform List<scalar> 0();
    }
    bottom
    {
        type            nutkWallFunction;
        blending        stepwise;
        Cmu             0.09;
        kappa           0.41;
        E               9.8;
        value           nonuniform List<scalar> 
11
(
3.36520642325e-05
3.37363251271e-05
3.38279118826e-05
3.39228299687e-05
3.40170849803e-05
3.41075196644e-05
3.41919122551e-05
3.42689685861e-05
3.4338272592e-05
3.43991854676e-05
3.44518873705e-05
)
;
    }
    front
    {
        type            nutkWallFunction;
        blending        stepwise;
        Cmu             0.09;
        kappa           0.41;
        E               9.8;
        value           nonuniform List<scalar> 
164
(
6.32997666048e-05
7.00705161609e-05
7.21171081137e-05
7.28976795947e-05
7.3168004592e-05
7.30537192744e-05
7.23315723126e-05
7.0436033328e-05
6.81922624239e-05
6.80790074231e-05
6.88165830757e-05
6.99478297628e-05
7.32764537835e-05
7.85297535765e-05
6.34575489755e-05
7.02024403013e-05
7.22526498366e-05
7.30571967178e-05
7.34080750423e-05
7.35357892615e-05
7.34621403223e-05
7.31499368998e-05
7.30142310185e-05
7.3301155666e-05
7.37497452694e-05
7.42194393802e-05
7.54050250038e-05
7.86625386566e-05
6.36290522971e-05
7.03571594402e-05
7.24075435954e-05
7.32219067388e-05
7.36077280414e-05
7.38360336504e-05
7.39954217319e-05
7.41226284799e-05
7.42935663671e-05
7.46013744069e-05
7.49566967556e-05
7.53219104354e-05
7.61045443557e-05
7.83510645862e-05
6.38067970184e-05
7.05259473623e-05
7.25734920681e-05
7.33870265091e-05
7.37793648954e-05
7.40326649308e-05
7.42494590699e-05
7.44686486654e-05
7.4716288898e-05
7.5015122367e-05
7.5343382545e-05
7.57047672056e-05
7.63192529639e-05
7.7977435346e-05
6.39833032953e-05
7.07003405547e-05
7.27433167208e-05
7.35500607087e-05
7.39360742049e-05
7.41862681196e-05
7.44054441601e-05
7.46318822758e-05
7.48808477826e-05
7.51586820085e-05
7.54619287091e-05
7.58074135423e-05
7.63447953481e-05
7.7709562447e-05
6.4152658473e-05
7.08734093925e-05
7.29108444696e-05
7.37075727737e-05
7.40818370623e-05
7.43196014566e-05
7.45256535668e-05
7.47378302212e-05
7.4969065053e-05
7.52231428339e-05
7.55019344013e-05
7.58283424577e-05
7.63383264612e-05
7.76134125986e-05
6.4310701408e-05
7.10396558697e-05
7.30711206943e-05
7.38561962807e-05
7.42166494358e-05
7.44395630525e-05
7.46294134006e-05
7.48236570357e-05
7.50348533869e-05
7.52669936517e-05
7.55255257297e-05
7.58432722742e-05
7.63818691424e-05
7.77747573775e-05
6.44550078863e-05
7.11954354105e-05
7.32205944695e-05
7.39932712144e-05
7.43394437103e-05
7.45474435974e-05
7.47215895654e-05
7.4898949404e-05
7.5092014809e-05
7.53057084329e-05
7.55499535697e-05
7.58748138384e-05
7.65010452215e-05
7.81963280434e-05
6.45847980946e-05
7.13383812591e-05
7.33573072092e-05
7.41175174359e-05
7.44494746378e-05
7.46432819607e-05
7.48030036994e-05
7.49652684977e-05
7.51425733442e-05
7.53408337334e-05
7.55745781036e-05
7.59128215461e-05
7.66430017017e-05
7.86756517195e-05
6.46988750962e-05
7.14668224512e-05
7.34800504577e-05
7.42280331659e-05
7.45464064049e-05
7.47270039733e-05
7.48736841639e-05
7.50224824195e-05
7.51856872784e-05
7.53692193893e-05
7.55875022844e-05
7.5907834183e-05
7.66136749199e-05
7.86245905682e-05
6.47975757428e-05
7.15802633557e-05
7.35881954476e-05
7.43246125808e-05
7.46302130669e-05
7.47986917644e-05
7.49336668562e-05
7.50705166106e-05
7.52210895431e-05
7.53910028362e-05
7.55932109268e-05
7.5886269124e-05
7.65187193799e-05
7.83373320276e-05
7.52488857628e-05
7.54069987466e-05
7.55970189634e-05
7.58767269658e-05
7.64857552004e-05
7.82379066004e-05
7.5871237476e-05
7.64865487402e-05
7.82628299867e-05
7.80969088049e-05
)
;
    }
    atmosphere
    {
        type            calculated;
        value           nonuniform List<scalar> 0();
    }
    floatingObject
    {
        type            nutkWallFunction;
        blending        stepwise;
        Cmu             0.09;
        kappa           0.41;
        E               9.8;
        value           nonuniform List<scalar> 4(3.62641886334e-05 3.62037355467e-05 3.65974258632e-05 3.72011897838e-05);
    }
    procBoundary8to3
    {
        type            processor;
        value           nonuniform List<scalar> 8(0.000452782823975 0.000675398812387 0.000697314959242 0.000705453028127 0.000707557940863 0.000704260789148 0.000690810380344 0.000478312934964);
    }
    procBoundary8to6
    {
        type            processor;
        value           nonuniform List<scalar> 
16
(
0.000525470575177
0.000794054414623
0.000856553654352
0.000837518147527
0.000820535163071
0.000807885790524
0.000800020734623
0.000797826032093
0.000802563744004
0.000812597267981
0.000821503456672
0.000821207748703
0.000816969374804
0.000815580474422
0.000815205590283
0.000810517619557
)
;
    }
    procBoundary8to7
    {
        type            processor;
        value           nonuniform List<scalar> 
17
(
0.000466677843913
0.000694132203974
0.000715660650224
0.000723525173887
0.000726732075788
0.000728455060604
0.000729813419731
0.000731186855994
0.000731186855994
0.000732921832774
0.000734530204971
0.000736494017081
0.000736494017081
0.000739163676035
0.000745334058303
0.000745334058303
0.000759395226504
)
;
    }
}


// ************************************************************************* //
