/*--------------------------------*- C++ -*----------------------------------*\
| =========                 |                                                 |
| \\      /  F ield         | OpenFOAM: The Open Source CFD Toolbox           |
|  \\    /   O peration     | Version:  v2012                                 |
|   \\  /    A nd           | Website:  www.openfoam.com                      |
|    \\/     M anipulation  |                                                 |
\*---------------------------------------------------------------------------*/
FoamFile
{
    version     2.0;
    format      ascii;
    class       volVectorField;
    location    "3.1";
    object      U_0;
}
// * * * * * * * * * * * * * * * * * * * * * * * * * * * * * * * * * * * * * //

dimensions      [0 1 -1 0 0 0 0];


internalField   nonuniform List<vector> 
164
(
(-0.00788151331683 0.00168746242288 2.15578359165e-21)
(-0.00834819139365 0.00527384098234 3.07235784729e-21)
(-0.00831270630961 0.00897650732323 1.42436947977e-20)
(-0.0075942810734 0.0128599650021 7.30813977865e-20)
(-0.00612961108661 0.0171291929167 3.38596881129e-19)
(-0.00360153503454 0.0219665421645 1.44498376945e-18)
(0.00323458509971 0.028616286343 4.69385039706e-18)
(0.0183117561122 0.0420232494883 1.16558603781e-17)
(-0.000964893726119 0.0573859675573 2.03492376571e-17)
(-0.0116243188283 0.0685282340413 2.23387821839e-17)
(-0.0110205628296 0.091693593665 1.28056054712e-17)
(0.00520183871656 0.104829604854 1.39923050689e-17)
(-0.0270017259119 0.103970444197 1.0218856878e-17)
(-0.0404019444498 0.0944245711365 5.67677393663e-18)
(-0.011490197733 0.00184285144263 1.86492794965e-21)
(-0.0121382214226 0.00576231827781 9.48315520213e-22)
(-0.0122618496058 0.0099391207818 4.50997670356e-21)
(-0.0117159822297 0.0144008121068 2.66813488313e-20)
(-0.0106512065597 0.0192780729095 1.26861813115e-19)
(-0.00927451387893 0.024503582496 5.54044024165e-19)
(-0.00737777930765 0.0301858274803 1.98283432857e-18)
(-0.00506820210406 0.0413268159382 4.94826754992e-18)
(-0.013767610497 0.0532044429975 7.96350281912e-18)
(-0.0231110300827 0.0595441172645 8.39307664504e-18)
(-0.0281807639108 0.0675356195813 6.18811332781e-18)
(-0.0251947320125 0.0787521800121 7.39386958086e-18)
(-0.0220879931145 0.0941162006452 6.19061374709e-18)
(-0.0315762765248 0.0983719719356 4.47059020728e-18)
(-0.0153866842769 0.00193915891238 2.32273008715e-21)
(-0.0162439570757 0.00604938186298 4.2529543532e-22)
(-0.016718339777 0.0104295799272 1.10664729604e-21)
(-0.0166835159311 0.0151125775605 7.29278252481e-21)
(-0.016262543518 0.020340795993 3.53877870499e-20)
(-0.0155514561082 0.0263495849065 1.50496598859e-19)
(-0.0147173112919 0.0334072920158 5.32137413135e-19)
(-0.0142114567744 0.0426020196392 1.36470769597e-18)
(-0.0194976608239 0.0522274240208 2.3223199145e-18)
(-0.0266900408816 0.0593557208651 2.53053892249e-18)
(-0.0308502640883 0.0646968114948 2.33813252162e-18)
(-0.0296401987878 0.0713233478656 2.95923276861e-18)
(-0.0318164524386 0.0834688632389 2.69182681079e-18)
(-0.0421050350057 0.0961634795888 1.79823653318e-18)
(-0.0194108553688 0.00197216235358 2.38831392223e-21)
(-0.0204812666222 0.00615120016635 3.41500525136e-22)
(-0.0212755780815 0.0105892324844 3.01885380117e-22)
(-0.0216602759007 0.0153284134089 1.89682430214e-21)
(-0.0218067849683 0.0206096535978 8.39764268597e-21)
(-0.0219159053377 0.0266086827925 3.37841503026e-20)
(-0.0223893607585 0.0334944430396 1.1457526211e-19)
(-0.0237842753227 0.0414947922027 2.90048702512e-19)
(-0.0278573200859 0.0499168190913 5.05290220537e-19)
(-0.0336413752076 0.0571522732934 5.79053837054e-19)
(-0.0387927835191 0.0630269180226 5.58220169105e-19)
(-0.0416718882371 0.0701850782996 7.16822146791e-19)
(-0.0450293926401 0.0813135335288 6.24533226514e-19)
(-0.0529685150032 0.0935128630195 3.68774890236e-19)
(-0.0234380809461 0.00195009245574 1.97668310187e-21)
(-0.0247220386158 0.0060821054392 8.58271551382e-23)
(-0.0258118675777 0.0104463563708 2.54493207792e-23)
(-0.026581716721 0.0150781232049 4.71356050227e-22)
(-0.0272544779834 0.0201718115799 1.97448130763e-21)
(-0.028089930633 0.0258040260799 6.66474738988e-21)
(-0.0294294306971 0.0320564952893 2.13006192147e-20)
(-0.0316097402618 0.0389884194439 5.1497406482e-20)
(-0.0352954659156 0.0462920437422 8.75048856916e-20)
(-0.0402593732477 0.053170216907 1.00616753216e-19)
(-0.0453619536832 0.0595498847706 9.0134917175e-20)
(-0.0499032953049 0.0668463927219 1.0046199714e-19)
(-0.0551726262521 0.0764354061997 8.5485222495e-20)
(-0.0628931902898 0.0871653710571 5.04585136367e-20)
(-0.0273637263097 0.00188145067083 1.80560329169e-21)
(-0.0288487155534 0.00585975357339 2.6614152113e-23)
(-0.0301995863524 0.0100342551381 -8.07300333643e-23)
(-0.0312947443475 0.014430288003 1.52576996481e-22)
(-0.0323814259499 0.0191891749946 6.51812041139e-22)
(-0.0337451858022 0.0243251136234 1.36430593186e-21)
(-0.0356488726425 0.029883232321 3.64075001405e-21)
(-0.0382998455582 0.0358862933005 8.29644412762e-21)
(-0.0420076201817 0.0421743518186 1.3869585297e-20)
(-0.0467617814881 0.0484061305033 1.63857497246e-20)
(-0.0520668671432 0.0545922388848 1.42715597713e-20)
(-0.057707938983 0.0614224360117 1.34698519587e-20)
(-0.0643535865392 0.0696342616708 1.00943138137e-20)
(-0.0728180590769 0.0788826776 5.45281862716e-21)
(-0.0311009320786 0.00178095349853 2.10857170617e-21)
(-0.0327663499961 0.00552055630411 2.70090200559e-22)
(-0.034337062131 0.00941552144008 2.53374951472e-22)
(-0.0356851571574 0.0134892143835 3.33519394995e-22)
(-0.0370735410324 0.0178361898587 4.70543757938e-22)
(-0.0387919400451 0.0224364902502 4.81040969538e-22)
(-0.0410551222637 0.0273211939101 8.62844157866e-22)
(-0.0440194109954 0.0324941878994 1.4676675815e-21)
(-0.0478634024313 0.0378702170732 2.20555445314e-21)
(-0.0526255599842 0.0433108435831 2.66618694991e-21)
(-0.0581564010075 0.048853029365 2.21146351025e-21)
(-0.0644552576509 0.0548075003929 1.5004719777e-21)
(-0.0719376311882 0.0615150897319 7.62485131767e-23)
(-0.0809676545523 0.0690107928448 -3.24856378601e-21)
(-0.0345759551379 0.00165887672451 1.6915403687e-21)
(-0.0364061353176 0.00509919997979 1.10212557497e-22)
(-0.0381529540513 0.00865431556959 1.13951624342e-22)
(-0.039680955384 0.0123509171667 1.43476292754e-22)
(-0.0412796985147 0.0162457853139 3.32045292198e-22)
(-0.0432283106027 0.0202989623865 3.31332853915e-22)
(-0.0457169867042 0.0245270388135 3.7466183308e-22)
(-0.0488820196048 0.0289255666989 4.50318614123e-22)
(-0.0528497637127 0.0334470743017 6.89700730109e-22)
(-0.057690581462 0.0380302475981 8.92763362084e-22)
(-0.0634259501929 0.0426994133542 6.17472244538e-22)
(-0.070187230515 0.047578844142 3.22996781418e-22)
(-0.0782628967098 0.0527854609236 -6.3963398176e-22)
(-0.0877055732366 0.0582640980674 -6.67275951268e-21)
(-0.0377592615785 0.00149975977796 4.17985660438e-22)
(-0.0397243914551 0.0046066854503 -5.64607935923e-22)
(-0.0415964029305 0.00779650998286 -3.62731889677e-22)
(-0.0432509540107 0.0110830610272 -2.89709044567e-23)
(-0.0449812813794 0.0144967128953 2.45967412421e-22)
(-0.0470661330478 0.0179997111716 2.42878570766e-22)
(-0.0496818852624 0.0215902773387 2.16874032654e-22)
(-0.0529450748333 0.0252538537261 2.28772377315e-22)
(-0.0569573713294 0.0289508373288 2.74077331231e-22)
(-0.0617962553063 0.0326297244222 2.58288330799e-22)
(-0.0675390214423 0.0362604267251 8.71461221723e-23)
(-0.074339898613 0.0398332359722 -3.46826888256e-22)
(-0.0824150494283 0.0433025716978 -1.28219795229e-21)
(-0.0917022047701 0.0466230643583 -8.45716235433e-21)
(-0.0406279982361 0.00133055778291 -2.28805650325e-22)
(-0.0426828237722 0.00408361002047 -7.3996589025e-22)
(-0.0446404880124 0.00688183594453 -4.63275555872e-22)
(-0.0463751470582 0.00973347333493 -2.19224004659e-23)
(-0.0481708806337 0.0126617442142 2.34188149692e-22)
(-0.0503149849121 0.0156195218531 2.15404825985e-22)
(-0.0529719346039 0.0185967173238 1.9566139918e-22)
(-0.0562441350268 0.0215682463844 1.80851201173e-22)
(-0.0602127181256 0.0244930330643 1.76693682813e-22)
(-0.0649533035365 0.0273210830653 1.14291897154e-22)
(-0.0705475133572 0.0300004087044 1.12059225795e-22)
(-0.0771102282565 0.0324806827854 1.52384014154e-22)
(-0.0847949816942 0.0346715504125 -1.13658021691e-23)
(-0.0936576940141 0.036551934774 -7.33203586019e-21)
(-0.0431406259365 0.00115696204211 -1.5609336988e-22)
(-0.0452518178879 0.0035377010494 -6.71199250839e-22)
(-0.0472697822891 0.00593366967884 -2.41041186472e-22)
(-0.0490401677754 0.00834948796242 1.25295283448e-24)
(-0.0508532579777 0.0107983194007 2.3895525696e-22)
(-0.0529995952631 0.0132293722289 1.95677548039e-22)
(-0.0556314242691 0.0156233063703 1.45141819925e-22)
(-0.0588413745521 0.0179495881994 1.35288481006e-22)
(-0.0626950971698 0.0201609786872 1.30993324274e-22)
(-0.0672661521481 0.0222042711933 8.03209284952e-23)
(-0.0726324071398 0.0240270312154 -1.10562900811e-22)
(-0.0789132870337 0.0255590618222 -4.82644977342e-22)
(-0.0862809416544 0.0267024884507 -1.68242895177e-21)
(-0.0949061371426 0.0274260443496 -8.39529177532e-21)
(-0.06447379143 0.0160137266799 1.24775717302e-22)
(-0.0688151332369 0.0173257541953 1.88096314331e-22)
(-0.0738878244713 0.0183174322711 1.8016786472e-22)
(-0.0798244141512 0.0188797647339 -1.46210751066e-22)
(-0.0867584232869 0.0188375581397 -1.47533292964e-21)
(-0.0948809515413 0.0181075626787 -6.49546814825e-21)
(-0.0794847781828 0.0126364005717 -1.95907625595e-22)
(-0.0855594983048 0.0114832295666 -8.14189460397e-22)
(-0.0926782844408 0.0095637575266 -3.59368920848e-21)
(-0.0894248895487 0.00313825677058 -1.45497074854e-21)
)
;

boundaryField
{
    back
    {
        type            noSlip;
    }
    sides
    {
        type            noSlip;
    }
    bottom
    {
        type            noSlip;
    }
    front
    {
        type            noSlip;
    }
    atmosphere
    {
        type            pressureInletOutletVelocity;
        value           nonuniform List<vector> 0();
    }
    floatingObject
    {
        type            movingWallVelocity;
        value           nonuniform List<vector> 4((0 -2.22044604925e-15 2.77555756156e-16) (0 -2.22044604925e-15 2.77555756156e-16) (0 0 0) (0 -4.4408920985e-15 2.77555756156e-16));
    }
    procBoundary8to3
    {
        type            processor;
        value           nonuniform List<vector> 8((-0.00455260339657 0.00154025155265 3.45259243021e-21) (-0.00481713918544 0.00491082551782 6.61530544839e-21) (-0.00468818994752 0.00830942429559 3.06454133542e-20) (-0.00402585451934 0.0115423532842 1.44125603417e-19) (-0.002652594124 0.0142794376939 5.80850573764e-19) (-0.000261352136752 0.0154865323684 2.13449499488e-18) (0.00623069555227 0.0170177526887 5.71877622258e-18) (0.0213689213269 0.00805439016662 1.16310797787e-17));
    }
    procBoundary8to6
    {
        type            processor;
        value           nonuniform List<vector> 
16
(
(-0.0227703658834 0.0136492556308 6.473496136e-18)
(-0.0314752147682 0.0428984009767 5.21686415605e-18)
(-0.0469634100195 0.0892385621263 2.75289608793e-18)
(-0.0460039638771 0.0993298005216 2.0509118564e-18)
(-0.0537538324317 0.104334304564 7.38111401015e-19)
(-0.0625105325251 0.103356725999 1.3819284154e-19)
(-0.0717406117973 0.0979345299672 1.50328870998e-20)
(-0.0820499244015 0.0890432951542 -6.50660540131e-21)
(-0.090217727454 0.0768684781073 -1.41351609969e-20)
(-0.0968167093057 0.0632043758361 -2.57963858858e-20)
(-0.100766327703 0.0495205984218 -3.96449894719e-20)
(-0.103200560119 0.0379797851974 -3.30690505647e-20)
(-0.10465355454 0.0273607887937 -2.68439665429e-20)
(-0.103884411413 0.0160698331967 -2.0089697088e-20)
(-0.101198491784 0.00604661995383 -1.14153428948e-20)
(-0.0974753675149 -0.00119340079083 -2.83024132182e-21)
)
;
    }
    procBoundary8to7
    {
        type            processor;
        value           nonuniform List<vector> 
17
(
(-0.0452846165509 0.000983179237485 -3.33937905246e-22)
(-0.0474316474803 0.00298228004639 -3.74035408756e-22)
(-0.049478770998 0.00497266670871 -1.82080201703e-22)
(-0.0512511717231 0.00696264807851 5.73812668593e-23)
(-0.0530431125655 0.00894773829492 1.84065787781e-22)
(-0.0551485960685 0.0108789920627 1.50284407411e-22)
(-0.0577054596987 0.0127303564887 1.17113239768e-22)
(-0.0607924984332 0.0144613570355 1.07595864934e-22)
(-0.0607924984332 0.0144613570355 1.07595864934e-22)
(-0.0655863100909 0.0121096285531 -1.59616700586e-24)
(-0.0695880957346 0.0127610796111 4.48248859023e-23)
(-0.0741962973228 0.0129892274325 4.59146480892e-23)
(-0.0741962973228 0.0129892274325 4.59146480892e-23)
(-0.0783606607162 0.00742782926893 -3.05221133954e-22)
(-0.0834434574204 0.00570673651557 -1.36654550681e-21)
(-0.0834434574204 0.00570673651557 -1.36654550681e-21)
(-0.0858664259373 -0.00144484767496 -2.70323296668e-21)
)
;
    }
}


// ************************************************************************* //
