/*--------------------------------*- C++ -*----------------------------------*\
| =========                 |                                                 |
| \\      /  F ield         | OpenFOAM: The Open Source CFD Toolbox           |
|  \\    /   O peration     | Version:  v2012                                 |
|   \\  /    A nd           | Website:  www.openfoam.com                      |
|    \\/     M anipulation  |                                                 |
\*---------------------------------------------------------------------------*/
FoamFile
{
    version     2.0;
    format      ascii;
    class       surfaceVectorField;
    location    "3.1";
    object      Uf;
}
// * * * * * * * * * * * * * * * * * * * * * * * * * * * * * * * * * * * * * //

dimensions      [0 1 -1 0 0 0 0];


internalField   nonuniform List<vector> 
300
(
(-0.00822594090714 0.00351908573047 2.63975303863e-21)
(-0.00977642307794 0.0018198459841 2.01201103017e-21)
(-0.00842475109348 0.00722741670499 8.7541803443e-21)
(-0.0103092367073 0.00563988406095 2.05085012306e-21)
(-0.00801471854071 0.0110751429058 4.38803665212e-20)
(-0.010301131394 0.00966144135356 9.47484878142e-21)
(-0.00686360790373 0.0151874339924 2.05608417841e-19)
(-0.00969072593806 0.0139215981911 5.00675417844e-20)
(-0.0047641036207 0.0199177128848 8.86461257439e-19)
(-0.00862205748695 0.0185815059893 2.32155538838e-19)
(4.75046297688e-05 0.025633752497 3.03714974821e-18)
(-0.00703151240017 0.0237124739261 9.92372814265e-19)
(0.0111203699244 0.034594779533 8.08158432435e-18)
(-0.00260019384607 0.0300106836691 3.3030488353e-18)
(0.00911421006647 0.0531551955492 1.5815064884e-17)
(0.00553254142463 0.0423567199781 8.21876656614e-18)
(-0.00601217999507 0.0611959780644 2.12328632913e-17)
(-0.008047718029 0.0559658268977 1.39945308695e-17)
(-0.0114419904718 0.0787723838667 1.76619517219e-17)
(-0.0175816604139 0.0646794336628 1.5375732772e-17)
(-0.00351699171931 0.0986070258115 1.35086041662e-17)
(-0.0198365307273 0.0798808482232 9.58666169677e-18)
(-0.0107190316037 0.108542307741 1.22507485654e-17)
(-0.00993403705559 0.0922059594109 1.0694645183e-17)
(-0.032360228868 0.0982185633384 8.13654105057e-18)
(-0.0203048546387 0.099434416112 8.32219854462e-18)
(-0.0317902511133 0.09682247602 5.17708063978e-18)
(-0.0120060586968 0.00387045717636 1.4231081146e-21)
(-0.013645430968 0.00195108453661 2.09125745692e-21)
(-0.0123793330473 0.00795394210278 2.77151856018e-21)
(-0.0143920047177 0.00604238858172 7.14036567949e-22)
(-0.0121465556102 0.0123422103382 1.56620240445e-20)
(-0.0146899628827 0.0104101860377 2.84383182976e-21)
(-0.0113119548498 0.0170802293711 7.6614662781e-20)
(-0.0144311037929 0.0150782334971 1.70361558907e-20)
(-0.0100526709578 0.0221118001873 3.38067095664e-19)
(-0.0136580380006 0.0202226444524 8.08602491251e-20)
(-0.00836095829848 0.0274712818433 1.25827190135e-18)
(-0.0123974601748 0.0259410169154 3.49453228772e-19)
(-0.00616064441873 0.0355081327776 3.44023107709e-18)
(-0.0106449002415 0.032454837464 1.24684277003e-18)
(-0.00931248198397 0.0498481781462 6.39823255163e-18)
(-0.00881558982261 0.0428041498684 3.13188280056e-18)
(-0.0182401595438 0.0575817619477 8.13740035023e-18)
(-0.0157883557028 0.0536645148669 5.08553074214e-18)
(-0.0252672583484 0.0643762172873 7.30044274691e-18)
(-0.024380991091 0.0604883713494 5.44221151366e-18)
(-0.0262197213754 0.0731793959372 6.77270271352e-18)
(-0.0286416117108 0.0671926523109 4.25414063478e-18)
(-0.0231100069428 0.0897052306675 6.76609516224e-18)
(-0.0264592099161 0.0759967081582 5.12130877703e-18)
(-0.0257461550152 0.0958121754967 5.36273813384e-18)
(-0.0264098011239 0.0895095102654 4.43573875714e-18)
(-0.03479266961 0.0979347399086 3.17221366421e-18)
(-0.0160994827142 0.00407027001796 1.38218591027e-21)
(-0.0177153958804 0.00202001340416 2.34878209829e-21)
(-0.0167545964452 0.00836018295466 7.86349837527e-22)
(-0.0186824279902 0.00625031984753 3.99803691514e-22)
(-0.0169522929797 0.0129706577639 4.21796367591e-21)
(-0.019302323763 0.0107579669957 7.17190789853e-22)
(-0.0166925109658 0.0179907066269 2.12817422347e-20)
(-0.0194548816197 0.0155765966257 4.60048004944e-21)
(-0.0160792726724 0.0235988999615 9.22463822334e-20)
(-0.0192719548384 0.0209377276731 2.17977518481e-20)
(-0.0152409220302 0.0301081793721 3.38024097446e-19)
(-0.0189142653031 0.0270538392219 9.12997930353e-20)
(-0.0144892410933 0.0382464089643 9.384944935e-19)
(-0.0187916778339 0.0341507071906 3.19827014195e-19)
(-0.0168050127792 0.0488859046117 1.81918099107e-18)
(-0.0194634382158 0.042896596156 8.17871187918e-19)
(-0.0229694256294 0.0569553533958 2.39034190557e-18)
(-0.0238646454107 0.0520498544465 1.39232680907e-18)
(-0.0285857957866 0.0629479083296 2.39590940154e-18)
(-0.0303778642284 0.0593614617019 1.53057984048e-18)
(-0.0300090632104 0.0694571684787 2.60274669829e-18)
(-0.0351523411926 0.0651023536761 1.42321070621e-18)
(-0.0302338865768 0.0790402790747 2.79095237193e-18)
(-0.0360412623745 0.0720530827125 1.80379373715e-18)
(-0.0357822385307 0.0902786863122 2.24521428752e-18)
(-0.0376453553731 0.0835578161758 1.64629851802e-18)
(-0.0453359465338 0.0959705015868 1.09158090628e-18)
(-0.0203316416462 0.0041429202396 1.36639987953e-21)
(-0.0218588076809 0.00202873543984 2.17503850628e-21)
(-0.0212562554551 0.00850824922647 3.3064464384e-22)
(-0.0230491099035 0.00627789748602 2.26719066258e-22)
(-0.0218275227469 0.0131866121284 1.09970716338e-21)
(-0.0239834782256 0.010785196486 1.68407832792e-22)
(-0.0220681249082 0.0182780950298 5.11648966283e-21)
(-0.0245510101598 0.0155870802344 1.18362631647e-21)
(-0.0221604756768 0.0239584993001 2.085116265e-20)
(-0.0249589094915 0.0208907958165 5.14643902274e-21)
(-0.0224034167179 0.030481894654 7.31027097844e-20)
(-0.0254457490327 0.0268291111708 1.99589814896e-20)
(-0.0232726623377 0.0380654425783 1.99203708613e-19)
(-0.0263839640235 0.0335304863136 6.68457970324e-20)
(-0.0259251227737 0.046749476266 3.91017005919e-19)
(-0.0281556138974 0.0411430615614 1.67929022335e-19)
(-0.0307470861063 0.0547029165972 5.32564743975e-19)
(-0.031824355178 0.049155605524 2.90868818782e-19)
(-0.0360854690031 0.0613237674382 5.57881145143e-19)
(-0.037002234659 0.056378042489 3.33249603796e-19)
(-0.0399388923021 0.0680482882759 6.24257745063e-19)
(-0.0418775444513 0.062684864804 3.1709951085e-19)
(-0.0427726352405 0.0771620762101 6.59139883241e-19)
(-0.0451530291329 0.0700638191103 3.98720218243e-19)
(-0.0478575981032 0.0885489769886 4.92665136786e-19)
(-0.049027950872 0.0804948647948 3.49442098222e-19)
(-0.0561299571622 0.09213671339 2.08554473398e-19)
(-0.0245746144917 0.00410273102767 1.03535769301e-21)
(-0.025962431873 0.00198547887309 1.88760125613e-21)
(-0.0257572574446 0.00841948595394 6.44822552101e-23)
(-0.0273676046445 0.00614048729697 7.28629879623e-23)
(-0.0266733667345 0.0130188353672 2.52326985879e-22)
(-0.0285859918113 0.0105219481301 -2.23062302518e-23)
(-0.027376412375 0.0179838488442 1.21357567638e-21)
(-0.0295209717657 0.0151590187172 3.17951578204e-22)
(-0.0281035249052 0.0234282599836 4.25425786231e-21)
(-0.0304100250396 0.0202096975519 1.29773777242e-21)
(-0.0291528186457 0.0294958146959 1.37020687376e-20)
(-0.0315212940672 0.0257267015599 3.94823991855e-21)
(-0.0308598805425 0.0362501685424 3.55711107543e-20)
(-0.0331466628062 0.0317764232928 1.21951492732e-20)
(-0.0337213069598 0.0436171147801 6.77808351974e-20)
(-0.0355300376817 0.0384028558916 2.91682158756e-20)
(-0.037947939708 0.0508922861937 9.15536786029e-20)
(-0.0391049410502 0.0453720820734 4.93260279992e-20)
(-0.042851818034 0.0577138184097 9.24679695031e-20)
(-0.0438263522047 0.0521259370158 5.68153186548e-20)
(-0.0474939528534 0.0646966469828 9.15619840293e-20)
(-0.0488601494785 0.0586374529453 5.04012742659e-20)
(-0.052108089541 0.0732034290323 8.90224332235e-20)
(-0.0536566880958 0.0659464075435 5.43916335777e-20)
(-0.0581240141855 0.0834219933807 6.53314348349e-20)
(-0.0592407051786 0.0751089777469 4.57257927499e-20)
(-0.0667759449028 0.0854761074247 2.68933291662e-20)
(-0.0287151018309 0.00396086037062 9.2510655109e-22)
(-0.0299242325113 0.00190177800638 1.95214445213e-21)
(-0.0301326397275 0.00811770520734 -1.39254974996e-23)
(-0.0315261757817 0.00586473653425 1.62189096805e-22)
(-0.031347053523 0.0125174916768 4.33183620731e-23)
(-0.0329888445029 0.0100156571382 8.95748856063e-23)
(-0.0324273522487 0.0172120196373 4.02113674243e-22)
(-0.0342202083981 0.0143781959444 2.44896061108e-22)
(-0.0336350693172 0.022266438956 9.91719828662e-22)
(-0.0354707158893 0.0190617283576 5.56993028663e-22)
(-0.0352420004694 0.0277559881247 2.44132045416e-21)
(-0.0370181719392 0.0240711892299 9.084494309e-22)
(-0.0374808948224 0.0337023556023 5.79225439455e-21)
(-0.0391005077994 0.0294478482567 2.19290347472e-21)
(-0.0406057399922 0.0400502184816 1.07134086774e-20)
(-0.0418843831741 0.0352090833818 4.73004376352e-21)
(-0.0447580781615 0.0465403587841 1.45876680511e-20)
(-0.0455994830433 0.0412376380332 7.75119918297e-21)
(-0.0496782757955 0.0529755721207 1.47486234177e-20)
(-0.0502632200883 0.0473041794799 9.17262851722e-21)
(-0.054994451824 0.0596754626412 1.32309238144e-20)
(-0.0555590051615 0.0534421796706 7.91153416123e-21)
(-0.0608930599584 0.0673732873581 1.10949931042e-20)
(-0.0613504893861 0.0601596259692 7.08289128489e-21)
(-0.068070319199 0.0763094679721 7.28768708133e-21)
(-0.0681699668849 0.0680181466107 4.7423386625e-21)
(-0.0767323334251 0.0769333354922 9.48128072407e-22)
(-0.0326596877989 0.00374153139761 1.18922699785e-21)
(-0.0336664985987 0.00178994932338 1.88593588937e-21)
(-0.0342816096472 0.00765103487945 2.65689479911e-22)
(-0.0354371123743 0.00548575674363 1.93679042748e-22)
(-0.0357382130634 0.0117603527502 2.91152584642e-22)
(-0.037100800631 0.00932892246325 1.7896683246e-22)
(-0.0371046393316 0.0160995461301 3.99775415529e-22)
(-0.0385634911943 0.0133435277555 2.36026837008e-22)
(-0.0386521553549 0.0206904529809 4.73722630901e-22)
(-0.0400670568257 0.0175983428098 3.98866288717e-22)
(-0.0406309912187 0.0255821665432 6.60032451461e-22)
(-0.0419161758398 0.0220714350768 4.03749977657e-22)
(-0.0432250850713 0.030782101457 1.13069284368e-21)
(-0.0443067573507 0.0267902140117 6.05869241997e-22)
(-0.0465985189802 0.0362621511192 1.76783426907e-21)
(-0.0473697507574 0.0317598307339 9.29513730974e-22)
(-0.05085444237 0.0419072417843 2.33615964909e-21)
(-0.0512479421578 0.0369214576835 1.39338299471e-21)
(-0.0559318889753 0.0476479212379 2.33553926075e-21)
(-0.0560047485416 0.0421861818103 1.71398916959e-21)
(-0.0617454257887 0.053662570701 1.76350163177e-21)
(-0.0615720431108 0.0475972244283 1.36191575879e-21)
(-0.0684812220157 0.0603288725986 7.30236843202e-22)
(-0.0680122701791 0.053389198202 8.59293223149e-22)
(-0.0765086215314 0.0678344353917 -1.59722034642e-21)
(-0.0756681446596 0.05982116408 -2.7731451989e-22)
(-0.0849189288768 0.066942751268 -4.8583878647e-21)
(-0.03633490059 0.0034614541821 8.9038793427e-22)
(-0.0371283515331 0.00164747055393 1.03630278708e-21)
(-0.038131437604 0.00707188295871 1.06956395297e-22)
(-0.0390485348599 0.00502623488721 -2.26095504134e-22)
(-0.0397725662722 0.0108416537744 1.23841084827e-22)
(-0.0408725992866 0.00851589275614 -1.3008235306e-22)
(-0.0413440642328 0.0147517974858 2.35117710196e-22)
(-0.0424768911453 0.0121355572294 5.60547541851e-23)
(-0.0431251149538 0.0188506096762 3.28893635473e-22)
(-0.0441702416556 0.0159235863882 2.85327090735e-22)
(-0.0453492397598 0.0231439376417 3.49586768193e-22)
(-0.0462145593304 0.0198487300362 2.85844376611e-22)
(-0.0481788307058 0.0276284179236 4.04690129289e-22)
(-0.0487962583796 0.0239226080263 2.92697012785e-22)
(-0.0517433996008 0.0322924821042 5.55062456612e-22)
(-0.0520379337036 0.0281418472793 3.33198918021e-22)
(-0.0561386121899 0.0370877039664 7.71212515215e-22)
(-0.0560455778914 0.0324711734197 4.69330385726e-22)
(-0.0614075593595 0.0419824795863 7.40365667637e-22)
(-0.0608997611096 0.0368653955468 5.62248661893e-22)
(-0.0676220023315 0.0470676233177 4.57707350173e-22)
(-0.0666552902172 0.0413355765017 3.46688440707e-22)
(-0.0749858655373 0.0525125875507 -1.48258139944e-22)
(-0.0734526840407 0.0459588802039 -9.61030289337e-24)
(-0.0836743720702 0.0583521036972 -3.53848203817e-21)
(-0.0815004954931 0.0508001231183 -9.12592542121e-22)
(-0.0908641848363 0.0558579175695 -7.30768103325e-21)
(-0.0397012107924 0.00313944223706 -8.01806513276e-23)
(-0.0402676029599 0.00148018411342 8.46193793434e-23)
(-0.0416320479308 0.00640228924356 -4.63134252492e-22)
(-0.0423117337208 0.00451171664203 -6.46420718939e-22)
(-0.0434059684531 0.00976291290364 -1.97868683702e-22)
(-0.0442344558351 0.00761883484485 -4.11996189982e-22)
(-0.0451168827609 0.0132433889477 1.06264134725e-22)
(-0.0459596386565 0.0108114452609 -2.73100846677e-23)
(-0.0470459421201 0.0168288965037 2.42277831873e-22)
(-0.0477589805613 0.0141122658773 2.37538298322e-22)
(-0.0494203803052 0.0205285608223 2.28954621202e-22)
(-0.049918064209 0.0174858057627 2.28223266674e-22)
(-0.0523869916592 0.0243298385248 2.21205801516e-22)
(-0.0526014002597 0.0209305994912 2.05368468809e-22)
(-0.0560549047138 0.0282099264403 2.47466847135e-22)
(-0.0559211802232 0.0244330793444 2.02966700012e-22)
(-0.0605136250648 0.0321369289899 2.60366532404e-22)
(-0.0599742339139 0.0279611097076 2.21686581228e-22)
(-0.0658412183263 0.036072215593 1.68571434963e-22)
(-0.0648349026153 0.0314746006108 1.82078497183e-22)
(-0.0721543497551 0.0400110584356 -1.20629212359e-22)
(-0.0705922402017 0.0349462736924 9.58427001889e-23)
(-0.0796421792309 0.0439605204744 -7.7394470507e-22)
(-0.0773979894435 0.0383644335653 -9.34030574426e-23)
(-0.0884034134786 0.0479014369106 -4.6817915372e-21)
(-0.0854350336121 0.0416849785081 -6.23537871432e-22)
(-0.0947780233533 0.0449062538103 -7.65948427129e-21)
(-0.0427249286599 0.00279095699044 -4.81620688268e-22)
(-0.0430577364454 0.00130423676488 -1.94711528515e-22)
(-0.0447478016008 0.00566444146917 -5.95282656429e-22)
(-0.0451848663113 0.00396618225956 -6.95803246332e-22)
(-0.0466113823664 0.00861939008248 -2.41437590947e-22)
(-0.0471898258103 0.00666931622279 -3.49940482571e-22)
(-0.0484053370386 0.011636730643 1.03964078929e-22)
(-0.0489783400072 0.00941872927468 -1.16566547508e-23)
(-0.0504110758658 0.0147072735992 2.23483733123e-22)
(-0.0508317850015 0.0122292408896 2.34315097415e-22)
(-0.0528547395714 0.0178179388067 2.04637114281e-22)
(-0.0530316255141 0.0150582704703 2.04503070549e-22)
(-0.0558713200392 0.0209650740285 1.87129367304e-22)
(-0.0557515705707 0.0178952654647 1.69429250179e-22)
(-0.0595544116534 0.0241085502993 1.77186434105e-22)
(-0.0590670497268 0.0207182008963 1.57062741694e-22)
(-0.0639849015972 0.0272099393415 1.43398546008e-22)
(-0.0630768821571 0.0234901685704 1.52249555311e-22)
(-0.069245512788 0.030237015508 1.09349762409e-22)
(-0.0678618177342 0.0261684646524 9.77157562361e-23)
(-0.0754412432625 0.0331381268141 1.23068855105e-22)
(-0.073491804796 0.0287117125049 1.47416496648e-24)
(-0.0827185295538 0.0358654878665 5.70037761958e-23)
(-0.0801219253045 0.0310724803865 -1.68669964972e-22)
(-0.0912083882205 0.0384188104647 -3.60123060552e-21)
(-0.0879831560021 0.0331704643553 -8.5095676376e-22)
(-0.0971999112695 0.0349936107099 -7.72912348566e-21)
(-0.0453682609184 0.00243058610098 -4.08894086578e-22)
(-0.0474534292931 0.00491057670341 -4.50461072474e-22)
(-0.0493712891177 0.00743620914124 -1.20159546375e-22)
(-0.0512015691095 0.00998632103656 1.18694363735e-22)
(-0.0532306761286 0.0125432938334 2.15334434841e-22)
(-0.0556809538442 0.0150954509904 1.69295206446e-22)
(-0.0586772600899 0.017609182665 1.39362624568e-22)
(-0.0623020449907 0.0200626719304 1.321258629e-22)
(-0.0666293845628 0.0224054536609 1.0656676554e-22)
(-0.0654208620912 0.0191357148028 1.24903584586e-22)
(-0.071741088409 0.0245823984949 -1.01598412063e-23)
(-0.0700388368695 0.0210278437184 1.32741581017e-22)
(-0.0777448621196 0.0265518220594 -2.90264655111e-22)
(-0.0754601710046 0.0226890073488 3.67623177164e-23)
(-0.0847997517731 0.0282631487188 -1.07663050493e-21)
(-0.081830821394 0.0240367776321 -3.11439024893e-22)
(-0.0930989748084 0.0295954388018 -4.9788496439e-21)
(-0.0893116708792 0.0249400164118 -1.56289994305e-21)
(-0.098134909429 0.0253473647274 -7.31862747611e-21)
(-0.0685096437418 0.0177623773495 1.51078400064e-22)
(-0.0733973931174 0.0191347329177 1.7966373994e-22)
(-0.0791251272313 0.020161982113 1.55879479343e-23)
(-0.0858369546929 0.0207274569898 -7.97708463013e-22)
(-0.0823948534041 0.0172996254183 -1.7288778848e-22)
(-0.0937114923171 0.0206316708577 -3.90267777526e-21)
(-0.0892134098026 0.0169895492879 -1.13612716524e-21)
(-0.097229758888 0.0159925035755 -4.9267274922e-21)
(-0.0853535353921 0.0136623656129 -5.11306490703e-22)
(-0.0923379999652 0.0123016374596 -2.16017688218e-21)
(-0.094859477482 0.00807494418262 -2.49406805911e-21)
)
;

boundaryField
{
    back
    {
        type            calculated;
        value           uniform (0 0 0);
    }
    sides
    {
        type            calculated;
        value           nonuniform List<vector> 0();
    }
    bottom
    {
        type            calculated;
        value           uniform (0 0 0);
    }
    front
    {
        type            calculated;
        value           uniform (0 0 0);
    }
    atmosphere
    {
        type            calculated;
        value           nonuniform List<vector> 0();
    }
    floatingObject
    {
        type            calculated;
        value           nonuniform List<vector> 4((0 -2.22044604925e-15 2.77555756156e-16) (0 -2.22044604925e-15 2.77555756156e-16) (0 0 0) (0 -4.4408920985e-15 2.77555756156e-16));
    }
    procBoundary8to3
    {
        type            processor;
        value           nonuniform List<vector> 8((-0.00626214503927 0.00166249780622 2.80864979659e-21) (-0.00660484871093 0.00519593565255 4.91553792286e-21) (-0.0064556332273 0.00881288259699 2.26501064361e-20) (-0.0055780652839 0.0124320910697 1.08988235522e-19) (-0.00388829609512 0.0159854967012 4.59715222006e-19) (-0.0013086021649 0.0190613512204 1.78554092305e-18) (0.00637032544686 0.0231245487986 5.18114819063e-18) (0.0241035092177 0.0254335096446 1.15981531971e-17));
    }
    procBoundary8to6
    {
        type            processor;
        value           nonuniform List<vector> 
16
(
(-0.030633176182 0.05938669417 8.49435874538e-18)
(-0.0392126863845 0.0683745921524 5.5388651483e-18)
(-0.0420118291611 0.0907998337002 4.30968468075e-18)
(-0.0367201090938 0.0988165301612 3.32784991197e-18)
(-0.0458634854402 0.100825139207 1.28878810077e-18)
(-0.055773449818 0.099347935398 2.54370570546e-19)
(-0.065702781676 0.0940746497059 3.16537291403e-20)
(-0.0763729094469 0.0862737316972 -6.67190346439e-22)
(-0.0853525111447 0.076029357804 -8.57403246139e-21)
(-0.0929235359694 0.0643053651953 -1.59998492318e-20)
(-0.0977773185849 0.0518223458889 -2.34794120979e-20)
(-0.100754676542 0.0408464278695 -1.95914642316e-20)
(-0.10269431499 0.0305346441244 -1.72787146738e-20)
(-0.102723633026 0.0197292571908 -1.30040783912e-20)
(-0.100646901892 0.00993289407955 -7.2356003701e-21)
(-0.0974635643682 0.00264634048331 -2.18447437916e-21)
)
;
    }
    procBoundary8to7
    {
        type            processor;
        value           nonuniform List<vector> 
17
(
(-0.0454871119623 0.00112448783283 -2.44530335321e-22)
(-0.0476640401867 0.00340056095544 -5.13025321831e-22)
(-0.0497152960732 0.00568996052535 -2.09735155254e-22)
(-0.0515290992739 0.00799745894745 2.86963519242e-23)
(-0.0533902200949 0.0103247921739 2.08675465286e-22)
(-0.0555858630505 0.0126275892614 1.71467242942e-22)
(-0.0582676709628 0.0148868771188 1.29998539979e-22)
(-0.0615225471212 0.0170718864199 1.19649725595e-22)
(-0.0643519667417 0.0161431074373 1.12427447281e-22)
(-0.0670422409198 0.014963825067 5.79091394441e-23)
(-0.0714114628756 0.0161257418977 1.11655632826e-22)
(-0.0764870380792 0.016947129137 1.09093677521e-22)
(-0.0793566821699 0.0141610672935 -7.93820588933e-23)
(-0.081895554456 0.0112661174274 -2.58846968172e-22)
(-0.0878514173946 0.0100591026287 -1.10977891007e-21)
(-0.0899240872539 0.00577828544601 -1.44367008701e-21)
(-0.0917265019804 0.00208729360359 -2.11930206219e-21)
)
;
    }
}


// ************************************************************************* //
