/*--------------------------------*- C++ -*----------------------------------*\
| =========                 |                                                 |
| \\      /  F ield         | OpenFOAM: The Open Source CFD Toolbox           |
|  \\    /   O peration     | Version:  v2012                                 |
|   \\  /    A nd           | Website:  www.openfoam.com                      |
|    \\/     M anipulation  |                                                 |
\*---------------------------------------------------------------------------*/
FoamFile
{
    version     2.0;
    format      ascii;
    class       surfaceVectorField;
    location    "4.5";
    object      Uf;
}
// * * * * * * * * * * * * * * * * * * * * * * * * * * * * * * * * * * * * * //

dimensions      [0 1 -1 0 0 0 0];


internalField   nonuniform List<vector> 
293
(
(-0.0220274954591 -0.0139380565937 4.22072338402e-18)
(-0.0217517884452 -0.0196584205524 4.19150104436e-18)
(-0.00193744060494 -0.0192077340141 3.01727559628e-18)
(-0.00537735302915 -0.0209133168066 3.36913763541e-18)
(0.00782124574027 -0.0181971915546 2.06362283699e-18)
(0.00380095369732 -0.0232401057461 2.40431527547e-18)
(0.010751036484 -0.013928843971 1.54130416645e-18)
(0.00798381627174 -0.0179637824806 1.79658343524e-18)
(0.00892147548154 -0.00912004373316 1.30622695753e-18)
(0.00758709199173 -0.0149332712852 1.49175733606e-18)
(0.00653698094608 -0.00415031110563 1.23251554588e-18)
(0.00447331991247 -0.0101921462292 1.36676908384e-18)
(0.00259908819219 0.00167262621235 7.28309640614e-19)
(0.00269164639593 -0.00364813494474 1.35591998074e-18)
(-0.00293679158237 0.00905415788172 2.41451639752e-19)
(-0.00593936669523 -0.0218149038508 3.33991529576e-18)
(6.31491199612e-05 -0.0229354455818 3.56231313482e-18)
(7.5934840219e-05 -0.0272698947339 2.75617731461e-18)
(7.76851362669e-05 -0.025700569426 3.12770996467e-18)
(0.00371187774476 -0.0237569087702 2.13727587373e-18)
(0.000288016268823 -0.0264746274997 2.40658935855e-18)
(0.00469300482507 -0.0161808383469 1.74703660485e-18)
(0.000407778392501 -0.0195062508297 1.89911475806e-18)
(0.00286186886531 -0.00886812118935 1.55229946237e-18)
(0.000274385679326 -0.0148014204946 1.61258406485e-18)
(0.000496085252046 -0.00346016563004 1.49017351871e-18)
(-0.000934313480612 -0.00935749739643 1.50752624817e-18)
(-0.00280142305207 0.00152384082231 8.69061979878e-19)
(-0.00229193900368 -0.00301775262365 1.49473609805e-18)
(-0.00462364724187 0.00497730323025 2.21225756693e-19)
(0.00607030070536 -0.0217377897451 3.35010780374e-18)
(0.0218009699994 -0.019575011246 4.20971520465e-18)
(0.000256572839421 -0.0270479519782 2.77812200862e-18)
(0.0053878866328 -0.0206936263838 3.38592931009e-18)
(-0.00304593022583 -0.0232641735011 2.16842824289e-18)
(-0.00349572296856 -0.0226297127947 2.43252948609e-18)
(-0.00405765712535 -0.0153644896868 1.76466221806e-18)
(-0.00749188040439 -0.0167457106756 1.81501576933e-18)
(-0.00381164075345 -0.00801421421915 1.56781085065e-18)
(-0.00707588213083 -0.0135439137787 1.49701216996e-18)
(-0.00386532425161 -0.00355429350007 1.51208882751e-18)
(-0.00539400058355 -0.00908360420986 1.37954420051e-18)
(-0.00394753774903 -0.000956168467006 8.46899874864e-19)
(-0.00488986278357 -0.00307802042902 1.36623663695e-18)
(-0.00284370562159 0.000654847179111 1.7011438578e-19)
(0.0219527522876 -0.0137385188058 4.245536711e-18)
(0.00186905186001 -0.0186175168483 3.04033678756e-18)
(-0.00772076651618 -0.0169873314617 2.07911701253e-18)
(-0.00512587611502 -0.0153653572391 2.47677090826e-18)
(-0.0104691882572 -0.0123193413129 1.54736572123e-18)
(-0.0121598509544 -0.012231521975 1.56230638922e-18)
(-0.00870073747502 -0.00751590993293 1.30874551982e-18)
(-0.0118793079979 -0.012295752233 1.19591936689e-18)
(-0.00647980860023 -0.00425260561827 1.23369200996e-18)
(-0.0086570932615 -0.00970631424453 1.0577973065e-18)
(-0.00359217730042 -0.0023240005961 6.8945114787e-19)
(-0.00681837313987 -0.00381035908704 1.04698782718e-18)
(-0.000604258359779 -0.000424171898668 1.3433797718e-19)
(-0.00940653818678 -0.0112961383791 1.95996028495e-18)
(-0.00514545289359 -0.00946794663675 2.28892851601e-18)
(-0.0134854761709 -0.00972072957631 1.21086003489e-18)
(-0.0137352447547 -0.00878886597828 1.18063185724e-18)
(-0.0116800518948 -0.00765774360123 9.4497115358e-19)
(-0.0139422897609 -0.0116927363389 8.14955650407e-19)
(-0.00888630062442 -0.00517661602566 8.71093123732e-19)
(-0.0111380132591 -0.0106914997815 6.95589626494e-19)
(-0.00391035308652 -0.00328290392536 4.91874656493e-19)
(-0.00871204619403 -0.00520944381029 6.89304618212e-19)
(-0.000215597202684 -0.00143421539997 9.34482091713e-20)
(-0.00905043977183 -0.00770753896479 1.5096000883e-18)
(-0.004243610501 -0.00623608957788 1.57347473832e-18)
(-0.013840523464 -0.00834131517841 7.84727472763e-19)
(-0.0131014551058 -0.00713295368873 6.98088110438e-19)
(-0.0129816483364 -0.00818590037226 5.65574123321e-19)
(-0.0140977003052 -0.0117763904899 4.4733180691e-19)
(-0.0107568838711 -0.00683821095997 5.13801120975e-19)
(-0.0124855159243 -0.0116804445796 3.8150931883e-19)
(-0.0051061972282 -0.00548491948889 2.90878170891e-19)
(-0.0100653084008 -0.00715712163766 3.78124342078e-19)
(-0.00069528733134 -0.00464571258511 5.27774039984e-20)
(-0.00815927729886 -0.00652205669607 7.61962760454e-19)
(-0.00332222995302 -0.00541075150742 7.42252796475e-19)
(-0.0131265206542 -0.00816508508145 3.60692444584e-19)
(-0.0114584101754 -0.00724696040554 2.89084623077e-19)
(-0.0132321434291 -0.0090404141144 2.63267002419e-19)
(-0.0132223658783 -0.0125984901451 1.82681149197e-19)
(-0.0116249189957 -0.00888668560013 2.45832539932e-19)
(-0.0126390343049 -0.0128989701143 1.60329848485e-19)
(-0.00571324705527 -0.00850885478701 1.40023575185e-19)
(-0.0104431484572 -0.00903148985632 1.58981530425e-19)
(-0.000707532718131 -0.00769644455723 2.34645657499e-20)
(-0.00666720476333 -0.00706009197973 2.69374659098e-19)
(-0.00234466855209 -0.00626149973111 2.51213634218e-19)
(-0.0115526481488 -0.00919362401312 1.1107332769e-19)
(-0.00932485375123 -0.00864287138356 7.48145361084e-20)
(-0.0126208314246 -0.0103801618454 7.97439952634e-20)
(-0.0120358200748 -0.0142569719248 4.34629353403e-20)
(-0.0114738990067 -0.0104059784265 7.34788389778e-20)
(-0.0126130129107 -0.0146883736613 3.64702486218e-20)
(-0.00549548912136 -0.0103727318253 4.242252099e-20)
(-0.0104764102794 -0.0105840535919 3.65818888023e-20)
(-0.000959758719126 -0.00856517531113 6.2880928394e-21)
(-0.00495683646884 -0.00865487089845 5.66535112289e-20)
(-0.00127511910293 -0.00806403809448 5.47182502777e-20)
(-0.00986469429542 -0.0110433043827 7.20414375908e-21)
(-0.00693638500769 -0.0105677499902 -4.36827934864e-21)
(-0.0122703643097 -0.0122726862807 1.89188698643e-22)
(-0.0108064270902 -0.0164570944567 -1.70393488627e-20)
(-0.0117103356538 -0.0116329301292 -4.26701553806e-22)
(-0.0132525516918 -0.0171219579817 -2.21355143492e-20)
(-0.00598480751688 -0.0113687171265 4.47460651627e-22)
(-0.0107406587547 -0.0123656951783 -2.15154102008e-20)
(-0.00216103273888 -0.00955234656659 -2.25362045393e-21)
(-0.00323354407152 -0.0105504942699 -6.30354029986e-21)
(-0.000300836697826 -0.0105294129491 -5.17650767467e-21)
(-0.00807191616127 -0.0130905614296 -2.86117719704e-20)
(-0.00439627192586 -0.0128087543611 -3.68347337523e-20)
(-0.0121304649439 -0.0144929302627 -3.93640519105e-20)
(-0.00940404407755 -0.018995443781 -5.01840245677e-20)
(-0.0123684543675 -0.0138735510349 -4.32242229961e-20)
(-0.0138717435347 -0.0200801505679 -5.92088766517e-20)
(-0.0068646245122 -0.013586483713 -2.42164913063e-20)
(-0.0110277408765 -0.0148014379638 -5.84580732489e-20)
(-0.00328656027438 -0.0123161473329 -7.09820385736e-21)
(-0.00146587449881 -0.0131954009522 -3.57077011271e-20)
(0.000738432182076 -0.0137855333328 -2.96263738884e-20)
(-0.00592826502485 -0.0155341191542 -5.84069863496e-20)
(-0.00205750123673 -0.0158806108015 -6.84933805513e-20)
(-0.0114595850685 -0.0172835382983 -7.00288493088e-20)
(-0.00765460924361 -0.0219926742312 -8.53442617515e-20)
(-0.0126460658171 -0.0169389138668 -7.44427269044e-20)
(-0.0142161939566 -0.0231912173767 -9.84569284132e-20)
(-0.00733511282748 -0.0168496765917 -4.13397857999e-20)
(-0.0111169865876 -0.0178476621941 -9.72882988469e-20)
(-0.00441524998037 -0.0171905786873 -1.26692137408e-20)
(0.000294894539001 -0.0168229556307 -6.24120533126e-20)
(0.00215325122883 -0.0173826662579 -4.56925045637e-20)
(-0.00382731628497 -0.0188966084897 -9.54306559532e-20)
(1.6203299081e-05 -0.0194291101043 -9.404483097e-20)
(-0.010545686699 -0.0206459221088 -1.13772340856e-19)
(-0.00590527985847 -0.0251133303167 -1.19826469385e-19)
(-0.0126047018196 -0.0208572968334 -1.21302500356e-19)
(-0.0140047438082 -0.0260963370573 -1.41236851183e-19)
(-0.00802209529206 -0.021775027638 -6.86177267878e-20)
(-0.0101991757388 -0.0218466675145 -1.39287744225e-19)
(-0.00460400043032 -0.0254058498889 -1.60809619702e-20)
(0.00208586925445 -0.0202352600336 -7.73252822211e-20)
(0.00373566702193 -0.0205769754433 -5.28428920482e-20)
(-0.00184398508972 -0.0222053632853 -1.18440644401e-19)
(0.00198634931758 -0.0225695906638 -1.09963984328e-19)
(-0.00903463336548 -0.0244201843897 -1.47290979711e-19)
(-0.0036904456073 -0.0277658459078 -1.4093132493e-19)
(-0.0113372410774 -0.0264842761629 -1.59222095051e-19)
(-0.0119405858222 -0.0286265425661 -1.60427789614e-19)
(-0.00661464568567 -0.0287713769567 -8.6750979407e-20)
(-0.00791199141236 -0.0264824257788 -1.58598964166e-19)
(-0.00296274492305 -0.0341926685869 -2.24408718853e-20)
(0.00392045556763 -0.0229979945101 -8.54815941548e-20)
(0.00548663003746 -0.0232491721979 -4.83913343534e-20)
(0.000473168571296 -0.0250044462241 -1.32454664856e-19)
(0.00399283160175 -0.0253420161795 -1.0316386837e-19)
(-0.00623449862543 -0.0278980867502 -1.54068134832e-19)
(-0.000796795458252 -0.0298864998272 -1.34676601975e-19)
(-0.0084892086908 -0.0316140277781 -1.59804658729e-19)
(-0.0082245954103 -0.0305803265728 -1.5518571911e-19)
(-0.00443479571074 -0.0347626439366 -9.42888566448e-20)
(-0.00476328052044 -0.0308352146737 -1.52821605966e-19)
(-0.00149524681005 -0.0410022203733 -2.05311678646e-20)
(0.00586479033055 -0.0254827914817 -6.6073608569e-20)
(0.00748967226 -0.0258284374068 -3.7886784601e-20)
(0.0031461146329 -0.0275176390428 -1.05385805489e-19)
(0.00602770468632 -0.0282138377048 -7.85246752844e-20)
(-0.00235605889944 -0.0307793784817 -1.35794186253e-19)
(0.00246495118662 -0.0319379198509 -1.05743599914e-19)
(-0.00443403006638 -0.0356801114068 -1.48202666347e-19)
(-0.00332367252301 -0.0319566251188 -1.27798167123e-19)
(-0.00202685320521 -0.039430358969 -7.90639171857e-20)
(-0.00101307694375 -0.0339468652118 -1.25551912679e-19)
(0.000193985736773 -0.044577647577 -1.94772803841e-20)
(0.00792624117315 -0.0282449631146 -5.03378513164e-20)
(0.00994529036638 -0.0282321567656 -2.5782587427e-20)
(0.0056686919279 -0.0302768724232 -7.88824697097e-20)
(0.00805964492541 -0.0310009568938 -5.27865566416e-20)
(0.00172066233991 -0.0330858979288 -9.77475807847e-20)
(0.00527398819342 -0.0340344929104 -7.28758642911e-20)
(0.000247256805266 -0.0374976168531 -1.05147413455e-19)
(0.00108819852133 -0.0330784669384 -8.67740724475e-20)
(0.00118283237925 -0.041244664922 -6.59652758774e-20)
(0.00273396417732 -0.0357184225477 -8.59510854897e-20)
(0.000487776540186 -0.0434097321046 -1.79328117193e-20)
(0.0102774304156 -0.0305337811859 -2.82312927522e-20)
(0.0128925907852 -0.0296094901941 -1.48037890129e-20)
(0.00788328859032 -0.0326089025304 -4.6779951223e-20)
(0.0101347939106 -0.0327327023533 -2.933388319e-20)
(0.00478903968705 -0.0350287117974 -6.19023559539e-20)
(0.00769380898487 -0.0354648199308 -4.28179228212e-20)
(0.00350468872411 -0.0383687397667 -6.75777444826e-20)
(0.00442837944866 -0.0337684066423 -5.76668180743e-20)
(0.00183865082234 -0.0404571419609 -3.79186213317e-20)
(0.00482236619971 -0.0365356704506 -5.73057588234e-20)
(-0.00171870732995 -0.0434602273932 -9.81717905927e-21)
(0.0128369657637 -0.0313183569701 -1.59063794507e-20)
(0.0161621178849 -0.0293655508884 -9.59504412158e-21)
(0.00992946120226 -0.0335238118873 -2.53718547883e-20)
(0.0123402936715 -0.0327360819086 -1.9296039261e-20)
(0.00728255008893 -0.0356658282218 -3.85823849417e-20)
(0.00983584212044 -0.0356135534464 -2.66340877642e-20)
(0.0059991120281 -0.0387434373058 -4.73948324152e-20)
(0.00750611375126 -0.0338177089347 -3.90948472765e-20)
(0.00177865119096 -0.0417022343673 -2.9204316551e-20)
(0.00778119936287 -0.0366471608505 -3.91078017821e-20)
(-0.00135425743619 -0.0467772380941 -1.28451130748e-20)
(0.0155780453219 -0.0302868271251 -1.29847039318e-20)
(0.0194261959359 -0.0276886421924 -8.04097787929e-21)
(0.0121140310672 -0.0327774742891 -2.05582722369e-20)
(0.0148310034725 -0.0312076557369 -1.41326810913e-20)
(0.00999977784198 -0.0352695933606 -2.7146550099e-20)
(0.0123279835414 -0.0346521624104 -1.72771125299e-20)
(0.00925705729875 -0.0390802337899 -3.08078166434e-20)
(0.0113168715662 -0.0335719753148 -2.67211506534e-20)
(0.00458749763691 -0.0428574186833 -2.27485983058e-20)
(0.0115584397977 -0.0363635600581 -2.68569228503e-20)
(0.000983492518158 -0.0485363244773 -5.38941735286e-21)
(0.018585168266 -0.0280871648498 -9.18895503876e-21)
(0.0223883940059 -0.0253705717454 -7.01491324095e-21)
(0.0149510152803 -0.0309899609376 -1.08515213844e-20)
(0.0177338786778 -0.0289320321765 -1.10780992431e-20)
(0.0135737838104 -0.0342147427858 -1.68517130843e-20)
(0.0155527927065 -0.0331954158441 -1.0989152167e-20)
(0.0134683250287 -0.0387894582917 -2.27702568602e-20)
(0.0158917177323 -0.0331371703542 -1.99161580319e-20)
(0.00787341074289 -0.0430423431987 -9.49774189733e-21)
(0.0158113834925 -0.0355451266234 -2.01909609221e-20)
(0.00304205216478 -0.0477021087763 -4.61669804769e-21)
(0.0215571354354 -0.0256777570285 -8.90405744531e-21)
(0.0250024581408 -0.023329195055 -4.94722296244e-21)
(0.0183287250214 -0.0288778298469 -1.12157300258e-20)
(0.0209340449468 -0.0268872018698 -8.62672542174e-21)
(0.0178188749891 -0.0327897848629 -1.40535971147e-20)
(0.0194647793564 -0.0319706626737 -1.06412607391e-20)
(0.018118727678 -0.0377300570564 -1.73368620937e-20)
(0.0208321302484 -0.0326284885405 -1.885807459e-20)
(0.01090514358 -0.0418500787871 -1.53099170724e-20)
(0.0199314722151 -0.0340531153867 -1.90708635367e-20)
(0.00428378435884 -0.0443054926735 -5.34645243025e-21)
(0.024403513627 -0.0240398827317 -4.66989093887e-21)
(0.0274135028343 -0.0219600424886 -3.19161088892e-21)
(0.021950570041 -0.0273770429466 -8.05225613509e-21)
(0.0242713603938 -0.0254557137404 -5.3759942246e-21)
(0.0220889795007 -0.0313585846107 -1.54457382145e-20)
(0.0234463707123 -0.0311147518344 -1.21823261054e-20)
(0.0223934883469 -0.0354708685966 -2.0592076033e-20)
(0.0249446261128 -0.0319870872814 -2.14002514778e-20)
(0.0132021404463 -0.0389943286088 -9.1073988945e-21)
(0.0234549610223 -0.0319222163537 -2.13545725719e-20)
(0.00422492832459 -0.0399602937461 -1.53113642445e-21)
(0.0271750137522 -0.023029260948 -3.89771417466e-21)
(0.0297174550402 -0.0210540649081 -2.87032240011e-21)
(0.0254812452846 -0.0261883379288 -9.50606419488e-21)
(0.0274306219234 -0.0242599559479 -5.00681334752e-21)
(0.0258497786936 -0.0296718574314 -1.81368393687e-20)
(0.0269299691263 -0.0300713499357 -9.65344606613e-21)
(0.0257867350829 -0.0329935403923 -2.21627480167e-20)
(0.0282665511343 -0.031032098651 -1.72756540695e-20)
(0.0145343880705 -0.0360974475404 -1.37783101018e-20)
(0.0265589282326 -0.0295323948426 -1.71205799258e-20)
(0.00406086052107 -0.0384459102229 -4.23387621828e-21)
(0.0297356099288 -0.0220888996526 -3.97942157298e-21)
(0.0285422794676 -0.0248023928945 -5.15419521877e-21)
(0.0290416380822 -0.0276251845431 -8.79226076694e-21)
(0.0297528696438 -0.0290892119175 -2.91416827896e-21)
(0.0290199198421 -0.0310934338402 -1.22334859786e-20)
(0.031735043858 -0.030182115585 -9.23240104887e-21)
(0.0165415395102 -0.0350409650522 -7.57614604226e-21)
(0.030506607402 -0.0273821114662 -9.20866605635e-21)
(0.00677070720969 -0.0405728416074 -1.87658562106e-21)
(0.032132890596 -0.0263036467877 -3.35430856089e-21)
(0.0321760855896 -0.0289202615507 -2.98401459545e-22)
(0.0333771109384 -0.0297023926961 -6.20758112661e-21)
(0.0351339844735 -0.0300411438855 -5.77251267719e-21)
(0.0215021559186 -0.0354447006907 -3.50910563514e-21)
(0.036249398078 -0.0261925994984 -5.75715590927e-21)
(0.0136320143115 -0.0395470486261 -2.20655214094e-21)
(0.0349067109834 -0.0262138850676 -2.71660557584e-21)
(0.0346018740098 -0.0294457728519 2.26743062618e-21)
(0.037862670305 -0.0284904015567 -5.32208745985e-21)
(0.0374108212417 -0.0305976182015 -8.97198089946e-21)
(0.0283234296035 -0.0332473380301 -4.45460241507e-21)
(0.041007237109 -0.0263174125406 -8.84526211555e-21)
(0.0178538702848 -0.0294225964086 -6.82158246039e-21)
(0.0369878667317 -0.0269695122218 -3.98794469745e-21)
(0.0395190957315 -0.0279606475913 -1.24951555552e-20)
(0.0280120601426 -0.0272283532315 -1.12122421609e-20)
)
;

boundaryField
{
    back
    {
        type            calculated;
        value           uniform (0 0 0);
    }
    sides
    {
        type            calculated;
        value           nonuniform List<vector> 0();
    }
    bottom
    {
        type            calculated;
        value           nonuniform List<vector> 0();
    }
    front
    {
        type            calculated;
        value           uniform (0 0 0);
    }
    atmosphere
    {
        type            calculated;
        value           nonuniform List<vector> 
27
(
(-0.000686476920503 0.00613406957536 2.28716183538e-19)
(-0.00529642816188 0.00321094404013 2.54187095965e-19)
(0 -0.00273595882207 0)
(0 -0.00456333015226 0)
(0 -0.00367146374774 0)
(0 -0.00500513702151 0)
(0 -0.00849652312029 0)
(0 -0.0101204244035 0)
(0 -0.0101673660276 0)
(0 -0.0124608830657 0)
(0 -0.0157209165495 0)
(0 -0.0215862083933 0)
(0 -0.0304125647251 0)
(0 -0.0362300749771 0)
(0 -0.0411195253988 0)
(0 -0.0415383857329 0)
(0 -0.0382505839189 0)
(0 -0.0420666051468 0)
(0 -0.0451950825918 0)
(0 -0.0451008067558 0)
(0 -0.0430917029464 0)
(0 -0.038935344173 0)
(0 -0.0359332153524 0)
(0 -0.0377505877334 0)
(0 -0.0423054847551 0)
(0 -0.0374685440602 0)
(0 -0.0225774994204 0)
)
;
    }
    floatingObject
    {
        type            calculated;
        value           nonuniform List<vector> 4((0 0 0) (0 0 0) (-1.38777878078e-16 0 0) (0 0 0));
    }
    procBoundary6to3
    {
        type            processor;
        value           nonuniform List<vector> 8((-0.0356898885835 -0.0150855123444 5.80590877295e-18) (-0.0106471073534 -0.0129153521919 4.18784418906e-18) (0.0048113986417 -0.0160913062279 2.47544104751e-18) (0.0122520844752 -0.0136345634285 1.55683166564e-18) (0.0123958580057 -0.0136283533759 1.20892922647e-18) (0.0094425454734 -0.0106264792634 1.06930136771e-18) (0.00851294988866 -0.00467313766972 1.05800484114e-18) (0.00152338016244 0.00715440742989 1.69109813828e-19));
    }
    procBoundary6to7
    {
        type            processor;
        value           nonuniform List<vector> 
11
(
(0.0189933911368 -0.0270228439496 -6.02866672883e-21)
(0.0221455231498 -0.0251251361805 -5.75775433788e-21)
(0.0247501421063 -0.0230639107552 -4.55420067473e-21)
(0.0269117209402 -0.0216291188843 -2.573334881e-21)
(0.0289073277421 -0.0207256898712 -1.97545368478e-21)
(0.030843009189 -0.0200681243235 -2.00348979472e-21)
(0.0317386438204 -0.0203993022894 -2.90792483747e-21)
(0.0301443897325 -0.0232881633466 -6.13202220988e-21)
(0.0311331876392 -0.0238807776034 -3.89199527007e-21)
(0.0335637617397 -0.0237885684363 -2.43385453549e-21)
(0.0362675732317 -0.0240265991652 2.63397718718e-21)
)
;
    }
    procBoundary6to8
    {
        type            processor;
        value           nonuniform List<vector> 
16
(
(0.0355395057698 -0.0150877715436 5.8152825313e-18)
(0.0102669166258 -0.0127038137027 4.19834084908e-18)
(0.00344478454003 -0.0113157503497 3.63477496979e-18)
(0.00308837067131 -0.00680571885584 3.27636000089e-18)
(0.00204420611873 -0.00560070001465 1.93970816961e-18)
(0.00126709604584 -0.00608257261577 7.4669496978e-19)
(0.000959980153962 -0.00758539478509 2.03332175741e-19)
(0.000943704323573 -0.00957632083332 3.81022268219e-20)
(0.00126102822753 -0.01215626878 -7.35670474138e-21)
(0.00203644531657 -0.015408281226 -2.4922728256e-20)
(0.00343431351423 -0.0186529706386 -3.41379861341e-20)
(0.00514919859245 -0.0212471231824 -3.5229061331e-20)
(0.00705947828876 -0.0234798120818 -2.89644594748e-20)
(0.0093905708421 -0.0257893659219 -2.23735263634e-20)
(0.0122954226243 -0.0275864622171 -1.31443165162e-20)
(0.0156051662189 -0.0280489747385 -7.72241357993e-21)
)
;
    }
    procBoundary6to9
    {
        type            processor;
        value           nonuniform List<vector> 4((0.0375453368304 -0.0299253466101 -1.42857160222e-21) (0.0384025717861 -0.0310917573492 -1.36250066159e-20) (0.0402757656125 -0.0267016305314 -1.365025331e-20) (0.0132037427136 -0.009005601361 -1.20962102638e-20));
    }
}


// ************************************************************************* //
