/*--------------------------------*- C++ -*----------------------------------*\
| =========                 |                                                 |
| \\      /  F ield         | OpenFOAM: The Open Source CFD Toolbox           |
|  \\    /   O peration     | Version:  v2012                                 |
|   \\  /    A nd           | Website:  www.openfoam.com                      |
|    \\/     M anipulation  |                                                 |
\*---------------------------------------------------------------------------*/
FoamFile
{
    version     2.0;
    format      ascii;
    class       surfaceVectorField;
    location    "2.5";
    object      Uf_0;
}
// * * * * * * * * * * * * * * * * * * * * * * * * * * * * * * * * * * * * * //

dimensions      [0 1 -1 0 0 0 0];


internalField   nonuniform List<vector> 
304
(
(0.0225703320958 0.00808810239264 2.52437490951e-23)
(0.0215720602574 0.00706812902472 1.17213023366e-23)
(0.0225161254271 0.0101941394909 -2.53472327379e-23)
(0.0214481778748 0.00911746070647 -5.04373973568e-23)
(0.0225058323243 0.0123991636957 -5.8089343441e-24)
(0.0213766717582 0.0112647097912 -3.18218603795e-24)
(0.0225122097547 0.0147268988185 8.40038722868e-24)
(0.0213129889037 0.0135286433756 1.49903125514e-24)
(0.0225338965103 0.0172059413544 3.48751960863e-23)
(0.0212503500186 0.0159315866871 -6.24450249433e-24)
(0.0225825888882 0.019870098683 3.40914649469e-23)
(0.0211887479091 0.0185093439416 5.59547583997e-23)
(0.022675340936 0.0227500977087 -1.7785855202e-24)
(0.0211428036002 0.0212976436912 1.23564964982e-23)
(0.0211366152947 0.0243344565834 -2.71272794575e-23)
(0.0214050600562 0.00404444082696 1.40186921067e-22)
(0.0208325469258 0.00308528151679 2.978745988e-22)
(0.0207698000174 0.00602601229445 -9.77604219872e-23)
(0.0199453793965 0.0049424493356 -1.6968715656e-22)
(0.0205041405437 0.0080485657167 -6.39598441153e-23)
(0.0195492310335 0.00699728597613 -2.82255975441e-23)
(0.0203654968272 0.010143870066 -2.82723506568e-23)
(0.0193524527801 0.00902663280824 -5.8177539108e-23)
(0.0202422494064 0.0123397683496 4.12577956129e-24)
(0.0191802823461 0.0111503585775 -6.44411222422e-24)
(0.0201068043248 0.0146622701089 -1.31458584679e-23)
(0.0189900451245 0.013392888559 -2.39961108013e-24)
(0.0199568112722 0.0171453526194 1.4835059819e-23)
(0.0187670253998 0.0157791852178 -1.60420617049e-23)
(0.0197979114666 0.0198279488205 3.42197899509e-23)
(0.0185062701761 0.0183468653494 3.87427202258e-23)
(0.0196403269463 0.0227407320997 -1.29921974391e-23)
(0.0182306665717 0.0211350773162 6.80001833151e-24)
(0.0195087349833 0.0259461666085 -6.55386721737e-24)
(0.01793268254 0.0241928024983 -2.45880261575e-23)
(0.0176440390098 0.027583610822 1.36830530476e-23)
(0.0194346968136 0.00398746666709 -1.1999478828e-23)
(0.0188616840322 0.00302499240741 3.04100485455e-22)
(0.0187856912428 0.00593899794498 -1.00152332117e-22)
(0.0179936892021 0.00484075076617 -4.01714008259e-23)
(0.0184632687525 0.00792887858595 -2.24432925369e-23)
(0.0175590557644 0.00685677603608 8.057689217e-23)
(0.0182370599073 0.00998967531219 -3.63493006755e-23)
(0.0172912571915 0.00884399856232 -3.16913490783e-23)
(0.0179978299402 0.012148767795 -1.29695028656e-23)
(0.0170207611617 0.010918560298 -1.38501722457e-23)
(0.0177173545459 0.0144385586296 -5.29581431719e-24)
(0.0166999114043 0.0131113049375 -6.97179123281e-24)
(0.0173892598432 0.0168919992612 7.86559870185e-24)
(0.0163134487458 0.0154478856136 -1.24681632706e-23)
(0.017010597197 0.0195436918373 1.13229486064e-23)
(0.015854744616 0.0179638645658 1.2830311477e-23)
(0.0165819739978 0.0224438973729 -4.7958103869e-24)
(0.0153314101918 0.0207011710506 -2.16728647523e-24)
(0.0161181508457 0.0256555908195 -4.35110589248e-24)
(0.0147223330469 0.0237190113796 -7.62185575584e-24)
(0.017502607833 0.00388885450053 2.75928563457e-22)
(0.0169446292211 0.00293816508919 6.43019455739e-22)
(0.0168434772086 0.0057933329755 1.40557823462e-22)
(0.0160889832744 0.00469325768811 2.34366355162e-22)
(0.0164658665172 0.00772765093216 7.13288356285e-23)
(0.0156244048993 0.00664797908787 1.19607533025e-22)
(0.016154013632 0.00972982792018 -9.19222064863e-24)
(0.0152886790171 0.00857158537714 -1.15105460011e-23)
(0.0158020208915 0.0118283740631 -7.85246061291e-24)
(0.0149218248425 0.0105727840753 -8.46950092592e-24)
(0.0153784572334 0.014051356407 -1.41441401862e-23)
(0.0144766515907 0.0126859715839 -7.55024075901e-24)
(0.0148698783488 0.0164347150237 -7.50345049541e-24)
(0.0139300203918 0.014935552432 -8.6111081323e-25)
(0.0142666309781 0.0190123835743 -6.59923604597e-25)
(0.0132773890964 0.0173557713439 -5.76223854044e-24)
(0.0135598240739 0.02184298082 -4.99333184417e-24)
(0.0125016919791 0.0199888989987 7.69347221031e-25)
(0.0115903982941 0.0228960604729 -4.18290854694e-25)
(0.0164693113998 0.00190660469704 7.73215468204e-22)
(0.0159260563958 0.00108329926673 6.81417748242e-22)
(0.0156201495779 0.0037613654334 6.01457247444e-22)
(0.0150896637588 0.0028280697263 9.02919126778e-22)
(0.0149583453214 0.00559191053717 2.13416064725e-22)
(0.0142581423481 0.00450735984651 2.75663410902e-22)
(0.0145323999611 0.00745196036773 3.67681513954e-23)
(0.0137639821806 0.00637921142078 1.22591069413e-22)
(0.0141426655076 0.00937366686018 -1.07878262784e-23)
(0.0133665664333 0.00821830993947 -1.09006829219e-23)
(0.0136862203437 0.0113833386158 -8.16728107202e-24)
(0.012911785202 0.0101221200648 -1.20780210605e-23)
(0.0131285361537 0.0135071558827 5.73278861397e-24)
(0.012352589008 0.0121266368142 -6.39035134177e-24)
(0.0124482707101 0.0157833769417 8.80101141742e-25)
(0.0116537435957 0.0142514159327 7.4258988918e-24)
(0.0116274333276 0.0182311425476 -4.33296771482e-24)
(0.0108299041173 0.0165298697871 -4.40644244634e-24)
(0.0106491178775 0.0209157258163 5.34438821051e-24)
(0.00981790518427 0.0190052848705 1.04911804157e-23)
(0.00860849420666 0.0217302940229 1.2480471923e-23)
(0.0146218212019 0.00182697749295 8.11121406815e-22)
(0.0140988728024 0.0010495299907 4.46552865266e-22)
(0.0138117784256 0.00360160005671 5.77125290236e-22)
(0.0133147570911 0.00269566556836 8.96334328931e-22)
(0.0131521238153 0.00534664121359 1.8483841559e-22)
(0.0125127481611 0.00428599535483 1.45366479784e-22)
(0.012687393923 0.00711212480846 7.4922235096e-23)
(0.011998099154 0.00605972794869 1.26692816605e-22)
(0.0122293861684 0.00893055531571 -1.2190877704e-23)
(0.0115477306395 0.00779395148422 -8.93085595422e-24)
(0.0116792203286 0.0108245198591 -1.03010913303e-23)
(0.0110174680035 0.00957706711612 -6.4291943725e-24)
(0.0110006996339 0.012819406839 -4.69724106394e-24)
(0.0103574626221 0.0114460894927 2.46061831757e-24)
(0.0101670278188 0.0149340136652 2.13935530372e-24)
(0.0095390518861 0.0134135783327 8.42765308587e-24)
(0.00915044132794 0.0172161425395 1.04177056842e-23)
(0.0085480542966 0.015508438794 5.63371845545e-24)
(0.00792276941879 0.0196996082799 1.76272641282e-23)
(0.00733485543348 0.0177725609767 2.02928933463e-23)
(0.0128662858606 0.00173517743042 5.31765787382e-22)
(0.0123634139243 0.00101068773267 3.02275708996e-22)
(0.0120985422799 0.0034142760371 4.64575518479e-22)
(0.0116353141329 0.00254440647362 9.77309079964e-22)
(0.0114462830412 0.00505915879572 8.72208807987e-23)
(0.0108674777549 0.00403422113481 3.2684912707e-22)
(0.0109514116169 0.00671548826729 4.28397255547e-23)
(0.0103413632716 0.00569709907101 1.35125469909e-22)
(0.0104366985653 0.00841127911427 -3.16917262273e-24)
(0.00985154841323 0.00730976573588 8.593745763e-24)
(0.0098077297385 0.0101659351502 6.33251527537e-24)
(0.00926247640423 0.0089528434621 3.98931963279e-24)
(0.00902637340964 0.0120002685223 1.55855124674e-23)
(0.00852288493013 0.0106628317255 6.90731716749e-24)
(0.00806360887909 0.0139299691884 1.19220162376e-23)
(0.00760924247996 0.012446897607 1.09382308105e-23)
(0.0068835117574 0.0159923902852 1.55089061176e-23)
(0.00648561345805 0.0143241630777 -1.25533200912e-24)
(0.0112103042004 0.00163284429703 7.47819001578e-22)
(0.0107302373061 0.000966945755904 6.71379865094e-22)
(0.0104895917489 0.00320703761282 8.39582688556e-22)
(0.0100607440884 0.00237932439436 1.29312503362e-21)
(0.00985315919915 0.00474088546244 3.7475371618e-22)
(0.00933323441497 0.00376040154574 6.24776218263e-22)
(0.00933922054859 0.00627295728867 1.00879490117e-22)
(0.00880890123643 0.0053027641183 2.22370060328e-22)
(0.00878372242265 0.00783100886333 1.57522380185e-23)
(0.00829313643294 0.00678179753478 2.1437471752e-23)
(0.00809727828504 0.00942774486691 4.56412152491e-24)
(0.00766543228148 0.00827084557884 5.56590512082e-24)
(0.00723921686194 0.0110824310605 2.26003551056e-24)
(0.0068679504157 0.0098035808612 8.94271006512e-24)
(0.00617765598018 0.0128032181374 -2.23911743627e-24)
(0.00588822961311 0.0113826004146 4.94586458935e-24)
(0.00467220795076 0.0130168335019 -1.22064703396e-24)
(0.009660297567 0.00152316082201 1.21668589713e-21)
(0.00920672220908 0.00091842855766 9.71932614633e-22)
(0.00899226219806 0.00298655538014 1.07831856332e-21)
(0.00859696941616 0.00220610719117 1.62089036499e-21)
(0.00838110986801 0.00439673352552 4.72392562412e-22)
(0.00792267919092 0.00347341358679 8.96278551363e-22)
(0.00786058916417 0.00580158531392 1.42928041964e-22)
(0.00740369738442 0.00488902652587 3.17122212085e-22)
(0.00728248944059 0.00721466422791 1.12511388543e-23)
(0.00687974576004 0.00622817104586 4.54823138169e-23)
(0.00656363492438 0.00864602909491 9.94449366103e-24)
(0.00623380288423 0.00755630359096 7.36270323904e-24)
(0.00566089718225 0.0100965620507 1.16285391439e-23)
(0.00541718044387 0.00890036115643 1.13651808581e-23)
(0.00453814400998 0.0115807466291 5.96433499166e-24)
(0.00440379210526 0.0102580640831 7.73560593025e-24)
(0.0031409561909 0.0116321215 1.09630159118e-24)
(0.00822287272939 0.00140919359989 1.37613708249e-21)
(0.00779717898135 0.000865751721649 7.23041274467e-22)
(0.00761256922003 0.00275622575587 1.43885035303e-21)
(0.00724957840277 0.00202972775125 1.53201222619e-21)
(0.00703571789478 0.00404706224829 7.41008201036e-22)
(0.00663150482477 0.00318193305382 9.72061170515e-22)
(0.00652244525837 0.00531481367361 2.19676483938e-22)
(0.00613564844468 0.00446967286497 3.73724286756e-22)
(0.00594161009028 0.00657360290153 4.15938782017e-23)
(0.00562070771628 0.0056686972397 8.80643075476e-23)
(0.00521586290866 0.00782702576467 8.78339043616e-24)
(0.00498017534401 0.00683448516027 1.60170145877e-23)
(0.00430209704704 0.00907091458412 7.47224764449e-24)
(0.00417311945433 0.00798660527161 7.09261201929e-24)
(0.00316124370359 0.0103136193438 2.86757252977e-24)
(0.00316089846331 0.00911654733478 8.38879021229e-24)
(0.00175122820704 0.0115534325937 -9.89856261689e-25)
(0.00190089042885 0.0102214855328 -3.03252414228e-25)
(0.00034753415497 0.0113014867687 2.5927750174e-24)
(0.00690212477993 0.00129329390017 8.78916418163e-22)
(0.0065035602257 0.000811162729316 3.51649244651e-22)
(0.00635263692641 0.00252617445254 1.06522304367e-21)
(0.00601637698691 0.00185364261098 1.22608292999e-21)
(0.00581855390918 0.00369694633511 6.04777256235e-22)
(0.00546044632143 0.0028947550376 9.11191815226e-22)
(0.00532868689469 0.00483237725813 2.42112110365e-22)
(0.00499998243113 0.00406149211776 3.85231896968e-22)
(0.00476670518614 0.00594053236213 6.24874439336e-23)
(0.00451237295228 0.00512576445031 1.15043405285e-22)
(0.00406014494387 0.00701812860844 1.43262361708e-23)
(0.00390244534666 0.00613193743733 3.179105191e-23)
(0.00316843140253 0.00805570715306 8.00915458708e-24)
(0.00313543364341 0.00709544892022 2.16548089994e-23)
(0.0020532268952 0.00905102032071 5.21796526828e-24)
(0.00216547173664 0.00800158094827 1.77884899777e-23)
(0.00066889945984 0.00999626079607 3.27937886487e-24)
(0.00095551093568 0.00883810833232 6.48216724523e-24)
(-0.00054489906324 0.00959287663058 1.32242027828e-23)
(0.00569377518058 0.00117920085813 6.98815756478e-22)
(0.00532407100937 0.00075035407565 1.84173085038e-22)
(0.00520599755646 0.00229985509915 1.07205170154e-21)
(0.00489544732837 0.00168181781818 1.1568537135e-21)
(0.00472417760872 0.00336067209036 6.91646455959e-22)
(0.00439939646134 0.00262398334013 9.69262351627e-22)
(0.00427424744043 0.00437308475815 2.58163191887e-22)
(0.00398739572623 0.00368333622774 3.9104829941e-22)
(0.00375253582921 0.00534050815493 8.43470132615e-23)
(0.00354483749919 0.00462328609588 1.55744558635e-22)
(0.00309333654034 0.00624576768011 3.91196247386e-23)
(0.00299712658687 0.00547989864745 8.82008947667e-23)
(0.00225939798019 0.00708482160059 3.143414439e-23)
(0.00229635153483 0.00626628664717 7.12842440328e-23)
(0.00121389285289 0.0078393427256 1.90526919547e-23)
(0.00141093206117 0.00696092213399 6.27311308554e-23)
(-8.87501220358e-05 0.00849199408409 1.64269911631e-23)
(0.000302857055569 0.00754149042623 3.79435750461e-23)
(-0.00106989234909 0.0079825873192 3.69844410577e-23)
(0.00459331652848 0.00106328361849 6.42211042064e-22)
(0.00426053872203 0.000671988771903 3.81875412365e-22)
(0.00416225377915 0.00208826812842 1.05406436359e-21)
(0.00387023163727 0.0015267581204 1.36225338814e-21)
(0.0037406027094 0.00305592557833 6.68664195078e-22)
(0.00343155425381 0.0023893481985 8.34121599779e-22)
(0.00334528211564 0.00396175995817 2.88629666157e-22)
(0.00308143970557 0.00336057301666 3.66742267733e-22)
(0.00288484885531 0.00479631729513 1.5959844014e-22)
(0.00271022711593 0.00419418672672 1.51012841522e-22)
(0.00230195987724 0.0055507387941 1.20365514061e-22)
(0.00224271534857 0.00492146060081 1.93595809987e-22)
(0.00156232602968 0.00620508835342 1.02581230498e-22)
(0.00164205591019 0.00555235154899 9.71326268328e-23)
(0.000630682783863 0.00673695099245 8.16220139468e-23)
(0.000879161710701 0.00605837327 1.65374566806e-22)
(-0.000535055381844 0.00712109272769 5.85010249406e-23)
(-8.09713778898e-05 0.00640909393127 1.84882994093e-22)
(-0.00126814567923 0.0065706677814 2.73854063402e-23)
(0.00359668315835 0.000951283774976 1.10191775844e-21)
(0.00330904204097 0.000600840933002 1.03296264012e-21)
(0.00320417246271 0.00191143583246 1.14231062433e-21)
(0.00290988503121 0.00142797436019 1.98620078767e-21)
(0.00284736785432 0.00280933838106 5.32199672435e-22)
(0.00253350410368 0.00223833670628 9.21906792182e-22)
(0.00252399887686 0.0036300081777 2.29125443098e-22)
(0.00226068810126 0.00314858792376 3.41211256832e-22)
(0.00214887249508 0.00436176123176 1.85010211369e-22)
(0.00197846764769 0.0039046985066 2.32976472334e-22)
(0.00167071214386 0.00498785691133 1.70362922758e-22)
(0.0016166880897 0.00453512800149 4.46416444484e-22)
(0.00105877792035 0.00548521589077 1.59925963141e-22)
(0.00114482507646 0.00504634432152 1.53178790177e-22)
(0.000282891949543 0.0058255119987 2.68635546953e-22)
(0.000539223570921 0.00540423080964 4.92705342882e-22)
(-0.00069423748444 0.00597301735509 1.53767375493e-22)
(-0.000228049332929 0.0055696323595 4.92122419901e-22)
(0.00258814699419 0.000902060498072 1.91724566936e-21)
(0.00240678534749 0.000615474346878 9.84585723834e-22)
(0.00220960089358 0.00183332396383 1.76579695553e-21)
(0.001978450733 0.00148530573711 1.77686581544e-21)
(0.00192145859272 0.00269654998784 7.30918376579e-22)
(0.00167015658821 0.0022714652311 8.136949071e-22)
(0.00169178052124 0.0034660059997 3.45062286067e-22)
(0.00149117999174 0.00315242604296 2.85479873151e-22)
(0.00142822242301 0.00413038825758 4.94382705449e-22)
(0.00131411633214 0.00387451735837 3.90349943702e-22)
(0.00108080010202 0.00467007705477 4.29232311902e-22)
(0.00107711657003 0.00445945078153 6.8805542171e-22)
(0.000626330832787 0.00505981960581 4.85958169918e-22)
(0.000755326055346 0.00491116923351 2.19802804538e-22)
(4.47864951599e-05 0.00526375648079 7.1619221583e-22)
(0.000335740285186 0.00519114532576 7.04238353444e-22)
(-0.000197803454063 0.00525257062949 7.17933889694e-22)
(0.00178621774644 0.00102804950697 8.44205869915e-22)
(0.0013785520866 0.000794918677602 3.53470442638e-22)
(0.0014227656346 0.00199248653078 8.24763767013e-22)
(0.00101386018484 0.00178762673831 7.67408334738e-22)
(0.00121031301192 0.00285169072182 3.68256403672e-22)
(0.000810851487404 0.00253588009623 3.4698122427e-22)
(0.00107890305247 0.0036118905117 3.30767530785e-22)
(0.000730953288579 0.00338671770529 2.85357086932e-22)
(0.00092791509428 0.00426192718712 5.84022659963e-22)
(0.000664141802751 0.00410514331928 4.5382771433e-22)
(0.000713974193676 0.00478454634263 4.78625914346e-22)
(0.000554652014528 0.00469615906912 7.95843499765e-22)
(0.000422468772861 0.0051471516726 4.38082988064e-22)
(0.000393027406139 0.00515374295203 2.93833725039e-22)
(3.96264428393e-05 0.00530920804208 7.05980027309e-22)
(0.000174279260861 0.00542842148547 9.10973510213e-22)
(-0.000104426264715 0.00546507787081 9.95678039066e-22)
(0.000822918080697 0.00137846830357 2.76672907461e-22)
(0.000601955340146 0.00239226626543 2.89625791995e-22)
(0.000530956039682 0.00320308859583 2.6408190753e-22)
(0.000521209459795 0.00393405543574 4.08417270477e-22)
(0.000500156552746 0.00459825838693 6.65648554132e-22)
(0.000444453379227 0.00515301820565 6.11051310458e-22)
(0.000353297580664 0.00554632217305 7.66724247188e-22)
(0.000222020320514 0.00572094425985 1.20067152197e-21)
)
;

boundaryField
{
    back
    {
        type            calculated;
        value           uniform (0 0 0);
    }
    sides
    {
        type            calculated;
        value           uniform (0 0 0);
    }
    bottom
    {
        type            calculated;
        value           uniform (0 0 0);
    }
    front
    {
        type            calculated;
        value           uniform (0 0 0);
    }
    atmosphere
    {
        type            calculated;
        value           nonuniform List<vector> 0();
    }
    floatingObject
    {
        type            calculated;
        value           nonuniform List<vector> 0();
    }
    procBoundary10to9
    {
        type            processor;
        value           nonuniform List<vector> 
15
(
(0.0236050148151 0.00707362980278 8.98102981694e-23)
(0.0235549269738 0.00912140695704 -2.83516746669e-23)
(0.0235825823498 0.0112660618269 -8.2681356553e-24)
(0.0236416287303 0.013523001299 1.08097411299e-23)
(0.0237300297835 0.0159127229374 2.06320479726e-23)
(0.0238528849142 0.01846449986 5.48184173416e-23)
(0.0240220519371 0.0212098879486 1.57713096375e-23)
(0.0242736362391 0.0241790650936 -1.74392422394e-23)
(0.0228311901983 0.00311641174059 4.29721157945e-22)
(0.0227818027058 0.00605558432862 1.27171668662e-22)
(0.0219270804824 0.00499434946005 1.76899443382e-23)
(0.0223534561516 0.00204568624289 1.30035816595e-22)
(0.0203526035504 0.00201661669593 7.74055540128e-23)
(0.0183883627108 0.00197185480238 2.62763057273e-22)
(0.0178327179131 0.00111042720305 3.92959069738e-22)
)
;
    }
    procBoundary10to11
    {
        type            processor;
        value           nonuniform List<vector> 
23
(
(0.0228395818313 0.0258889762784 -3.14191479082e-24)
(0.0211948495155 0.0276737925483 1.74314974493e-23)
(0.0194491561081 0.0294991699449 5.75540537919e-24)
(0.0156493894162 0.0292501234916 -4.14728159025e-24)
(0.014050855408 0.0270849496458 4.24244756946e-24)
(0.0127461544299 0.0249761901969 9.716977061e-25)
(0.00949231716535 0.0238984767246 2.15058575365e-24)
(0.00644942420634 0.0224448695452 4.34725045788e-23)
(0.00586388432593 0.0202480999474 2.06299444375e-23)
(0.00544572324926 0.018223609145 2.32955736556e-23)
(0.00510385923557 0.0163307439385 1.22299806562e-23)
(0.00487295609614 0.0146164209453 -4.5342574705e-24)
(0.00315512058436 0.0131117926607 8.95238011471e-24)
(0.00158727020565 0.0130339789533 6.86622226184e-24)
(1.92302851812e-05 0.0127929292119 -1.26874814183e-23)
(-0.00104134188463 0.0108886255077 -4.16150573251e-24)
(-0.00170649106618 0.00901710215163 1.74240976827e-23)
(-0.00198481475908 0.00731959208331 6.06617509158e-23)
(-0.00191666970563 0.00588469355938 7.82921324923e-23)
(-0.00117932542905 0.00550233401543 3.12376055138e-23)
(-0.000689909061565 0.00523413587321 3.69592649922e-22)
(-0.000453406160114 0.00521650555522 5.5701781502e-22)
(4.1211566908e-05 0.0056168958659 9.41187038033e-22)
)
;
    }
}


// ************************************************************************* //
