/*--------------------------------*- C++ -*----------------------------------*\
| =========                 |                                                 |
| \\      /  F ield         | OpenFOAM: The Open Source CFD Toolbox           |
|  \\    /   O peration     | Version:  v2012                                 |
|   \\  /    A nd           | Website:  www.openfoam.com                      |
|    \\/     M anipulation  |                                                 |
\*---------------------------------------------------------------------------*/
FoamFile
{
    version     2.0;
    format      ascii;
    class       volScalarField;
    location    "0.7";
    object      ddt0(epsilon);
}
// * * * * * * * * * * * * * * * * * * * * * * * * * * * * * * * * * * * * * //

dimensions      [0 2 -4 0 0 0 0];


internalField   nonuniform List<scalar> 
166
(
-0.0839612983334
-0.0788011848617
-0.0807902370014
-0.0808480569504
-0.0807917030564
-0.0807576656741
-0.0807275393017
-0.0806931276932
-0.0806523550031
-0.0806041807933
-0.0805467622262
-0.0804719350745
-0.0803342733923
-0.0799092174637
-0.0783113859322
-0.0729569007289
-0.0588824850535
-0.032524459175
-0.00990716133828
-0.0620574762572
-0.0838399581116
-0.0787338606828
-0.0807367652389
-0.0807993889376
-0.0807433252576
-0.0807081413981
-0.0806764194649
-0.0806402113561
-0.0805975397123
-0.0805474619131
-0.0804882831318
-0.0804121583015
-0.0802745121986
-0.0798517811699
-0.0782469143929
-0.072777790368
-0.0580877739341
-0.0293705156967
0.00240930126656
-0.0272002984198
-0.0837295929787
-0.0786755635161
-0.0806922056139
-0.0807595051245
-0.080703869529
-0.0806678429497
-0.0806349303765
-0.0805974169559
-0.0805534228301
-0.0805021028764
-0.080441918584
-0.0803654427143
-0.0802295805507
-0.0798148889085
-0.0782248475771
-0.0727137288225
-0.0576042955727
-0.0273129177864
0.0095745133624
0.0125520363115
-0.083630702629
-0.0786262527677
-0.0806563726416
-0.0807281696834
-0.0806730423695
-0.0806363951052
-0.0806025914092
-0.0805641330669
-0.0805192336609
-0.0804671426384
-0.0804064805938
-0.080330301201
-0.0801974284548
-0.0797948408563
-0.078236052741
-0.0727405272821
-0.057366836382
-0.0258154652562
0.014011695273
0.0215029626855
-0.0835435350978
-0.0785857710986
-0.0806289943824
-0.0807050698373
-0.0806504796001
-0.0806133608123
-0.0805788736243
-0.0805397198094
-0.0804942015383
-0.0804416582945
-0.0803808685753
-0.0803054003199
-0.0801762749102
-0.0797885167194
-0.0782730254536
-0.0728389066018
-0.0573344423605
-0.0248111516809
0.0172063632803
0.0243487002496
-0.0834681088644
-0.07855385191
-0.0806097179596
-0.0806898225232
-0.0806357509541
-0.0805982442887
-0.0805632004535
-0.0805235059722
-0.0804775462738
-0.0804247462743
-0.0803640384963
-0.0802895179282
-0.0801645401805
-0.079793211183
-0.078329158584
-0.0729902535734
-0.0574544058345
-0.0241755212387
0.0198013118372
0.0257775823227
-0.0834042581063
-0.0785301510222
-0.0805981361603
-0.0806819872466
-0.0806283741864
-0.0805905067095
-0.0805549682465
-0.0805148079214
-0.0804684995129
-0.0804155386203
-0.0803550414826
-0.0802815260891
-0.0801608033084
-0.079806588885
-0.0783989097564
-0.0731798524549
-0.0576969140627
-0.0238440242647
0.0218518441345
0.0266606833768
-0.0833516791461
-0.0785142562299
-0.0805937629988
-0.080681085395
-0.0806278309158
-0.0805895888226
-0.0805535522109
-0.0805129463165
-0.0804662984881
-0.0804132389201
-0.0803528689173
-0.0802804104962
-0.0801637957263
-0.0798267076175
-0.0784776642662
-0.0733945525938
-0.0580263149919
-0.0237463789527
0.0234763197447
0.0273533245107
-0.0833099003598
-0.0785056801903
-0.080596112604
-0.0832783878626
-0.08325652564
-0.0832437260589
)
;

boundaryField
{
    back
    {
        type            calculated;
        value           nonuniform List<scalar> 
166
(
-0.0839612983334
-0.0788011848617
-0.0807902370014
-0.0808480569504
-0.0807917030564
-0.0807576656741
-0.0807275393017
-0.0806931276932
-0.0806523550031
-0.0806041807933
-0.0805467622262
-0.0804719350745
-0.0803342733923
-0.0799092174637
-0.0783113859322
-0.0729569007289
-0.0588824850535
-0.032524459175
-0.00990716133828
-0.0620574762572
-0.0838399581116
-0.0787338606828
-0.0807367652389
-0.0807993889376
-0.0807433252576
-0.0807081413981
-0.0806764194649
-0.0806402113561
-0.0805975397123
-0.0805474619131
-0.0804882831318
-0.0804121583015
-0.0802745121986
-0.0798517811699
-0.0782469143929
-0.072777790368
-0.0580877739341
-0.0293705156967
0.00240930126656
-0.0272002984198
-0.0837295929787
-0.0786755635161
-0.0806922056139
-0.0807595051245
-0.080703869529
-0.0806678429497
-0.0806349303765
-0.0805974169559
-0.0805534228301
-0.0805021028764
-0.080441918584
-0.0803654427143
-0.0802295805507
-0.0798148889085
-0.0782248475771
-0.0727137288225
-0.0576042955727
-0.0273129177864
0.0095745133624
0.0125520363115
-0.083630702629
-0.0786262527677
-0.0806563726416
-0.0807281696834
-0.0806730423695
-0.0806363951052
-0.0806025914092
-0.0805641330669
-0.0805192336609
-0.0804671426384
-0.0804064805938
-0.080330301201
-0.0801974284548
-0.0797948408563
-0.078236052741
-0.0727405272821
-0.057366836382
-0.0258154652562
0.014011695273
0.0215029626855
-0.0835435350978
-0.0785857710986
-0.0806289943824
-0.0807050698373
-0.0806504796001
-0.0806133608123
-0.0805788736243
-0.0805397198094
-0.0804942015383
-0.0804416582945
-0.0803808685753
-0.0803054003199
-0.0801762749102
-0.0797885167194
-0.0782730254536
-0.0728389066018
-0.0573344423604
-0.0248111516809
0.0172063632803
0.0243487002496
-0.0834681088644
-0.07855385191
-0.0806097179596
-0.0806898225232
-0.0806357509541
-0.0805982442887
-0.0805632004535
-0.0805235059722
-0.0804775462738
-0.0804247462743
-0.0803640384963
-0.0802895179282
-0.0801645401805
-0.079793211183
-0.078329158584
-0.0729902535734
-0.0574544058345
-0.0241755212387
0.0198013118372
0.0257775823227
-0.0834042581063
-0.0785301510222
-0.0805981361603
-0.0806819872466
-0.0806283741864
-0.0805905067095
-0.0805549682465
-0.0805148079214
-0.0804684995129
-0.0804155386203
-0.0803550414826
-0.0802815260891
-0.0801608033084
-0.079806588885
-0.0783989097564
-0.0731798524549
-0.0576969140627
-0.0238440242647
0.0218518441345
0.0266606833768
-0.0833516791461
-0.0785142562299
-0.0805937629988
-0.080681085395
-0.0806278309158
-0.0805895888226
-0.0805535522109
-0.0805129463165
-0.0804662984881
-0.0804132389201
-0.0803528689173
-0.0802804104962
-0.0801637957263
-0.0798267076175
-0.0784776642662
-0.0733945525938
-0.0580263149919
-0.0237463789527
0.0234763197447
0.0273533245107
-0.0833099003598
-0.0785056801903
-0.080596112604
-0.0832783878626
-0.08325652564
-0.0832437260589
)
;
    }
    sides
    {
        type            calculated;
        value           nonuniform List<scalar> 0();
    }
    bottom
    {
        type            calculated;
        value           nonuniform List<scalar> 
12
(
-0.0839612983334
-0.0838399581116
-0.0837295929787
-0.083630702629
-0.0835435350978
-0.0834681088644
-0.0834042581063
-0.0833516791461
-0.0833099003598
-0.0832783878626
-0.08325652564
-0.0832437260589
)
;
    }
    front
    {
        type            calculated;
        value           nonuniform List<scalar> 
166
(
-0.0839612983334
-0.0788011848617
-0.0807902370014
-0.0808480569504
-0.0807917030564
-0.0807576656741
-0.0807275393017
-0.0806931276932
-0.0806523550031
-0.0806041807933
-0.0805467622262
-0.0804719350745
-0.0803342733923
-0.0799092174637
-0.0783113859322
-0.0729569007289
-0.0588824850535
-0.032524459175
-0.00990716133828
-0.0620574762572
-0.0838399581116
-0.0787338606828
-0.0807367652389
-0.0807993889376
-0.0807433252576
-0.0807081413981
-0.0806764194649
-0.0806402113561
-0.0805975397123
-0.0805474619131
-0.0804882831318
-0.0804121583015
-0.0802745121986
-0.0798517811699
-0.0782469143929
-0.072777790368
-0.0580877739341
-0.0293705156967
0.00240930126656
-0.0272002984198
-0.0837295929787
-0.0786755635161
-0.0806922056139
-0.0807595051245
-0.080703869529
-0.0806678429497
-0.0806349303765
-0.0805974169559
-0.0805534228301
-0.0805021028764
-0.080441918584
-0.0803654427143
-0.0802295805507
-0.0798148889085
-0.0782248475771
-0.0727137288225
-0.0576042955727
-0.0273129177864
0.0095745133624
0.0125520363115
-0.083630702629
-0.0786262527677
-0.0806563726416
-0.0807281696834
-0.0806730423695
-0.0806363951052
-0.0806025914092
-0.0805641330669
-0.0805192336609
-0.0804671426384
-0.0804064805938
-0.080330301201
-0.0801974284548
-0.0797948408563
-0.078236052741
-0.0727405272821
-0.057366836382
-0.0258154652562
0.014011695273
0.0215029626855
-0.0835435350978
-0.0785857710986
-0.0806289943824
-0.0807050698373
-0.0806504796001
-0.0806133608123
-0.0805788736243
-0.0805397198094
-0.0804942015383
-0.0804416582945
-0.0803808685753
-0.0803054003199
-0.0801762749102
-0.0797885167194
-0.0782730254536
-0.0728389066018
-0.0573344423604
-0.0248111516809
0.0172063632803
0.0243487002496
-0.0834681088644
-0.07855385191
-0.0806097179596
-0.0806898225232
-0.0806357509541
-0.0805982442887
-0.0805632004535
-0.0805235059722
-0.0804775462738
-0.0804247462743
-0.0803640384963
-0.0802895179282
-0.0801645401805
-0.079793211183
-0.078329158584
-0.0729902535734
-0.0574544058345
-0.0241755212387
0.0198013118372
0.0257775823227
-0.0834042581063
-0.0785301510222
-0.0805981361603
-0.0806819872466
-0.0806283741864
-0.0805905067095
-0.0805549682465
-0.0805148079214
-0.0804684995129
-0.0804155386203
-0.0803550414826
-0.0802815260891
-0.0801608033084
-0.079806588885
-0.0783989097564
-0.0731798524549
-0.0576969140627
-0.0238440242647
0.0218518441345
0.0266606833768
-0.0833516791461
-0.0785142562299
-0.0805937629988
-0.080681085395
-0.0806278309158
-0.0805895888226
-0.0805535522109
-0.0805129463165
-0.0804662984881
-0.0804132389201
-0.0803528689173
-0.0802804104962
-0.0801637957263
-0.0798267076175
-0.0784776642662
-0.0733945525938
-0.0580263149919
-0.0237463789527
0.0234763197447
0.0273533245107
-0.0833099003598
-0.0785056801903
-0.080596112604
-0.0832783878626
-0.08325652564
-0.0832437260589
)
;
    }
    atmosphere
    {
        type            calculated;
        value           uniform 0;
    }
    floatingObject
    {
        type            calculated;
        value           nonuniform List<scalar> 0();
    }
    procBoundary9to6
    {
        type            processor;
        value           nonuniform List<scalar> 4(-0.0600669504891 -0.0365385957188 -0.0182237665515 -0.007288692046);
    }
    procBoundary9to7
    {
        type            processor;
        value           nonuniform List<scalar> 
16
(
-0.0840926901174
-0.0788772973414
-0.0808525663186
-0.0809055285057
-0.0808490991076
-0.0808166095695
-0.0807885987462
-0.0807566061757
-0.0807184591596
-0.0806730266511
-0.0806183417574
-0.0805460702359
-0.0804107857551
-0.0799909522687
-0.0784279545315
-0.0732782655557
)
;
    }
    procBoundary9to10
    {
        type            processor;
        value           nonuniform List<scalar> 
15
(
-0.080686590803
-0.0806335774751
-0.0805948919593
-0.0805583204689
-0.0805172140796
-0.0804702102832
-0.0804169179646
-0.0803568067735
-0.0785039585324
-0.080686590803
-0.0806046351991
-0.0785039585324
-0.0785084580234
-0.078518755281
-0.0832393044348
)
;
    }
    procBoundary9to11
    {
        type            processor;
        value           nonuniform List<scalar> 9(-0.0802851837597 -0.0801724899528 -0.0798519684133 -0.078561911057 -0.073624340999 -0.0584177239589 -0.0238358365831 0.0247536309155 0.0279498668272);
    }
}


// ************************************************************************* //
