/*--------------------------------*- C++ -*----------------------------------*\
| =========                 |                                                 |
| \\      /  F ield         | OpenFOAM: The Open Source CFD Toolbox           |
|  \\    /   O peration     | Version:  v2012                                 |
|   \\  /    A nd           | Website:  www.openfoam.com                      |
|    \\/     M anipulation  |                                                 |
\*---------------------------------------------------------------------------*/
FoamFile
{
    version     2.0;
    format      ascii;
    class       surfaceVectorField;
    location    "0.7";
    object      ddtCorrDdt0(Uf);
}
// * * * * * * * * * * * * * * * * * * * * * * * * * * * * * * * * * * * * * //

dimensions      [0 1 -2 0 0 0 0];


internalField   nonuniform List<vector> 
300
(
(-0.102110143859 0.00678838816722 -1.78209058847e-21)
(-0.103015311784 0.00314406745046 -1.83143930512e-21)
(-0.106299318993 0.0135862767545 -9.074790702e-22)
(-0.108396118176 0.00967505846453 -2.93114117775e-22)
(-0.109355736217 0.0204906997571 -5.839204711e-22)
(-0.11126846018 0.0157184962513 -4.71466300467e-22)
(-0.113143727207 0.0275951465589 -5.51535949516e-23)
(-0.114628096773 0.0222208299293 -8.39841289227e-23)
(-0.118071508356 0.0349688584121 -1.49269023708e-23)
(-0.119056601896 0.0288723938019 9.35037146193e-24)
(-0.124314871526 0.0426656499981 -3.80619139928e-23)
(-0.124752050121 0.0357701498379 -6.74476320877e-23)
(-0.132028716544 0.0507266703618 -3.0990026683e-23)
(-0.13185431168 0.0429428707705 -5.45674246678e-23)
(-0.141393718772 0.0591772998983 -8.66798371235e-23)
(-0.14051993844 0.0504126296851 -5.55457663723e-23)
(-0.152626285992 0.0680213151693 -7.62222461828e-23)
(-0.150935876905 0.0581788116504 -5.29301827027e-23)
(-0.165983247972 0.0772328045096 -1.9578986481e-23)
(-0.163323308978 0.0662144471639 -3.31588177531e-23)
(-0.181765402367 0.0867452672479 8.6781797024e-23)
(-0.177940723863 0.0744571809958 4.31211177809e-23)
(-0.200312080861 0.0964372612813 3.4300750568e-22)
(-0.195084915636 0.0827825693851 -1.93195867656e-23)
(-0.222007361121 0.106108298091 3.93063519261e-22)
(-0.215073549577 0.0910238952907 2.28818756009e-22)
(-0.247281417169 0.115430664932 6.3865690064e-22)
(-0.238259534935 0.0990371947612 2.32547125617e-22)
(-0.276283072163 0.12392230157 1.85917464861e-21)
(-0.265011145258 0.106126290937 8.44099970284e-22)
(-0.309453209978 0.130662322609 1.67338741792e-21)
(-0.294970998188 0.112198123175 1.34723493422e-21)
(-0.343560755474 0.133465111915 5.8479836828e-21)
(-0.328488637108 0.118888491458 -1.87204513287e-21)
(-0.329672390668 0.134798431199 8.43068277682e-21)
(-0.360769919814 0.0881168414599 7.04473693215e-22)
(-1.83902426568 0.101026701137 -3.6874063777e-20)
(-0.286584448759 0.0934153817298 -2.04779203148e-20)
(1.2681017256 0.0611230855564 -2.06413434576e-19)
(-0.108396053717 0.00575160416637 -3.4246283442e-22)
(-0.108771553902 0.00249295997813 -1.31317316339e-21)
(-0.112618172137 0.0114782471605 1.42898651958e-22)
(-0.114127378664 0.00810174377096 -5.94648449613e-22)
(-0.115794741426 0.017261917583 2.84700417107e-23)
(-0.117056047929 0.0130175449391 3.06983970986e-23)
(-0.119771703785 0.0231735818495 -1.94801625091e-23)
(-0.12054262262 0.0183245554203 -7.16295091555e-23)
(-0.124936414064 0.0292570500341 -4.3170358255e-23)
(-0.125141818683 0.0237200347371 -2.08326647119e-23)
(-0.131450066147 0.0355393408559 -8.39531427627e-23)
(-0.131035173596 0.0292573220327 -8.66389815571e-23)
(-0.139452351698 0.0420325626404 -7.91231643571e-23)
(-0.13834786499 0.0349378141082 -6.51066315555e-23)
(-0.149104074522 0.0487304914375 -2.17961119516e-23)
(-0.147218265826 0.0407556917043 -2.37159757055e-23)
(-0.160594774985 0.0556029177396 -9.866754273e-24)
(-0.157809351774 0.0466807698959 -1.18188688178e-23)
(-0.174145080841 0.0625880758515 2.95412865088e-23)
(-0.170310577579 0.0526552737435 -6.85074030497e-23)
(-0.190007633621 0.069582847262 -6.29802660087e-23)
(-0.184938691444 0.0585863301802 4.78669088226e-23)
(-0.208457190774 0.0764307027769 -1.33508336436e-22)
(-0.201936569788 0.0643193163698 -2.22567731282e-22)
(-0.229782287707 0.0829056154687 6.83023623658e-23)
(-0.22155197747 0.0696563902411 -9.30339560352e-25)
(-0.254292676624 0.0886768129758 4.37990195261e-22)
(-0.244032963477 0.0744860642807 5.65301998612e-23)
(-0.281957170694 0.0933178453783 3.32160255891e-22)
(-0.269652421901 0.0782259404137 2.46390235659e-22)
(-0.312499274527 0.0963241617663 -2.19819761658e-21)
(-0.297975755616 0.0799343749552 -8.25089945805e-22)
(-0.347619353645 0.0962363492128 -7.01555512246e-21)
(-0.328399418887 0.0824429514242 -7.92122061088e-21)
(-0.348302041452 0.1062343049 -2.82041293984e-20)
(-0.370766979612 0.0630353770522 -2.36502001422e-20)
(0.816009224321 0.207092136332 -1.90017291113e-19)
(-0.387468530958 0.0380914067158 -8.18916827091e-20)
(-0.291681647305 1.17274939132 -2.73759412175e-19)
(-0.113602200943 0.00466700012168 -1.56535877858e-21)
(-0.11344342307 0.00182993405104 -2.06813340303e-21)
(-0.117816616383 0.00927496085539 -7.06848704472e-22)
(-0.118740241274 0.00646819861554 -6.19558765459e-22)
(-0.121056713751 0.013897417381 -6.94011537675e-23)
(-0.121682790269 0.0102246042767 -2.32213414746e-22)
(-0.125143008761 0.0185834586375 -7.29820113582e-23)
(-0.125231999023 0.0143119734093 -1.99219339233e-22)
(-0.130440293037 0.0233536644188 -6.4301288014e-23)
(-0.129914365518 0.0184340835827 -3.76003368521e-23)
(-0.137093813731 0.0282114654112 -6.77924703499e-23)
(-0.135894514476 0.0226054424969 -7.62840410089e-23)
(-0.145226308308 0.0331444538166 -9.69944290389e-24)
(-0.143281975356 0.0268042175645 -6.82773458794e-23)
(-0.154977053292 0.0381208684289 -1.37387325717e-23)
(-0.152195900295 0.0310018502853 2.42099190221e-23)
(-0.166507634567 0.0430843151152 -7.04595175945e-23)
(-0.162774622938 0.0351451802923 -1.51463487114e-22)
(-0.180002537379 0.0479470724708 -5.01817807359e-23)
(-0.175176119501 0.0391537974155 -1.56058332222e-22)
(-0.19566840235 0.0525819571058 -1.11720556451e-22)
(-0.189577322991 0.0429143343691 1.25507474145e-22)
(-0.213722719696 0.0568131897555 -8.9989734406e-23)
(-0.20617210613 0.0462548323063 -9.7585884503e-23)
(-0.234378394009 0.0604077809839 -1.27025020649e-23)
(-0.225150667242 0.0489594289426 5.84169779406e-23)
(-0.257859517054 0.0630587528698 -1.3506975974e-22)
(-0.24668699329 0.0509400504483 1.09130019314e-22)
(-0.284113017483 0.0643935062881 -9.10859966036e-22)
(-0.270988615418 0.0517513631993 -4.48852252016e-23)
(-0.312479974971 0.0641826600863 -6.5481129401e-21)
(-0.297764886288 0.0498159778884 -1.90149100016e-21)
(-0.346097111013 0.0615706880245 -2.45558656306e-20)
(-0.325786893866 0.0467182790295 -1.33824878514e-20)
(-0.390486489064 0.0500357644029 -7.7337753453e-20)
(-0.35923236069 0.0389292663429 -4.28946702405e-20)
(-0.568936552261 0.0788157300144 -1.65633803771e-19)
(-0.416246059392 -0.0156917439222 -1.03936584242e-19)
(-0.903631968529 0.337244420801 -1.86373652909e-19)
(-0.117693170149 0.00355581889479 -1.1223333899e-21)
(-0.117004393663 0.00116509373779 -1.00782094467e-21)
(-0.121863013277 0.00702020825658 -1.44923475733e-22)
(-0.12220982356 0.00480540571832 8.74072192911e-22)
(-0.125116703795 0.0104622451749 -3.62031600212e-22)
(-0.12512944546 0.00739132678184 -1.33797647361e-21)
(-0.129241291284 0.0139113464248 -1.63837664727e-22)
(-0.128684824987 0.010254620459 -2.92781537614e-22)
(-0.134578440209 0.0173678748905 -4.95830898471e-23)
(-0.133373700165 0.0131067493267 -6.08961325489e-23)
(-0.141257124735 0.0208152130607 -7.67689165384e-23)
(-0.139343946865 0.0159282405166 -6.92852049314e-23)
(-0.149382641808 0.0242208477276 -3.43679839534e-23)
(-0.146689359918 0.0186781333008 -4.99847109103e-23)
(-0.159072512203 0.0275329856653 -1.1351483552e-22)
(-0.155509950113 0.0213098974114 6.34036157768e-23)
(-0.170460849459 0.0306758398671 -2.37062301742e-22)
(-0.165920007339 0.0237531778155 -1.86934337212e-22)
(-0.183697743297 0.0335438387547 1.96309226591e-23)
(-0.178047608745 0.0259117846705 -1.82656615439e-22)
(-0.198947598861 0.0359950845844 1.39642146093e-22)
(-0.192032980296 0.0276596839335 1.59267460999e-22)
(-0.216378278155 0.0378440912834 5.08208278436e-23)
(-0.208026077599 0.0288165895803 -9.2796066007e-23)
(-0.236142910713 0.0388566094874 1.80249499319e-22)
(-0.226167955767 0.0291568857046 1.47578191082e-22)
(-0.258393798137 0.0387374558475 1.99314553852e-22)
(-0.246571674639 0.0286068805903 2.71205667764e-22)
(-0.283061866972 0.0371071636086 -1.03551625933e-21)
(-0.269360631863 0.0268264530117 5.02794419899e-22)
(-0.309238873203 0.0335572607998 -8.73586591151e-21)
(-0.294215893035 0.0219724554074 -1.3248494356e-21)
(-0.338142220917 0.027090300109 -3.17212924614e-20)
(-0.319320000846 0.0150030908291 -1.50468943622e-20)
(-0.383659589245 0.016144756556 -6.94935010299e-20)
(-0.34828692541 0.00958421227001 -3.30824456693e-20)
(-0.687121274706 0.00531442353938 -1.24676433381e-19)
(-0.405417217215 -0.0421233777146 -1.12834775338e-19)
(-0.970383776321 0.00611413777786 -1.28087916351e-19)
(-0.120652817665 0.00243673341205 9.88584638147e-22)
(-0.119446476014 0.000507278988286 4.65603588874e-22)
(-0.124745180885 0.00475214489335 -3.1898080497e-22)
(-0.1245306191 0.00314032180261 3.51672590167e-22)
(-0.127969178243 0.00701357612872 -1.26872641102e-21)
(-0.127395703997 0.00456249333832 -1.3980408489e-21)
(-0.132070408483 0.00923346362113 -1.89840005436e-22)
(-0.130908664167 0.00621477340916 -2.90101816773e-23)
(-0.137367447214 0.0113951945875 -8.05982476333e-23)
(-0.135538507767 0.00781797215528 -4.35361522336e-23)
(-0.143973267809 0.0134656826606 -4.25009993033e-23)
(-0.141416858283 0.00932335718478 -4.69825812662e-23)
(-0.151976076438 0.0153964717461 4.778688882e-23)
(-0.148622283337 0.0106747010651 -2.2300706812e-23)
(-0.161472401885 0.0171206632059 -1.00158859153e-23)
(-0.157236485345 0.0118118053544 4.34991045413e-23)
(-0.172570401935 0.0185488351649 -1.3252865091e-22)
(-0.167351174355 0.0126521151647 -1.29341376582e-22)
(-0.18538848137 0.019564173848 -4.30200770996e-23)
(-0.179066932724 0.013089328208 -1.05780420883e-22)
(-0.200053086811 0.0200172520175 -7.31707511015e-23)
(-0.192490981402 0.0129908954848 2.20495955093e-23)
(-0.21668881413 0.0197202965214 3.96129723152e-24)
(-0.207734614794 0.0121749080532 -1.78559419544e-22)
(-0.235398591709 0.0184439677182 2.38534359527e-22)
(-0.224896927389 0.0104134613218 1.62348222578e-22)
(-0.256265890001 0.0159089858378 5.74685533811e-22)
(-0.244041127886 0.00764842049623 1.25984163789e-22)
(-0.279160665047 0.011756317886 2.13461243628e-22)
(-0.265210867891 0.00363469638148 7.31386979682e-22)
(-0.302942927875 0.00558289289427 -7.63587788626e-21)
(-0.288043960823 -0.00346339344849 -8.06276577487e-22)
(-0.32832190754 -0.00331276304627 -1.64080475701e-20)
(-0.310424737837 -0.0132822600482 -9.54070315863e-21)
(-0.368739107264 -0.0166077954835 -7.64237199772e-20)
(-0.33499191204 -0.0195041936125 -8.5536186995e-21)
(-0.669762664621 -0.0363070741202 -1.16246258308e-19)
(-0.385719163217 -0.0645239686606 -9.11206968819e-20)
(-0.919344835816 -0.0962633684075 -4.05299514091e-20)
(-0.122482666934 0.00132597279548 -1.71308459106e-22)
(-0.120777864141 -0.000135917564334 5.33636605618e-22)
(-0.126468638207 0.00250361349637 -7.27387453763e-22)
(-0.12571366452 0.00149608009044 -5.80347985988e-23)
(-0.129626178163 0.00360062241953 -1.5832461956e-22)
(-0.128497519119 0.00177616954372 8.29148158371e-24)
(-0.133651879276 0.00461512610766 1.17293671525e-22)
(-0.13192757799 0.00224523133132 1.22598279548e-22)
(-0.138841530666 0.00551686154103 -9.92048586659e-24)
(-0.13644370945 0.00263518650871 -2.9055158111e-23)
(-0.145292841961 0.00625961746192 -2.67822887749e-23)
(-0.142162375588 0.00287234662001 -7.12908053878e-23)
(-0.153077907497 0.00678278641242 -2.65884910906e-23)
(-0.14914773531 0.00288869230002 -3.46279503141e-24)
(-0.162273691165 0.00700864396961 -7.58263861255e-23)
(-0.157464897496 0.00261418799973 -4.52043803357e-23)
(-0.172964585538 0.00683899434806 -1.02593146555e-22)
(-0.16718465857 0.00195831242054 -9.4730881216e-23)
(-0.185240452796 0.00615106899466 -4.07107482739e-23)
(-0.178383300343 0.000809385201969 -9.90857310455e-23)
(-0.199194675756 0.00479354683181 -8.33390729334e-23)
(-0.1911383535 -0.000967313890755 1.99561526723e-23)
(-0.214914557503 0.00258185187258 -2.01724941973e-23)
(-0.205529736781 -0.00354997916894 -1.87402173317e-22)
(-0.232461348366 -0.000703009001339 4.97980268407e-23)
(-0.221618980793 -0.00716285497484 5.80962943656e-23)
(-0.251862737715 -0.0053192262422 2.8268560966e-22)
(-0.239430901372 -0.0118457452308 -5.93015343045e-25)
(-0.272933921589 -0.0115831478028 -2.88350841433e-22)
(-0.258951093875 -0.0177631026263 3.68700193458e-22)
(-0.29445175313 -0.0198496409462 -2.71110184986e-21)
(-0.279779871503 -0.0267133936254 -4.49234753844e-22)
(-0.316299113319 -0.0303559096826 -1.68627428801e-21)
(-0.299919307084 -0.0383002060052 -3.20700879704e-21)
(-0.350870463884 -0.0469389481421 -2.32505956041e-20)
(-0.318408573744 -0.0486263205798 -8.21810867706e-21)
(-0.624833345095 -0.067385979089 -1.54043899832e-20)
(-0.365273479066 -0.0825893974001 -3.49176576272e-20)
(-0.840853778552 -0.141050020131 2.28732391432e-20)
(-0.123199446278 0.000237388958345 6.46910266125e-22)
(-0.12102054298 -0.000758232007494 1.70606616324e-22)
(-0.127054466204 0.000302424952949 6.77644136748e-22)
(-0.125784423757 -0.000108236910221 3.30191425542e-21)
(-0.130115065914 0.000264386860741 2.89214380692e-22)
(-0.128466094335 -0.000936047795604 3.08614405326e-22)
(-0.134021919315 0.000110844764358 -2.37505500874e-23)
(-0.131779005348 -0.0016101414184 -6.8973031169e-23)
(-0.139048927785 -0.000199907300477 -9.04254776323e-23)
(-0.136136922776 -0.00238615849117 -7.69414247235e-23)
(-0.145279562479 -0.000723805980374 -4.79713116443e-23)
(-0.141641006066 -0.00335859980747 -9.52897824396e-23)
(-0.152771139514 -0.00153076850609 -2.20786842765e-23)
(-0.148343280131 -0.00460423865312 -1.387875687e-23)
(-0.161582946768 -0.00270500055532 -6.41088754262e-23)
(-0.156292782417 -0.00619968573313 -1.57086692644e-22)
(-0.171778068971 -0.00435012652775 -9.12234657065e-23)
(-0.165543019378 -0.00823973913375 -1.07142768269e-22)
(-0.183421935848 -0.00658961348886 -3.84188300993e-23)
(-0.176147281893 -0.0108384217781 -9.8299884744e-23)
(-0.196578846893 -0.0095752379629 -8.41069477112e-23)
(-0.188162017913 -0.01412823089 1.29579958469e-23)
(-0.211304278443 -0.0134804946421 -1.09133384754e-22)
(-0.20163267655 -0.0182798758804 -2.06151711267e-22)
(-0.227625561994 -0.0185122888702 7.70525218187e-24)
(-0.216596323536 -0.0235099183071 1.3604983315e-23)
(-0.24552575228 -0.024908749753 8.54215684544e-23)
(-0.233041506881 -0.0298378765296 5.80287064157e-23)
(-0.264762036404 -0.032959129046 2.07816281047e-22)
(-0.250906760294 -0.0373393866127 -2.34488050728e-22)
(-0.284102446295 -0.0430405985804 -9.45141701024e-22)
(-0.269700742012 -0.0478875191445 -1.50354559356e-21)
(-0.301663633057 -0.0555020459031 -9.73884318609e-21)
(-0.287459343528 -0.0608856512687 -1.74512101536e-21)
(-0.332421608164 -0.0708189985674 -1.98851707002e-20)
(-0.303090916139 -0.073873669025 -1.38187835994e-20)
(-0.575501391842 -0.0923846357363 3.35997149918e-21)
(-0.343708321173 -0.0999442519935 -2.36134073478e-20)
(-0.760281884923 -0.167747213651 7.30606010794e-21)
(-0.122833487614 -0.000817865213163 2.82561060562e-21)
(-0.120209946209 -0.0013546437009 -1.4683520602e-21)
(-0.126536496149 -0.00182958638173 2.932884524e-21)
(-0.124780955256 -0.00165674438764 5.01112878845e-21)
(-0.12947496443 -0.00296057812928 -4.95730065358e-23)
(-0.127341338973 -0.00354805700568 -5.48260777755e-23)
(-0.133227886174 -0.00423504980374 -1.22163905805e-22)
(-0.138048240017 -0.00570069751912 -8.18057295309e-23)
(-0.144006245628 -0.0074222844572 -6.11972276653e-23)
(-0.151146165802 -0.00947449597175 -1.48886765237e-22)
(-0.159511677656 -0.0119467475677 -2.00120585486e-22)
(-0.169147712354 -0.0149424531668 -1.14219187306e-22)
(-0.180097812504 -0.0185879180613 -4.69230587977e-23)
(-0.192402377206 -0.0230221430043 -1.09086767709e-22)
(-0.20609076517 -0.0284160641043 -8.34133431984e-23)
(-0.22116227692 -0.0349519311271 6.39284375487e-23)
(-0.237565878113 -0.0428466879077 -2.61880912767e-22)
(-0.255012529772 -0.0523452222695 -1.94584992533e-21)
(-0.272290071122 -0.0637094414527 -2.3035249079e-21)
(-0.287578861218 -0.0771183632511 -5.82506142863e-21)
(-0.313135273898 -0.0937043263666 -1.7547020247e-20)
(-0.525298112274 -0.116728157845 -1.96673187391e-20)
(-0.121424238477 -0.00183060183902 7.17166122629e-22)
(-0.118387518049 -0.00192072588693 -2.18939842905e-21)
(-0.124957585344 -0.00387258518244 2.02341818668e-21)
(-0.115603122009 -0.00245388037872 7.89156494287e-22)
(-0.111907221559 -0.00295269074744 1.60423122879e-21)
)
;

boundaryField
{
    back
    {
        type            calculated;
        value           uniform (0 0 0);
    }
    sides
    {
        type            calculated;
        value           nonuniform List<vector> 0();
    }
    bottom
    {
        type            calculated;
        value           uniform (0 0 0);
    }
    front
    {
        type            calculated;
        value           uniform (0 0 0);
    }
    atmosphere
    {
        type            calculated;
        value           nonuniform List<vector> 8((0 -3.05498068817 0) (0 1.76684175383 0) (0 0.690869601663 0) (0 0.0720889811578 0) (0 -0.0873348486246 0) (0 -0.145871303674 0) (0 -0.172955747743 0) (0 -0.191618744808 0));
    }
    floatingObject
    {
        type            calculated;
        value           nonuniform List<vector> 0();
    }
    procBoundary9to6
    {
        type            processor;
        value           nonuniform List<vector> 4((-0.325692656699 0.156539886723 -1.52216701776e-20) (-0.35943898133 0.128609706425 6.01071498769e-21) (-0.320389657639 0.127390691075 7.89022473585e-20) (-1.88788585287 -0.593247394944 5.48459846221e-20));
    }
    procBoundary9to7
    {
        type            processor;
        value           nonuniform List<vector> 
16
(
(-0.0962199174776 0.00377209457725 -2.18092592848e-21)
(-0.101591501854 0.0111532257412 -1.38622889421e-22)
(-0.104358642866 0.018269277201 -1.59511080471e-21)
(-0.107520176994 0.0259214220213 -9.73496878309e-23)
(-0.111681449128 0.0337884277297 -2.08375504347e-23)
(-0.117055516182 0.0420155410106 -4.91647599925e-24)
(-0.123794508242 0.0506631130062 -3.5929823955e-23)
(-0.132070431788 0.0597866240052 -5.22351401654e-23)
(-0.142091757072 0.0694223555238 -1.00055924758e-22)
(-0.154109614661 0.0795835768898 -7.91309889296e-24)
(-0.16842379981 0.0902508026426 1.17286523475e-22)
(-0.185387075887 0.101347289732 1.4792772795e-22)
(-0.205397013582 0.112759065263 3.37293477043e-22)
(-0.228934114639 0.124334785812 1.84312669598e-22)
(-0.256521485829 0.135429916276 3.4216046073e-22)
(-0.288236903615 0.146856423885 1.24603206291e-22)
)
;
    }
    procBoundary9to10
    {
        type            processor;
        value           nonuniform List<vector> 
15
(
(-0.130510405466 -0.00531576799939 -2.93652806236e-22)
(-0.134674743697 -0.00720181371679 -9.86077732471e-23)
(-0.139922174178 -0.00931742019926 -4.54293945539e-23)
(-0.146292562471 -0.011745872207 -2.65381251307e-23)
(-0.153822939444 -0.0145674537042 -1.32621552923e-22)
(-0.162549552933 -0.0178786987299 -8.67335368181e-23)
(-0.172510430482 -0.0217922823615 -3.27849750584e-23)
(-0.18373350605 -0.0264366859477 -1.42338241759e-23)
(-0.12274588832 -0.00313651966313 3.11807884606e-21)
(-0.127755305006 -0.00604715742554 -2.98905877476e-22)
(-0.125173624439 -0.00604039569667 -5.50223686348e-22)
(-0.119019705489 -0.00279168878504 2.11514294378e-22)
(-0.115671595401 -0.00369919259792 1.41680206696e-21)
(-0.111436737978 -0.00454832297247 2.01777989245e-21)
(-0.107363163141 -0.00341524055782 9.39903734386e-23)
)
;
    }
    procBoundary9to11
    {
        type            processor;
        value           nonuniform List<vector> 9((-0.196252201973 -0.031972232891 -1.42687554133e-22) (-0.210069734136 -0.0386033124596 8.19756441208e-23) (-0.22515604512 -0.0463315599727 1.77723858343e-22) (-0.241413388078 -0.0551307644087 -3.63607789515e-23) (-0.258340585875 -0.066988909407 -1.29887337547e-21) (-0.274050453126 -0.0815621143169 -4.12014025594e-21) (-0.286504282934 -0.0939335884259 -1.47435952591e-20) (-0.320683909582 -0.118035167841 -2.35078998507e-20) (-0.685397440642 -0.187866265581 -8.30302249748e-21));
    }
}


// ************************************************************************* //
