/*--------------------------------*- C++ -*----------------------------------*\
| =========                 |                                                 |
| \\      /  F ield         | OpenFOAM: The Open Source CFD Toolbox           |
|  \\    /   O peration     | Version:  v2012                                 |
|   \\  /    A nd           | Website:  www.openfoam.com                      |
|    \\/     M anipulation  |                                                 |
\*---------------------------------------------------------------------------*/
FoamFile
{
    version     2.0;
    format      ascii;
    class       surfaceVectorField;
    location    "0.7";
    object      Uf;
}
// * * * * * * * * * * * * * * * * * * * * * * * * * * * * * * * * * * * * * //

dimensions      [0 1 -1 0 0 0 0];


internalField   nonuniform List<vector> 
300
(
(-0.143413200287 -0.00339054259737 -3.18699051133e-22)
(-0.139725471152 -0.00242062480786 -8.26322253418e-22)
(-0.145854004409 -0.00695548603558 -6.60055129656e-23)
(-0.143268142686 -0.00523164060106 3.10696532984e-23)
(-0.147259701899 -0.0106423862267 -1.44249914667e-22)
(-0.144566805568 -0.00927277829187 -7.04336742486e-23)
(-0.148927662249 -0.0144893538437 -7.68367901892e-23)
(-0.145953504975 -0.0133193725021 -8.88235255568e-23)
(-0.15102433886 -0.0185488649371 -7.87476705126e-24)
(-0.147727779569 -0.0174774911694 -2.32042231298e-23)
(-0.153561727479 -0.0228774829692 -7.30445025723e-25)
(-0.149920483472 -0.0218705213344 -1.85141366848e-23)
(-0.156527149579 -0.0275344535496 -6.75969509608e-24)
(-0.152521802891 -0.0265570183892 -2.43327810097e-23)
(-0.159901264397 -0.0325817938328 -2.22900275273e-23)
(-0.155513670019 -0.0315932578105 -2.85351248374e-24)
(-0.163659334662 -0.0380846179523 -2.10299020382e-23)
(-0.158872716119 -0.0370401739659 -4.2026854908e-23)
(-0.167770453685 -0.0441114737671 1.91897195768e-23)
(-0.162569701562 -0.0429616632742 -2.28643236865e-23)
(-0.17219645816 -0.0507346534797 1.68475674999e-23)
(-0.16656851672 -0.0494243032789 2.89517260329e-23)
(-0.176889395018 -0.0580304317304 4.30750077276e-23)
(-0.170825028468 -0.0565001694919 -4.84031278167e-23)
(-0.181788403917 -0.0660789823093 6.86669973464e-23)
(-0.175283358232 -0.0642661775112 4.96235971815e-23)
(-0.186821283311 -0.0749651888356 1.35716331308e-22)
(-0.179873063637 -0.0727651258319 4.18492759118e-23)
(-0.191857283429 -0.0847796080057 3.71988685574e-22)
(-0.184514263446 -0.0820581288856 1.7273377011e-22)
(-0.196631863575 -0.0956141682639 -3.10821921392e-22)
(-0.189022301706 -0.0925248338645 5.39255259616e-22)
(-0.200710609987 -0.107620840342 -1.65884781917e-21)
(-0.193025781668 -0.104170982407 -9.199094267e-22)
(-0.201714077237 -0.12072417481 -1.40761070363e-21)
(-0.196070237039 -0.116563732397 -2.75151384186e-21)
(-0.200760953602 -0.132836118441 -7.08314808473e-22)
(-0.195033844597 -0.129335030328 -2.149552858e-21)
(-0.201420269377 -0.123576056863 -2.9610465512e-21)
(-0.139695732906 -0.00383246255655 -4.76553548987e-22)
(-0.135892996223 -0.00265434712948 -8.93266849877e-22)
(-0.141992354225 -0.00784112591091 2.66414920154e-23)
(-0.139259466689 -0.00585930330956 2.22641584532e-22)
(-0.143260506243 -0.0119671885368 -1.5007285138e-23)
(-0.140440731493 -0.0103150618499 1.9988063951e-23)
(-0.144747053971 -0.0162456110376 -3.51909584973e-23)
(-0.141675072967 -0.0147767143133 -3.40025982657e-23)
(-0.146609552551 -0.0207258171757 -3.38435927633e-23)
(-0.143247566125 -0.0193365536966 -1.72868298576e-23)
(-0.148856944937 -0.0254607721757 -4.21164726687e-23)
(-0.145185523305 -0.0241174886574 -2.84700565627e-23)
(-0.15147419537 -0.0305055083413 -2.04265983973e-23)
(-0.147477063394 -0.0291745330056 -2.68798303488e-23)
(-0.154439464077 -0.0359171180318 -2.25903398644e-23)
(-0.150102058312 -0.0345593097729 -1.6145403108e-23)
(-0.157725278611 -0.04175492013 -4.38612765563e-23)
(-0.153034912703 -0.0403272808318 -1.68391790025e-23)
(-0.161297786915 -0.0480805855246 -1.31023172305e-23)
(-0.156244034968 -0.0465359410916 -1.78417518098e-23)
(-0.165115742827 -0.0549581935429 -3.62989692837e-23)
(-0.159690907299 -0.0532442851669 8.36978506073e-24)
(-0.169128235302 -0.0624541504939 -4.18545383628e-23)
(-0.163329069975 -0.0605152357953 -6.48722278952e-23)
(-0.173271421791 -0.0706366219009 2.2805875747e-23)
(-0.167100885642 -0.0684154495024 8.12779993387e-24)
(-0.177469301248 -0.0795754603974 7.88667147139e-23)
(-0.170934225108 -0.0769759025153 3.4430115184e-23)
(-0.181590301391 -0.0893433637934 3.40000344152e-22)
(-0.174746362245 -0.0862301796941 3.67387541138e-23)
(-0.185344841765 -0.100007016963 -6.98322456914e-23)
(-0.178358652469 -0.0965594656942 2.91243796373e-22)
(-0.188337818606 -0.111676527934 -2.01257544939e-21)
(-0.181356274218 -0.108045325007 -6.89478229593e-22)
(-0.189324193669 -0.124418351599 -3.49345599623e-21)
(-0.183328414612 -0.119310813633 -4.5140728248e-21)
(-0.198609395037 -0.13612685677 -4.40228460072e-21)
(-0.183325325768 -0.130845528616 -1.13647184581e-20)
(-0.230184212192 -0.125390995193 -9.44426131546e-21)
(-0.135561735657 -0.00422603918486 -1.94071716358e-22)
(-0.131666944395 -0.0028589622475 -6.534549154e-22)
(-0.137715906091 -0.00862884781278 2.15988156467e-22)
(-0.134856644899 -0.00641741317644 2.73943657997e-22)
(-0.138853194486 -0.013143509611 9.9275082332e-25)
(-0.135926057466 -0.0112383100896 -4.28864168022e-23)
(-0.140168263314 -0.017801661482 -1.60984696259e-23)
(-0.13701691056 -0.0160645418141 -6.08195688953e-23)
(-0.141809992186 -0.0226493718789 -1.1913293657e-23)
(-0.13839984716 -0.0209753147945 -2.11507573697e-23)
(-0.14378481939 -0.0277357607107 -1.32334142428e-23)
(-0.140099127861 -0.0260920547837 -1.46264015253e-23)
(-0.146075993069 -0.0331114311443 -2.25986350594e-23)
(-0.142101388104 -0.0314659787955 -2.4348895502e-23)
(-0.148659939753 -0.0388283642836 -1.0394242246e-23)
(-0.144385121653 -0.0371439287727 -7.842184319e-24)
(-0.151507383693 -0.0449399435992 9.18034574398e-24)
(-0.146923330729 -0.0431758124139 -1.97378298363e-23)
(-0.15458267113 -0.0515009091161 3.63035048138e-24)
(-0.149683067141 -0.0496127251241 -2.03012985679e-23)
(-0.157842880074 -0.0585672010679 -2.02034735508e-23)
(-0.152624613112 -0.0565062242449 1.21241272833e-23)
(-0.161235903885 -0.0661956216252 -1.48898895986e-23)
(-0.155700647236 -0.06391038042 -4.11878600184e-23)
(-0.164697351283 -0.0744428963931 1.97520393709e-23)
(-0.158853609133 -0.0718820883082 1.10541620666e-23)
(-0.168150412665 -0.0833647264562 -7.69784541611e-24)
(-0.162012394326 -0.0804425036785 3.34971479434e-23)
(-0.171466793365 -0.0930165192986 -1.20177936652e-23)
(-0.165094570349 -0.0896009125411 6.53048001996e-24)
(-0.174346658965 -0.103443298517 -3.28402187528e-22)
(-0.167931875538 -0.0997213020004 7.30848685004e-24)
(-0.176352970099 -0.114703760711 -3.190975605e-21)
(-0.170095813986 -0.110992594655 -1.51922440768e-21)
(-0.177247185749 -0.126987172771 -1.23853352867e-20)
(-0.171045003461 -0.121389555655 -8.16714836665e-21)
(-0.214157835574 -0.139004859426 -1.64066951728e-20)
(-0.171307643786 -0.131381943055 -1.89199526601e-20)
(-0.249381411036 -0.147196162334 -1.04636398362e-20)
(-0.131058609733 -0.00457394711633 -1.85439541045e-22)
(-0.127092983785 -0.00303664776753 -6.55087137377e-22)
(-0.133073091253 -0.009324144847 1.50690847282e-23)
(-0.130106433039 -0.00690995074613 3.63517303662e-22)
(-0.134087091279 -0.0141799970904 -1.04698736521e-22)
(-0.131070191876 -0.0120498190154 -2.44301336717e-22)
(-0.135241707913 -0.0191696729969 -6.58718566391e-23)
(-0.132027222879 -0.0171937245395 -1.24593510388e-22)
(-0.136677399309 -0.0243356594223 -2.3863865238e-23)
(-0.133233850803 -0.0224084638339 -3.16754525093e-23)
(-0.138398599599 -0.0297230632289 -2.57418827846e-23)
(-0.134711715959 -0.0278131921323 -2.4433902252e-23)
(-0.140387434717 -0.0353779510586 -9.59244476164e-24)
(-0.136446493936 -0.0334551778257 -3.09254956015e-23)
(-0.142619302998 -0.0413471486928 -1.71857719093e-23)
(-0.138415919059 -0.039376467756 2.40169715793e-23)
(-0.145063972487 -0.0476781488913 -4.92194741482e-23)
(-0.140592326637 -0.0456214801691 -4.26113410652e-23)
(-0.147685004745 -0.0544189326804 -1.18075217659e-23)
(-0.142942279991 -0.0522350918287 -3.8106881733e-23)
(-0.150439014488 -0.0616176558531 -8.86025918433e-24)
(-0.145425886915 -0.0592617739736 3.17808283768e-23)
(-0.153274140151 -0.0693221524397 -1.52438083532e-23)
(-0.14799614779 -0.0667473124767 -3.53850844428e-23)
(-0.15612733429 -0.0775788564091 2.47992706391e-23)
(-0.150596902837 -0.0747396315046 2.4669245096e-23)
(-0.158923210941 -0.0864314185388 4.77254733795e-23)
(-0.153159830769 -0.0832518942051 4.48542260464e-23)
(-0.161538223892 -0.0959217834815 2.58567605352e-23)
(-0.15560420541 -0.0922739453146 7.72632477737e-23)
(-0.163675591082 -0.10608421359 -1.1835137333e-21)
(-0.15776944645 -0.102143547903 5.48740030066e-23)
(-0.164831289987 -0.116943941667 -6.49539716932e-21)
(-0.159236087101 -0.113142501719 -2.72999213185e-21)
(-0.164988438286 -0.12862954999 -1.47017657401e-20)
(-0.159359395515 -0.122970764261 -1.16003164324e-20)
(-0.202198584098 -0.141144957388 -1.29768973235e-20)
(-0.158792234329 -0.131074493118 -1.92803612687e-20)
(-0.22956282521 -0.161575632376 -6.30704540559e-21)
(-0.126230879399 -0.00487917122783 -1.0613029267e-22)
(-0.12221379817 -0.00318963235442 -6.70575002624e-22)
(-0.128109234493 -0.00993313565903 1.04146882216e-22)
(-0.125052453516 -0.00734131816161 4.75983778906e-23)
(-0.129008104898 -0.0150861382454 -2.64196110585e-22)
(-0.125917174889 -0.0127575047001 -3.61795796955e-22)
(-0.130014016328 -0.020362805228 -9.03971062581e-23)
(-0.126750543079 -0.0181758794951 -1.57059186728e-22)
(-0.131259268803 -0.0258019103689 -3.22454895233e-23)
(-0.127794734615 -0.0236515368127 -2.43905032951e-23)
(-0.132746732418 -0.0314444705669 -2.96175150689e-23)
(-0.12906914646 -0.0293007737379 -2.442028604e-23)
(-0.134457936688 -0.0373320106605 2.68392073953e-24)
(-0.130558946283 -0.0351668558118 -2.01333857734e-23)
(-0.136367875149 -0.0435062778618 -1.40859757657e-24)
(-0.132241645759 -0.0412871204687 1.48676736906e-23)
(-0.138446093742 -0.0500090568206 -3.14987486501e-23)
(-0.134089542825 -0.0477006768139 -2.33166849479e-23)
(-0.140656224904 -0.0568818911752 5.48146840973e-24)
(-0.136069441515 -0.054446484583 -2.02567208263e-23)
(-0.142955403034 -0.0641656690427 5.25600311836e-24)
(-0.138142105433 -0.0615624020993 2.2938910905e-23)
(-0.145293090615 -0.0719000365084 4.52796900645e-24)
(-0.14026177693 -0.0690866294216 -2.55939180288e-23)
(-0.147608794016 -0.0801223096906 4.47242005033e-23)
(-0.14237462677 -0.0770589806026 2.74628810408e-23)
(-0.14982989407 -0.0888660501938 7.43920004406e-23)
(-0.144416088083 -0.0854858926465 1.89958920785e-23)
(-0.151837760265 -0.0981619220873 1.06280490245e-22)
(-0.146308332598 -0.094342068373 8.10394952178e-23)
(-0.153347822488 -0.108033137253 -1.49160439555e-21)
(-0.147898231213 -0.103938546551 1.79104500932e-22)
(-0.153820422699 -0.118475714059 -7.83491139489e-21)
(-0.148793510665 -0.114621827695 -2.19023210981e-21)
(-0.153157507857 -0.12954628531 -1.6178911961e-20)
(-0.14828882434 -0.124021489404 -8.09098392359e-21)
(-0.184601177233 -0.141532384991 -1.26105093508e-20)
(-0.146806133608 -0.130344414095 -1.02187119424e-20)
(-0.205758397283 -0.162517529367 -3.50404637396e-21)
(-0.121119930489 -0.00514487170377 -5.16846332063e-22)
(-0.117068911375 -0.00332014664376 -4.55824400145e-22)
(-0.122866328158 -0.0104623097587 -4.1834430128e-22)
(-0.119734999702 -0.00771617230935 -1.57648814148e-22)
(-0.123658569444 -0.015871936211 -2.54658873098e-22)
(-0.120507533509 -0.0133696396128 -6.98913855693e-23)
(-0.124527922553 -0.0213948282254 -9.10525837647e-23)
(-0.121227635921 -0.019023045182 -1.14057583727e-22)
(-0.125598788189 -0.0270660066107 -1.65652998118e-23)
(-0.122123542801 -0.02472052217 -5.99528280195e-24)
(-0.1268728526 -0.0329224121368 -1.49361567445e-23)
(-0.123212729038 -0.0305750998119 -1.82302264564e-23)
(-0.1283314994 -0.039001111187 -7.94963282238e-24)
(-0.124480237669 -0.036626074048 -1.33478112943e-23)
(-0.129949846499 -0.0453389422032 -7.04041368081e-24)
(-0.125903806761 -0.0429062383909 1.49403697724e-24)
(-0.131697828122 -0.0519722609105 -1.20746571241e-23)
(-0.127456218373 -0.0494496544064 -8.84401691322e-24)
(-0.13353984287 -0.058936590819 -2.79927833104e-24)
(-0.129105107061 -0.0562897465177 -1.29002936977e-23)
(-0.135434313086 -0.0662661562982 -7.91101024224e-24)
(-0.130812537516 -0.0634582973152 6.73709917448e-24)
(-0.137332811539 -0.073993243091 -2.65900599446e-24)
(-0.132534685687 -0.0709866647401 -2.50935369521e-23)
(-0.139178184022 -0.0821471725182 1.73457261609e-24)
(-0.134220692995 -0.0789074241777 7.85982815852e-24)
(-0.140901693561 -0.0907529137747 2.56433868558e-23)
(-0.135810342958 -0.0872213875199 -1.00452812011e-23)
(-0.142390448005 -0.0998310345406 1.53863505905e-22)
(-0.137230209144 -0.0958912484509 4.67455810032e-23)
(-0.143378002108 -0.109394471463 -5.19523213327e-22)
(-0.138334792435 -0.105205321411 2.1691488848e-22)
(-0.14331267758 -0.119427921125 -2.44630463851e-21)
(-0.138760060033 -0.115553923415 -1.04258497765e-21)
(-0.14193683731 -0.129953115975 -2.13078390498e-21)
(-0.137763629007 -0.124558667296 -2.83386873523e-21)
(-0.167210415712 -0.141266719514 -1.11224896552e-21)
(-0.135492529328 -0.129399882386 1.54799359157e-21)
(-0.183233345182 -0.160708709139 3.08359819469e-22)
(-0.115763865765 -0.0053743118394 -9.66268822301e-23)
(-0.111694584135 -0.00343039180768 -3.73096655129e-22)
(-0.117382912658 -0.0109183538897 1.90804101563e-22)
(-0.114190940487 -0.00803929514407 4.13267835144e-22)
(-0.118077167224 -0.016547647993 7.07099038022e-23)
(-0.114878217319 -0.0138946380367 1.29584650982e-22)
(-0.118822232886 -0.0222797866078 -2.90002827638e-23)
(-0.115495478744 -0.0197474002704 -7.60343860979e-23)
(-0.119734860087 -0.0281460767984 -7.66020944661e-24)
(-0.116257234873 -0.0256315149174 -1.0712788516e-23)
(-0.120815872889 -0.0341794724364 -1.66418810063e-23)
(-0.117179319526 -0.0316564824165 -1.5238903784e-23)
(-0.122046883407 -0.0404127326715 -3.90414149468e-24)
(-0.118246964416 -0.0378577338685 -1.0814365327e-23)
(-0.123403567174 -0.0468780301729 -3.09566255166e-25)
(-0.119438501045 -0.0442637447811 -1.07800365615e-23)
(-0.124856740358 -0.053606630548 -9.66965348679e-24)
(-0.120727611046 -0.0509038482192 -2.07554835074e-23)
(-0.126372108696 -0.0606285294734 -3.36391619218e-24)
(-0.122083206975 -0.0578063555607 -1.22126876507e-23)
(-0.127909955023 -0.0679718941753 -1.04454275353e-23)
(-0.123469165049 -0.0649975507446 3.81641472213e-24)
(-0.129424520584 -0.0756625008409 -1.45747027991e-23)
(-0.124844076706 -0.0725027091508 -2.47846332205e-23)
(-0.130862505467 -0.0837227485524 -3.92002565868e-24)
(-0.126160439639 -0.0803480161907 2.988749589e-24)
(-0.132159844946 -0.0921702771891 1.10569129464e-23)
(-0.127362809838 -0.0885297466361 1.08366046307e-23)
(-0.133209974871 -0.101017533793 1.09796963578e-22)
(-0.128382946772 -0.0970008763704 -1.53658975376e-23)
(-0.133764610747 -0.110268715211 -3.0614687584e-22)
(-0.129083608158 -0.106030984415 -1.26037534558e-22)
(-0.133276775608 -0.119899482288 -1.43014907437e-21)
(-0.129129289857 -0.116049866712 -3.64887418013e-22)
(-0.131343197767 -0.129858997477 8.44908761318e-22)
(-0.127804113734 -0.124628278564 -1.47497773557e-21)
(-0.151114277191 -0.140498805905 2.96860237656e-21)
(-0.124852719871 -0.128300506389 1.40965557625e-22)
(-0.162922355244 -0.158101408916 7.71540024041e-22)
(-0.110197450759 -0.00557077739787 1.36798062245e-22)
(-0.106123785616 -0.0035225035614 -3.87403648078e-22)
(-0.11169403753 -0.0113079784428 3.52048384563e-22)
(-0.108453712869 -0.00831548457786 6.35583030569e-22)
(-0.112298913748 -0.017123558138 -1.71596389177e-23)
(-0.109062616034 -0.0143408871694 2.46467542611e-23)
(-0.112931855006 -0.023031716861 -5.77468918501e-23)
(-0.11370219217 -0.0290601505693 -1.82914828534e-23)
(-0.114610148262 -0.0352379670468 -9.41138810477e-24)
(-0.115637868033 -0.0415938386145 -1.76902603938e-23)
(-0.116761927896 -0.0481555510946 -3.12259538137e-23)
(-0.117954407201 -0.0549496900704 -2.32985176712e-23)
(-0.119182722065 -0.0620011620287 -5.03235673635e-24)
(-0.120409418696 -0.0693328117439 -1.0522790963e-23)
(-0.121591772448 -0.0769647032501 -7.22118083242e-24)
(-0.122680636511 -0.0849132673038 1.77453798784e-23)
(-0.123617065423 -0.0931900626564 -1.55862058532e-23)
(-0.124301721829 -0.101801010283 -2.51200395673e-22)
(-0.12450518638 -0.110742400309 -1.84778076731e-22)
(-0.123714680745 -0.11998334823 -4.09716079212e-22)
(-0.121336469411 -0.129451271779 -2.17892093926e-21)
(-0.136421940487 -0.139461559029 -2.0560967949e-21)
(-0.104452121676 -0.00573750593962 1.11381320245e-22)
(-0.100386254399 -0.00359855165175 -4.38343881676e-22)
(-0.105831290574 -0.0116378301971 3.08181400266e-22)
(-0.0945085300388 -0.00366048062751 -1.19600925733e-22)
(-0.0885141917391 -0.00371013953015 -1.36534613903e-22)
)
;

boundaryField
{
    back
    {
        type            calculated;
        value           uniform (0 0 0);
    }
    sides
    {
        type            calculated;
        value           nonuniform List<vector> 0();
    }
    bottom
    {
        type            calculated;
        value           uniform (0 0 0);
    }
    front
    {
        type            calculated;
        value           uniform (0 0 0);
    }
    atmosphere
    {
        type            calculated;
        value           nonuniform List<vector> 8((0 -0.131018928771 0) (0 -0.107362943501 0) (0 -0.119807611803 0) (0 -0.160963578145 0) (0 -0.165336815668 0) (0 -0.163791773997 0) (0 -0.160809794805 0) (0 -0.157571198758 0));
    }
    floatingObject
    {
        type            calculated;
        value           nonuniform List<vector> 0();
    }
    procBoundary9to6
    {
        type            processor;
        value           nonuniform List<vector> 4((-0.205032442135 -0.0992232028526 -1.73182291709e-21) (-0.209173566821 -0.112788291206 -6.64141765973e-21) (-0.207145755228 -0.126984741053 -9.12958551099e-21) (-0.199603096322 -0.131382509038 -9.03550155912e-21));
    }
    procBoundary9to7
    {
        type            processor;
        value           nonuniform List<vector> 
16
(
(-0.143116034852 -0.00215566101916 -5.6566646337e-22)
(-0.14683310685 -0.00453098351512 1.54420515916e-22)
(-0.148253723958 -0.00810502657172 -2.5553036732e-22)
(-0.149800487146 -0.0116826933388 -2.05003836793e-22)
(-0.151787301229 -0.015384669368 -4.1361998158e-23)
(-0.154249108271 -0.019333581811 -1.84827936021e-23)
(-0.157178777046 -0.0235911536045 -2.57398929305e-23)
(-0.160561011647 -0.0282180421715 2.08951776748e-24)
(-0.164375540519 -0.033280395325 -5.32704053214e-23)
(-0.168596557676 -0.0388482925388 -2.72839493891e-23)
(-0.1731916974 -0.0449957617839 4.26391206536e-23)
(-0.178120808206 -0.0518039569383 -2.77393385107e-23)
(-0.183331909841 -0.0593601207822 7.30777830421e-23)
(-0.188759269037 -0.0677203702977 1.90529694247e-23)
(-0.194328675554 -0.0769726625512 2.38813009097e-22)
(-0.199856851014 -0.0874741978511 3.83978392337e-22)
)
;
    }
    procBoundary9to10
    {
        type            processor;
        value           nonuniform List<vector> 
15
(
(-0.109587296724 -0.0203610303275 -1.08148138902e-22)
(-0.110228783597 -0.0264004185953 -2.46296185156e-23)
(-0.111001486215 -0.0325648853695 -6.39301744084e-24)
(-0.111891081399 -0.038886156163 -4.46398179847e-24)
(-0.112876778194 -0.0453886546595 -1.59396349933e-23)
(-0.113933468301 -0.0520973375056 -2.56490533607e-23)
(-0.115031725905 -0.0590358717379 -4.91527190314e-24)
(-0.116137518623 -0.0662256216323 3.80149006239e-24)
(-0.102553367602 -0.00854948350211 6.86554955324e-22)
(-0.106355232995 -0.0176098127379 -6.63417457234e-23)
(-0.103090609772 -0.0147165981756 -1.21512833236e-22)
(-0.0985560569406 -0.00587770381662 1.36829753403e-22)
(-0.0925342918931 -0.00599433621389 1.16128493384e-23)
(-0.0864088246678 -0.00609038554834 4.44089218956e-23)
(-0.0824237973104 -0.00374927852568 -5.17978291048e-23)
)
;
    }
    procBoundary9to11
    {
        type            processor;
        value           nonuniform List<vector> 9((-0.11721217511 -0.0736864981666 -1.3467748522e-23) (-0.118211871228 -0.0814391102458 7.50033555192e-24) (-0.119086006856 -0.0894762257584 2.66968515982e-23) (-0.119771994445 -0.0977433784112 -8.45872479012e-24) (-0.120142212359 -0.106492722293 -9.86601383142e-23) (-0.119888340297 -0.116197134329 -2.15624657034e-22) (-0.118336189469 -0.124333801225 -1.59595592634e-21) (-0.114842432937 -0.12710899601 -3.83784880503e-21) (-0.14481271224 -0.155282898725 -5.72544321388e-22));
    }
}


// ************************************************************************* //
