/*--------------------------------*- C++ -*----------------------------------*\
| =========                 |                                                 |
| \\      /  F ield         | OpenFOAM: The Open Source CFD Toolbox           |
|  \\    /   O peration     | Version:  v2012                                 |
|   \\  /    A nd           | Website:  www.openfoam.com                      |
|    \\/     M anipulation  |                                                 |
\*---------------------------------------------------------------------------*/
FoamFile
{
    version     2.0;
    format      ascii;
    class       volScalarField;
    location    "2.8";
    object      ddt0(k);
}
// * * * * * * * * * * * * * * * * * * * * * * * * * * * * * * * * * * * * * //

dimensions      [0 2 -3 0 0 0 0];


internalField   nonuniform List<scalar> 
164
(
-0.00302572239508
-0.00305197642468
-0.00308078821124
-0.0031121307022
-0.00314358241496
-0.00317019859952
-0.00319824489409
-0.00325254505196
-0.00334972915932
-0.00520515404257
-0.00422767488127
0.0121908620653
0.0127124542025
-0.0022330676159
-0.00270718670425
-0.00285274083751
-0.00291192497855
-0.00296683305017
-0.00299049180057
-0.00301641929908
-0.00304463482849
-0.00307590783128
-0.0031110749322
-0.0031464762948
-0.00317371040873
-0.00320214927405
-0.00335100001864
-0.00341244423163
-0.00436965934573
0.00151554128652
0.0170433130624
0.0133351846086
-0.0022146769818
-0.00268744965072
-0.0028334902357
-0.0028941534534
-0.00292690418036
-0.00295249259403
-0.00297816414153
-0.00300602720252
-0.0030356312877
-0.00306980390456
-0.00311078235285
-0.00315180992771
-0.00317925572409
-0.00323273590778
-0.00358468193674
-0.00457295527575
-0.00534852961974
0.00244313338847
0.0148192717835
0.0130414032736
-0.0021953435567
-0.00266738482428
-0.00281397429973
-0.00287593923812
-0.00291002770802
-0.00293689128006
-0.00296348215587
-0.00299150865865
-0.00301956112517
-0.00305698044058
-0.00310464607482
-0.00314999926597
-0.00316374117229
-0.00327434576813
-0.00394872784662
-0.00696153062662
-0.00950397649703
-0.00872726291304
-0.00577278786811
0.000993732935877
-0.00217568031879
-0.00264763182594
-0.00279497122097
-0.00285779555553
-0.00289240933344
-0.00291858277211
-0.00294337880433
-0.00296684489954
-0.00298272448843
-0.0030247863245
-0.00307931298167
-0.0031171718829
-0.00312153843122
-0.00338231597955
-0.00454132267525
-0.00903073931985
-0.020057786581
-0.0337359357795
-0.0463840493768
-0.0243847751461
-0.0021563239922
-0.00262883992005
-0.00277734933405
-0.0028407641242
-0.00287402837392
-0.00289472741581
-0.00291180599134
-0.002924224983
-0.00286113739781
-0.00289941955018
-0.00294247444036
-0.00301624826002
-0.00305036166414
-0.00362073131091
-0.00556572418395
-0.0118874791806
-0.0262327015502
-0.0467658431949
-0.0826380675015
-0.215110817925
-0.00213762998525
-0.00261186621217
-0.00276151110941
-0.00282371987084
-0.00284924103585
-0.00282911857796
-0.00271311341397
-0.00256250242497
-0.00246224902018
-0.00247837535298
-0.0026905629996
-0.00326738805294
-0.00293067127397
-0.00358120781905
-0.00554649331958
-0.0130462495106
-0.0299596295007
-0.0549038901595
-0.0969127727899
-0.166729351931
-0.00212082873476
-0.00259948729467
-0.00274922386072
-0.00280547223863
-0.00281801616432
-0.0027838273088
-0.00266279482579
-0.00243907919755
-0.00210772184186
-0.00259265407165
-0.00274446358518
-0.00280222769063
-0.00281226228347
-0.00276054126025
-0.00258592020429
-0.0021694811653
-0.00210774347234
-0.00259266995119
-0.00274446115768
-0.00280221230918
-0.00281224515101
-0.00276052704186
-0.00258591768212
-0.00216943095719
-0.00212084537585
-0.00259950482767
-0.00274921972457
-0.00280544830457
-0.00281798266296
-0.00278379965908
-0.00266276070263
-0.00243892402206
)
;

boundaryField
{
    back
    {
        type            calculated;
        value           nonuniform List<scalar> 
164
(
-0.00302572239508
-0.00305197642468
-0.00308078821124
-0.0031121307022
-0.00314358241496
-0.00317019859952
-0.00319824489409
-0.00325254505196
-0.00334972915932
-0.00520515404257
-0.00422767488127
0.0121908620653
0.0127124542025
-0.0022330676159
-0.00270718670425
-0.00285274083751
-0.00291192497855
-0.00296683305017
-0.00299049180057
-0.00301641929908
-0.00304463482849
-0.00307590783128
-0.0031110749322
-0.0031464762948
-0.00317371040873
-0.00320214927405
-0.00335100001864
-0.00341244423163
-0.00436965934573
0.00151554128652
0.0170433130624
0.0133351846086
-0.0022146769818
-0.00268744965072
-0.0028334902357
-0.0028941534534
-0.00292690418036
-0.00295249259403
-0.00297816414153
-0.00300602720252
-0.0030356312877
-0.00306980390456
-0.00311078235285
-0.00315180992771
-0.00317925572409
-0.00323273590778
-0.00358468193674
-0.00457295527575
-0.00534852961974
0.00244313338847
0.0148192717835
0.0130414032736
-0.0021953435567
-0.00266738482428
-0.00281397429973
-0.00287593923812
-0.00291002770802
-0.00293689128006
-0.00296348215587
-0.00299150865865
-0.00301956112517
-0.00305698044058
-0.00310464607482
-0.00314999926597
-0.00316374117229
-0.00327434576813
-0.00394872784662
-0.00696153062662
-0.00950397649703
-0.00872726291304
-0.00577278786811
0.000993732935877
-0.00217568031879
-0.00264763182594
-0.00279497122097
-0.00285779555553
-0.00289240933344
-0.00291858277211
-0.00294337880433
-0.00296684489954
-0.00298272448843
-0.0030247863245
-0.00307931298167
-0.0031171718829
-0.00312153843122
-0.00338231597955
-0.00454132267525
-0.00903073931985
-0.020057786581
-0.0337359357795
-0.0463840493768
-0.0243847751461
-0.0021563239922
-0.00262883992005
-0.00277734933405
-0.0028407641242
-0.00287402837392
-0.00289472741581
-0.00291180599134
-0.002924224983
-0.00286113739781
-0.00289941955018
-0.00294247444036
-0.00301624826002
-0.00305036166414
-0.00362073131091
-0.00556572418395
-0.0118874791806
-0.0262327015502
-0.0467658431949
-0.0826380675015
-0.215110817925
-0.00213762998525
-0.00261186621217
-0.00276151110941
-0.00282371987084
-0.00284924103585
-0.00282911857796
-0.00271311341397
-0.00256250242497
-0.00246224902018
-0.00247837535298
-0.0026905629996
-0.00326738805294
-0.00293067127397
-0.00358120781905
-0.00554649331958
-0.0130462495106
-0.0299596295007
-0.0549038901595
-0.0969127727899
-0.166729351931
-0.00212082873476
-0.00259948729467
-0.00274922386072
-0.00280547223863
-0.00281801616432
-0.0027838273088
-0.00266279482579
-0.00243907919755
-0.00210772184186
-0.00259265407165
-0.00274446358518
-0.00280222769063
-0.00281226228347
-0.00276054126025
-0.00258592020429
-0.0021694811653
-0.00210774347234
-0.00259266995119
-0.00274446115768
-0.00280221230918
-0.00281224515101
-0.00276052704186
-0.00258591768212
-0.00216943095719
-0.00212084537585
-0.00259950482767
-0.00274921972457
-0.00280544830457
-0.00281798266296
-0.00278379965908
-0.00266276070263
-0.00243892402206
)
;
    }
    sides
    {
        type            calculated;
        value           nonuniform List<scalar> 0();
    }
    bottom
    {
        type            calculated;
        value           nonuniform List<scalar> 10(-0.0022330676159 -0.0022146769818 -0.0021953435567 -0.00217568031879 -0.0021563239922 -0.00213762998525 -0.00212082873476 -0.00210772184186 -0.00210774347234 -0.00212084537585);
    }
    front
    {
        type            calculated;
        value           nonuniform List<scalar> 
164
(
-0.00302572239508
-0.00305197642468
-0.00308078821124
-0.0031121307022
-0.00314358241496
-0.00317019859952
-0.00319824489409
-0.00325254505196
-0.00334972915932
-0.00520515404257
-0.00422767488127
0.0121908620653
0.0127124542025
-0.0022330676159
-0.00270718670425
-0.00285274083751
-0.00291192497855
-0.00296683305017
-0.00299049180057
-0.00301641929908
-0.00304463482849
-0.00307590783128
-0.0031110749322
-0.0031464762948
-0.00317371040873
-0.00320214927405
-0.00335100001864
-0.00341244423163
-0.00436965934573
0.00151554128652
0.0170433130624
0.0133351846086
-0.0022146769818
-0.00268744965072
-0.0028334902357
-0.0028941534534
-0.00292690418036
-0.00295249259403
-0.00297816414153
-0.00300602720252
-0.0030356312877
-0.00306980390456
-0.00311078235285
-0.00315180992771
-0.00317925572409
-0.00323273590778
-0.00358468193674
-0.00457295527575
-0.00534852961974
0.00244313338847
0.0148192717835
0.0130414032736
-0.0021953435567
-0.00266738482428
-0.00281397429973
-0.00287593923812
-0.00291002770802
-0.00293689128006
-0.00296348215587
-0.00299150865865
-0.00301956112517
-0.00305698044058
-0.00310464607482
-0.00314999926597
-0.00316374117229
-0.00327434576813
-0.00394872784662
-0.00696153062662
-0.00950397649703
-0.00872726291304
-0.00577278786811
0.000993732935877
-0.00217568031879
-0.00264763182594
-0.00279497122097
-0.00285779555553
-0.00289240933344
-0.00291858277211
-0.00294337880433
-0.00296684489954
-0.00298272448843
-0.0030247863245
-0.00307931298167
-0.0031171718829
-0.00312153843122
-0.00338231597955
-0.00454132267525
-0.00903073931985
-0.020057786581
-0.0337359357795
-0.0463840493768
-0.0243847751461
-0.0021563239922
-0.00262883992005
-0.00277734933405
-0.0028407641242
-0.00287402837392
-0.00289472741581
-0.00291180599134
-0.002924224983
-0.00286113739781
-0.00289941955018
-0.00294247444036
-0.00301624826002
-0.00305036166414
-0.00362073131091
-0.00556572418395
-0.0118874791806
-0.0262327015502
-0.0467658431949
-0.0826380675015
-0.215110817925
-0.00213762998525
-0.00261186621217
-0.00276151110941
-0.00282371987084
-0.00284924103585
-0.00282911857796
-0.00271311341397
-0.00256250242497
-0.00246224902018
-0.00247837535298
-0.0026905629996
-0.00326738805294
-0.00293067127397
-0.00358120781905
-0.00554649331958
-0.0130462495106
-0.0299596295007
-0.0549038901595
-0.0969127727899
-0.166729351931
-0.00212082873476
-0.00259948729467
-0.00274922386072
-0.00280547223863
-0.00281801616432
-0.0027838273088
-0.00266279482579
-0.00243907919755
-0.00210772184186
-0.00259265407165
-0.00274446358518
-0.00280222769063
-0.00281226228347
-0.00276054126025
-0.00258592020429
-0.0021694811653
-0.00210774347234
-0.00259266995119
-0.00274446115768
-0.00280221230918
-0.00281224515101
-0.00276052704186
-0.00258591768212
-0.00216943095719
-0.00212084537585
-0.00259950482767
-0.00274921972457
-0.00280544830457
-0.00281798266296
-0.00278379965908
-0.00266276070263
-0.00243892402206
)
;
    }
    atmosphere
    {
        type            calculated;
        value           nonuniform List<scalar> 7(0 1.94613270321e-48 -5.58551224848e-40 2.37051138078e-34 -5.58489223668e-28 -1.25341481048 -0.401666831436);
    }
    floatingObject
    {
        type            calculated;
        value           nonuniform List<scalar> 8(-0.00246224902018 -0.00247837535298 -0.0026905629996 -0.00326738805294 -0.00243907919755 -0.0021694811653 -0.00216943095719 -0.00243892402206);
    }
    procBoundary3to4
    {
        type            processor;
        value           nonuniform List<scalar> 
13
(
-0.00303452871131
-0.00305885017898
-0.0030855557057
-0.00225008882195
-0.00272612749324
-0.0028712046429
-0.00292876618834
-0.00298015733217
-0.00300190723256
-0.00300190723256
-0.0029430097689
-0.0029430097689
-0.0029430097689
)
;
    }
    procBoundary3to5
    {
        type            processor;
        value           nonuniform List<scalar> 10(-0.00311368355339 -0.00314058444031 -0.00316158092998 -0.00318475210827 -0.00326550490965 -0.00398559694159 -0.00691751324869 -0.00733498586053 0.0138778454177 0.0257577137481);
    }
    procBoundary3to6
    {
        type            processor;
        value           nonuniform List<scalar> 8(-0.00282894731661 -0.00327665223914 -0.0059474449674 -0.0146584947205 -0.0318325214841 -0.0555069056962 -0.0830631263213 -0.0422536111694);
    }
    procBoundary3to8
    {
        type            processor;
        value           nonuniform List<scalar> 8(-0.00213764098683 -0.00261184991264 -0.00276147107585 -0.00282366381038 -0.0028491819089 -0.0028290855319 -0.00271309718202 -0.00256254888686);
    }
}


// ************************************************************************* //
