/*--------------------------------*- C++ -*----------------------------------*\
| =========                 |                                                 |
| \\      /  F ield         | OpenFOAM: The Open Source CFD Toolbox           |
|  \\    /   O peration     | Version:  v2012                                 |
|   \\  /    A nd           | Website:  www.openfoam.com                      |
|    \\/     M anipulation  |                                                 |
\*---------------------------------------------------------------------------*/
FoamFile
{
    version     2.0;
    format      ascii;
    class       volScalarField;
    location    "2.8";
    object      epsilon_0;
}
// * * * * * * * * * * * * * * * * * * * * * * * * * * * * * * * * * * * * * //

dimensions      [0 2 -3 0 0 0 0];


internalField   nonuniform List<scalar> 
164
(
0.00310632095282
0.00313532985935
0.00316740941801
0.00320315543542
0.00324584785443
0.0033146988826
0.00350000481977
0.00416166075984
0.00654505076139
0.0135275052996
0.028682679903
0.0630567759854
0.16484351433
0.00251671930214
0.00261796317247
0.00286333776327
0.00296181205064
0.00303928899824
0.00306671044558
0.00309553261775
0.00312719070576
0.00316240003217
0.00320153700972
0.00324662450547
0.00331478545025
0.00349736387174
0.00418263237228
0.00679650632138
0.014670785713
0.0317792331291
0.0693007388572
0.168441459786
0.0024954570562
0.00259781514515
0.00284259468465
0.00294192464985
0.00299015245099
0.00302236755183
0.00305149837481
0.00308207653296
0.00311580335061
0.00315443042871
0.0031978007384
0.00324647578508
0.00332121412926
0.00353912468943
0.00438205965363
0.00749906078825
0.0164409560981
0.0356521861176
0.0751272706843
0.170981715883
0.00247341572359
0.00257746110386
0.00282160927329
0.0029214371772
0.00297034661769
0.00300287431783
0.00303145540678
0.00306042707567
0.00309281023233
0.00313475192017
0.00318244074216
0.00323240224483
0.00331851423895
0.00361045580574
0.00470612362778
0.00852844382144
0.0188078556118
0.0408390904995
0.0822782084434
0.174317174979
0.00245135130386
0.00255767405476
0.00280113427447
0.0029007462631
0.00294866674389
0.00297766268877
0.00299820067033
0.00301357354496
0.00303197986579
0.00307731331128
0.00312904363034
0.00317377409024
0.00328648131729
0.00372429123676
0.0051804435712
0.00989987512525
0.0219538415213
0.0461217914738
0.0885383970864
0.176904399361
0.00243018109424
0.00253937117181
0.00278204763941
0.00288023687462
0.00292346492542
0.00293874874649
0.0029282462632
0.00288888897901
0.00284952898322
0.00289904086231
0.00296089426461
0.00300945178835
0.00319877257596
0.00388526365134
0.00587144314901
0.0116700233542
0.0250355870505
0.0486649034961
0.0878131932954
0.173067529122
0.00241069544331
0.00252341122506
0.00276521629193
0.0028602480114
0.00289237402277
0.00287050519851
0.0027591334015
0.00252863726752
0.00296590341244
0.00300114911979
0.00316066823671
0.00350427429019
0.0030124215857
0.00393209915396
0.00630880482862
0.0130102478794
0.0274000512716
0.0500791821449
0.082861279164
0.140728475272
0.0023939788625
0.00251052754881
0.0027511259407
0.00284142355069
0.0028620800215
0.00281653020626
0.0026494585187
0.00280721109163
0.0023829439068
0.00250354854264
0.00274441647262
0.00283288640017
0.00284632269788
0.00277951919437
0.00256211450438
0.00254982097046
0.00238295882642
0.00250355437519
0.00274442013216
0.00283288943439
0.0028463263864
0.00277952216804
0.002562113301
0.00254980739324
0.00239400232399
0.00251054287344
0.00275113824945
0.0028414332071
0.00286208725949
0.00281653399754
0.00264946010873
0.00280716748321
)
;

boundaryField
{
    back
    {
        lowReCorrection 0;
        blending        stepwise;
        n               2;
        type            epsilonWallFunction;
        value           nonuniform List<scalar> 
164
(
0.00310632095282
0.00313532985935
0.00316740941801
0.00320315543542
0.00324584785443
0.0033146988826
0.00350000481977
0.00416166075984
0.00654505076139
0.0135275052996
0.028682679903
0.0630567759854
0.16484351433
0.00251671930214
0.00261796317247
0.00286333776327
0.00296181205064
0.00303928899824
0.00306671044558
0.00309553261775
0.00312719070576
0.00316240003217
0.00320153700972
0.00324662450547
0.00331478545025
0.00349736387174
0.00418263237228
0.00679650632138
0.014670785713
0.0317792331291
0.0693007388572
0.168441459786
0.0024954570562
0.00259781514515
0.00284259468465
0.00294192464985
0.00299015245099
0.00302236755183
0.00305149837481
0.00308207653296
0.00311580335061
0.00315443042871
0.0031978007384
0.00324647578508
0.00332121412926
0.00353912468943
0.00438205965363
0.00749906078825
0.0164409560981
0.0356521861176
0.0751272706843
0.170981715883
0.00247341572359
0.00257746110386
0.00282160927329
0.0029214371772
0.00297034661769
0.00300287431783
0.00303145540678
0.00306042707567
0.00309281023233
0.00313475192017
0.00318244074216
0.00323240224483
0.00331851423895
0.00361045580574
0.00470612362778
0.00852844382144
0.0188078556118
0.0408390904995
0.0822782084434
0.174317174979
0.00245135130386
0.00255767405476
0.00280113427447
0.0029007462631
0.00294866674389
0.00297766268877
0.00299820067033
0.00301357354496
0.00303197986579
0.00307731331128
0.00312904363034
0.00317377409024
0.00328648131729
0.00372429123676
0.0051804435712
0.00989987512525
0.0219538415213
0.0461217914738
0.0885383970864
0.176904399361
0.00243018109424
0.00253937117181
0.00278204763941
0.00288023687462
0.00292346492542
0.00293874874649
0.0029282462632
0.00288888897901
0.00284952898322
0.00289904086231
0.00296089426461
0.00300945178835
0.00319877257596
0.00388526365134
0.00587144314901
0.0116700233542
0.0250355870505
0.0486649034961
0.0878131932954
0.173067529122
0.00241069544331
0.00252341122506
0.00276521629193
0.0028602480114
0.00289237402277
0.00287050519851
0.0027591334015
0.00252863726752
0.00296590341244
0.00300114911979
0.00316066823671
0.00350427429019
0.0030124215857
0.00393209915396
0.00630880482862
0.0130102478794
0.0274000512716
0.0500791821449
0.082861279164
0.140728475272
0.0023939788625
0.00251052754881
0.0027511259407
0.00284142355069
0.0028620800215
0.00281653020626
0.0026494585187
0.00280721109163
0.0023829439068
0.00250354854264
0.00274441647262
0.00283288640017
0.00284632269788
0.00277951919437
0.00256211450438
0.00254982097046
0.00238295882642
0.00250355437519
0.00274442013216
0.00283288943439
0.0028463263864
0.00277952216804
0.002562113301
0.00254980739324
0.00239400232399
0.00251054287344
0.00275113824945
0.0028414332071
0.00286208725949
0.00281653399754
0.00264946010873
0.00280716748321
)
;
    }
    sides
    {
        lowReCorrection 0;
        blending        stepwise;
        n               2;
        type            epsilonWallFunction;
        value           nonuniform List<scalar> 0();
    }
    bottom
    {
        lowReCorrection 0;
        blending        stepwise;
        n               2;
        type            epsilonWallFunction;
        value           nonuniform List<scalar> 10(0.00251671930214 0.0024954570562 0.00247341572359 0.00245135130386 0.00243018109424 0.00241069544331 0.0023939788625 0.0023829439068 0.00238295882642 0.00239400232399);
    }
    front
    {
        lowReCorrection 0;
        blending        stepwise;
        n               2;
        type            epsilonWallFunction;
        value           nonuniform List<scalar> 
164
(
0.00310632095282
0.00313532985935
0.00316740941801
0.00320315543542
0.00324584785443
0.0033146988826
0.00350000481977
0.00416166075984
0.00654505076139
0.0135275052996
0.028682679903
0.0630567759854
0.16484351433
0.00251671930214
0.00261796317247
0.00286333776327
0.00296181205064
0.00303928899824
0.00306671044558
0.00309553261775
0.00312719070576
0.00316240003217
0.00320153700972
0.00324662450547
0.00331478545025
0.00349736387174
0.00418263237228
0.00679650632138
0.014670785713
0.0317792331291
0.0693007388572
0.168441459786
0.0024954570562
0.00259781514515
0.00284259468465
0.00294192464985
0.00299015245099
0.00302236755183
0.00305149837481
0.00308207653296
0.00311580335061
0.00315443042871
0.0031978007384
0.00324647578508
0.00332121412926
0.00353912468943
0.00438205965363
0.00749906078825
0.0164409560981
0.0356521861176
0.0751272706843
0.170981715883
0.00247341572359
0.00257746110386
0.00282160927329
0.0029214371772
0.00297034661769
0.00300287431783
0.00303145540678
0.00306042707567
0.00309281023233
0.00313475192017
0.00318244074216
0.00323240224483
0.00331851423895
0.00361045580574
0.00470612362778
0.00852844382144
0.0188078556118
0.0408390904995
0.0822782084434
0.174317174979
0.00245135130386
0.00255767405476
0.00280113427447
0.0029007462631
0.00294866674389
0.00297766268877
0.00299820067033
0.00301357354496
0.00303197986579
0.00307731331128
0.00312904363034
0.00317377409024
0.00328648131729
0.00372429123676
0.0051804435712
0.00989987512525
0.0219538415213
0.0461217914738
0.0885383970864
0.176904399361
0.00243018109424
0.00253937117181
0.00278204763941
0.00288023687462
0.00292346492542
0.00293874874649
0.0029282462632
0.00288888897901
0.00284952898322
0.00289904086231
0.00296089426461
0.00300945178835
0.00319877257596
0.00388526365134
0.00587144314901
0.0116700233542
0.0250355870505
0.0486649034961
0.0878131932954
0.173067529122
0.00241069544331
0.00252341122506
0.00276521629193
0.0028602480114
0.00289237402277
0.00287050519851
0.0027591334015
0.00252863726752
0.00296590341244
0.00300114911979
0.00316066823671
0.00350427429019
0.0030124215857
0.00393209915396
0.00630880482862
0.0130102478794
0.0274000512716
0.0500791821449
0.082861279164
0.140728475272
0.0023939788625
0.00251052754881
0.0027511259407
0.00284142355069
0.0028620800215
0.00281653020626
0.0026494585187
0.00280721109163
0.0023829439068
0.00250354854264
0.00274441647262
0.00283288640017
0.00284632269788
0.00277951919437
0.00256211450438
0.00254982097046
0.00238295882642
0.00250355437519
0.00274442013216
0.00283288943439
0.0028463263864
0.00277952216804
0.002562113301
0.00254980739324
0.00239400232399
0.00251054287344
0.00275113824945
0.0028414332071
0.00286208725949
0.00281653399754
0.00264946010873
0.00280716748321
)
;
    }
    atmosphere
    {
        type            inletOutlet;
        inletValue      uniform 0.1;
        value           nonuniform List<scalar> 7(0.1 0.1 0.1 0.1 0.1 0.173067529122 0.140728475272);
    }
    floatingObject
    {
        lowReCorrection 0;
        blending        stepwise;
        n               2;
        type            epsilonWallFunction;
        value           nonuniform List<scalar> 8(0.00296590341244 0.00300114911979 0.00316066823671 0.00350427429019 0.00280721109163 0.00254982097046 0.00254980739324 0.00280716748321);
    }
    procBoundary3to4
    {
        type            processor;
        value           nonuniform List<scalar> 
13
(
0.00311592090542
0.00314245179129
0.00317189973352
0.0025366616017
0.00263729509658
0.00288324563461
0.00298064522773
0.00305460197973
0.00307989834144
0.00307989834144
0.00300864212869
0.00300864212869
0.00300864212869
)
;
    }
    procBoundary3to5
    {
        type            processor;
        value           nonuniform List<scalar> 10(0.00320516041372 0.00324749565843 0.00332514686846 0.00354778170187 0.0042979873132 0.00669210428527 0.0129195845437 0.0256714748561 0.0550268976814 0.157215237408);
    }
    procBoundary3to6
    {
        type            processor;
        value           nonuniform List<scalar> 8(0.00377095794229 0.00425385646893 0.0073075832568 0.0148030528194 0.0290535704933 0.0493999618415 0.0766786807232 0.120482747059);
    }
    procBoundary3to8
    {
        type            processor;
        value           nonuniform List<scalar> 8(0.00241072800433 0.00252343286953 0.00276523429662 0.00286026278156 0.00289238876355 0.00287052721019 0.00275915790437 0.00252866862975);
    }
}


// ************************************************************************* //
