/*--------------------------------*- C++ -*----------------------------------*\
| =========                 |                                                 |
| \\      /  F ield         | OpenFOAM: The Open Source CFD Toolbox           |
|  \\    /   O peration     | Version:  v2012                                 |
|   \\  /    A nd           | Website:  www.openfoam.com                      |
|    \\/     M anipulation  |                                                 |
\*---------------------------------------------------------------------------*/
FoamFile
{
    version     2.0;
    format      ascii;
    class       volScalarField;
    location    "2.8";
    object      p_rgh;
}
// * * * * * * * * * * * * * * * * * * * * * * * * * * * * * * * * * * * * * //

dimensions      [1 -1 -2 0 0 0 0];


internalField   nonuniform List<scalar> 
164
(
8499.81736042
8493.66151247
8486.64477789
8478.82320937
8470.28113245
8461.18132081
8451.69949191
8442.02370072
8432.41950569
8066.37870111
2336.3751292
-0.0363205048541
0.0282748700632
8513.6627561
8512.88869868
8511.3856111
8509.08206448
8501.90851956
8496.91765585
8490.89384089
8483.7724959
8475.55912417
8466.29443968
8456.06807299
8445.06305199
8433.4986347
8421.57842007
8409.10405021
7914.69275178
2004.79733798
-0.0533749419636
0.0367657077712
8507.96609292
8507.1286578
8505.51467447
8503.0343875
8499.6353779
8495.24637943
8489.76335608
8483.04686633
8474.95377341
8465.49172751
8454.68839336
8442.57284278
8429.42596875
8415.48686946
8400.85371053
8385.49841871
7671.23793938
1633.58159225
-0.0399692666845
0.0445631863737
8503.07911449
8502.19343819
8500.50437245
8497.90329039
8494.32268101
8489.68047145
8483.83226115
8476.55047099
8467.48127619
8456.73645511
8444.35037815
8430.04933625
8414.45134817
8398.01007617
8380.47209623
8362.2631134
7364.20263764
1266.43876864
0.0226723760118
0.0424245832595
8499.04222372
8498.12032782
8496.39928245
8493.74695934
8490.08340013
8485.32399643
8479.33530076
8471.80090267
8461.62881401
8449.51935094
8435.67429158
8418.17796914
8400.76796573
8381.46274266
8360.36420465
8337.48632475
7059.58244645
974.635322843
0.126250805554
0.0287541851969
8495.87969248
8494.92207438
8493.21818051
8490.58397162
8486.92264903
8482.18022156
8476.3102685
8469.6524192
8457.80076155
8444.17912358
8430.1939186
8413.17768138
8389.40106058
8366.40628639
8342.95109512
8317.91115037
6805.48082648
816.139195937
0.262420632381
-0.00636314160586
8493.59812362
8492.59957063
8490.97939361
8488.47088177
8484.96162474
8480.50153046
8475.03232843
8469.43186508
8456.04616601
8441.53185962
8424.74015792
8402.26359908
8375.92502776
8351.75728266
8329.83018246
8306.39122013
6674.65218036
825.894572543
0.287820298786
-0.0783470450858
8492.08468387
8491.11618386
8489.60876625
8487.37220646
8484.51441055
8481.28039682
8478.43517938
8475.85331108
8491.38346921
8490.41362363
8488.97373865
8486.89195568
8484.2994821
8481.33237128
8478.64232458
8476.7504375
8491.3728099
8490.4035467
8488.96304869
8486.88054305
8484.28767157
8481.31790507
8478.62512725
8476.7326454
8492.05506465
8491.08563133
8489.5765116
8487.33738679
8484.47654012
8481.23787906
8478.38642333
8475.79869943
)
;

boundaryField
{
    back
    {
        type            fixedFluxPressure;
        gradient        uniform 0;
        value           nonuniform List<scalar> 
164
(
8499.81736042
8493.66151247
8486.64477789
8478.82320937
8470.28113245
8461.18132081
8451.69949191
8442.02370072
8432.41950569
8066.37870111
2336.3751292
-0.0363205048541
0.0282748700632
8513.6627561
8512.88869868
8511.3856111
8509.08206448
8501.90851956
8496.91765585
8490.89384089
8483.7724959
8475.55912417
8466.29443968
8456.06807299
8445.06305199
8433.4986347
8421.57842007
8409.10405021
7914.69275178
2004.79733798
-0.0533749419636
0.0367657077712
8507.96609292
8507.1286578
8505.51467447
8503.0343875
8499.6353779
8495.24637943
8489.76335608
8483.04686633
8474.95377341
8465.49172751
8454.68839336
8442.57284278
8429.42596875
8415.48686946
8400.85371053
8385.49841871
7671.23793938
1633.58159225
-0.0399692666845
0.0445631863737
8503.07911449
8502.19343819
8500.50437245
8497.90329039
8494.32268101
8489.68047145
8483.83226115
8476.55047099
8467.48127619
8456.73645511
8444.35037815
8430.04933625
8414.45134817
8398.01007617
8380.47209623
8362.2631134
7364.20263764
1266.43876864
0.0226723760118
0.0424245832595
8499.04222372
8498.12032782
8496.39928245
8493.74695934
8490.08340013
8485.32399643
8479.33530076
8471.80090267
8461.62881401
8449.51935094
8435.67429158
8418.17796914
8400.76796573
8381.46274266
8360.36420465
8337.48632475
7059.58244645
974.635322843
0.126250805554
0.0287541851969
8495.87969248
8494.92207438
8493.21818051
8490.58397162
8486.92264903
8482.18022156
8476.3102685
8469.6524192
8457.80076155
8444.17912358
8430.1939186
8413.17768138
8389.40106058
8366.40628639
8342.95109512
8317.91115037
6805.48082648
816.139195937
0.262420632381
-0.00636314160586
8493.59812362
8492.59957063
8490.97939361
8488.47088177
8484.96162474
8480.50153046
8475.03232843
8469.43186508
8456.04616601
8441.53185962
8424.74015792
8402.26359908
8375.92502776
8351.75728266
8329.83018246
8306.39122013
6674.65218036
825.894572543
0.287820298786
-0.0783470450858
8492.08468387
8491.11618386
8489.60876625
8487.37220646
8484.51441055
8481.28039682
8478.43517938
8475.85331108
8491.38346921
8490.41362363
8488.97373865
8486.89195568
8484.2994821
8481.33237128
8478.64232458
8476.7504375
8491.3728099
8490.4035467
8488.96304869
8486.88054305
8484.28767157
8481.31790507
8478.62512725
8476.7326454
8492.05506465
8491.08563133
8489.5765116
8487.33738679
8484.47654012
8481.23787906
8478.38642333
8475.79869943
)
;
    }
    sides
    {
        type            fixedFluxPressure;
        gradient        nonuniform List<scalar> 0();
        value           nonuniform List<scalar> 0();
    }
    bottom
    {
        type            fixedFluxPressure;
        gradient        uniform 0;
        value           nonuniform List<scalar> 10(8513.6627561 8507.96609292 8503.07911449 8499.04222372 8495.87969248 8493.59812362 8492.08468387 8491.38346921 8491.3728099 8492.05506465);
    }
    front
    {
        type            fixedFluxPressure;
        gradient        uniform 0;
        value           nonuniform List<scalar> 
164
(
8499.81736042
8493.66151247
8486.64477789
8478.82320937
8470.28113245
8461.18132081
8451.69949191
8442.02370072
8432.41950569
8066.37870111
2336.3751292
-0.0363205048541
0.0282748700632
8513.6627561
8512.88869868
8511.3856111
8509.08206448
8501.90851956
8496.91765585
8490.89384089
8483.7724959
8475.55912417
8466.29443968
8456.06807299
8445.06305199
8433.4986347
8421.57842007
8409.10405021
7914.69275178
2004.79733798
-0.0533749419636
0.0367657077712
8507.96609292
8507.1286578
8505.51467447
8503.0343875
8499.6353779
8495.24637943
8489.76335608
8483.04686633
8474.95377341
8465.49172751
8454.68839336
8442.57284278
8429.42596875
8415.48686946
8400.85371053
8385.49841871
7671.23793938
1633.58159225
-0.0399692666845
0.0445631863737
8503.07911449
8502.19343819
8500.50437245
8497.90329039
8494.32268101
8489.68047145
8483.83226115
8476.55047099
8467.48127619
8456.73645511
8444.35037815
8430.04933625
8414.45134817
8398.01007617
8380.47209623
8362.2631134
7364.20263764
1266.43876864
0.0226723760118
0.0424245832595
8499.04222372
8498.12032782
8496.39928245
8493.74695934
8490.08340013
8485.32399643
8479.33530076
8471.80090267
8461.62881401
8449.51935094
8435.67429158
8418.17796914
8400.76796573
8381.46274266
8360.36420465
8337.48632475
7059.58244645
974.635322843
0.126250805554
0.0287541851969
8495.87969248
8494.92207438
8493.21818051
8490.58397162
8486.92264903
8482.18022156
8476.3102685
8469.6524192
8457.80076155
8444.17912358
8430.1939186
8413.17768138
8389.40106058
8366.40628639
8342.95109512
8317.91115037
6805.48082648
816.139195937
0.262420632381
-0.00636314160586
8493.59812362
8492.59957063
8490.97939361
8488.47088177
8484.96162474
8480.50153046
8475.03232843
8469.43186508
8456.04616601
8441.53185962
8424.74015792
8402.26359908
8375.92502776
8351.75728266
8329.83018246
8306.39122013
6674.65218036
825.894572543
0.287820298786
-0.0783470450858
8492.08468387
8491.11618386
8489.60876625
8487.37220646
8484.51441055
8481.28039682
8478.43517938
8475.85331108
8491.38346921
8490.41362363
8488.97373865
8486.89195568
8484.2994821
8481.33237128
8478.64232458
8476.7504375
8491.3728099
8490.4035467
8488.96304869
8486.88054305
8484.28767157
8481.31790507
8478.62512725
8476.7326454
8492.05506465
8491.08563133
8489.5765116
8487.33738679
8484.47654012
8481.23787906
8478.38642333
8475.79869943
)
;
    }
    atmosphere
    {
        type            totalPressure;
        rho             rho;
        psi             none;
        gamma           1;
        p0              uniform 0;
        value           nonuniform List<scalar> 7(-0.00445231050997 -0.0079705054754 -0.00930229105568 -0.00627982299107 -0.00101741763164 -0.000891927958597 -0.00231188197738);
    }
    floatingObject
    {
        type            fixedFluxPressure;
        gradient        uniform 0;
        value           nonuniform List<scalar> 8(8456.04616601 8441.53185962 8424.74015792 8402.26359908 8475.85331108 8476.7504375 8476.7326454 8475.79869943);
    }
    procBoundary3to4
    {
        type            processor;
        value           nonuniform List<scalar> 
13
(
8509.60273689
8504.39534165
8498.52343386
8520.11158739
8519.41447137
8518.04851761
8515.96029081
8509.51952209
8505.09529058
8505.09529058
8505.93856658
8505.93856658
8505.93856658
)
;
    }
    procBoundary3to5
    {
        type            processor;
        value           nonuniform List<scalar> 10(8492.04274429 8485.04459648 8477.61765667 8469.94918802 8462.14311832 8454.89163159 8165.07037042 2646.48013019 -0.0130678639379 0.0203036223049);
    }
    procBoundary3to6
    {
        type            processor;
        value           nonuniform List<scalar> 8(8347.75516252 8333.46217338 8319.6746501 8301.38432241 6625.352189 949.648969989 0.060475066831 -0.0837238447661);
    }
    procBoundary3to8
    {
        type            processor;
        value           nonuniform List<scalar> 8(8493.55031162 8492.54883623 8490.92551761 8488.41265231 8484.89771688 8480.43017596 8474.94985777 8469.33571138);
    }
}


// ************************************************************************* //
