/*--------------------------------*- C++ -*----------------------------------*\
| =========                 |                                                 |
| \\      /  F ield         | OpenFOAM: The Open Source CFD Toolbox           |
|  \\    /   O peration     | Version:  v2012                                 |
|   \\  /    A nd           | Website:  www.openfoam.com                      |
|    \\/     M anipulation  |                                                 |
\*---------------------------------------------------------------------------*/
FoamFile
{
    version     2.0;
    format      ascii;
    class       volScalarField;
    location    "1.4";
    object      ddt0(k);
}
// * * * * * * * * * * * * * * * * * * * * * * * * * * * * * * * * * * * * * //

dimensions      [0 2 -3 0 0 0 0];


internalField   nonuniform List<scalar> 
164
(
-0.0127021838769
-0.0127640690264
-0.0128329915035
-0.0129078445092
-0.0129876323196
-0.0130720206074
-0.0131604552127
-0.0132517554439
-0.013256397646
-0.0124170151467
-0.0122674810627
-0.0334496606995
-0.00974738230293
-0.00990669874659
-0.0117540891654
-0.0122939444324
-0.012460890707
-0.0125706647915
-0.0126212675933
-0.0126816273411
-0.0127515169425
-0.0128293421189
-0.012913604369
-0.0130033737844
-0.0130987191815
-0.0132001234872
-0.0133110086113
-0.01335929414
-0.0126458869808
-0.0093183744731
-0.020329247318
-0.00939844149706
-0.00985153117535
-0.0116950969999
-0.0122398775153
-0.0124132283206
-0.012482661929
-0.0125332919388
-0.0125899316223
-0.0126580852523
-0.0127374269614
-0.0128254371698
-0.012919916606
-0.0130198688034
-0.0131258425434
-0.0132387889364
-0.0133640397872
-0.0134449089008
-0.0128887350976
-0.00846681208713
-0.00069801472101
-0.00593523796435
-0.0097930235186
-0.0116365479217
-0.0121846586703
-0.0123627358413
-0.0124364193361
-0.0124918389433
-0.012554918942
-0.0126323666119
-0.0127231907826
-0.0128228528651
-0.0129281449349
-0.0130382655906
-0.0131538963925
-0.0132756707774
-0.0134075830821
-0.0135100749076
-0.0131342765983
-0.0097329062195
0.0143478866628
-0.00465253567756
-0.00973278531362
-0.0115810530482
-0.0121307046889
-0.0123112656627
-0.0123877068408
-0.012446959384
-0.0125160884364
-0.0126012245275
-0.0127029894495
-0.0128123533707
-0.0129265340365
-0.0130465618644
-0.0131718091816
-0.0132999397443
-0.0134366985498
-0.0135569863074
-0.013204203054
-0.00843996664469
0.0317490031232
-0.00219847177483
-0.00967290297025
-0.0115314006874
-0.0120809321883
-0.0122613543478
-0.0123380183406
-0.0123975010627
-0.0124583886485
-0.0124781796725
-0.0125802935933
-0.012676736964
-0.0127864012444
-0.0129215862463
-0.0130678588887
-0.0132261523965
-0.013383185773
-0.0135277486376
-0.0133468393889
-0.0100437141572
0.018855493497
0.0129130816021
-0.00961569191796
-0.0114901488513
-0.0120385679098
-0.0122159408193
-0.0122875233344
-0.012330055329
-0.0122763896583
-0.0117758207164
-0.0116506608542
-0.0115035324497
-0.0115259666733
-0.0117469369571
-0.0121507821787
-0.0126538285764
-0.013003860009
-0.0132850167295
-0.0133417126491
-0.0103383389185
0.0588190202735
0.054322359841
-0.00956399468717
-0.0114589783939
-0.0120067328891
-0.0121778666209
-0.0122322462499
-0.0122180956967
-0.0119870197115
-0.0105186049818
-0.00952439370039
-0.0114391063522
-0.0119893978051
-0.0121592349627
-0.0122086057498
-0.0121736717233
-0.0118617462885
-0.0100952277206
-0.00952440298658
-0.0114391101812
-0.0119893938681
-0.0121592228307
-0.0122085899133
-0.0121736545668
-0.0118617355392
-0.0100952224633
-0.00956401104123
-0.0114589876683
-0.0120067277688
-0.0121778491527
-0.012232217178
-0.0122180693674
-0.0119869915444
-0.0105186171187
)
;

boundaryField
{
    back
    {
        type            calculated;
        value           nonuniform List<scalar> 
164
(
-0.0127021838769
-0.0127640690264
-0.0128329915035
-0.0129078445092
-0.0129876323196
-0.0130720206074
-0.0131604552127
-0.0132517554439
-0.013256397646
-0.0124170151467
-0.0122674810627
-0.0334496606995
-0.00974738230293
-0.00990669874659
-0.0117540891654
-0.0122939444324
-0.012460890707
-0.0125706647915
-0.0126212675933
-0.0126816273411
-0.0127515169425
-0.0128293421189
-0.012913604369
-0.0130033737844
-0.0130987191815
-0.0132001234872
-0.0133110086113
-0.01335929414
-0.0126458869808
-0.0093183744731
-0.020329247318
-0.00939844149706
-0.00985153117535
-0.0116950969999
-0.0122398775153
-0.0124132283206
-0.012482661929
-0.0125332919388
-0.0125899316223
-0.0126580852523
-0.0127374269614
-0.0128254371698
-0.012919916606
-0.0130198688034
-0.0131258425434
-0.0132387889364
-0.0133640397872
-0.0134449089008
-0.0128887350976
-0.00846681208713
-0.00069801472101
-0.00593523796435
-0.0097930235186
-0.0116365479217
-0.0121846586703
-0.0123627358413
-0.0124364193361
-0.0124918389433
-0.012554918942
-0.0126323666119
-0.0127231907826
-0.0128228528651
-0.0129281449349
-0.0130382655906
-0.0131538963925
-0.0132756707774
-0.0134075830821
-0.0135100749076
-0.0131342765983
-0.0097329062195
0.0143478866628
-0.00465253567756
-0.00973278531362
-0.0115810530482
-0.0121307046889
-0.0123112656627
-0.0123877068408
-0.012446959384
-0.0125160884364
-0.0126012245275
-0.0127029894495
-0.0128123533707
-0.0129265340365
-0.0130465618644
-0.0131718091816
-0.0132999397443
-0.0134366985498
-0.0135569863074
-0.013204203054
-0.00843996664469
0.0317490031232
-0.00219847177483
-0.00967290297025
-0.0115314006874
-0.0120809321883
-0.0122613543478
-0.0123380183406
-0.0123975010627
-0.0124583886485
-0.0124781796725
-0.0125802935933
-0.012676736964
-0.0127864012444
-0.0129215862463
-0.0130678588887
-0.0132261523965
-0.013383185773
-0.0135277486376
-0.0133468393889
-0.0100437141572
0.018855493497
0.0129130816021
-0.00961569191796
-0.0114901488513
-0.0120385679098
-0.0122159408193
-0.0122875233344
-0.012330055329
-0.0122763896583
-0.0117758207164
-0.0116506608542
-0.0115035324497
-0.0115259666733
-0.0117469369571
-0.0121507821787
-0.0126538285764
-0.013003860009
-0.0132850167295
-0.0133417126491
-0.0103383389185
0.0588190202735
0.054322359841
-0.00956399468717
-0.0114589783939
-0.0120067328891
-0.0121778666209
-0.0122322462499
-0.0122180956967
-0.0119870197115
-0.0105186049818
-0.00952439370039
-0.0114391063522
-0.0119893978051
-0.0121592349627
-0.0122086057498
-0.0121736717233
-0.0118617462885
-0.0100952277206
-0.00952440298658
-0.0114391101812
-0.0119893938681
-0.0121592228307
-0.0122085899133
-0.0121736545668
-0.0118617355392
-0.0100952224633
-0.00956401104123
-0.0114589876683
-0.0120067277688
-0.0121778491527
-0.012232217178
-0.0122180693674
-0.0119869915444
-0.0105186171187
)
;
    }
    sides
    {
        type            calculated;
        value           nonuniform List<scalar> 0();
    }
    bottom
    {
        type            calculated;
        value           nonuniform List<scalar> 10(-0.00990669874659 -0.00985153117535 -0.0097930235186 -0.00973278531362 -0.00967290297025 -0.00961569191796 -0.00956399468717 -0.00952439370039 -0.00952440298658 -0.00956401104123);
    }
    front
    {
        type            calculated;
        value           nonuniform List<scalar> 
164
(
-0.0127021838769
-0.0127640690264
-0.0128329915035
-0.0129078445092
-0.0129876323196
-0.0130720206074
-0.0131604552127
-0.0132517554439
-0.013256397646
-0.0124170151467
-0.0122674810627
-0.0334496606995
-0.00974738230293
-0.00990669874659
-0.0117540891654
-0.0122939444324
-0.012460890707
-0.0125706647915
-0.0126212675933
-0.0126816273411
-0.0127515169425
-0.0128293421189
-0.012913604369
-0.0130033737844
-0.0130987191815
-0.0132001234872
-0.0133110086113
-0.01335929414
-0.0126458869808
-0.0093183744731
-0.020329247318
-0.00939844149706
-0.00985153117535
-0.0116950969999
-0.0122398775153
-0.0124132283206
-0.012482661929
-0.0125332919388
-0.0125899316223
-0.0126580852523
-0.0127374269614
-0.0128254371698
-0.012919916606
-0.0130198688034
-0.0131258425434
-0.0132387889364
-0.0133640397872
-0.0134449089008
-0.0128887350976
-0.00846681208713
-0.00069801472101
-0.00593523796435
-0.0097930235186
-0.0116365479217
-0.0121846586703
-0.0123627358413
-0.0124364193361
-0.0124918389433
-0.012554918942
-0.0126323666119
-0.0127231907826
-0.0128228528651
-0.0129281449349
-0.0130382655906
-0.0131538963925
-0.0132756707774
-0.0134075830821
-0.0135100749076
-0.0131342765983
-0.0097329062195
0.0143478866628
-0.00465253567756
-0.00973278531362
-0.0115810530482
-0.0121307046889
-0.0123112656627
-0.0123877068408
-0.012446959384
-0.0125160884364
-0.0126012245275
-0.0127029894495
-0.0128123533707
-0.0129265340365
-0.0130465618644
-0.0131718091816
-0.0132999397443
-0.0134366985498
-0.0135569863074
-0.013204203054
-0.00843996664469
0.0317490031232
-0.00219847177483
-0.00967290297025
-0.0115314006874
-0.0120809321883
-0.0122613543478
-0.0123380183406
-0.0123975010627
-0.0124583886485
-0.0124781796725
-0.0125802935933
-0.012676736964
-0.0127864012444
-0.0129215862463
-0.0130678588887
-0.0132261523965
-0.013383185773
-0.0135277486376
-0.0133468393889
-0.0100437141572
0.018855493497
0.0129130816021
-0.00961569191796
-0.0114901488513
-0.0120385679098
-0.0122159408193
-0.0122875233344
-0.012330055329
-0.0122763896583
-0.0117758207164
-0.0116506608542
-0.0115035324497
-0.0115259666733
-0.0117469369571
-0.0121507821787
-0.0126538285764
-0.013003860009
-0.0132850167295
-0.0133417126491
-0.0103383389185
0.0588190202735
0.054322359841
-0.00956399468717
-0.0114589783939
-0.0120067328891
-0.0121778666209
-0.0122322462499
-0.0122180956967
-0.0119870197115
-0.0105186049818
-0.00952439370039
-0.0114391063522
-0.0119893978051
-0.0121592349627
-0.0122086057498
-0.0121736717233
-0.0118617462885
-0.0100952277206
-0.00952440298658
-0.0114391101812
-0.0119893938681
-0.0121592228307
-0.0122085899133
-0.0121736545668
-0.0118617355392
-0.0100952224633
-0.00956401104123
-0.0114589876683
-0.0120067277688
-0.0121778491527
-0.012232217178
-0.0122180693674
-0.0119869915444
-0.0105186171187
)
;
    }
    atmosphere
    {
        type            calculated;
        value           nonuniform List<scalar> 7(0 2.35273007331e-24 -6.75246997296e-16 2.86577241392e-10 -0.000675172042469 0.0129130816141 -4.93920607914e-19);
    }
    floatingObject
    {
        type            calculated;
        value           nonuniform List<scalar> 8(-0.0116506608542 -0.0115035324497 -0.0115259666733 -0.0117469369571 -0.0105186049818 -0.0100952277206 -0.0100952224633 -0.0105186171187);
    }
    procBoundary3to4
    {
        type            processor;
        value           nonuniform List<scalar> 
13
(
-0.0127190461839
-0.0127740452285
-0.0128351920973
-0.00995721972458
-0.0118111075747
-0.0123448643111
-0.0125040224527
-0.0126029250052
-0.0126482682117
-0.0126482682117
-0.0125247406747
-0.0125247406747
-0.0125247406747
)
;
    }
    procBoundary3to5
    {
        type            processor;
        value           nonuniform List<scalar> 10(-0.0129014733339 -0.01297191134 -0.0130458310531 -0.0131222467405 -0.0131992893869 -0.0131973686783 -0.0128640486438 -0.0232815075216 -0.0579479453411 -0.00590384921292);
    }
    procBoundary3to6
    {
        type            processor;
        value           nonuniform List<scalar> 8(-0.0123048131609 -0.0123328703386 -0.0126423528238 -0.0129611241287 -0.0131356353396 -0.0119107651743 0.0539191980161 0.00362699552422);
    }
    procBoundary3to8
    {
        type            processor;
        value           nonuniform List<scalar> 8(-0.00961570433478 -0.0114901531444 -0.0120385491958 -0.0122158933195 -0.0122874522974 -0.0123299656247 -0.0122763307845 -0.011775798784);
    }
}


// ************************************************************************* //
