/*--------------------------------*- C++ -*----------------------------------*\
| =========                 |                                                 |
| \\      /  F ield         | OpenFOAM: The Open Source CFD Toolbox           |
|  \\    /   O peration     | Version:  v2012                                 |
|   \\  /    A nd           | Website:  www.openfoam.com                      |
|    \\/     M anipulation  |                                                 |
\*---------------------------------------------------------------------------*/
FoamFile
{
    version     2.0;
    format      ascii;
    class       volScalarField;
    location    "1.4";
    object      epsilon;
}
// * * * * * * * * * * * * * * * * * * * * * * * * * * * * * * * * * * * * * //

dimensions      [0 2 -3 0 0 0 0];


internalField   nonuniform List<scalar> 
164
(
0.0132091075369
0.0133183078109
0.0134381063958
0.0135670957701
0.01370346179
0.0138460946604
0.0139967654479
0.014171377219
0.0144703857857
0.015692524051
0.0251102101919
0.08407904882
0.211138221002
0.0111325097683
0.0112442129567
0.0122428600902
0.0126409474659
0.0129422949746
0.0130464241659
0.01315660798
0.0132787392774
0.0134128567344
0.013556861426
0.0137085809308
0.0138670447247
0.0140338533495
0.0142219873401
0.0145128412778
0.0155437704424
0.0230194586376
0.0730309912767
0.199994544407
0.0110218735291
0.0111378219469
0.012136361806
0.0125414997834
0.0127340910685
0.0128598493717
0.0129739035725
0.0130961425076
0.0132331596088
0.0133838263359
0.013544833192
0.0137136431729
0.0138897212242
0.0140742318157
0.0142784038403
0.0145649363703
0.0154715738642
0.0219279272963
0.0721201206135
0.203879195123
0.0109065389972
0.0110319682148
0.0120288355266
0.0124381428713
0.0126365030839
0.0127691049043
0.0128916190097
0.0130247123437
0.0131769886255
0.0133452859366
0.0135245571676
0.0137121378464
0.0139075990328
0.0141108818074
0.0143321223246
0.01462079631
0.0154399177898
0.0210951255659
0.0687275907697
0.21624508467
0.0107904734212
0.0109319003856
0.011925531298
0.0123352738735
0.0125352185792
0.0126693995147
0.0127907356133
0.0129152006431
0.0130676154691
0.013243897934
0.0134385777858
0.0136494353715
0.0138753803044
0.0141109780071
0.0143590621918
0.0146597996904
0.0153701890541
0.0201087505205
0.0661101963363
0.230253152229
0.0106787459197
0.0108436538969
0.0118326734723
0.0122382772632
0.0124324853103
0.0125521735832
0.0126234380284
0.0125944373607
0.0126593067416
0.0127871944176
0.0129796324798
0.013232478233
0.0135546991321
0.0139035956162
0.0142404170886
0.0145931458269
0.0151873043935
0.0182889398333
0.0451026748118
0.17440399034
0.0105770326686
0.0107726394175
0.0117562862341
0.0121526177427
0.0123286406579
0.0123931241289
0.0122472048282
0.0115223878578
0.0140758601563
0.0137635324308
0.0139393132125
0.0144778646405
0.0120895476591
0.0130206667998
0.0136902360398
0.0142233943821
0.0148280930618
0.0172460981238
0.0419207977225
0.202259122629
0.0104920504695
0.0107232584522
0.0117022355226
0.0120838360094
0.0122233581243
0.0121820139061
0.0116861173558
0.0124215274115
0.0104345040276
0.0106934930825
0.011673421907
0.0120497003889
0.0121726260406
0.0120770900874
0.0114239890651
0.0115170162012
0.0104345125225
0.0106935002286
0.0116734257605
0.0120496995588
0.0121726209684
0.0120770823654
0.0114239824554
0.0115170157329
0.0104920711209
0.0107232779089
0.0117022476533
0.0120838380198
0.0122233492976
0.0121819996953
0.0116861051895
0.0124215336571
)
;

boundaryField
{
    back
    {
        lowReCorrection 0;
        blending        stepwise;
        n               2;
        type            epsilonWallFunction;
        value           nonuniform List<scalar> 
164
(
0.0132091075369
0.0133183078109
0.0134381063958
0.0135670957701
0.01370346179
0.0138460946604
0.0139967654479
0.014171377219
0.0144703857857
0.015692524051
0.0251102101919
0.08407904882
0.211138221002
0.0111325097683
0.0112442129567
0.0122428600902
0.0126409474659
0.0129422949746
0.0130464241659
0.01315660798
0.0132787392774
0.0134128567344
0.013556861426
0.0137085809308
0.0138670447247
0.0140338533495
0.0142219873401
0.0145128412778
0.0155437704424
0.0230194586376
0.0730309912767
0.199994544407
0.0110218735291
0.0111378219469
0.012136361806
0.0125414997834
0.0127340910685
0.0128598493717
0.0129739035725
0.0130961425076
0.0132331596088
0.0133838263359
0.013544833192
0.0137136431729
0.0138897212242
0.0140742318157
0.0142784038403
0.0145649363703
0.0154715738642
0.0219279272963
0.0721201206135
0.203879195123
0.0109065389972
0.0110319682148
0.0120288355266
0.0124381428713
0.0126365030839
0.0127691049043
0.0128916190097
0.0130247123437
0.0131769886255
0.0133452859366
0.0135245571676
0.0137121378464
0.0139075990328
0.0141108818074
0.0143321223246
0.01462079631
0.0154399177898
0.0210951255659
0.0687275907697
0.21624508467
0.0107904734212
0.0109319003856
0.011925531298
0.0123352738735
0.0125352185792
0.0126693995147
0.0127907356133
0.0129152006431
0.0130676154691
0.013243897934
0.0134385777858
0.0136494353715
0.0138753803044
0.0141109780071
0.0143590621918
0.0146597996904
0.0153701890541
0.0201087505205
0.0661101963363
0.230253152229
0.0106787459197
0.0108436538969
0.0118326734723
0.0122382772632
0.0124324853103
0.0125521735832
0.0126234380284
0.0125944373607
0.0126593067416
0.0127871944176
0.0129796324798
0.013232478233
0.0135546991321
0.0139035956162
0.0142404170886
0.0145931458269
0.0151873043935
0.0182889398333
0.0451026748118
0.17440399034
0.0105770326686
0.0107726394175
0.0117562862341
0.0121526177427
0.0123286406579
0.0123931241289
0.0122472048282
0.0115223878578
0.0140758601563
0.0137635324308
0.0139393132125
0.0144778646405
0.0120895476591
0.0130206667998
0.0136902360398
0.0142233943821
0.0148280930618
0.0172460981238
0.0419207977225
0.202259122629
0.0104920504695
0.0107232584522
0.0117022355226
0.0120838360094
0.0122233581243
0.0121820139061
0.0116861173558
0.0124215274115
0.0104345040276
0.0106934930825
0.011673421907
0.0120497003889
0.0121726260406
0.0120770900874
0.0114239890651
0.0115170162012
0.0104345125225
0.0106935002286
0.0116734257605
0.0120496995588
0.0121726209684
0.0120770823654
0.0114239824554
0.0115170157329
0.0104920711209
0.0107232779089
0.0117022476533
0.0120838380198
0.0122233492976
0.0121819996953
0.0116861051895
0.0124215336571
)
;
    }
    sides
    {
        lowReCorrection 0;
        blending        stepwise;
        n               2;
        type            epsilonWallFunction;
        value           nonuniform List<scalar> 0();
    }
    bottom
    {
        lowReCorrection 0;
        blending        stepwise;
        n               2;
        type            epsilonWallFunction;
        value           nonuniform List<scalar> 10(0.0111325097683 0.0110218735291 0.0109065389972 0.0107904734212 0.0106787459197 0.0105770326686 0.0104920504695 0.0104345040276 0.0104345125225 0.0104920711209);
    }
    front
    {
        lowReCorrection 0;
        blending        stepwise;
        n               2;
        type            epsilonWallFunction;
        value           nonuniform List<scalar> 
164
(
0.0132091075369
0.0133183078109
0.0134381063958
0.0135670957701
0.01370346179
0.0138460946604
0.0139967654479
0.014171377219
0.0144703857857
0.015692524051
0.0251102101919
0.08407904882
0.211138221002
0.0111325097683
0.0112442129567
0.0122428600902
0.0126409474659
0.0129422949746
0.0130464241659
0.01315660798
0.0132787392774
0.0134128567344
0.013556861426
0.0137085809308
0.0138670447247
0.0140338533495
0.0142219873401
0.0145128412778
0.0155437704424
0.0230194586376
0.0730309912767
0.199994544407
0.0110218735291
0.0111378219469
0.012136361806
0.0125414997834
0.0127340910685
0.0128598493717
0.0129739035725
0.0130961425076
0.0132331596088
0.0133838263359
0.013544833192
0.0137136431729
0.0138897212242
0.0140742318157
0.0142784038403
0.0145649363703
0.0154715738642
0.0219279272963
0.0721201206135
0.203879195123
0.0109065389972
0.0110319682148
0.0120288355266
0.0124381428713
0.0126365030839
0.0127691049043
0.0128916190097
0.0130247123437
0.0131769886255
0.0133452859366
0.0135245571676
0.0137121378464
0.0139075990328
0.0141108818074
0.0143321223246
0.01462079631
0.0154399177898
0.0210951255659
0.0687275907697
0.21624508467
0.0107904734212
0.0109319003856
0.011925531298
0.0123352738735
0.0125352185792
0.0126693995147
0.0127907356133
0.0129152006431
0.0130676154691
0.013243897934
0.0134385777858
0.0136494353715
0.0138753803044
0.0141109780071
0.0143590621918
0.0146597996904
0.0153701890541
0.0201087505205
0.0661101963363
0.230253152229
0.0106787459197
0.0108436538969
0.0118326734723
0.0122382772632
0.0124324853103
0.0125521735832
0.0126234380284
0.0125944373607
0.0126593067416
0.0127871944176
0.0129796324798
0.013232478233
0.0135546991321
0.0139035956162
0.0142404170886
0.0145931458269
0.0151873043935
0.0182889398333
0.0451026748118
0.17440399034
0.0105770326686
0.0107726394175
0.0117562862341
0.0121526177427
0.0123286406579
0.0123931241289
0.0122472048282
0.0115223878578
0.0140758601563
0.0137635324308
0.0139393132125
0.0144778646405
0.0120895476591
0.0130206667998
0.0136902360398
0.0142233943821
0.0148280930618
0.0172460981238
0.0419207977225
0.202259122629
0.0104920504695
0.0107232584522
0.0117022355226
0.0120838360094
0.0122233581243
0.0121820139061
0.0116861173558
0.0124215274115
0.0104345040276
0.0106934930825
0.011673421907
0.0120497003889
0.0121726260406
0.0120770900874
0.0114239890651
0.0115170162012
0.0104345125225
0.0106935002286
0.0116734257605
0.0120496995588
0.0121726209684
0.0120770823654
0.0114239824554
0.0115170157329
0.0104920711209
0.0107232779089
0.0117022476533
0.0120838380198
0.0122233492976
0.0121819996953
0.0116861051895
0.0124215336571
)
;
    }
    atmosphere
    {
        type            inletOutlet;
        inletValue      uniform 0.1;
        value           nonuniform List<scalar> 7(0.1 0.1 0.1 0.1 0.1 0.17440399034 0.1);
    }
    floatingObject
    {
        lowReCorrection 0;
        blending        stepwise;
        n               2;
        type            epsilonWallFunction;
        value           nonuniform List<scalar> 8(0.0140758601563 0.0137635324308 0.0139393132125 0.0144778646405 0.0124215274115 0.0115170162012 0.0115170157329 0.0124215336571);
    }
    procBoundary3to4
    {
        type            processor;
        value           nonuniform List<scalar> 
13
(
0.0132536766112
0.0133517429835
0.0134592731706
0.0112356333019
0.011347110116
0.0123443783946
0.012733349192
0.0130155184136
0.0131099199841
0.0131099199841
0.0128251761529
0.0128251761529
0.0128251761529
)
;
    }
    procBoundary3to5
    {
        type            processor;
        value           nonuniform List<scalar> 10(0.013575378397 0.0136986494819 0.0138284054548 0.0139672533331 0.0141353140068 0.0144418350451 0.0157632929003 0.0264238527301 0.0825632732374 0.220151028547);
    }
    procBoundary3to6
    {
        type            processor;
        value           nonuniform List<scalar> 8(0.0142626527383 0.0122306182647 0.013117860481 0.0137933057613 0.0145456873271 0.0173702676798 0.047374773145 0.240369229599);
    }
    procBoundary3to8
    {
        type            processor;
        value           nonuniform List<scalar> 8(0.010577064501 0.0107726711895 0.0117563101868 0.0121526284276 0.0123286368052 0.0123931082334 0.012247192947 0.011522395051);
    }
}


// ************************************************************************* //
