/*--------------------------------*- C++ -*----------------------------------*\
| =========                 |                                                 |
| \\      /  F ield         | OpenFOAM: The Open Source CFD Toolbox           |
|  \\    /   O peration     | Version:  v2012                                 |
|   \\  /    A nd           | Website:  www.openfoam.com                      |
|    \\/     M anipulation  |                                                 |
\*---------------------------------------------------------------------------*/
FoamFile
{
    version     2.0;
    format      ascii;
    class       volScalarField;
    location    "1.4";
    object      p;
}
// * * * * * * * * * * * * * * * * * * * * * * * * * * * * * * * * * * * * * //

dimensions      [1 -1 -2 0 0 0 0];


internalField   nonuniform List<scalar> 
164
(
5276.07571304
4791.44100217
4307.30381189
3823.57484255
3340.13380283
2856.82448671
2373.45181742
1889.69076464
1405.41690894
917.610600487
426.774211733
80.2286555866
-14.6330781852
8690.92818062
8202.21905866
7713.88555672
7226.24295693
6253.02859396
5767.45949634
5282.57984274
4798.34779868
4314.70676268
3831.57599952
3348.8354562
2866.31590783
2383.81210305
1901.01534129
1417.92159639
934.29429444
452.263862713
100.263203999
-12.8714915388
8695.70690238
8207.02793837
7718.72605466
7231.14558597
6744.29198734
6258.1797599
5772.83152602
5288.27678034
4804.47390749
4321.39009052
3838.96262761
3357.07173351
2875.52251604
2394.09176457
1912.58660209
1431.16129031
949.777491831
469.165911907
109.275124353
-13.8744164294
8699.75652754
8211.09273785
7722.80192321
7235.2526787
6748.45545993
6262.43919586
5777.2533749
5292.99037045
4809.61271224
4327.14133464
3845.5291606
3364.65822117
2884.26507544
2404.05089855
1923.86693
1443.56299213
962.617239548
477.844881514
110.354243744
-19.3850623862
8703.06771619
8214.40003881
7726.09394627
7238.53250875
6751.72736728
6265.71593559
5780.56750097
5296.45638894
4813.40355665
4331.61667204
3850.94466065
3371.29002652
2892.31590685
2413.43693357
1934.60504623
1455.62397118
976.409512666
495.086683118
93.1421303859
-40.9643386349
8705.64773115
8216.95530454
7728.60512998
7240.97893939
6754.08878411
6267.99780834
5782.82850575
5298.94165459
4816.37155135
4334.92403082
3855.08007488
3376.65762619
2899.33007568
2421.78950059
1944.69011602
1467.20142661
985.44227414
500.896465548
-110.618364027
-161.263416977
8707.52153552
8218.7838439
7730.36012045
7242.59567051
6755.45930461
6268.96356311
5782.99468552
5298.09437248
4815.02449319
4336.10610564
3857.95653088
3381.2394619
2906.27849056
2429.90570502
1954.60540037
1482.33861665
1017.5694249
565.979263946
199.713244155
-52.716893517
8708.73137072
8219.94705874
7731.45154967
7243.55579829
6756.18901362
6269.27674676
5782.22191875
5296.59039707
8709.31539535
8220.49581165
7731.94483636
7243.92914169
6756.34832212
6269.06992603
5781.56534751
5294.6278647
8709.31429497
8220.49469051
7731.9437049
7243.92801232
6756.34720107
6269.06882592
5781.5642164
5294.62672499
8708.72811829
8219.94376382
7731.44823886
7243.55250655
6756.18575586
6269.27346662
5782.21861273
5296.58705013
)
;

boundaryField
{
    back
    {
        type            calculated;
        value           nonuniform List<scalar> 
164
(
5276.07571304
4791.44100217
4307.30381189
3823.57484255
3340.13380283
2856.82448671
2373.45181742
1889.69076464
1405.41690894
917.610600487
426.774211733
80.2286555866
-14.6330781852
8690.92818062
8202.21905866
7713.88555672
7226.24295693
6253.02859396
5767.45949634
5282.57984274
4798.34779868
4314.70676268
3831.57599952
3348.8354562
2866.31590783
2383.81210305
1901.01534129
1417.92159639
934.29429444
452.263862713
100.263203999
-12.8714915388
8695.70690238
8207.02793837
7718.72605466
7231.14558597
6744.29198734
6258.1797599
5772.83152602
5288.27678034
4804.47390749
4321.39009052
3838.96262761
3357.07173351
2875.52251604
2394.09176457
1912.58660209
1431.16129031
949.777491831
469.165911907
109.275124353
-13.8744164294
8699.75652754
8211.09273785
7722.80192321
7235.2526787
6748.45545993
6262.43919586
5777.2533749
5292.99037045
4809.61271224
4327.14133464
3845.5291606
3364.65822117
2884.26507544
2404.05089855
1923.86693
1443.56299213
962.617239548
477.844881514
110.354243744
-19.3850623862
8703.06771619
8214.40003881
7726.09394627
7238.53250875
6751.72736728
6265.71593559
5780.56750097
5296.45638894
4813.40355665
4331.61667204
3850.94466065
3371.29002652
2892.31590685
2413.43693357
1934.60504623
1455.62397118
976.409512666
495.086683118
93.1421303859
-40.9643386349
8705.64773115
8216.95530454
7728.60512998
7240.97893939
6754.08878411
6267.99780834
5782.82850575
5298.94165459
4816.37155135
4334.92403082
3855.08007488
3376.65762619
2899.33007568
2421.78950059
1944.69011602
1467.20142661
985.44227414
500.896465548
-110.618364027
-161.263416977
8707.52153552
8218.7838439
7730.36012045
7242.59567051
6755.45930461
6268.96356311
5782.99468552
5298.09437248
4815.02449319
4336.10610564
3857.95653088
3381.2394619
2906.27849056
2429.90570502
1954.60540037
1482.33861665
1017.5694249
565.979263946
199.713244155
-52.716893517
8708.73137072
8219.94705874
7731.45154967
7243.55579829
6756.18901362
6269.27674676
5782.22191875
5296.59039707
8709.31539535
8220.49581165
7731.94483636
7243.92914169
6756.34832212
6269.06992603
5781.56534751
5294.6278647
8709.31429497
8220.49469051
7731.9437049
7243.92801232
6756.34720107
6269.06882592
5781.5642164
5294.62672499
8708.72811829
8219.94376382
7731.44823886
7243.55250655
6756.18575586
6269.27346662
5782.21861273
5296.58705013
)
;
    }
    sides
    {
        type            calculated;
        value           nonuniform List<scalar> 0();
    }
    bottom
    {
        type            calculated;
        value           nonuniform List<scalar> 10(8935.73664313 8940.51537064 8944.56501927 8947.87620885 8950.45618996 8952.33002101 8953.53988071 8954.12392693 8954.12284141 8953.53666006);
    }
    front
    {
        type            calculated;
        value           nonuniform List<scalar> 
164
(
5276.07571304
4791.44100217
4307.30381189
3823.57484255
3340.13380283
2856.82448671
2373.45181742
1889.69076464
1405.41690894
917.610600487
426.774211733
80.2286555866
-14.6330781852
8690.92818062
8202.21905866
7713.88555672
7226.24295693
6253.02859396
5767.45949634
5282.57984274
4798.34779868
4314.70676268
3831.57599952
3348.8354562
2866.31590783
2383.81210305
1901.01534129
1417.92159639
934.29429444
452.263862713
100.263203999
-12.8714915388
8695.70690238
8207.02793837
7718.72605466
7231.14558597
6744.29198734
6258.1797599
5772.83152602
5288.27678034
4804.47390749
4321.39009052
3838.96262761
3357.07173351
2875.52251604
2394.09176457
1912.58660209
1431.16129031
949.777491831
469.165911907
109.275124353
-13.8744164294
8699.75652754
8211.09273785
7722.80192321
7235.2526787
6748.45545993
6262.43919586
5777.2533749
5292.99037045
4809.61271224
4327.14133464
3845.5291606
3364.65822117
2884.26507544
2404.05089855
1923.86693
1443.56299213
962.617239548
477.844881514
110.354243744
-19.3850623862
8703.06771619
8214.40003881
7726.09394627
7238.53250875
6751.72736728
6265.71593559
5780.56750097
5296.45638894
4813.40355665
4331.61667204
3850.94466065
3371.29002652
2892.31590685
2413.43693357
1934.60504623
1455.62397118
976.409512666
495.086683118
93.1421303859
-40.9643386349
8705.64773115
8216.95530454
7728.60512998
7240.97893939
6754.08878411
6267.99780834
5782.82850575
5298.94165459
4816.37155135
4334.92403082
3855.08007488
3376.65762619
2899.33007568
2421.78950059
1944.69011602
1467.20142661
985.44227414
500.896465548
-110.618364027
-161.263416977
8707.52153552
8218.7838439
7730.36012045
7242.59567051
6755.45930461
6268.96356311
5782.99468552
5298.09437248
4815.02449319
4336.10610564
3857.95653088
3381.2394619
2906.27849056
2429.90570502
1954.60540037
1482.33861665
1017.5694249
565.979263946
199.713244155
-52.716893517
8708.73137072
8219.94705874
7731.45154967
7243.55579829
6756.18901362
6269.27674676
5782.22191875
5296.59039707
8709.31539535
8220.49581165
7731.94483636
7243.92914169
6756.34832212
6269.06992603
5781.56534751
5294.6278647
8709.31429497
8220.49469051
7731.9437049
7243.92801232
6756.34720107
6269.06882592
5781.5642164
5294.62672499
8708.72811829
8219.94376382
7731.44823886
7243.55250655
6756.18575586
6269.27346662
5782.21861273
5296.58705013
)
;
    }
    atmosphere
    {
        type            calculated;
        value           nonuniform List<scalar> 7(-9.90059530263 -9.84276273927 -9.85740540961 -9.95500357162 -10.141641735 -2230.21544302 -9.92625616271);
    }
    floatingObject
    {
        type            calculated;
        value           nonuniform List<scalar> 8(4815.02449319 4336.10610564 3857.95653088 3381.2394619 5051.7818524 5049.81930542 5049.81818175 5051.77849225);
    }
    procBoundary3to4
    {
        type            processor;
        value           nonuniform List<scalar> 
13
(
5268.88689951
4783.89286966
4299.33054301
8685.44195163
8196.69223902
7708.31331129
7220.58963735
6247.08002643
5761.27374763
5761.27374763
6739.29013983
6739.29013983
6739.29013983
)
;
    }
    procBoundary3to5
    {
        type            processor;
        value           nonuniform List<scalar> 10(3815.11029217 3331.11576352 2847.20199157 2363.21023828 1878.97078282 1394.71894309 907.082682597 428.566299552 69.8844595908 -22.5318969658);
    }
    procBoundary3to6
    {
        type            processor;
        value           nonuniform List<scalar> 8(2910.79532822 2438.59664031 1962.32890674 1488.76714194 1017.05345304 544.812583775 105.780468195 -80.5630625054);
    }
    procBoundary3to8
    {
        type            processor;
        value           nonuniform List<scalar> 8(8707.51621852 8218.7784782 7730.3547437 7242.59032174 6755.45399544 6268.95824809 5782.98929446 5298.08865998);
    }
}


// ************************************************************************* //
