/*--------------------------------*- C++ -*----------------------------------*\
| =========                 |                                                 |
| \\      /  F ield         | OpenFOAM: The Open Source CFD Toolbox           |
|  \\    /   O peration     | Version:  v2012                                 |
|   \\  /    A nd           | Website:  www.openfoam.com                      |
|    \\/     M anipulation  |                                                 |
\*---------------------------------------------------------------------------*/
FoamFile
{
    version     2.0;
    format      ascii;
    class       volVectorField;
    location    "1.4";
    object      U;
}
// * * * * * * * * * * * * * * * * * * * * * * * * * * * * * * * * * * * * * //

dimensions      [0 1 -1 0 0 0 0];


internalField   nonuniform List<vector> 
164
(
(0.057503994307 0.041790705695 2.34589382148e-23)
(0.0626322423377 0.0482365744287 1.25074652956e-22)
(0.069031171563 0.0544330627 -7.84907245737e-24)
(0.0765995522766 0.0600851250758 3.51113802587e-23)
(0.0851363605638 0.0649262182502 6.95514523262e-23)
(0.0944019369521 0.0687446862433 -7.2490540262e-22)
(0.104265026594 0.071243680287 -8.06433484037e-23)
(0.1147162905 0.0711899143983 9.7365090334e-22)
(0.125762153669 0.0739071336098 -5.49268441416e-21)
(0.130927537423 0.0684390363782 2.0917389381e-20)
(0.130556986491 0.0762075908865 2.31047390702e-20)
(0.000847735705784 0.0834924827775 5.68824963225e-20)
(-0.458856195432 -0.425618236842 1.01882078261e-19)
(0.0346369689717 0.00344992829157 2.12694629471e-21)
(0.0383027924827 0.00711358734749 -1.46325997801e-21)
(0.0397947998376 0.0129640800276 -3.30246266904e-22)
(0.0409516162516 0.0189494231206 1.47065661979e-22)
(0.0441625195618 0.0317351206276 1.75516646664e-22)
(0.0468330052367 0.0388292372152 2.42102909077e-22)
(0.0505313227378 0.0464159751866 1.05884322796e-22)
(0.0557553131707 0.0542162702234 1.49004150574e-22)
(0.0626292914244 0.061747744749 4.16332287778e-22)
(0.0709634240393 0.0685812935054 2.48908716951e-22)
(0.0805233373418 0.0744117538921 -2.84655084508e-23)
(0.0911823015063 0.0790975349823 -1.37499146845e-23)
(0.103028708978 0.0823653559076 1.40601567127e-21)
(0.115755622577 0.0833339589392 -1.20907818e-21)
(0.129012698509 0.0845105857083 -1.63642665849e-20)
(0.135995376957 0.0801743527594 -1.45408535928e-20)
(0.127515123204 0.0596527567434 -4.16631156744e-21)
(0.0599476582435 0.0409723481174 -1.13587500329e-19)
(0.0461703480793 -0.255910227543 -1.07610523502e-19)
(0.0295405272991 0.0036010870396 4.53425337343e-21)
(0.0327232063289 0.00738443798129 -1.35517400032e-21)
(0.0339358926626 0.0135238088594 -3.10860512752e-23)
(0.034729598975 0.0198609666169 1.99784712363e-22)
(0.0356006483572 0.0265344866339 2.7999606193e-22)
(0.0368880907322 0.0338506478692 4.19511168171e-23)
(0.0390127609932 0.0419358166326 3.37618394657e-22)
(0.0421247166326 0.0509892629229 -2.88779945018e-22)
(0.0474146055906 0.0605293301405 1.34391308664e-22)
(0.0549003792853 0.069727423025 4.76516632226e-24)
(0.0641603558806 0.0779900300863 4.09244836119e-22)
(0.0748221908746 0.0850909987401 2.15349068899e-21)
(0.0868912878385 0.0911462390685 5.57792554883e-22)
(0.100687505622 0.0954466876954 -4.53573336878e-21)
(0.115745279338 0.097842127554 3.82149689122e-22)
(0.131608814778 0.0962972706052 2.39295524319e-20)
(0.148482879598 0.0917541847502 1.91810930527e-20)
(0.157242709331 0.05735938456 1.24651873178e-20)
(0.170921559467 0.0349075995861 -5.92174549429e-20)
(0.366830137578 -0.307703570827 -4.74970542726e-20)
(0.0242877061476 0.00368500681273 6.14469701992e-21)
(0.0269490638493 0.00747018288007 -1.2159528836e-21)
(0.0278241271406 0.0137570585726 8.3800545708e-22)
(0.0281314531845 0.0202904902018 1.30108865716e-21)
(0.0283099469483 0.0273185928921 8.45812927642e-22)
(0.0286924798344 0.0352938184176 2.40563636222e-22)
(0.0298753119441 0.0444169575705 1.041378128e-21)
(0.0316748040079 0.055396732577 1.00631642139e-21)
(0.0372341195 0.0672018446901 -4.74556044932e-22)
(0.0456763676152 0.0784551425153 1.24567740887e-21)
(0.0561321939252 0.0883806953779 -1.16112366131e-21)
(0.0678997564448 0.097105697911 -3.78482993088e-21)
(0.0811751244815 0.104971638706 7.86440659617e-22)
(0.0966161258146 0.110520149899 3.75099922319e-20)
(0.113735647457 0.114849811493 2.18214377967e-20)
(0.133047474716 0.114169763417 -4.02483263348e-20)
(0.157867402627 0.119854283463 -8.04304042742e-20)
(0.179247807063 0.0927062979644 -4.25721595483e-20)
(0.287223082321 0.101266984101 -4.15344957215e-19)
(0.947295618792 -0.538382755545 -2.50596736417e-19)
(0.0190168384387 0.00367391131125 4.94894181325e-21)
(0.0211439366934 0.00731705134159 -1.06613774738e-21)
(0.0216298940008 0.0135624562106 1.02282890002e-21)
(0.0213337621136 0.020053869407 7.16407278305e-22)
(0.0205703547767 0.0271685886007 1.40936849938e-21)
(0.0195143943754 0.0355807908504 2.70429013345e-21)
(0.0187703226496 0.0456947060736 1.18007393531e-20)
(0.0169389862478 0.0592037400911 8.31347770482e-20)
(0.0223940112544 0.073491947081 1.19994269937e-19)
(0.0326271716424 0.0865256351187 1.88150372971e-19)
(0.0448336999688 0.0981952223454 1.07285813617e-19)
(0.0578545769459 0.109658595041 2.96953549021e-20)
(0.0739155063123 0.120115113002 9.01263648267e-22)
(0.0923941497436 0.12777223999 -1.50542236457e-19)
(0.11116775071 0.133305423034 -1.04268570346e-19)
(0.13210639174 0.138251775754 5.36520776771e-20)
(0.167893950905 0.14371638773 9.29533157092e-20)
(0.231856182198 0.136479882215 -2.84984065865e-20)
(0.620731138144 0.0708487800923 -2.57326207228e-19)
(2.84713641925 -0.814104069797 2.49584642679e-20)
(0.0139131671471 0.00353260073976 3.06722973915e-21)
(0.0155200949268 0.0068841634881 -4.08793040594e-23)
(0.0156071461925 0.0128591615352 -4.19470064728e-23)
(0.0147039724239 0.0189592976457 5.45549093999e-22)
(0.0130204629886 0.0255753585297 5.10914837346e-21)
(0.0106602872354 0.0334962518375 1.74285535637e-20)
(0.00874960478178 0.0430870520397 1.03976148183e-19)
(0.00432230328983 0.0584814015231 7.79900923761e-19)
(0.0159993267525 0.0737390991649 1.39371651173e-18)
(0.0239208902021 0.089593563851 3.67201398149e-18)
(0.0328241311335 0.103501486403 3.37200979747e-18)
(0.0423738823662 0.121187693551 2.49362516163e-18)
(0.0608612402767 0.13617269249 -4.54751223229e-19)
(0.0813758596744 0.145959124868 6.50403317006e-19)
(0.101567404288 0.153084255438 1.74174931074e-19)
(0.113468061207 0.172071735992 -3.69578986987e-21)
(0.133982867064 0.191946059181 3.57997153869e-20)
(0.164034056148 0.332102440907 -1.17164187631e-20)
(0.370580592159 0.218402110491 5.07667496482e-19)
(0.387153360861 2.75368404767 4.44671077583e-19)
(0.00918362714393 0.00324902410805 2.88502545675e-21)
(0.0102749359958 0.00620335922516 -1.33086471001e-21)
(0.00996087699485 0.0117385119321 5.05744953622e-22)
(0.00834575032585 0.0172708864743 2.4213827091e-21)
(0.00517770946486 0.0232320583336 2.58398122853e-20)
(0.000146724543926 0.0308839106598 1.2186210449e-19)
(-0.00653999357176 0.0386130255866 6.67805924944e-19)
(-0.020644607243 0.0511830923849 3.81591142096e-18)
(-0.013310090631 0.0606001333237 1.1527956147e-17)
(0.00313047995081 0.0670496495118 2.2255640105e-17)
(0.0158309533884 0.0838392499786 1.29244777131e-17)
(0.0254694474324 0.116565180665 1.86933023899e-17)
(0.058806006856 0.138565254089 1.68354768421e-17)
(0.0783683540211 0.143301491949 6.49223836702e-18)
(0.0906714205412 0.149643213056 3.7056989771e-18)
(0.102951392405 0.160321598882 2.2073406393e-18)
(0.111381181281 0.149802516705 1.01873781589e-18)
(0.104108869236 0.100035906402 4.86553724375e-19)
(-0.0565799186374 0.111032137627 4.48519218314e-19)
(-0.621041713972 -0.482154731072 9.91692938208e-19)
(0.00510763667747 0.00282222247126 -6.90942856023e-22)
(0.00574629932099 0.00528872358536 -1.99948609577e-21)
(0.00535963423842 0.0100059924301 5.50674906825e-22)
(0.00388959754123 0.0139225030045 9.5556343095e-21)
(0.000829507793856 0.0168384390455 7.95068594389e-20)
(-0.00437432560289 0.0188820179643 5.13176411073e-19)
(-0.0107153449454 0.0135365703939 2.29169024459e-18)
(-0.019128628181 0.0176580343757 9.3088123091e-18)
(0.00164100838853 0.0025915824399 3.36012993606e-21)
(0.00186694375048 0.00483109121936 4.05175260561e-22)
(0.00174966322424 0.00925730704125 2.29761872935e-21)
(0.00136095806246 0.0127522967147 2.07000193142e-20)
(0.00067613091788 0.0150418426951 1.7791288861e-19)
(-0.00020872024985 0.0149301996901 1.19258121088e-18)
(-0.000810992277599 0.00905693466454 5.2049630532e-18)
(0.00281518724018 0.00735838200678 2.77744944446e-17)
(-0.00163997916417 0.00259156581658 4.23590772404e-21)
(-0.00186547990097 0.00483108995484 8.46509512638e-22)
(-0.00174819230164 0.00925736535799 2.60587725302e-21)
(-0.00135978943164 0.012752413154 2.01024034793e-20)
(-0.00067535383453 0.0150419945603 1.77547330743e-19)
(0.000209152153182 0.0149302849487 1.19138099109e-18)
(0.000811164462205 0.00905700105709 5.20345133041e-18)
(-0.00281527742691 0.00735843332066 2.77766860856e-17)
(-0.00510660581349 0.0028221478253 3.72281300636e-21)
(-0.00574494866081 0.00528867740662 4.48152990611e-21)
(-0.00535833318594 0.0100061093585 2.36413108197e-21)
(-0.00388856801777 0.0139227922992 9.82103020568e-21)
(-0.000828782702329 0.0168388590594 7.77691316158e-20)
(0.00437482308158 0.0188824591645 5.0989117147e-19)
(0.0107155645089 0.013536968938 2.28970038485e-18)
(0.0191286941124 0.0176582521205 9.30982089745e-18)
)
;

boundaryField
{
    back
    {
        type            noSlip;
    }
    sides
    {
        type            noSlip;
    }
    bottom
    {
        type            noSlip;
    }
    front
    {
        type            noSlip;
    }
    atmosphere
    {
        type            pressureInletOutletVelocity;
        value           nonuniform List<vector> 7((0 -0.425618236842 0) (0 -0.255910227543 0) (0 -0.307703570827 0) (0 -0.538382755545 0) (0 -0.814104069797 0) (0.387153360861 2.75368404767 4.44671077583e-19) (0 -0.482154731072 0));
    }
    floatingObject
    {
        type            movingWallVelocity;
        value           nonuniform List<vector> 8((0 -4.4408920985e-15 5.55111512313e-16) (0 0 5.55111512313e-16) (0 0 0) (0 -8.881784197e-15 5.55111512313e-16) (1.11022302463e-15 0 0) (0 0 5.55111512313e-16) (0 0 5.55111512313e-16) (0 0 0));
    }
    procBoundary3to4
    {
        type            processor;
        value           nonuniform List<vector> 
13
(
(0.0633341772728 0.03719998758 6.85108237777e-23)
(0.0683236853569 0.0425493116888 1.3454684143e-22)
(0.074343770733 0.0476600933538 1.29256165832e-22)
(0.0394764118867 0.00325009659181 5.30512737739e-21)
(0.0435697474811 0.00670887840852 -1.05966035716e-21)
(0.0452854355861 0.0121719954315 3.54184401859e-23)
(0.0466979686196 0.0177076587588 4.51331699064e-22)
(0.0505779700587 0.0292150098841 1.76999486927e-22)
(0.0535624750073 0.0353869707064 1.00717323585e-22)
(0.0535624750073 0.0353869707064 1.00717323585e-22)
(0.042303111927 0.0251348717709 2.12499000746e-22)
(0.042303111927 0.0251348717709 2.12499000746e-22)
(0.042303111927 0.0251348717709 2.12499000746e-22)
)
;
    }
    procBoundary3to5
    {
        type            processor;
        value           nonuniform List<vector> 10((0.0813355603922 0.0523470086002 1.74552043794e-22) (0.0891423839036 0.0564457700776 2.07248931902e-22) (0.0974727195989 0.0598474316826 -8.04344989566e-22) (0.105860529223 0.0622995476523 7.43083868435e-22) (0.114200291183 0.0631238380468 -2.10363134738e-22) (0.122124502846 0.0651123311385 -1.59779177298e-20) (0.124252670833 0.038742714348 1.834361077e-20) (0.104907363955 0.0669765656117 -1.63952580717e-20) (-0.391283491252 -0.0207212341832 3.20037557391e-19) (-1.66263588214 -0.361523669184 1.80412512429e-19));
    }
    procBoundary3to6
    {
        type            processor;
        value           nonuniform List<vector> 8((0.0300485593382 0.0830096213771 1.33762290489e-17) (0.0706484803548 0.0821700801528 6.95280992543e-18) (0.0834089120534 0.109177867932 5.30394091359e-18) (0.0946480896194 0.139930090236 4.16386713729e-18) (0.129909845673 0.167054917013 2.60864862152e-18) (0.201584048318 0.164394374862 1.39775533964e-18) (0.460916504933 0.123591682253 8.19844255695e-19) (2.74866978049 -1.4670226906 9.6640852159e-19));
    }
    procBoundary3to8
    {
        type            processor;
        value           nonuniform List<vector> 8((-0.00918261659041 0.00324898717229 2.28872934155e-21) (-0.0102737890459 0.00620341071618 -8.17757249146e-22) (-0.00995986361694 0.0117388158283 -4.7582753329e-23) (-0.00834499302027 0.0172714644016 2.53347838279e-21) (-0.00517714175805 0.0232328350822 1.99597985431e-20) (-0.000146259825217 0.0308847407753 1.12934669703e-19) (0.00654042668058 0.0386138133735 6.63261197298e-19) (0.0206450866665 0.0511836320918 3.81406600249e-18));
    }
}


// ************************************************************************* //
