/*--------------------------------*- C++ -*----------------------------------*\
| =========                 |                                                 |
| \\      /  F ield         | OpenFOAM: The Open Source CFD Toolbox           |
|  \\    /   O peration     | Version:  v2012                                 |
|   \\  /    A nd           | Website:  www.openfoam.com                      |
|    \\/     M anipulation  |                                                 |
\*---------------------------------------------------------------------------*/
FoamFile
{
    version     2.0;
    format      ascii;
    class       volScalarField;
    location    "4.2";
    object      nut;
}
// * * * * * * * * * * * * * * * * * * * * * * * * * * * * * * * * * * * * * //

dimensions      [0 2 -1 0 0 0 0];


internalField   nonuniform List<scalar> 
164
(
0.000365461484158
0.000543558205229
0.000560696222609
0.000566905668263
0.00056927888467
0.000570398770024
0.000571188366855
0.000571960143065
0.000365579412347
0.000543761399611
0.000560905788664
0.000567122347885
0.000569505797572
0.000570639278227
0.000571445192299
0.000572235472827
0.000365648737425
0.000543894915751
0.000561042726949
0.00056726693527
0.000569662758125
0.000570812244581
0.000571637056994
0.000572448704397
0.000573354672004
0.000574424644224
0.000365668783156
0.000543950280335
0.000561099842854
0.000567334264721
0.000569746229167
0.000570915355814
0.00057176248595
0.000572599148227
0.000573533006032
0.000574630161529
0.000365639002095
0.000543920008389
0.000561069433533
0.000567318401244
0.000569751926609
0.000570945510614
0.000571819132389
0.000572684690443
0.000573650510761
0.00057478179957
0.000365562702157
0.000543800494491
0.000560944843215
0.000567213171954
0.000569675007391
0.000570898852164
0.000571803921093
0.000572703483002
0.000573706917689
0.000574880777673
0.000365432385459
0.000543584306505
0.000560720962434
0.000567013870155
0.000569511338839
0.000570772167785
0.000571714616206
0.000572654080805
0.000573701906966
0.000574928717893
0.000365235537012
0.000543263396496
0.000560393785222
0.000566717757533
0.000569258311242
0.000570563170247
0.000571549602044
0.000572535133003
0.000573634359129
0.000574924916284
0.000364967218138
0.000542834474167
0.000559959884455
0.000566321480335
0.000568912727038
0.00057026901904
0.000571306352993
0.000572344208766
0.000573501710602
0.000574866950116
0.000364623962344
0.000542294807876
0.000559415838414
0.000565821378796
0.000568471219498
0.000569886719656
0.000570981398933
0.000572078977974
0.000573302182571
0.000574749926131
0.000364200624707
0.000541640414612
0.000558758325716
0.000565214262506
0.00056793035783
0.000569412654685
0.000570573629117
0.000571739552702
0.000573035538658
0.000574568994275
0.000363691923167
0.000540867993797
0.000557985197537
0.000564496934085
0.00056728769934
0.000568846559343
0.000570083780017
0.000571326918056
0.000572703945668
0.000574326377257
0.000363093829821
0.000539977023971
0.000557096044355
0.000563669734593
0.000566543500682
0.000568188557046
0.000569511830936
0.000570842906784
0.000572311305177
0.000574029719201
0.000362401008387
0.000538967720057
0.000556092583562
0.000562733865497
0.000565697865561
0.000567438440467
0.000568858895636
0.000570290043235
0.000571860726401
0.000573688770345
0.000361622700616
0.000537841585181
0.000554976792983
0.000561690934587
0.000564752183107
0.000566597963098
0.000568128215987
0.000569673327571
0.000571358629152
0.00057330291795
0.000360741376707
0.000536605319059
0.000553756098598
0.000560546176677
0.000563710389308
0.000565670319164
0.000567323454447
0.000568993995548
0.000570811001088
0.000572875118974
0.000359783840514
0.000535272636497
0.000552442300659
0.000559309784334
0.000562577875038
0.000564658619595
0.000566440545935
0.000561362090141
)
;

boundaryField
{
    back
    {
        type            nutkWallFunction;
        blending        stepwise;
        Cmu             0.09;
        kappa           0.41;
        E               9.8;
        value           nonuniform List<scalar> 
164
(
5.19302259669e-05
5.73765166383e-05
5.90215946475e-05
5.9614990313e-05
5.98403984202e-05
5.99457097117e-05
6.0019252179e-05
6.00907926539e-05
5.19454403731e-05
5.7397071479e-05
5.90435027234e-05
5.96380336656e-05
5.98646401951e-05
5.99713568571e-05
6.00465454249e-05
6.01199466284e-05
5.19547180698e-05
5.74112884843e-05
5.90587414018e-05
5.96544270883e-05
5.98824228457e-05
5.99907814794e-05
6.00678582929e-05
6.01433831929e-05
6.02274489045e-05
6.03265120051e-05
5.19581008209e-05
5.7418299443e-05
5.90665873292e-05
5.96636390922e-05
5.98933621844e-05
6.00036890451e-05
6.00829670291e-05
6.01609612489e-05
6.02478426391e-05
6.0349642701e-05
5.19554588436e-05
5.74172699842e-05
5.90662236179e-05
5.96650446676e-05
5.9896993482e-05
6.00097300278e-05
6.00915876747e-05
6.01723986102e-05
6.02624122508e-05
6.03675572269e-05
5.19471622323e-05
5.74078345294e-05
5.90569319138e-05
5.96579738129e-05
5.98927907033e-05
6.0008479071e-05
6.00933696582e-05
6.01774523746e-05
6.02710923496e-05
6.0380285926e-05
5.19323669863e-05
5.73892264233e-05
5.9038155622e-05
5.9641900479e-05
5.98802894949e-05
5.99995687041e-05
6.00880380486e-05
6.01759257364e-05
6.02737843239e-05
6.03878974727e-05
5.19093393735e-05
5.73605747149e-05
5.90094602067e-05
5.96165279752e-05
5.98591995144e-05
5.99827351053e-05
6.00753967022e-05
6.01676593744e-05
6.02703630239e-05
6.03903097673e-05
5.18773042608e-05
5.73215231769e-05
5.89704796456e-05
5.95814963601e-05
5.98291722331e-05
5.99576600978e-05
6.0055171222e-05
6.01523948902e-05
6.02605821889e-05
6.03873367852e-05
5.18356617483e-05
5.72717923991e-05
5.89208400285e-05
5.9536398614e-05
5.97898339771e-05
5.99240210821e-05
6.00269953596e-05
6.01298786853e-05
6.02442513476e-05
6.03785791157e-05
5.1783676276e-05
5.72109250175e-05
5.88601677168e-05
5.94808837102e-05
5.97408140586e-05
5.98814290235e-05
5.99907075237e-05
6.01000651697e-05
6.02213097716e-05
6.03635939848e-05
5.17206109308e-05
5.71385321396e-05
5.87882059582e-05
5.94145994316e-05
5.96818309349e-05
5.982979613e-05
5.99463208235e-05
6.00629893101e-05
6.0191893143e-05
6.03425210072e-05
5.16458953659e-05
5.70545731261e-05
5.87048872104e-05
5.93375280622e-05
5.96128519143e-05
5.97690834364e-05
5.98937802012e-05
6.00187656983e-05
6.01563072609e-05
6.03159293003e-05
5.15587518326e-05
5.69590304661e-05
5.86103407915e-05
5.92497469449e-05
5.953384471e-05
5.96992247534e-05
5.98331442353e-05
5.99675954781e-05
6.0114819947e-05
6.0284745046e-05
5.14603572727e-05
5.68519764616e-05
5.85047024342e-05
5.91513683836e-05
5.94448994907e-05
5.96203392335e-05
5.97646662422e-05
5.99099229244e-05
6.0068019027e-05
6.02490417691e-05
5.13483867999e-05
5.67340789158e-05
5.83886959038e-05
5.90428808572e-05
5.93463601232e-05
5.95327001906e-05
5.96886975102e-05
5.98458325802e-05
6.00164197063e-05
6.02089832307e-05
5.12262701241e-05
5.6606667684e-05
5.82634670301e-05
5.89252534249e-05
5.9238773916e-05
5.94366390535e-05
5.96048734086e-05
5.91228491945e-05
)
;
    }
    sides
    {
        type            nutkWallFunction;
        blending        stepwise;
        Cmu             0.09;
        kappa           0.41;
        E               9.8;
        value           nonuniform List<scalar> 0();
    }
    bottom
    {
        type            nutkWallFunction;
        blending        stepwise;
        Cmu             0.09;
        kappa           0.41;
        E               9.8;
        value           nonuniform List<scalar> 
17
(
2.75764174683e-05
2.75845533609e-05
2.75895145944e-05
2.75913235136e-05
2.75899107217e-05
2.75854741228e-05
2.75775623778e-05
2.7565248351e-05
2.75481174971e-05
2.75258489543e-05
2.74980492894e-05
2.74643243126e-05
2.74243688706e-05
2.73777668553e-05
2.73251474432e-05
2.72652670669e-05
2.71999596069e-05
)
;
    }
    front
    {
        type            nutkWallFunction;
        blending        stepwise;
        Cmu             0.09;
        kappa           0.41;
        E               9.8;
        value           nonuniform List<scalar> 
164
(
5.19302259669e-05
5.73765166383e-05
5.90215946475e-05
5.9614990313e-05
5.98403984202e-05
5.99457097117e-05
6.0019252179e-05
6.00907926539e-05
5.19454403731e-05
5.7397071479e-05
5.90435027234e-05
5.96380336656e-05
5.98646401951e-05
5.99713568571e-05
6.00465454249e-05
6.01199466284e-05
5.19547180698e-05
5.74112884843e-05
5.90587414018e-05
5.96544270883e-05
5.98824228457e-05
5.99907814794e-05
6.00678582929e-05
6.01433831929e-05
6.02274489045e-05
6.03265120051e-05
5.19581008209e-05
5.7418299443e-05
5.90665873292e-05
5.96636390922e-05
5.98933621844e-05
6.00036890451e-05
6.00829670291e-05
6.01609612489e-05
6.02478426391e-05
6.0349642701e-05
5.19554588436e-05
5.74172699842e-05
5.90662236179e-05
5.96650446676e-05
5.9896993482e-05
6.00097300278e-05
6.00915876747e-05
6.01723986102e-05
6.02624122508e-05
6.03675572269e-05
5.19471622323e-05
5.74078345294e-05
5.90569319138e-05
5.96579738129e-05
5.98927907033e-05
6.0008479071e-05
6.00933696582e-05
6.01774523746e-05
6.02710923496e-05
6.0380285926e-05
5.19323669863e-05
5.73892264233e-05
5.9038155622e-05
5.9641900479e-05
5.98802894949e-05
5.99995687041e-05
6.00880380486e-05
6.01759257364e-05
6.02737843239e-05
6.03878974727e-05
5.19093393735e-05
5.73605747149e-05
5.90094602067e-05
5.96165279752e-05
5.98591995144e-05
5.99827351053e-05
6.00753967022e-05
6.01676593744e-05
6.02703630239e-05
6.03903097673e-05
5.18773042608e-05
5.73215231769e-05
5.89704796456e-05
5.95814963601e-05
5.98291722331e-05
5.99576600978e-05
6.0055171222e-05
6.01523948902e-05
6.02605821889e-05
6.03873367852e-05
5.18356617483e-05
5.72717923991e-05
5.89208400285e-05
5.9536398614e-05
5.97898339771e-05
5.99240210821e-05
6.00269953596e-05
6.01298786853e-05
6.02442513476e-05
6.03785791157e-05
5.1783676276e-05
5.72109250175e-05
5.88601677168e-05
5.94808837102e-05
5.97408140586e-05
5.98814290235e-05
5.99907075237e-05
6.01000651697e-05
6.02213097716e-05
6.03635939848e-05
5.17206109308e-05
5.71385321396e-05
5.87882059582e-05
5.94145994316e-05
5.96818309349e-05
5.982979613e-05
5.99463208235e-05
6.00629893101e-05
6.0191893143e-05
6.03425210072e-05
5.16458953659e-05
5.70545731261e-05
5.87048872104e-05
5.93375280622e-05
5.96128519143e-05
5.97690834364e-05
5.98937802012e-05
6.00187656983e-05
6.01563072609e-05
6.03159293003e-05
5.15587518326e-05
5.69590304661e-05
5.86103407915e-05
5.92497469449e-05
5.953384471e-05
5.96992247534e-05
5.98331442353e-05
5.99675954781e-05
6.0114819947e-05
6.0284745046e-05
5.14603572727e-05
5.68519764616e-05
5.85047024342e-05
5.91513683836e-05
5.94448994907e-05
5.96203392335e-05
5.97646662422e-05
5.99099229244e-05
6.0068019027e-05
6.02490417691e-05
5.13483867999e-05
5.67340789158e-05
5.83886959038e-05
5.90428808572e-05
5.93463601232e-05
5.95327001906e-05
5.96886975102e-05
5.98458325802e-05
6.00164197063e-05
6.02089832307e-05
5.12262701241e-05
5.6606667684e-05
5.82634670301e-05
5.89252534249e-05
5.9238773916e-05
5.94366390535e-05
5.96048734086e-05
5.91228491945e-05
)
;
    }
    atmosphere
    {
        type            calculated;
        value           nonuniform List<scalar> 0();
    }
    floatingObject
    {
        type            nutkWallFunction;
        blending        stepwise;
        Cmu             0.09;
        kappa           0.41;
        E               9.8;
        value           nonuniform List<scalar> 0();
    }
    procBoundary4to0
    {
        type            processor;
        value           nonuniform List<scalar> 8(0.000365292199504 0.000543286310923 0.000560417227056 0.000566621490534 0.000568987745806 0.000570097749732 0.000570874117742 0.000571631014725);
    }
    procBoundary4to3
    {
        type            processor;
        value           nonuniform List<scalar> 
13
(
0.000568253579158
0.000570220793082
0.000572430054117
0.000358741943561
0.000533858815997
0.000551052112035
0.000557991964209
0.000563556196307
0.000568253579158
0.000565468345918
0.000557991964209
0.000563556196307
0.000560062378396
)
;
    }
    procBoundary4to5
    {
        type            processor;
        value           nonuniform List<scalar> 
18
(
0.000572823585991
0.000573118185083
0.000573118185083
0.000574167270962
0.000575793558748
0.000576020640253
0.000576207185502
0.000576359935817
0.000576487045581
0.000576592157855
0.000576669057289
0.00057669580308
0.000576646034932
0.00057651673075
0.000576341713838
0.000576132742979
0.000575850128398
0.000575488397465
)
;
    }
}


// ************************************************************************* //
