/*--------------------------------*- C++ -*----------------------------------*\
| =========                 |                                                 |
| \\      /  F ield         | OpenFOAM: The Open Source CFD Toolbox           |
|  \\    /   O peration     | Version:  v2012                                 |
|   \\  /    A nd           | Website:  www.openfoam.com                      |
|    \\/     M anipulation  |                                                 |
\*---------------------------------------------------------------------------*/
FoamFile
{
    version     2.0;
    format      ascii;
    class       surfaceScalarField;
    location    "2.8";
    object      phi;
}
// * * * * * * * * * * * * * * * * * * * * * * * * * * * * * * * * * * * * * //

dimensions      [0 3 -1 0 0 0 0];
oriented        oriented;


internalField   nonuniform List<scalar> 
300
(
3.05957505e-06
-4.89889120265e-05
6.13418989552e-06
-5.76234928593e-05
9.26819525987e-06
-6.47565351185e-05
1.22814619266e-05
-6.80566312707e-05
1.50635077928e-05
-6.94593652531e-05
1.74326880753e-05
-7.02029841339e-05
1.92529141797e-05
-7.08064351756e-05
-7.13240595814e-05
2.98542658467e-06
-5.19748116906e-05
5.98616553192e-06
-6.06249982538e-05
8.99866766513e-06
-6.77702311989e-05
1.18936297838e-05
-7.09532519182e-05
1.45592375179e-05
-7.21270058549e-05
1.68676755491e-05
-7.25136823334e-05
1.87395294924e-05
-7.26806174389e-05
1.99457052616e-05
-7.2532525037e-05
2.03096864933e-05
-7.19896476161e-05
1.92778730348e-05
-7.07032612791e-05
-6.85854205391e-05
2.98476260015e-06
-5.49598607855e-05
5.93883718098e-06
-6.3579662972e-05
8.85928553476e-06
-7.06917143352e-05
1.16912145968e-05
-7.37867473067e-05
1.43563456946e-05
-7.4794221831e-05
1.68072362403e-05
-7.49670861558e-05
1.88806458493e-05
-7.47568333503e-05
2.05008400106e-05
-7.41556479674e-05
2.13698702421e-05
-7.28614410431e-05
2.13125891522e-05
-7.06483052126e-05
1.99236292983e-05
-6.719767531e-05
1.62350543431e-05
-6.15807156806e-05
-5.36497268923e-05
3.018509255e-06
-5.79787231465e-05
5.95796396465e-06
-6.65197892378e-05
8.83130834306e-06
-7.35662292135e-05
1.16550212624e-05
-7.66122767167e-05
1.44192195566e-05
-7.7560927881e-05
1.70782905916e-05
-7.76292938103e-05
1.95213739816e-05
-7.72035111178e-05
2.17536935841e-05
-7.63917497654e-05
2.36470175072e-05
-7.47582815577e-05
2.51711412992e-05
-7.21751549132e-05
2.58473726778e-05
-6.7875081884e-05
2.55412879309e-05
-6.12727845174e-05
2.34085593202e-05
-5.15105598163e-05
-3.80291146376e-05
3.03153331297e-06
-6.10107534557e-05
5.95257856215e-06
-6.94416596761e-05
8.8671430305e-06
-7.64822062494e-05
1.17685969195e-05
-7.95159521215e-05
1.46144713829e-05
-8.04099266978e-05
1.74991832393e-05
-8.05179689512e-05
2.04493925221e-05
-8.01582844196e-05
2.33972250278e-05
-7.93442986446e-05
2.6500214909e-05
-7.78654809869e-05
2.95283353737e-05
-7.5206152007e-05
3.27851839872e-05
-7.11325760202e-05
3.62817371823e-05
-6.47660256991e-05
3.98555316628e-05
-5.50752689416e-05
-4.13828892942e-05
3.04875989181e-06
-6.40600851614e-05
5.90946634361e-06
-7.23032721571e-05
8.78712133924e-06
-7.93614791766e-05
1.17088178435e-05
-8.2440289547e-05
1.47358274696e-05
-8.34407380211e-05
1.79117438875e-05
-8.36987623474e-05
2.12975234835e-05
-8.35496682461e-05
2.49643198047e-05
-8.30167875284e-05
2.89947625581e-05
-8.19007772153e-05
3.37052403288e-05
-7.9919548702e-05
3.93931814634e-05
-7.6820436271e-05
4.65465646957e-05
-7.19141904674e-05
5.6082745428e-05
-6.45988905745e-05
-5.44990346812e-05
2.98784990684e-06
-6.70484013453e-05
5.88603590749e-06
-7.52022675257e-05
8.72445432981e-06
-8.22015830597e-05
1.16725462184e-05
-8.53913518474e-05
1.48086014241e-05
-8.65812264346e-05
1.81444161466e-05
-8.70403549938e-05
2.18458874629e-05
-8.72577883377e-05
2.60526603959e-05
-8.72302309721e-05
3.09698308445e-05
-8.68234507053e-05
3.69336444631e-05
-8.5886361213e-05
4.4397367513e-05
-8.42834412481e-05
5.41529084934e-05
-8.16626937845e-05
6.74232208809e-05
-7.78534444493e-05
-7.30549895313e-05
2.94166771728e-06
-6.99901832946e-05
5.68914535481e-06
-7.79502246543e-05
8.46426321974e-06
-8.49782639058e-05
1.13569831445e-05
-8.82872233944e-05
1.4472789137e-05
-8.97019861554e-05
1.79425316588e-05
-9.05166981717e-05
2.18737036823e-05
-9.11966090712e-05
2.64411350619e-05
-9.18053070604e-05
3.19045351168e-05
-9.22930660453e-05
3.86130013826e-05
-9.25980809131e-05
4.69755830235e-05
-9.26450095764e-05
5.77965204023e-05
-9.24753910286e-05
7.21417414097e-05
-9.21809567217e-05
-9.23067923283e-05
2.77149219657e-06
-7.27611828274e-05
5.42241872508e-06
-8.06010653844e-05
8.05810960903e-06
-8.76151863911e-05
1.08350108385e-05
-9.10672815946e-05
1.38711098215e-05
-9.27434182415e-05
1.72946146816e-05
-9.39475261274e-05
2.1245056767e-05
-9.51556531804e-05
2.5906410997e-05
-9.64753101167e-05
3.15173587946e-05
-9.79110814338e-05
3.83847950636e-05
-9.94693241831e-05
4.69357241058e-05
-0.000101195149256
5.76881954471e-05
-0.000103219385477
7.13114117694e-05
-0.00010578910456
-0.000109347207047
2.5918728636e-06
-7.53507124177e-05
5.04836489003e-06
-8.3056046523e-05
7.45521252545e-06
-9.0022383426e-05
1.00107722177e-05
-9.36258575e-05
1.28480820865e-05
-9.55868098445e-05
1.60938167991e-05
-9.72022348622e-05
1.98910918626e-05
-9.89639261122e-05
2.44224713908e-05
-0.000101018141735
2.98804735855e-05
-0.000103378902187
3.65245742678e-05
-0.000106119468786
4.46823339345e-05
-0.000109353534286
5.46320764707e-05
-0.000113163304223
6.66370163188e-05
-0.000117781454054
8.08218172552e-05
-0.000123513801149
9.62143745427e-05
-0.000131457291714
-0.000144995039181
2.35615614908e-06
-7.77023270297e-05
4.50869039251e-06
-8.52054844293e-05
6.6141231241e-06
-9.21275682019e-05
8.86373235739e-06
-9.5879155182e-05
1.13918781698e-05
-9.81231152896e-05
1.43337585655e-05
-0.000100156444386
1.78222306413e-05
-0.000102467629752
2.19734366385e-05
-0.000105185234479
2.70434053829e-05
-0.000108462501755
3.32050358891e-05
-0.000112289578699
4.06801156732e-05
-0.000116829937255
4.967977794e-05
-0.000122156840765
6.02480755219e-05
-0.000128337542614
7.21943133946e-05
-0.000135445317389
8.40193944119e-05
-0.000143270755347
-0.000155018530215
1.98699455669e-06
3.76738819262e-06
5.50918063767e-06
7.36701848275e-06
9.48696536519e-06
1.19879910052e-05
1.49950150406e-05
1.86814303608e-05
2.31350795315e-05
2.86197699366e-05
3.52414340416e-05
4.32773995342e-05
5.25965009505e-05
6.33802881955e-05
7.47239397227e-05
)
;

boundaryField
{
    back
    {
        type            calculated;
        value           uniform 0;
    }
    sides
    {
        type            calculated;
        value           nonuniform List<scalar> 0();
    }
    bottom
    {
        type            calculated;
        value           uniform 0;
    }
    front
    {
        type            calculated;
        value           uniform 0;
    }
    atmosphere
    {
        type            calculated;
        value           nonuniform List<scalar> 0();
    }
    floatingObject
    {
        type            calculated;
        value           nonuniform List<scalar> 0();
    }
    procBoundary7to6
    {
        type            processor;
        value           nonuniform List<scalar> 
11
(
1.75984814263e-05
4.3221972261e-05
6.9215808627e-05
8.5999620586e-05
9.14164776353e-05
8.83728236337e-05
0.000116094252579
0.000130977947737
0.000110251331504
9.40484759713e-05
8.4635832611e-05
)
;
    }
    procBoundary7to8
    {
        type            processor;
        value           nonuniform List<scalar> 
17
(
4.5926688769e-05
5.45458275618e-05
6.1618805832e-05
6.5038964381e-05
6.66725651496e-05
6.78291437189e-05
6.89822467546e-05
7.02402042251e-05
2.03338074577e-05
7.16228066695e-05
7.17330425764e-05
7.13163606554e-05
1.65463518426e-05
6.52704590039e-05
6.02796521328e-05
9.61099069554e-06
4.38508468387e-05
)
;
    }
    procBoundary7to9
    {
        type            processor;
        value           nonuniform List<scalar> 
16
(
-7.968374619e-05
-8.69821186202e-05
-9.38689826788e-05
-9.774123741e-05
-0.000100252457691
-0.000102671601255
-0.000105491971424
-0.000108889505761
-0.000112931231931
-0.000117783331292
-0.000123452702594
-0.00013018613431
-0.000137645010492
-0.000146217070047
-0.000154605965664
-0.000164926211156
)
;
    }
}


// ************************************************************************* //
