/*--------------------------------*- C++ -*----------------------------------*\
| =========                 |                                                 |
| \\      /  F ield         | OpenFOAM: The Open Source CFD Toolbox           |
|  \\    /   O peration     | Version:  v2012                                 |
|   \\  /    A nd           | Website:  www.openfoam.com                      |
|    \\/     M anipulation  |                                                 |
\*---------------------------------------------------------------------------*/
FoamFile
{
    version     2.0;
    format      ascii;
    class       volScalarField;
    location    "3.6";
    object      k;
}
// * * * * * * * * * * * * * * * * * * * * * * * * * * * * * * * * * * * * * //

dimensions      [0 2 -2 0 0 0 0];


internalField   nonuniform List<scalar> 
167
(
0.00348662423865
0.00355986579899
0.00373068133454
0.00417063340775
0.00543766237243
0.00900791380496
0.0174323163392
0.0347125118397
0.073781264618
0.00355578133994
0.00372623546518
0.00415798405471
0.00540551466305
0.00898053073281
0.0174648764208
0.0348129242244
0.0739354097226
0.00355256723482
0.00372488047115
0.00415371817313
0.00538369563902
0.00893981828991
0.0174630922664
0.0349042823799
0.0740854900387
0.00347108172402
0.00355081027625
0.00372946255369
0.00417093087453
0.00541185942173
0.00891264752143
0.0172759595452
0.0346568649947
0.0740583240078
0.00346633631782
0.00354931574034
0.00373491310341
0.00419291474867
0.0054600771874
0.00890367082052
0.0169369092577
0.0340192804968
0.0738373945827
0.00346157788604
0.00354726301054
0.00373705406761
0.00420178957916
0.00547595119556
0.0088611975847
0.016536809439
0.0331762142773
0.0735094056318
0.00341447162676
0.00345684260243
0.00354477262865
0.00373659250454
0.00420051659705
0.00547005426006
0.00883478516635
0.0163400165818
0.0326291944967
0.0732674421621
0.00338505634815
0.00340838007498
0.00345226142409
0.00354230153485
0.00373544114441
0.00419596092926
0.00546088006781
0.00885992149985
0.0164467326477
0.0327196866174
0.0732315293172
0.00337821417175
0.00340249019397
0.00344798205552
0.00354062576388
0.00373764086849
0.00420588100337
0.00550109009837
0.00902033873427
0.0168998535564
0.0334499934225
0.0734144552377
0.00339668310788
0.00344389066266
0.00353972006431
0.0037431568629
0.00422820175429
0.00557628818736
0.00925407522325
0.0175444249557
0.0346794211563
0.0739000349436
0.00339045680327
0.00343947847369
0.00353884866924
0.00374994497718
0.00425522819492
0.00565776228768
0.00946940582182
0.0180998454833
0.0358502344507
0.0744020889404
0.00338229157635
0.00343311601924
0.0035363263247
0.0037560966367
0.00428053651538
0.00571912954786
0.00959304410979
0.0184683400202
0.0367309236411
0.0747295435161
0.00336797100754
0.0034203764015
0.00352727334401
0.00375534508414
0.00429481066736
0.00574468014879
0.00963671949475
0.0187856570564
0.0376051671294
0.0750887650056
0.00333621424238
0.00338934741421
0.00349845163539
0.00373197702308
0.00428137348693
0.00574568380871
0.00973994199828
0.0194612075344
0.0390984118303
0.0757264605622
0.00323037271642
0.00325783712505
0.00330980352322
0.00341720418698
0.00364838581529
0.00419528656355
0.00567441796947
0.00982150120195
0.0200180651278
0.0398503175853
0.0759365428634
0.00303061907701
0.00305592314994
0.00310331133513
0.00320141581521
0.00341315821906
0.00392095174117
0.0053570494562
0.00957439720376
0.0198463799538
0.0390759866141
0.0754626099296
0.00243373556145
0.00245466261108
0.00249129133006
0.00256457138822
0.00271928433111
0.00309079625862
0.00422336193477
0.00798209057182
0.0182586247362
0.0391101948602
0.0744315738217
)
;

boundaryField
{
    back
    {
        type            kqRWallFunction;
        value           nonuniform List<scalar> 
167
(
0.00348662423865
0.00355986579899
0.00373068133454
0.00417063340775
0.00543766237243
0.00900791380496
0.0174323163392
0.0347125118397
0.073781264618
0.00355578133994
0.00372623546518
0.00415798405471
0.00540551466305
0.00898053073281
0.0174648764208
0.0348129242244
0.0739354097226
0.00355256723482
0.00372488047115
0.00415371817313
0.00538369563902
0.00893981828991
0.0174630922664
0.0349042823799
0.0740854900387
0.00347108172402
0.00355081027625
0.00372946255369
0.00417093087453
0.00541185942173
0.00891264752143
0.0172759595452
0.0346568649947
0.0740583240078
0.00346633631782
0.00354931574034
0.00373491310341
0.00419291474867
0.0054600771874
0.00890367082052
0.0169369092577
0.0340192804968
0.0738373945827
0.00346157788604
0.00354726301054
0.00373705406761
0.00420178957916
0.00547595119556
0.0088611975847
0.016536809439
0.0331762142773
0.0735094056318
0.00341447162676
0.00345684260243
0.00354477262865
0.00373659250454
0.00420051659705
0.00547005426006
0.00883478516635
0.0163400165818
0.0326291944967
0.0732674421621
0.00338505634815
0.00340838007498
0.00345226142409
0.00354230153485
0.00373544114441
0.00419596092926
0.00546088006781
0.00885992149985
0.0164467326477
0.0327196866174
0.0732315293172
0.00337821417175
0.00340249019397
0.00344798205552
0.00354062576388
0.00373764086849
0.00420588100337
0.00550109009837
0.00902033873427
0.0168998535564
0.0334499934225
0.0734144552377
0.00339668310788
0.00344389066266
0.00353972006431
0.0037431568629
0.00422820175429
0.00557628818736
0.00925407522325
0.0175444249557
0.0346794211563
0.0739000349436
0.00339045680327
0.00343947847369
0.00353884866924
0.00374994497718
0.00425522819492
0.00565776228768
0.00946940582182
0.0180998454833
0.0358502344507
0.0744020889404
0.00338229157635
0.00343311601924
0.0035363263247
0.0037560966367
0.00428053651538
0.00571912954786
0.00959304410979
0.0184683400202
0.0367309236411
0.0747295435161
0.00336797100754
0.0034203764015
0.00352727334401
0.00375534508414
0.00429481066736
0.00574468014879
0.00963671949475
0.0187856570564
0.0376051671294
0.0750887650056
0.00333621424238
0.00338934741421
0.00349845163539
0.00373197702308
0.00428137348693
0.00574568380871
0.00973994199828
0.0194612075344
0.0390984118303
0.0757264605622
0.00323037271642
0.00325783712505
0.00330980352322
0.00341720418698
0.00364838581529
0.00419528656355
0.00567441796947
0.00982150120195
0.0200180651278
0.0398503175853
0.0759365428634
0.00303061907701
0.00305592314994
0.00310331133513
0.00320141581521
0.00341315821906
0.00392095174117
0.0053570494562
0.00957439720376
0.0198463799538
0.0390759866141
0.0754626099296
0.00243373556145
0.00245466261108
0.00249129133006
0.00256457138822
0.00271928433111
0.00309079625862
0.00422336193477
0.00798209057182
0.0182586247362
0.0391101948602
0.0744315738217
)
;
    }
    sides
    {
        type            kqRWallFunction;
        value           nonuniform List<scalar> 
11
(
0.00243373556145
0.00245466261108
0.00249129133006
0.00256457138822
0.00271928433111
0.00309079625862
0.00422336193477
0.00798209057182
0.0182586247362
0.0391101948602
0.0744315738217
)
;
    }
    bottom
    {
        type            kqRWallFunction;
        value           nonuniform List<scalar> 0();
    }
    front
    {
        type            kqRWallFunction;
        value           nonuniform List<scalar> 
167
(
0.00348662423865
0.00355986579899
0.00373068133454
0.00417063340775
0.00543766237243
0.00900791380496
0.0174323163392
0.0347125118397
0.073781264618
0.00355578133994
0.00372623546518
0.00415798405471
0.00540551466305
0.00898053073281
0.0174648764208
0.0348129242244
0.0739354097226
0.00355256723482
0.00372488047115
0.00415371817313
0.00538369563902
0.00893981828991
0.0174630922664
0.0349042823799
0.0740854900387
0.00347108172402
0.00355081027625
0.00372946255369
0.00417093087453
0.00541185942173
0.00891264752143
0.0172759595452
0.0346568649947
0.0740583240078
0.00346633631782
0.00354931574034
0.00373491310341
0.00419291474867
0.0054600771874
0.00890367082052
0.0169369092577
0.0340192804968
0.0738373945827
0.00346157788604
0.00354726301054
0.00373705406761
0.00420178957916
0.00547595119556
0.0088611975847
0.016536809439
0.0331762142773
0.0735094056318
0.00341447162676
0.00345684260243
0.00354477262865
0.00373659250454
0.00420051659705
0.00547005426006
0.00883478516635
0.0163400165818
0.0326291944967
0.0732674421621
0.00338505634815
0.00340838007498
0.00345226142409
0.00354230153485
0.00373544114441
0.00419596092926
0.00546088006781
0.00885992149985
0.0164467326477
0.0327196866174
0.0732315293172
0.00337821417175
0.00340249019397
0.00344798205552
0.00354062576388
0.00373764086849
0.00420588100337
0.00550109009837
0.00902033873427
0.0168998535564
0.0334499934225
0.0734144552377
0.00339668310788
0.00344389066266
0.00353972006431
0.0037431568629
0.00422820175429
0.00557628818736
0.00925407522325
0.0175444249557
0.0346794211563
0.0739000349436
0.00339045680327
0.00343947847369
0.00353884866924
0.00374994497718
0.00425522819492
0.00565776228768
0.00946940582182
0.0180998454833
0.0358502344507
0.0744020889404
0.00338229157635
0.00343311601924
0.0035363263247
0.0037560966367
0.00428053651538
0.00571912954786
0.00959304410979
0.0184683400202
0.0367309236411
0.0747295435161
0.00336797100754
0.0034203764015
0.00352727334401
0.00375534508414
0.00429481066736
0.00574468014879
0.00963671949475
0.0187856570564
0.0376051671294
0.0750887650056
0.00333621424238
0.00338934741421
0.00349845163539
0.00373197702308
0.00428137348693
0.00574568380871
0.00973994199828
0.0194612075344
0.0390984118303
0.0757264605622
0.00323037271642
0.00325783712505
0.00330980352322
0.00341720418698
0.00364838581529
0.00419528656355
0.00567441796947
0.00982150120195
0.0200180651278
0.0398503175853
0.0759365428634
0.00303061907701
0.00305592314994
0.00310331133513
0.00320141581521
0.00341315821906
0.00392095174117
0.0053570494562
0.00957439720376
0.0198463799538
0.0390759866141
0.0754626099296
0.00243373556145
0.00245466261108
0.00249129133006
0.00256457138822
0.00271928433111
0.00309079625862
0.00422336193477
0.00798209057182
0.0182586247362
0.0391101948602
0.0744315738217
)
;
    }
    atmosphere
    {
        type            inletOutlet;
        inletValue      uniform 0.1;
        value           uniform 0.1;
    }
    floatingObject
    {
        type            kqRWallFunction;
        value           nonuniform List<scalar> 0();
    }
    procBoundary11to9
    {
        type            processor;
        value           nonuniform List<scalar> 9(0.00349186427011 0.00356329164285 0.00373271080527 0.00417467126095 0.00544832300564 0.00901854923116 0.0174247871973 0.0346910116133 0.0737147480994);
    }
    procBoundary11to10
    {
        type            processor;
        value           nonuniform List<scalar> 
23
(
0.00345290037376
0.00348118303337
0.00348118303337
0.00347596600082
0.00347596600082
0.00343345462003
0.00342706474112
0.00342072003454
0.00342072003454
0.00339206137807
0.00339206137807
0.0033702889267
0.0033628113784
0.00337142533671
0.00337142533671
0.00336421221634
0.00335513601029
0.00334009084109
0.00330808774749
0.00330808774749
0.00321281909417
0.00301407423326
0.00241882938941
)
;
    }
}


// ************************************************************************* //
