/*--------------------------------*- C++ -*----------------------------------*\
| =========                 |                                                 |
| \\      /  F ield         | OpenFOAM: The Open Source CFD Toolbox           |
|  \\    /   O peration     | Version:  v2012                                 |
|   \\  /    A nd           | Website:  www.openfoam.com                      |
|    \\/     M anipulation  |                                                 |
\*---------------------------------------------------------------------------*/
FoamFile
{
    version     2.0;
    format      ascii;
    class       surfaceScalarField;
    location    "3.2";
    object      alphaPhi0.water;
}
// * * * * * * * * * * * * * * * * * * * * * * * * * * * * * * * * * * * * * //

dimensions      [0 3 -1 0 0 0 0];
oriented        oriented;


internalField   nonuniform List<scalar> 
305
(
-9.14949600051e-06
9.15001852192e-06
-2.00912071465e-05
1.09422762197e-05
-3.17080268699e-05
1.16173697827e-05
-4.34024894631e-05
1.16949540092e-05
-5.49998263018e-05
1.15977307712e-05
-6.65333447372e-05
1.15336472362e-05
-7.81013112692e-05
1.15677641982e-05
1.16162389391e-05
-1.10525670998e-05
2.02031481657e-05
-2.22389552016e-05
2.21292434503e-05
-3.37412213933e-05
2.31201829324e-05
-4.54879960721e-05
2.34422004274e-05
-5.73375435529e-05
2.34476317259e-05
-6.9286137825e-05
2.34823338194e-05
-8.12738867131e-05
2.35553160662e-05
2.36884273601e-05
-1.17607683195e-05
3.1964454484e-05
-2.33056517638e-05
3.3674665562e-05
-3.50288428409e-05
3.48438740518e-05
-4.69306122967e-05
3.53443933304e-05
-5.89985017074e-05
3.55158235094e-05
-7.11758657448e-05
3.56597738889e-05
-8.34087265779e-05
3.57878935472e-05
3.60419289518e-05
-1.18354290788e-05
4.38003544381e-05
-2.36064294111e-05
4.54461264152e-05
-3.54896939126e-05
4.6727560436e-05
-4.74978953937e-05
4.73529464012e-05
-5.9668470288e-05
4.76866354706e-05
-7.1897966744e-05
4.78893477393e-05
-8.4267312591e-05
4.81570311114e-05
-9.67053621796e-05
4.84790937924e-05
4.88769584357e-05
-1.16848904799e-05
5.54856212335e-05
-2.35406278781e-05
5.73022208667e-05
-3.55148901395e-05
5.87021444115e-05
-4.7568205128e-05
5.94065255773e-05
-5.97109156921e-05
5.98295142111e-05
-7.19544565639e-05
6.01329154357e-05
-8.4262224422e-05
6.04646441584e-05
-9.66397245714e-05
6.08560006738e-05
-0.000109209273223
6.14454997543e-05
6.21597850156e-05
-1.15391770207e-05
6.70250616318e-05
-2.32891398779e-05
6.9052420056e-05
-3.52549104505e-05
7.06681217793e-05
-4.73613584219e-05
7.15131380963e-05
-5.94858118794e-05
7.19540692479e-05
-7.16988307061e-05
7.23459261988e-05
-8.39317455919e-05
7.2697395066e-05
-9.62747096689e-05
7.3198531642e-05
-0.00010865836811
7.38285718012e-05
7.4669558463e-05
-1.13898655862e-05
7.84150652739e-05
-2.31564504622e-05
8.08191094314e-05
-3.5051758088e-05
8.2563511381e-05
-4.70846076568e-05
8.35460473797e-05
-5.91746141005e-05
8.40441030308e-05
-7.12686805134e-05
8.44399776865e-05
-8.34502162894e-05
8.48788165608e-05
-9.56727987092e-05
8.54209756524e-05
-0.000107859312843
8.60147834503e-05
8.69698825216e-05
-1.13137233016e-05
8.97287940726e-05
-2.29507910901e-05
9.24561436558e-05
-3.48195547594e-05
9.44322274819e-05
-4.67909073237e-05
9.55173509049e-05
-5.88283397949e-05
9.60814944422e-05
-7.08304673877e-05
9.64420775931e-05
-8.29087195693e-05
9.69570649325e-05
-9.49584526878e-05
9.74706888849e-05
-0.000107085396937
9.81419181638e-05
9.90352040359e-05
-1.12188728567e-05
0.000100947538176
-2.27686722015e-05
0.000104005771208
-3.45695728255e-05
0.000106232950608
-4.6474481347e-05
0.000107422103161
-5.84096676026e-05
0.000108016567414
-7.04179854242e-05
0.000108450336594
-8.23429166106e-05
0.000108882039327
-9.43410337606e-05
0.000109469061693
-0.000106217622847
0.000110019121435
0.000110887467758
-1.11255780094e-05
0.000112072857314
-2.2650737374e-05
0.000115530626883
-3.43480631036e-05
0.000117929974571
-4.61667270356e-05
0.000119240503623
-5.80396505085e-05
0.000119889280192
-6.99308463377e-05
0.000120341466312
-8.18457336135e-05
0.000120797016328
-9.36670269604e-05
0.000121290757616
-0.00010552752667
0.000121880677495
0.000122526761058
-1.10557953561e-05
0.000123128274761
-2.24435615675e-05
0.000126917970127
-3.40975458411e-05
0.000129583542696
-4.58633121193e-05
0.000131005874205
-5.76638088081e-05
0.000131689501147
-6.94878418775e-05
0.000132165429898
-8.13158341474e-05
0.000132625085818
-9.31480419087e-05
0.000133123516823
-0.000104833724112
0.000133567651267
0.000134194914205
-1.09920898008e-05
0.000134119888766
-2.22669624096e-05
0.000138192322473
-3.38190885903e-05
0.000141135130618
-4.55157606639e-05
0.000142702057065
-5.72691759447e-05
0.000143442581058
-6.90476632791e-05
0.00014394394099
-8.08277507219e-05
0.000144405202941
-9.2597683423e-05
0.000144894025491
-0.000104364832177
0.000145336210497
0.000145801292855
-1.08534936948e-05
0.000144972835736
-2.20729667876e-05
0.000149411209383
-3.35391494114e-05
0.000152600702204
-4.51569367449e-05
0.000154319298156
-5.68478577402e-05
0.00015513309592
-6.85900677347e-05
0.000155685879434
-8.03809999231e-05
0.000156196160987
-9.21415384734e-05
0.000156655090006
-0.000103936539412
0.000157132548319
0.000157499239521
-1.07433257417e-05
0.000155715583284
-2.190560748e-05
0.000160572861568
-3.32492505692e-05
0.000163943716471
-4.4754382957e-05
0.000165823900389
-5.63842791387e-05
0.000166762604507
-6.80905516868e-05
0.000167391833336
-7.98770831313e-05
0.000167982562595
-9.17307257145e-05
0.000168509054783
-0.000103585225068
0.000168987986798
0.000169327502539
-1.06356962927e-05
0.000166350722733
-2.15839931187e-05
0.000171520577621
-3.2861673148e-05
0.000175220823715
-4.42699137896e-05
0.000177231556493
-5.58525318023e-05
0.000178344813654
-6.75558102131e-05
0.00017909462191
-7.93356213071e-05
0.000179761650131
-9.12450934645e-05
0.00018041846749
-0.000103243365145
0.000180986866043
0.000181372208562
-1.04654434929e-05
0.000176815710136
-2.1265669716e-05
0.000182320297507
-3.23812345587e-05
0.000186335873833
-4.37299078328e-05
0.000188579726616
-5.51891205372e-05
0.000189803166983
-6.68161556398e-05
0.000190720472674
-7.86423280431e-05
0.000191587046445
-9.06388290125e-05
-0.000102818228967
-1.02549353909e-05
0.000187070298043
-2.09089715576e-05
0.000192973996133
-3.18361312733e-05
0.000197262657497
-4.30046423847e-05
0.000199747297378
-5.43712261406e-05
0.000201169151675
-6.59487998218e-05
-1.00734334437e-05
-2.04365991185e-05
-3.11636950339e-05
0.000207989179477
-4.21396641894e-05
0.000210723142777
-3.03293765576e-05
)
;

boundaryField
{
    back
    {
        type            calculated;
        value           uniform 0;
    }
    sides
    {
        type            calculated;
        value           uniform 0;
    }
    bottom
    {
        type            calculated;
        value           uniform 0;
    }
    front
    {
        type            calculated;
        value           uniform 0;
    }
    atmosphere
    {
        type            calculated;
        value           nonuniform List<scalar> 0();
    }
    floatingObject
    {
        type            calculated;
        value           nonuniform List<scalar> 0();
    }
    procBoundary2to0
    {
        type            processor;
        value           nonuniform List<scalar> 
14
(
0.000192414627435
0.000193165934327
0.000193750830231
0.000202298124342
-7.77397412589e-05
0.000203377059948
0.000197143578506
0.000203336962458
-5.33489575074e-05
0.000212378276045
1.98680229056e-05
0.000218450509994
-4.1074528977e-05
0.00022146797736
)
;
    }
    procBoundary2to1
    {
        type            processor;
        value           nonuniform List<scalar> 
18
(
-8.97179875683e-05
-9.33468869346e-05
-9.57627357548e-05
-3.63518542514e-05
-0.000109231509271
-4.94800251602e-05
-0.000121890624306
-0.000121168522657
-0.00012015970875
-0.000119150457666
-0.000118068879122
-0.000117165368369
-0.000116500063705
-0.000115969298495
-0.000115632723211
-0.000115412067675
-0.000115287379547
-0.000115196486521
)
;
    }
}


// ************************************************************************* //
