/*--------------------------------*- C++ -*----------------------------------*\
| =========                 |                                                 |
| \\      /  F ield         | OpenFOAM: The Open Source CFD Toolbox           |
|  \\    /   O peration     | Version:  v2012                                 |
|   \\  /    A nd           | Website:  www.openfoam.com                      |
|    \\/     M anipulation  |                                                 |
\*---------------------------------------------------------------------------*/
FoamFile
{
    version     2.0;
    format      ascii;
    class       volScalarField;
    location    "3.2";
    object      k;
}
// * * * * * * * * * * * * * * * * * * * * * * * * * * * * * * * * * * * * * //

dimensions      [0 2 -2 0 0 0 0];


internalField   nonuniform List<scalar> 
167
(
0.00230126311362
0.00268305629657
0.00280606994024
0.00285280738419
0.00287527382114
0.00289052148129
0.00290389999783
0.00291705851131
0.00269078780118
0.00330840039088
0.0034957930176
0.00356514996131
0.00359543345142
0.00361357419275
0.00362832152534
0.00364255481664
0.00281875746218
0.00350512368589
0.00371680889892
0.0037946036548
0.00382723218136
0.0038457228323
0.00386041635992
0.00387455735464
0.00286835297181
0.0035802157021
0.00380154918908
0.00388256034724
0.00391569934107
0.00393388525695
0.00394814400738
0.00396193815028
0.00397671909948
0.00289174587476
0.00361312152257
0.00383808106278
0.00392001508419
0.00395289329433
0.00397049042451
0.00398415777959
0.00399748511398
0.00401193806897
0.00402951368197
0.00290657801725
0.00363164664158
0.00385787164732
0.00393980511565
0.00397213303432
0.00398904325896
0.00400207220351
0.00401486909004
0.00402889038815
0.00404609503993
0.00291859140974
0.00364550722215
0.0038721081669
0.00395371835114
0.00398542634442
0.00400165283977
0.00401405654915
0.00402630037093
0.00403984682543
0.00405659901651
0.00292976574264
0.00365779555376
0.00388455865205
0.0039657968997
0.00399692368827
0.00401252844248
0.00402433273495
0.00403604770916
0.00404912647653
0.00406540702544
0.00294050338946
0.00366955660571
0.0038964398979
0.00397733696984
0.00400794559697
0.00402300754206
0.00403428321664
0.00404550699811
0.00405812103029
0.00407392457222
0.00295095385542
0.00368107850962
0.00390808848868
0.00398869827246
0.00401885935446
0.00403343552032
0.00404425238858
0.00405503478809
0.00406723151146
0.00408257267199
0.00296117740244
0.00369233185423
0.00391954503596
0.00399993024017
0.00402971543466
0.00404387503754
0.00405427914827
0.00406467410364
0.00407647666048
0.00409138030661
0.00297111635573
0.00370333984485
0.00393079344463
0.00401100076323
0.00404046790676
0.00405427349365
0.00406431870499
0.00407436016882
0.0040858103198
0.00410027929006
0.00298061428397
0.0037140522211
0.00394179252843
0.00402186526606
0.00405105727571
0.00406455755767
0.00407429550299
0.00408402435426
0.00409513746982
0.004109190905
0.00298978681479
0.003724452699
0.00395249665477
0.00403246504134
0.00406142447686
0.00407465895501
0.00408412663468
0.00409358247555
0.0041043903259
0.00411803806489
0.0029985861915
0.00373443757804
0.00396284074419
0.00404275281695
0.00407151481167
0.00408451824485
0.00409374416869
0.00410295682253
0.00411349249238
0.00412675851595
0.00300689408396
0.00374400963269
0.00397278881832
0.00405267791222
0.00408127333015
0.00409408113133
0.0041031040827
0.00411209712945
0.00412238451487
0.00413529719791
0.0030147182622
0.00375314382328
0.00398231001719
0.0040621870214
0.00409066026209
0.00410330878137
0.00411215712673
0.00302215809669
0.00376176082513
0.00399135046018
0.00407126596437
0.00409963713331
0.00399988838532
0.00407987088456
)
;

boundaryField
{
    back
    {
        type            kqRWallFunction;
        value           nonuniform List<scalar> 
167
(
0.00230126311362
0.00268305629657
0.00280606994024
0.00285280738419
0.00287527382114
0.00289052148129
0.00290389999783
0.00291705851131
0.00269078780118
0.00330840039088
0.0034957930176
0.00356514996131
0.00359543345142
0.00361357419275
0.00362832152534
0.00364255481664
0.00281875746218
0.00350512368589
0.00371680889892
0.0037946036548
0.00382723218136
0.0038457228323
0.00386041635992
0.00387455735464
0.00286835297181
0.0035802157021
0.00380154918908
0.00388256034724
0.00391569934107
0.00393388525695
0.00394814400738
0.00396193815028
0.00397671909948
0.00289174587476
0.00361312152257
0.00383808106278
0.00392001508419
0.00395289329433
0.00397049042451
0.00398415777959
0.00399748511398
0.00401193806897
0.00402951368197
0.00290657801725
0.00363164664158
0.00385787164732
0.00393980511565
0.00397213303432
0.00398904325896
0.00400207220351
0.00401486909004
0.00402889038815
0.00404609503993
0.00291859140974
0.00364550722215
0.0038721081669
0.00395371835114
0.00398542634442
0.00400165283977
0.00401405654915
0.00402630037093
0.00403984682543
0.00405659901651
0.00292976574264
0.00365779555376
0.00388455865205
0.0039657968997
0.00399692368827
0.00401252844248
0.00402433273495
0.00403604770916
0.00404912647653
0.00406540702544
0.00294050338946
0.00366955660571
0.0038964398979
0.00397733696984
0.00400794559697
0.00402300754206
0.00403428321664
0.00404550699811
0.00405812103029
0.00407392457222
0.00295095385542
0.00368107850962
0.00390808848868
0.00398869827246
0.00401885935446
0.00403343552032
0.00404425238858
0.00405503478809
0.00406723151146
0.00408257267199
0.00296117740244
0.00369233185423
0.00391954503596
0.00399993024017
0.00402971543466
0.00404387503754
0.00405427914827
0.00406467410364
0.00407647666048
0.00409138030661
0.00297111635573
0.00370333984485
0.00393079344463
0.00401100076323
0.00404046790676
0.00405427349365
0.00406431870499
0.00407436016882
0.0040858103198
0.00410027929006
0.00298061428397
0.0037140522211
0.00394179252843
0.00402186526606
0.00405105727571
0.00406455755767
0.00407429550299
0.00408402435426
0.00409513746982
0.004109190905
0.00298978681479
0.003724452699
0.00395249665477
0.00403246504134
0.00406142447686
0.00407465895501
0.00408412663468
0.00409358247555
0.0041043903259
0.00411803806489
0.0029985861915
0.00373443757804
0.00396284074419
0.00404275281695
0.00407151481167
0.00408451824485
0.00409374416869
0.00410295682253
0.00411349249238
0.00412675851595
0.00300689408396
0.00374400963269
0.00397278881832
0.00405267791222
0.00408127333015
0.00409408113133
0.0041031040827
0.00411209712945
0.00412238451487
0.00413529719791
0.0030147182622
0.00375314382328
0.00398231001719
0.0040621870214
0.00409066026209
0.00410330878137
0.00411215712673
0.00302215809669
0.00376176082513
0.00399135046018
0.00407126596437
0.00409963713331
0.00399988838532
0.00407987088456
)
;
    }
    sides
    {
        type            kqRWallFunction;
        value           nonuniform List<scalar> 8(0.00230126311362 0.00268305629657 0.00280606994024 0.00285280738419 0.00287527382114 0.00289052148129 0.00290389999783 0.00291705851131);
    }
    bottom
    {
        type            kqRWallFunction;
        value           nonuniform List<scalar> 
18
(
0.00230126311362
0.00269078780118
0.00281875746218
0.00286835297181
0.00289174587476
0.00290657801725
0.00291859140974
0.00292976574264
0.00294050338946
0.00295095385542
0.00296117740244
0.00297111635573
0.00298061428397
0.00298978681479
0.0029985861915
0.00300689408396
0.0030147182622
0.00302215809669
)
;
    }
    front
    {
        type            kqRWallFunction;
        value           nonuniform List<scalar> 
167
(
0.00230126311362
0.00268305629657
0.00280606994024
0.00285280738419
0.00287527382114
0.00289052148129
0.00290389999783
0.00291705851131
0.00269078780118
0.00330840039088
0.0034957930176
0.00356514996131
0.00359543345142
0.00361357419275
0.00362832152534
0.00364255481664
0.00281875746218
0.00350512368589
0.00371680889892
0.0037946036548
0.00382723218136
0.0038457228323
0.00386041635992
0.00387455735464
0.00286835297181
0.0035802157021
0.00380154918908
0.00388256034724
0.00391569934107
0.00393388525695
0.00394814400738
0.00396193815028
0.00397671909948
0.00289174587476
0.00361312152257
0.00383808106278
0.00392001508419
0.00395289329433
0.00397049042451
0.00398415777959
0.00399748511398
0.00401193806897
0.00402951368197
0.00290657801725
0.00363164664158
0.00385787164732
0.00393980511565
0.00397213303432
0.00398904325896
0.00400207220351
0.00401486909004
0.00402889038815
0.00404609503993
0.00291859140974
0.00364550722215
0.0038721081669
0.00395371835114
0.00398542634442
0.00400165283977
0.00401405654915
0.00402630037093
0.00403984682543
0.00405659901651
0.00292976574264
0.00365779555376
0.00388455865205
0.0039657968997
0.00399692368827
0.00401252844248
0.00402433273495
0.00403604770916
0.00404912647653
0.00406540702544
0.00294050338946
0.00366955660571
0.0038964398979
0.00397733696984
0.00400794559697
0.00402300754206
0.00403428321664
0.00404550699811
0.00405812103029
0.00407392457222
0.00295095385542
0.00368107850962
0.00390808848868
0.00398869827246
0.00401885935446
0.00403343552032
0.00404425238858
0.00405503478809
0.00406723151146
0.00408257267199
0.00296117740244
0.00369233185423
0.00391954503596
0.00399993024017
0.00402971543466
0.00404387503754
0.00405427914827
0.00406467410364
0.00407647666048
0.00409138030661
0.00297111635573
0.00370333984485
0.00393079344463
0.00401100076323
0.00404046790676
0.00405427349365
0.00406431870499
0.00407436016882
0.0040858103198
0.00410027929006
0.00298061428397
0.0037140522211
0.00394179252843
0.00402186526606
0.00405105727571
0.00406455755767
0.00407429550299
0.00408402435426
0.00409513746982
0.004109190905
0.00298978681479
0.003724452699
0.00395249665477
0.00403246504134
0.00406142447686
0.00407465895501
0.00408412663468
0.00409358247555
0.0041043903259
0.00411803806489
0.0029985861915
0.00373443757804
0.00396284074419
0.00404275281695
0.00407151481167
0.00408451824485
0.00409374416869
0.00410295682253
0.00411349249238
0.00412675851595
0.00300689408396
0.00374400963269
0.00397278881832
0.00405267791222
0.00408127333015
0.00409408113133
0.0041031040827
0.00411209712945
0.00412238451487
0.00413529719791
0.0030147182622
0.00375314382328
0.00398231001719
0.0040621870214
0.00409066026209
0.00410330878137
0.00411215712673
0.00302215809669
0.00376176082513
0.00399135046018
0.00407126596437
0.00409963713331
0.00399988838532
0.00407987088456
)
;
    }
    atmosphere
    {
        type            inletOutlet;
        inletValue      nonuniform List<scalar> 0();
        value           nonuniform List<scalar> 0();
    }
    floatingObject
    {
        type            kqRWallFunction;
        value           nonuniform List<scalar> 0();
    }
    procBoundary2to0
    {
        type            processor;
        value           nonuniform List<scalar> 
14
(
0.00412095392403
0.00413102509392
0.00414360825741
0.00411215005967
0.00412095392403
0.00412086946574
0.00302900998029
0.00376983954035
0.00411215005967
0.00410818081922
0.00376983954035
0.00400791290702
0.00410818081922
0.00408798371937
)
;
    }
    procBoundary2to1
    {
        type            processor;
        value           nonuniform List<scalar> 
18
(
0.00293069555103
0.00365747609261
0.00388951318302
0.00388951318302
0.00399450622083
0.00399450622083
0.0040554482501
0.00407157275177
0.00408153261635
0.00408972281639
0.00409763650809
0.00410563408647
0.00411379554169
0.00412203781475
0.0041302656314
0.00413841358808
0.00414644399413
0.00415432253712
)
;
    }
}


// ************************************************************************* //
