/*--------------------------------*- C++ -*----------------------------------*\
| =========                 |                                                 |
| \\      /  F ield         | OpenFOAM: The Open Source CFD Toolbox           |
|  \\    /   O peration     | Version:  v2012                                 |
|   \\  /    A nd           | Website:  www.openfoam.com                      |
|    \\/     M anipulation  |                                                 |
\*---------------------------------------------------------------------------*/
FoamFile
{
    version     2.0;
    format      ascii;
    class       volScalarField;
    location    "3.2";
    object      p;
}
// * * * * * * * * * * * * * * * * * * * * * * * * * * * * * * * * * * * * * //

dimensions      [1 -1 -2 0 0 0 0];


internalField   nonuniform List<scalar> 
167
(
8407.0353339
7917.52298356
7428.14726532
6938.91221641
6449.83005492
5960.92090143
5472.21318195
4983.7439318
8406.92391125
7917.40642003
7428.02345893
6938.7755471
6449.67282753
5960.73531016
5471.9894363
4983.47068961
8406.67585696
7917.14637969
7427.74461607
6938.46829634
6449.3249469
5960.33187797
5471.51248288
4982.89765698
8406.30385213
7916.75890365
7427.32969133
6938.01161344
6448.80926198
5959.73635246
5470.8116942
4982.05993343
4493.51293634
8405.82292235
7916.26111811
7426.7982627
6937.42813726
6448.15229127
5958.98014442
5469.92494294
4981.00360934
4492.23780514
4003.65489149
8405.25009559
7915.66990768
7426.16900789
6936.73965824
6447.380127
5958.09529126
5468.89202773
4979.77876722
4490.76590827
4001.86582086
8404.60451556
7915.00451766
7425.46320044
6935.97059349
6446.52188136
5957.11724138
5467.75697458
4978.44101167
4489.16807268
3999.93516937
8403.90542726
7914.28583587
7424.70344131
6935.1468296
6445.60817082
5956.0831365
5466.56592219
4977.04811426
4487.51746212
3997.95690371
8403.17322315
7913.53439005
7423.91244527
6934.29440139
6444.66960551
5955.02974466
5465.36382408
4975.65620532
4485.8854334
3996.02196951
8402.42707719
7912.77041914
7423.11222162
6933.43788499
6443.734717
5953.99122798
5464.19212708
4974.31640901
4484.33539773
3994.21066937
8401.68458091
7912.01268675
7422.32276879
6932.59946085
6442.82869263
5952.99694048
5463.08595572
4973.07114319
4482.91949477
3992.58708768
8400.96175817
7911.27720974
7421.56108026
6931.797799
6441.97241396
5952.07045556
5462.07245905
4971.95213726
4481.67484697
3991.19533561
8400.27200507
7910.57707352
7420.84095292
6931.04743321
6441.18159976
5951.2288812
5461.17002551
4970.97934062
4480.62308804
3990.05795351
8399.62455956
7909.9228071
7420.17273906
6930.35870852
6440.46643607
5950.48228365
5460.38836912
4970.16127666
4479.77065738
3989.17772199
8399.02677374
7909.32149854
7419.5631518
6929.73763984
6439.83184563
5949.83399444
5459.72869965
4969.49590404
4479.1102827
3988.54011976
8398.48394141
7908.77718178
7419.01568732
6929.18642264
6439.27828016
5949.28176809
5459.18460534
4968.97148596
4478.62324473
3988.11636034
8397.99837795
7908.2916142
7418.5309613
6928.70432659
6438.80222088
5948.81827311
5458.74423069
8397.56983916
7907.86509056
7418.10774811
6928.28747229
6438.39731605
7417.74299024
6927.93120959
)
;

boundaryField
{
    back
    {
        type            calculated;
        value           nonuniform List<scalar> 
167
(
8407.0353339
7917.52298356
7428.14726532
6938.91221641
6449.83005492
5960.92090143
5472.21318195
4983.7439318
8406.92391125
7917.40642003
7428.02345893
6938.7755471
6449.67282753
5960.73531016
5471.9894363
4983.47068961
8406.67585696
7917.14637969
7427.74461607
6938.46829634
6449.3249469
5960.33187797
5471.51248288
4982.89765698
8406.30385213
7916.75890365
7427.32969133
6938.01161344
6448.80926198
5959.73635246
5470.8116942
4982.05993343
4493.51293634
8405.82292235
7916.26111811
7426.7982627
6937.42813726
6448.15229127
5958.98014442
5469.92494294
4981.00360934
4492.23780514
4003.65489149
8405.25009559
7915.66990768
7426.16900789
6936.73965824
6447.380127
5958.09529126
5468.89202773
4979.77876722
4490.76590827
4001.86582086
8404.60451556
7915.00451766
7425.46320044
6935.97059349
6446.52188136
5957.11724138
5467.75697458
4978.44101167
4489.16807268
3999.93516937
8403.90542726
7914.28583587
7424.70344131
6935.1468296
6445.60817082
5956.0831365
5466.56592219
4977.04811426
4487.51746212
3997.95690371
8403.17322315
7913.53439005
7423.91244527
6934.29440139
6444.66960551
5955.02974466
5465.36382408
4975.65620532
4485.8854334
3996.02196951
8402.42707719
7912.77041914
7423.11222162
6933.43788499
6443.734717
5953.99122798
5464.19212708
4974.31640901
4484.33539773
3994.21066937
8401.68458091
7912.01268675
7422.32276879
6932.59946085
6442.82869263
5952.99694048
5463.08595572
4973.07114319
4482.91949477
3992.58708768
8400.96175817
7911.27720974
7421.56108026
6931.797799
6441.97241396
5952.07045556
5462.07245905
4971.95213726
4481.67484697
3991.19533561
8400.27200507
7910.57707352
7420.84095292
6931.04743321
6441.18159976
5951.2288812
5461.17002551
4970.97934062
4480.62308804
3990.05795351
8399.62455956
7909.9228071
7420.17273906
6930.35870852
6440.46643607
5950.48228365
5460.38836912
4970.16127666
4479.77065738
3989.17772199
8399.02677374
7909.32149854
7419.5631518
6929.73763984
6439.83184563
5949.83399444
5459.72869965
4969.49590404
4479.1102827
3988.54011976
8398.48394141
7908.77718178
7419.01568732
6929.18642264
6439.27828016
5949.28176809
5459.18460534
4968.97148596
4478.62324473
3988.11636034
8397.99837795
7908.2916142
7418.5309613
6928.70432659
6438.80222088
5948.81827311
5458.74423069
8397.56983916
7907.86509056
7418.10774811
6928.28747229
6438.39731605
7417.74299024
6927.93120959
)
;
    }
    sides
    {
        type            calculated;
        value           nonuniform List<scalar> 8(8407.0353339 7917.52298356 7428.14726532 6938.91221641 6449.83005492 5960.92090143 5472.21318195 4983.7439318);
    }
    bottom
    {
        type            calculated;
        value           nonuniform List<scalar> 
18
(
8651.84407455
8651.73267331
8651.484617
8651.11259874
8650.63165207
8650.05880956
8649.41321636
8648.71411688
8647.98190208
8647.2357431
8646.49322889
8645.77038624
8645.08060953
8644.43314248
8643.83534788
8643.29255109
8642.80703833
8642.37856095
)
;
    }
    front
    {
        type            calculated;
        value           nonuniform List<scalar> 
167
(
8407.0353339
7917.52298356
7428.14726532
6938.91221641
6449.83005492
5960.92090143
5472.21318195
4983.7439318
8406.92391125
7917.40642003
7428.02345893
6938.7755471
6449.67282753
5960.73531016
5471.9894363
4983.47068961
8406.67585696
7917.14637969
7427.74461607
6938.46829634
6449.3249469
5960.33187797
5471.51248288
4982.89765698
8406.30385213
7916.75890365
7427.32969133
6938.01161344
6448.80926198
5959.73635246
5470.8116942
4982.05993343
4493.51293634
8405.82292235
7916.26111811
7426.7982627
6937.42813726
6448.15229127
5958.98014442
5469.92494294
4981.00360934
4492.23780514
4003.65489149
8405.25009559
7915.66990768
7426.16900789
6936.73965824
6447.380127
5958.09529126
5468.89202773
4979.77876722
4490.76590827
4001.86582086
8404.60451556
7915.00451766
7425.46320044
6935.97059349
6446.52188136
5957.11724138
5467.75697458
4978.44101167
4489.16807268
3999.93516937
8403.90542726
7914.28583587
7424.70344131
6935.1468296
6445.60817082
5956.0831365
5466.56592219
4977.04811426
4487.51746212
3997.95690371
8403.17322315
7913.53439005
7423.91244527
6934.29440139
6444.66960551
5955.02974466
5465.36382408
4975.65620532
4485.8854334
3996.02196951
8402.42707719
7912.77041914
7423.11222162
6933.43788499
6443.734717
5953.99122798
5464.19212708
4974.31640901
4484.33539773
3994.21066937
8401.68458091
7912.01268675
7422.32276879
6932.59946085
6442.82869263
5952.99694048
5463.08595572
4973.07114319
4482.91949477
3992.58708768
8400.96175817
7911.27720974
7421.56108026
6931.797799
6441.97241396
5952.07045556
5462.07245905
4971.95213726
4481.67484697
3991.19533561
8400.27200507
7910.57707352
7420.84095292
6931.04743321
6441.18159976
5951.2288812
5461.17002551
4970.97934062
4480.62308804
3990.05795351
8399.62455956
7909.9228071
7420.17273906
6930.35870852
6440.46643607
5950.48228365
5460.38836912
4970.16127666
4479.77065738
3989.17772199
8399.02677374
7909.32149854
7419.5631518
6929.73763984
6439.83184563
5949.83399444
5459.72869965
4969.49590404
4479.1102827
3988.54011976
8398.48394141
7908.77718178
7419.01568732
6929.18642264
6439.27828016
5949.28176809
5459.18460534
4968.97148596
4478.62324473
3988.11636034
8397.99837795
7908.2916142
7418.5309613
6928.70432659
6438.80222088
5948.81827311
5458.74423069
8397.56983916
7907.86509056
7418.10774811
6928.28747229
6438.39731605
7417.74299024
6927.93120959
)
;
    }
    atmosphere
    {
        type            calculated;
        value           nonuniform List<scalar> 0();
    }
    floatingObject
    {
        type            calculated;
        value           nonuniform List<scalar> 0();
    }
    procBoundary2to0
    {
        type            processor;
        value           nonuniform List<scalar> 
14
(
4968.56970483
4478.28219302
3987.86760922
5948.43359681
4968.56970483
5458.39170132
8397.19821653
7907.49576661
5948.43359681
6438.05551457
7907.49576661
7417.43376095
6438.05551457
6927.63029263
)
;
    }
    procBoundary2to1
    {
        type            processor;
        value           nonuniform List<scalar> 
18
(
4495.56229966
4495.22492098
4494.52769563
4494.52769563
4005.21107786
4005.21107786
3515.28879179
3513.0934228
3510.73703021
3508.34164064
3506.0245311
3503.8890965
3502.01478914
3500.45324502
3499.22709215
3498.33294181
3497.74529312
3497.42204449
)
;
    }
}


// ************************************************************************* //
