/*--------------------------------*- C++ -*----------------------------------*\
| =========                 |                                                 |
| \\      /  F ield         | OpenFOAM: The Open Source CFD Toolbox           |
|  \\    /   O peration     | Version:  v2012                                 |
|   \\  /    A nd           | Website:  www.openfoam.com                      |
|    \\/     M anipulation  |                                                 |
\*---------------------------------------------------------------------------*/
FoamFile
{
    version     2.0;
    format      ascii;
    class       volScalarField;
    location    "0.7";
    object      k_0;
}
// * * * * * * * * * * * * * * * * * * * * * * * * * * * * * * * * * * * * * //

dimensions      [0 2 -2 0 0 0 0];


internalField   nonuniform List<scalar> 
164
(
0.0227030873526
0.0271803771014
0.0283344009339
0.028681068998
0.0288160564644
0.028877096491
0.0287199543445
0.0276886822218
0.026295062257
0.0258786801489
0.026009139519
0.0266036960702
0.0283330134052
0.0296529668443
0.0227936907143
0.0272527035978
0.0284095906094
0.0287624911085
0.0289109866528
0.0290200433664
0.0291096818429
0.0291003678782
0.0291677902829
0.0293058124421
0.0295286445581
0.029842404587
0.0302494930115
0.030674335454
0.0228896990075
0.0273403470038
0.0284971887802
0.0288504946802
0.0290010297904
0.0291181154224
0.0292472234372
0.0293980345174
0.0295803124244
0.0297880064148
0.0300175449489
0.0302708994784
0.0305459839069
0.0308262873282
0.0229864624305
0.0274382496327
0.0285913119333
0.0289400242141
0.0290865970125
0.0291993573463
0.0293241263192
0.0294740933121
0.0296512681951
0.0298482932991
0.0300596995348
0.0302844849628
0.0305224622787
0.0307712345622
0.0230798337307
0.0275406569776
0.0286863035099
0.0290263838196
0.0291656824186
0.0292706115192
0.0293847298481
0.0295193477542
0.0296763333453
0.0298518257162
0.0300419538896
0.0302451800243
0.0304617072801
0.0306929318264
0.0231665817053
0.0276423965323
0.0287775622747
0.0291060649827
0.0292362554143
0.0293323154147
0.0294354860163
0.029555611937
0.0296944165223
0.0298501781632
0.0300206230776
0.0302045491754
0.0304021803392
0.0306163801767
0.0232444955728
0.0277394233598
0.0288617568361
0.0291767833997
0.0292969977262
0.0293840451622
0.0294768847123
0.0295842285724
0.0297075918231
0.0298462572814
0.0299990097307
0.0301651370702
0.0303450573779
0.0305425730289
0.0233122955427
0.027828879675
0.0289367423615
0.0292372937695
0.0293473377274
0.0294256720216
0.0295089709428
0.0296049646031
0.0297149762133
0.0298387486142
0.0299756919392
0.0301254783987
0.0302887454133
0.030470191229
0.0233695070011
0.0279089700455
0.0290013459382
0.0292871368292
0.029387274995
0.0294574372588
0.029532024728
0.0296178802815
0.0297161545179
0.0298267960965
0.0299495745791
0.0300844133607
0.0302321759014
0.0303986239882
0.0234163330393
0.0279787395421
0.0290551094407
0.0293263989177
0.02941719732
0.0294798548262
0.0295465539708
0.0296233361866
0.0297111947182
0.0298101667636
0.0299202058308
0.0300413920412
0.0301747952563
0.0303273890174
0.0234534280136
0.0280377588732
0.0290980437212
0.0293555217262
0.0294377402569
0.0294936139672
0.0295532179214
0.0296218779701
0.0297004402745
0.0297889819978
0.0298875408703
0.0299962933339
0.0301165121803
0.0302565464399
0.029684386108
0.0297635808208
0.0298517905011
0.0299492411406
0.0300573992457
0.030186116039
0.0299005070809
0.0299977339866
0.0301164573361
0.030047909761
)
;

boundaryField
{
    back
    {
        type            kqRWallFunction;
        value           nonuniform List<scalar> 
164
(
0.0227030873526
0.0271803771014
0.0283344009339
0.028681068998
0.0288160564644
0.028877096491
0.0287199543445
0.0276886822218
0.026295062257
0.0258786801489
0.026009139519
0.0266036960702
0.0283330134052
0.0296529668443
0.0227936907143
0.0272527035978
0.0284095906094
0.0287624911085
0.0289109866528
0.0290200433664
0.0291096818429
0.0291003678782
0.0291677902829
0.0293058124421
0.0295286445581
0.029842404587
0.0302494930115
0.030674335454
0.0228896990075
0.0273403470038
0.0284971887802
0.0288504946802
0.0290010297904
0.0291181154224
0.0292472234372
0.0293980345174
0.0295803124244
0.0297880064148
0.0300175449489
0.0302708994784
0.0305459839069
0.0308262873282
0.0229864624305
0.0274382496327
0.0285913119333
0.0289400242141
0.0290865970125
0.0291993573463
0.0293241263192
0.0294740933121
0.0296512681951
0.0298482932991
0.0300596995348
0.0302844849628
0.0305224622787
0.0307712345622
0.0230798337307
0.0275406569776
0.0286863035099
0.0290263838196
0.0291656824186
0.0292706115192
0.0293847298481
0.0295193477542
0.0296763333453
0.0298518257162
0.0300419538896
0.0302451800243
0.0304617072801
0.0306929318264
0.0231665817053
0.0276423965323
0.0287775622747
0.0291060649827
0.0292362554143
0.0293323154147
0.0294354860163
0.029555611937
0.0296944165223
0.0298501781632
0.0300206230776
0.0302045491754
0.0304021803392
0.0306163801767
0.0232444955728
0.0277394233598
0.0288617568361
0.0291767833997
0.0292969977262
0.0293840451622
0.0294768847123
0.0295842285724
0.0297075918231
0.0298462572814
0.0299990097307
0.0301651370702
0.0303450573779
0.0305425730289
0.0233122955427
0.027828879675
0.0289367423615
0.0292372937695
0.0293473377274
0.0294256720216
0.0295089709428
0.0296049646031
0.0297149762133
0.0298387486142
0.0299756919392
0.0301254783987
0.0302887454133
0.030470191229
0.0233695070011
0.0279089700455
0.0290013459382
0.0292871368292
0.029387274995
0.0294574372588
0.029532024728
0.0296178802815
0.0297161545179
0.0298267960965
0.0299495745791
0.0300844133607
0.0302321759014
0.0303986239882
0.0234163330393
0.0279787395421
0.0290551094407
0.0293263989177
0.02941719732
0.0294798548262
0.0295465539708
0.0296233361866
0.0297111947182
0.0298101667636
0.0299202058308
0.0300413920412
0.0301747952563
0.0303273890174
0.0234534280136
0.0280377588732
0.0290980437212
0.0293555217262
0.0294377402569
0.0294936139672
0.0295532179214
0.0296218779701
0.0297004402745
0.0297889819978
0.0298875408703
0.0299962933339
0.0301165121803
0.0302565464399
0.029684386108
0.0297635808208
0.0298517905011
0.0299492411406
0.0300573992457
0.030186116039
0.0299005070809
0.0299977339866
0.0301164573361
0.030047909761
)
;
    }
    sides
    {
        type            kqRWallFunction;
        value           nonuniform List<scalar> 0();
    }
    bottom
    {
        type            kqRWallFunction;
        value           nonuniform List<scalar> 
11
(
0.0227030873526
0.0227936907143
0.0228896990075
0.0229864624305
0.0230798337307
0.0231665817053
0.0232444955728
0.0233122955427
0.0233695070011
0.0234163330393
0.0234534280136
)
;
    }
    front
    {
        type            kqRWallFunction;
        value           nonuniform List<scalar> 
164
(
0.0227030873526
0.0271803771014
0.0283344009339
0.028681068998
0.0288160564644
0.028877096491
0.0287199543445
0.0276886822218
0.026295062257
0.0258786801489
0.026009139519
0.0266036960702
0.0283330134052
0.0296529668443
0.0227936907143
0.0272527035978
0.0284095906094
0.0287624911085
0.0289109866528
0.0290200433664
0.0291096818429
0.0291003678782
0.0291677902829
0.0293058124421
0.0295286445581
0.029842404587
0.0302494930115
0.030674335454
0.0228896990075
0.0273403470038
0.0284971887802
0.0288504946802
0.0290010297904
0.0291181154224
0.0292472234372
0.0293980345174
0.0295803124244
0.0297880064148
0.0300175449489
0.0302708994784
0.0305459839069
0.0308262873282
0.0229864624305
0.0274382496327
0.0285913119333
0.0289400242141
0.0290865970125
0.0291993573463
0.0293241263192
0.0294740933121
0.0296512681951
0.0298482932991
0.0300596995348
0.0302844849628
0.0305224622787
0.0307712345622
0.0230798337307
0.0275406569776
0.0286863035099
0.0290263838196
0.0291656824186
0.0292706115192
0.0293847298481
0.0295193477542
0.0296763333453
0.0298518257162
0.0300419538896
0.0302451800243
0.0304617072801
0.0306929318264
0.0231665817053
0.0276423965323
0.0287775622747
0.0291060649827
0.0292362554143
0.0293323154147
0.0294354860163
0.029555611937
0.0296944165223
0.0298501781632
0.0300206230776
0.0302045491754
0.0304021803392
0.0306163801767
0.0232444955728
0.0277394233598
0.0288617568361
0.0291767833997
0.0292969977262
0.0293840451622
0.0294768847123
0.0295842285724
0.0297075918231
0.0298462572814
0.0299990097307
0.0301651370702
0.0303450573779
0.0305425730289
0.0233122955427
0.027828879675
0.0289367423615
0.0292372937695
0.0293473377274
0.0294256720216
0.0295089709428
0.0296049646031
0.0297149762133
0.0298387486142
0.0299756919392
0.0301254783987
0.0302887454133
0.030470191229
0.0233695070011
0.0279089700455
0.0290013459382
0.0292871368292
0.029387274995
0.0294574372588
0.029532024728
0.0296178802815
0.0297161545179
0.0298267960965
0.0299495745791
0.0300844133607
0.0302321759014
0.0303986239882
0.0234163330393
0.0279787395421
0.0290551094407
0.0293263989177
0.02941719732
0.0294798548262
0.0295465539708
0.0296233361866
0.0297111947182
0.0298101667636
0.0299202058308
0.0300413920412
0.0301747952563
0.0303273890174
0.0234534280136
0.0280377588732
0.0290980437212
0.0293555217262
0.0294377402569
0.0294936139672
0.0295532179214
0.0296218779701
0.0297004402745
0.0297889819978
0.0298875408703
0.0299962933339
0.0301165121803
0.0302565464399
0.029684386108
0.0297635808208
0.0298517905011
0.0299492411406
0.0300573992457
0.030186116039
0.0299005070809
0.0299977339866
0.0301164573361
0.030047909761
)
;
    }
    atmosphere
    {
        type            inletOutlet;
        inletValue      nonuniform List<scalar> 0();
        value           nonuniform List<scalar> 0();
    }
    floatingObject
    {
        type            kqRWallFunction;
        value           nonuniform List<scalar> 4(0.026295062257 0.0258786801489 0.026009139519 0.0266036960702);
    }
    procBoundary8to3
    {
        type            processor;
        value           nonuniform List<scalar> 8(0.0226236097738 0.0271279956306 0.0282782590945 0.0286117386229 0.0287109738764 0.0286531493313 0.0280353414597 0.0243769817927);
    }
    procBoundary8to6
    {
        type            processor;
        value           nonuniform List<scalar> 
16
(
0.0269276546299
0.0288465747129
0.0305567274113
0.0310780805826
0.0311193411738
0.0310430460952
0.0309531117036
0.0308645311808
0.0307790011318
0.0306962184291
0.0306162999773
0.0305386041036
0.0304633681807
0.0303903932393
0.0303201637405
0.0302530055023
)
;
    }
    procBoundary8to7
    {
        type            processor;
        value           nonuniform List<scalar> 
17
(
0.0234816473175
0.0280859138161
0.0291304658703
0.0293751713152
0.0294496851711
0.0294994962707
0.0295527448901
0.0296141387795
0.0296141387795
0.0296636024137
0.029734417588
0.0298132980022
0.0298132980022
0.0298504467349
0.0299378416509
0.0299378416509
0.0299808429808
)
;
    }
}


// ************************************************************************* //
