/*--------------------------------*- C++ -*----------------------------------*\
| =========                 |                                                 |
| \\      /  F ield         | OpenFOAM: The Open Source CFD Toolbox           |
|  \\    /   O peration     | Version:  v2012                                 |
|   \\  /    A nd           | Website:  www.openfoam.com                      |
|    \\/     M anipulation  |                                                 |
\*---------------------------------------------------------------------------*/
FoamFile
{
    version     2.0;
    format      ascii;
    class       volScalarField;
    location    "4.7";
    object      p_rgh;
}
// * * * * * * * * * * * * * * * * * * * * * * * * * * * * * * * * * * * * * //

dimensions      [1 -1 -2 0 0 0 0];


internalField   nonuniform List<scalar> 
164
(
8622.52068792
8622.24731149
8621.70275661
8620.877577
8619.76134076
8618.33784989
8616.59078683
8614.49356387
8615.10821626
8614.80928161
8614.21970883
8613.32718273
8612.12128873
8610.58901922
8608.71333575
8606.4693341
8607.98920905
8607.66818375
8607.04010617
8606.08998326
8604.80763098
8603.17999102
8601.19153156
8598.81857165
8596.03378117
8592.7982932
8601.18296629
8600.84322417
8600.18302865
8599.18485924
8597.83872424
8596.13191576
8594.04887403
8591.56777668
8588.6688284
8585.322128
8594.70556574
8594.35063759
8593.66442802
8592.62738222
8591.22962883
8589.458753
8587.2991237
8584.73078594
8581.72708444
8578.26882613
8588.56970363
8588.20380799
8587.49726675
8586.43004951
8584.99249975
8583.17233453
8580.95385836
8578.31792428
8575.23376994
8571.6809884
8582.7861858
8582.41236695
8581.69126012
8580.6024624
8579.13666262
8577.2817693
8575.02218802
8572.33889238
8569.20332738
8565.59427907
8577.36270066
8576.98318358
8576.25318131
8575.15125094
8573.66849097
8571.79319185
8569.51016091
8566.80055361
8563.63784236
8560.00111281
8572.30370731
8571.92057879
8571.18710579
8570.08014556
8568.59131346
8566.70963178
8564.42064537
8561.70621057
8558.54091919
8554.90204918
8567.61079163
8567.22642352
8566.49444462
8565.3900409
8563.90551741
8562.03095387
8559.75275269
8557.05456255
8553.91256575
8550.29707071
8563.28311112
8562.90007198
8562.17411373
8561.07921855
8559.60863176
8557.7535434
8555.5020845
8552.83953336
8549.74541427
8546.19414481
8559.31786373
8558.9384378
8558.22262686
8557.143482
8555.69545276
8553.87096697
8551.65989202
8549.05002839
8546.02648574
8542.57457264
8555.71047861
8555.33621443
8554.63439338
8553.57647152
8552.15815868
8550.37337201
8548.21399709
8545.67066061
8542.73281167
8539.36999738
8552.4542995
8552.08639462
8551.4018032
8550.36952615
8548.98664445
8547.24878394
8545.15001861
8542.68337154
8539.82659599
8536.59998966
8549.54017637
8549.18126485
8548.51580624
8547.51249951
8546.16921653
8544.48356837
8542.45185817
8540.05934246
8537.30971727
8534.2147946
8546.95979262
8546.60995919
8545.96627716
8544.99425786
8543.69338157
8542.06278875
8540.10913513
8537.7799553
8535.14366904
8532.1766087
8544.70151267
8544.36302774
8543.74252455
8542.80408221
8541.54545524
8539.96502323
8538.05093864
8539.71931129
)
;

boundaryField
{
    back
    {
        type            fixedFluxPressure;
        gradient        uniform 0;
        value           nonuniform List<scalar> 
164
(
8622.52068792
8622.24731149
8621.70275661
8620.877577
8619.76134076
8618.33784989
8616.59078683
8614.49356387
8615.10821626
8614.80928161
8614.21970883
8613.32718273
8612.12128873
8610.58901922
8608.71333575
8606.4693341
8607.98920905
8607.66818375
8607.04010617
8606.08998326
8604.80763098
8603.17999102
8601.19153156
8598.81857165
8596.03378117
8592.7982932
8601.18296629
8600.84322417
8600.18302865
8599.18485924
8597.83872424
8596.13191576
8594.04887403
8591.56777668
8588.6688284
8585.322128
8594.70556574
8594.35063759
8593.66442802
8592.62738222
8591.22962883
8589.458753
8587.2991237
8584.73078594
8581.72708444
8578.26882613
8588.56970363
8588.20380799
8587.49726675
8586.43004951
8584.99249975
8583.17233453
8580.95385836
8578.31792428
8575.23376994
8571.6809884
8582.7861858
8582.41236695
8581.69126012
8580.6024624
8579.13666262
8577.2817693
8575.02218802
8572.33889238
8569.20332738
8565.59427907
8577.36270066
8576.98318358
8576.25318131
8575.15125094
8573.66849097
8571.79319185
8569.51016091
8566.80055361
8563.63784236
8560.00111281
8572.30370731
8571.92057879
8571.18710579
8570.08014556
8568.59131346
8566.70963178
8564.42064537
8561.70621057
8558.54091919
8554.90204918
8567.61079163
8567.22642352
8566.49444462
8565.3900409
8563.90551741
8562.03095387
8559.75275269
8557.05456255
8553.91256575
8550.29707071
8563.28311112
8562.90007198
8562.17411373
8561.07921855
8559.60863176
8557.7535434
8555.5020845
8552.83953336
8549.74541427
8546.19414481
8559.31786373
8558.9384378
8558.22262686
8557.143482
8555.69545276
8553.87096697
8551.65989202
8549.05002839
8546.02648574
8542.57457264
8555.71047861
8555.33621443
8554.63439338
8553.57647152
8552.15815868
8550.37337201
8548.21399709
8545.67066061
8542.73281167
8539.36999738
8552.4542995
8552.08639462
8551.4018032
8550.36952615
8548.98664445
8547.24878394
8545.15001861
8542.68337154
8539.82659599
8536.59998966
8549.54017637
8549.18126485
8548.51580624
8547.51249951
8546.16921653
8544.48356837
8542.45185817
8540.05934246
8537.30971727
8534.2147946
8546.95979262
8546.60995919
8545.96627716
8544.99425786
8543.69338157
8542.06278875
8540.10913513
8537.7799553
8535.14366904
8532.1766087
8544.70151267
8544.36302774
8543.74252455
8542.80408221
8541.54545524
8539.96502323
8538.05093864
8539.71931129
)
;
    }
    sides
    {
        type            fixedFluxPressure;
        gradient        nonuniform List<scalar> 0();
        value           nonuniform List<scalar> 0();
    }
    bottom
    {
        type            fixedFluxPressure;
        gradient        uniform 0;
        value           nonuniform List<scalar> 
17
(
8622.52068792
8615.10821626
8607.98920905
8601.18296629
8594.70556574
8588.56970363
8582.7861858
8577.36270066
8572.30370731
8567.61079163
8563.28311112
8559.31786373
8555.71047861
8552.4542995
8549.54017637
8546.95979262
8544.70151267
)
;
    }
    front
    {
        type            fixedFluxPressure;
        gradient        uniform 0;
        value           nonuniform List<scalar> 
164
(
8622.52068792
8622.24731149
8621.70275661
8620.877577
8619.76134076
8618.33784989
8616.59078683
8614.49356387
8615.10821626
8614.80928161
8614.21970883
8613.32718273
8612.12128873
8610.58901922
8608.71333575
8606.4693341
8607.98920905
8607.66818375
8607.04010617
8606.08998326
8604.80763098
8603.17999102
8601.19153156
8598.81857165
8596.03378117
8592.7982932
8601.18296629
8600.84322417
8600.18302865
8599.18485924
8597.83872424
8596.13191576
8594.04887403
8591.56777668
8588.6688284
8585.322128
8594.70556574
8594.35063759
8593.66442802
8592.62738222
8591.22962883
8589.458753
8587.2991237
8584.73078594
8581.72708444
8578.26882613
8588.56970363
8588.20380799
8587.49726675
8586.43004951
8584.99249975
8583.17233453
8580.95385836
8578.31792428
8575.23376994
8571.6809884
8582.7861858
8582.41236695
8581.69126012
8580.6024624
8579.13666262
8577.2817693
8575.02218802
8572.33889238
8569.20332738
8565.59427907
8577.36270066
8576.98318358
8576.25318131
8575.15125094
8573.66849097
8571.79319185
8569.51016091
8566.80055361
8563.63784236
8560.00111281
8572.30370731
8571.92057879
8571.18710579
8570.08014556
8568.59131346
8566.70963178
8564.42064537
8561.70621057
8558.54091919
8554.90204918
8567.61079163
8567.22642352
8566.49444462
8565.3900409
8563.90551741
8562.03095387
8559.75275269
8557.05456255
8553.91256575
8550.29707071
8563.28311112
8562.90007198
8562.17411373
8561.07921855
8559.60863176
8557.7535434
8555.5020845
8552.83953336
8549.74541427
8546.19414481
8559.31786373
8558.9384378
8558.22262686
8557.143482
8555.69545276
8553.87096697
8551.65989202
8549.05002839
8546.02648574
8542.57457264
8555.71047861
8555.33621443
8554.63439338
8553.57647152
8552.15815868
8550.37337201
8548.21399709
8545.67066061
8542.73281167
8539.36999738
8552.4542995
8552.08639462
8551.4018032
8550.36952615
8548.98664445
8547.24878394
8545.15001861
8542.68337154
8539.82659599
8536.59998966
8549.54017637
8549.18126485
8548.51580624
8547.51249951
8546.16921653
8544.48356837
8542.45185817
8540.05934246
8537.30971727
8534.2147946
8546.95979262
8546.60995919
8545.96627716
8544.99425786
8543.69338157
8542.06278875
8540.10913513
8537.7799553
8535.14366904
8532.1766087
8544.70151267
8544.36302774
8543.74252455
8542.80408221
8541.54545524
8539.96502323
8538.05093864
8539.71931129
)
;
    }
    atmosphere
    {
        type            totalPressure;
        rho             rho;
        psi             none;
        gamma           1;
        p0              nonuniform List<scalar> 0();
        value           nonuniform List<scalar> 0();
    }
    floatingObject
    {
        type            fixedFluxPressure;
        gradient        nonuniform List<scalar> 0();
        value           nonuniform List<scalar> 0();
    }
    procBoundary4to0
    {
        type            processor;
        value           nonuniform List<scalar> 8(8630.20401159 8629.9586664 8629.4664631 8628.71984935 8627.7072296 8626.41138853 8624.81164759 8622.88889636);
    }
    procBoundary4to3
    {
        type            processor;
        value           nonuniform List<scalar> 
13
(
8535.84137061
8533.29810843
8530.45340647
8542.7546994
8542.42909742
8541.8340766
8540.93198916
8538.19189981
8535.84137061
8536.35203737
8540.93198916
8538.19189981
8538.20595656
)
;
    }
    procBoundary4to5
    {
        type            processor;
        value           nonuniform List<scalar> 
18
(
8612.02328747
8603.81931423
8603.81931423
8600.77614598
8589.1484089
8581.50207483
8574.33325164
8567.65344455
8561.47966463
8555.84743392
8550.7524043
8546.17359996
8542.16429782
8538.65320459
8535.6008299
8532.98658232
8530.76267322
8528.89295366
)
;
    }
}


// ************************************************************************* //
