/*--------------------------------*- C++ -*----------------------------------*\
| =========                 |                                                 |
| \\      /  F ield         | OpenFOAM: The Open Source CFD Toolbox           |
|  \\    /   O peration     | Version:  v2012                                 |
|   \\  /    A nd           | Website:  www.openfoam.com                      |
|    \\/     M anipulation  |                                                 |
\*---------------------------------------------------------------------------*/
FoamFile
{
    version     2.0;
    format      ascii;
    class       surfaceVectorField;
    location    "4.7";
    object      Uf;
}
// * * * * * * * * * * * * * * * * * * * * * * * * * * * * * * * * * * * * * //

dimensions      [0 1 -1 0 0 0 0];


internalField   nonuniform List<vector> 
300
(
(-0.00221177129579 6.68197588972e-05 -1.30675482846e-22)
(-0.00262745187862 2.3736415597e-05 -1.6802180753e-22)
(-0.00134075047147 0.00010339476254 -4.80198736943e-23)
(-0.00183225542879 9.02982147926e-05 -6.68679962504e-23)
(-0.000572569715002 0.000123823115203 1.93574349359e-24)
(-0.000854295701147 0.000118749925133 -2.36323224915e-23)
(-0.000169259803394 0.000146368990081 2.3222145667e-23)
(-0.000287974643345 0.000136081352338 1.83735992561e-23)
(-1.18501946592e-05 0.000188098721126 1.0266749179e-23)
(-5.8652741243e-05 0.00016205041108 8.47028834881e-24)
(3.3103747761e-05 0.000262421919829 -4.54337467206e-25)
(8.89148068482e-07 0.000214002597952 5.67745561994e-25)
(3.40771160262e-05 0.000381450461256 -3.76883351932e-24)
(-7.66957736131e-06 0.000303643363471 -7.12356464863e-24)
(-4.85662391831e-05 0.000442903949588 -3.98875149082e-25)
(-0.00226302499979 6.6051369293e-05 -1.04214320934e-22)
(-0.00269354444803 1.23254028029e-05 -1.40561345972e-22)
(-0.00136719598478 9.8679368651e-05 -4.24804450476e-23)
(-0.00186494989014 8.18958337706e-05 -2.92144113892e-23)
(-0.000591283955099 0.000115504781353 -7.19446672898e-24)
(-0.000871209100144 0.000104971972835 9.74226654558e-24)
(-0.00019732756207 0.000132020209623 3.62174193795e-24)
(-0.000304593845192 0.00011487450291 2.51721622085e-23)
(-6.41817211117e-05 0.000164087526854 -1.22871526824e-24)
(-9.08232591333e-05 0.000131399122424 1.01704125339e-23)
(-5.62620913846e-05 0.000224712939869 -6.10148161943e-24)
(-5.97816597378e-05 0.000169887284496 2.65117386634e-24)
(-0.00010466714515 0.000326590684339 -3.75360627839e-24)
(-0.000109477644447 0.000240788422065 -4.12396457238e-24)
(-0.000204396287399 0.000355401812397 4.36240607437e-24)
(-0.00230932956193 5.48726418958e-05 -6.5561436428e-23)
(-0.00274849843308 -2.69515645727e-06 -8.73848680857e-23)
(-0.00138845841677 7.95200966054e-05 2.3008300204e-23)
(-0.0018897039862 6.39173768722e-05 4.36012180147e-23)
(-0.000603597946297 8.87266545927e-05 4.2108895483e-23)
(-0.000880538446738 7.68504035657e-05 7.82135978623e-23)
(-0.00021592679528 9.62568230702e-05 3.17208328044e-23)
(-0.000312251933881 7.47710815806e-05 7.07348136692e-23)
(-0.000102421819366 0.000115931757061 1.40503016685e-23)
(-0.000110609748043 7.74953732737e-05 3.4700591523e-23)
(-0.000125944194048 0.000158750328831 4.62869091339e-24)
(-0.00010265479534 9.74412944447e-05 1.68495620703e-23)
(-0.000217734672871 0.000235033002372 3.99204778038e-24)
(-0.000185698557128 0.000142308532454 4.19706025018e-24)
(-0.000357838126208 0.000356390852652 1.6331447153e-23)
(-0.000325408489934 0.000220022781357 7.45067015013e-24)
(-0.000550824989906 0.000536239768707 2.537880811e-23)
(-0.000518536417828 0.000341648128119 2.21864474286e-23)
(-0.00077285840872 0.000517109026887 2.62243823821e-23)
(-0.00234246149963 4.08213467044e-05 2.1777786357e-23)
(-0.0027894402868 -1.68327940133e-05 4.20985366403e-23)
(-0.00139894769198 5.0744104772e-05 9.88065156731e-23)
(-0.00189977200642 4.0030915826e-05 1.41644250701e-22)
(-0.000605643019092 4.6654391682e-05 1.06839516049e-22)
(-0.000876604965254 3.74492307471e-05 1.49908090148e-22)
(-0.000221685716998 3.95460106356e-05 7.37145723878e-23)
(-0.000305294655029 1.85862061439e-05 1.19198254712e-22)
(-0.000123241500118 4.04683897381e-05 3.74998519248e-23)
(-0.000111650998443 2.21625447718e-06 6.34775153333e-23)
(-0.000171469132448 5.75199041651e-05 1.64179314071e-23)
(-0.000119751394175 -2.54163655295e-06 3.46209649909e-23)
(-0.000296742076764 9.87036331599e-05 7.65568261993e-24)
(-0.000226796673229 9.40057713043e-06 1.38372780639e-23)
(-0.000480832419926 0.000170129322984 1.33056704258e-23)
(-0.000396437817923 4.24878262528e-05 1.44357543317e-23)
(-0.000728169221901 0.000282680532568 2.30320217008e-23)
(-0.000630226398978 0.000104113762364 1.67791369943e-23)
(-0.000939182763325 0.000205599928704 2.85758285349e-23)
(-0.00235743183032 2.44044489338e-05 1.61965000985e-22)
(-0.00281399997271 -3.50303943107e-05 1.46564299367e-22)
(-0.00139249138115 1.46842053531e-05 1.92745825176e-22)
(-0.00189023045293 9.66895122229e-06 2.11829823642e-22)
(-0.000591459253799 -8.52153388143e-06 1.62266828811e-22)
(-0.00085358412848 -1.16141683493e-05 1.95882831464e-22)
(-0.000209099475275 -3.40578901641e-05 1.08961197657e-22)
(-0.000279929330265 -4.98931680851e-05 1.53103332633e-22)
(-0.000120655116558 -5.65441996401e-05 6.05986283994e-23)
(-8.92905213714e-05 -8.88409032226e-05 9.11585637684e-23)
(-0.000185681451743 -7.05245586449e-05 3.20403116477e-23)
(-0.000105806944417 -0.000122470577567 5.6760898406e-23)
(-0.000333150269401 -7.12308244918e-05 2.06173497758e-23)
(-0.000225978551399 -0.000147679765878 3.2073669161e-23)
(-0.000546060856863 -5.04084015335e-05 1.79092209003e-23)
(-0.000416814919459 -0.000163628249517 2.46611501329e-23)
(-0.000833327004748 -3.99451011459e-06 2.23229438284e-23)
(-0.000675704481063 -0.000166912443866 1.86560191459e-23)
(-0.00102174881347 -0.000149491750018 3.40935025901e-23)
(-0.0023515978285 -1.32988371786e-06 1.96429122024e-22)
(-0.0028128537827 -5.86907626891e-05 1.6980545309e-22)
(-0.00136619813158 -3.06977553484e-05 2.1496682993e-22)
(-0.00186106782212 -2.57707701847e-05 2.24061440906e-22)
(-0.0005567757687 -7.19201706383e-05 1.86719335287e-22)
(-0.000812569315495 -6.72074559698e-05 1.97801277519e-22)
(-0.000172824050623 -0.000119991519324 1.35300698744e-22)
(-0.000232045251166 -0.000125484793908 1.66428372835e-22)
(-8.74505791645e-05 -0.000169475457695 8.7320833775e-23)
(-3.99392843806e-05 -0.000187146466946 1.15801390415e-22)
(-0.000159052249289 -0.00021712775487 5.67942559193e-23)
(-5.81859760898e-05 -0.000251391646919 8.6690256153e-23)
(-0.000317619043039 -0.000262031994242 3.61174695182e-23)
(-0.000180945901124 -0.000317970609207 6.04528349419e-23)
(-0.000546903356657 -0.00030150749577 2.54079483785e-23)
(-0.000376862131821 -0.00038982059909 4.08196168968e-23)
(-0.000858391815164 -0.000334076933488 3.04265779075e-23)
(-0.000642155747703 -0.000469475195661 3.18514012851e-23)
(-0.0010013006153 -0.000553135813633 4.73009855326e-23)
(-0.00232240068976 -2.94317364336e-05 1.97437771972e-22)
(-0.0027836264837 -7.92802571316e-05 1.60670697396e-22)
(-0.0013199901842 -7.88222601607e-05 2.06895888494e-22)
(-0.00181190097438 -5.95543407371e-05 1.97038617481e-22)
(-0.000501609095287 -0.000137156318844 1.77510315067e-22)
(-0.000754458628787 -0.000121724688339 1.75582051851e-22)
(-0.000111358571405 -0.000205132035745 1.46929064505e-22)
(-0.000164268698134 -0.000199647580141 1.66057558151e-22)
(-2.10143116836e-05 -0.000281172326776 1.15170812793e-22)
(3.59618662613e-05 -0.000282145378022 1.34214518837e-22)
(-8.80259447483e-05 -0.000366365345827 9.03488351756e-23)
(2.69757250552e-05 -0.000376070320013 1.05570314857e-22)
(-0.000243428628876 -0.000462707231788 6.51549823206e-23)
(-8.44695131371e-05 -0.000486073962421 8.07537449476e-23)
(-0.00047181303898 -0.00057611044805 4.72630698035e-23)
(-0.000262969250597 -0.000618621086132 6.97751748627e-23)
(-0.000785406148484 -0.000704360653985 4.87258089101e-23)
(-0.000512914038199 -0.000782895569144 6.17370152181e-23)
(-0.000854125717555 -0.000982658738811 6.86489215247e-23)
(-0.00227269474641 -5.04925523285e-05 1.60271542906e-22)
(-0.00273334982595 -9.50008296409e-05 1.52887782555e-22)
(-0.00125528546651 -0.000120809227667 1.65724780838e-22)
(-0.00174181679487 -8.75974133236e-05 1.60231688161e-22)
(-0.000427675637365 -0.000197091596834 1.64129294935e-22)
(-0.000678406960857 -0.000168166306025 1.51376700742e-22)
(-2.6819532218e-05 -0.000283656273863 1.53343012483e-22)
(-7.79090825014e-05 -0.000263180458497 1.5444249442e-22)
(7.58672761066e-05 -0.000384598353138 1.24614020901e-22)
(0.000136760831627 -0.000363589732713 1.34302575279e-22)
(2.42907107147e-05 -0.000504522004749 9.59752246291e-23)
(0.00014686613199 -0.000483894850491 9.81552269097e-23)
(-0.000109951718195 -0.000652477506323 8.53739374898e-23)
(6.36196413779e-05 -0.000632892385303 9.89378953568e-23)
(-0.000309874131326 -0.000836513590979 8.42491202773e-23)
(-7.84460810137e-05 -0.000820371754558 1.02002016121e-22)
(-0.000586916929893 -0.00107273191676 8.16601278326e-23)
(-0.000275715051184 -0.00106278283931 1.12274943845e-22)
(-0.000555024489567 -0.00137850697223 8.82859587982e-23)
(-0.00220370752377 -6.75710302547e-05 1.5284792781e-22)
(-0.00266599536965 -0.000112167847679 1.65809737189e-22)
(-0.00117390655654 -0.000155598234596 1.45883608065e-22)
(-0.00165401976289 -0.000111030151916 1.52374689714e-22)
(-0.000337656397476 -0.000246658047848 1.41689900227e-22)
(-0.000587574989659 -0.000203942651696 1.25204322429e-22)
(7.6510545989e-05 -0.000348152799001 1.35402057217e-22)
(2.33828507767e-05 -0.000311055922877 1.3192650585e-22)
(0.000197563284324 -0.000467711306794 1.07843781287e-22)
(0.000256177419203 -0.000424641358894 1.22043761637e-22)
(0.000172874135623 -0.000614318746487 1.01117897638e-22)
(0.000293439892613 -0.000563608748919 9.59291618096e-23)
(8.05081477379e-05 -0.000807729093377 1.15565973988e-22)
(0.000257160230593 -0.000737174541206 1.16717591259e-22)
(-5.87694105676e-05 -0.00105080984799 1.30027839689e-22)
(0.000165110482917 -0.000960931393064 1.05359029236e-22)
(-0.000254618555497 -0.00137444432519 1.18900774811e-22)
(4.88749190598e-05 -0.00125961864662 1.27739602277e-22)
(-0.000113273833909 -0.00166472034423 9.69591839668e-23)
(-0.00211833642562 -8.51728893254e-05 1.65336499093e-22)
(-0.00258102798443 -0.000130116862724 1.3309728935e-22)
(-0.00108038725744 -0.000182863875184 1.31695404078e-22)
(-0.00155654451225 -0.000130756368877 4.26351365771e-23)
(-0.000238325670637 -0.000282455627566 1.15440928052e-22)
(-0.000488196813378 -0.000229868413982 4.57605031735e-23)
(0.000190351661638 -0.000392074873399 1.18568210271e-22)
(0.000132811306218 -0.000342155267896 8.698414381e-23)
(0.000336038467022 -0.000521333713578 1.1012914216e-22)
(0.000385302847672 -0.000460022422361 1.18008512466e-22)
(0.000351367439879 -0.000689572373023 1.11528855431e-22)
(0.000461648588014 -0.000602267621752 1.0644767834e-22)
(0.000317621283687 -0.000892760281215 1.06510646507e-22)
(0.000460475544714 -0.000781194659801 1.09531665548e-22)
(0.000260039628356 -0.00117286233959 1.03070791824e-22)
(0.000445672713673 -0.00101738663819 9.14129422522e-23)
(0.000179660375024 -0.00155319461615 1.05798011433e-22)
(0.000430128002099 -0.00133832742555 1.006697209e-22)
(0.000414030187354 -0.00178269450799 1.06904923535e-22)
(-0.00202044643397 -0.000100087335911 1.03959268341e-23)
(-0.00248112324864 -0.000144675405747 4.02343678819e-23)
(-0.000979614380227 -0.00020435175731 -4.3299764327e-23)
(-0.00145246936432 -0.000145692983478 -1.37295632681e-22)
(-0.000135574096971 -0.000303320192441 1.73037189316e-23)
(-0.000389416304961 -0.000247109314772 -1.20196952116e-22)
(0.000308297990475 -0.000414500963067 8.64244460046e-23)
(0.000243823348135 -0.000354675389391 1.83326186784e-23)
(0.000484325015952 -0.000542212695946 1.14327048645e-22)
(0.000512897573259 -0.000463209420867 1.22173844455e-22)
(0.000544288571976 -0.000698018377075 1.04450488457e-22)
(0.000617433037052 -0.000594302782823 1.33212532645e-22)
(0.000571508173782 -0.000906418062682 9.44339612938e-23)
(0.000669001314195 -0.000761351187307 1.13786001612e-22)
(0.000601548674438 -0.00118612510835 8.90118713283e-23)
(0.000725820898163 -0.00098326677348 1.04715354888e-22)
(0.000650399342495 -0.00156810971879 1.01776633002e-22)
(0.00081298878107 -0.00128689257585 1.09636403055e-22)
(0.000954799989211 -0.00170557882764 1.6869215487e-22)
(-0.00191303191862 -0.000111034626307 -1.07457191633e-22)
(-0.00237023754001 -0.000159423537234 -2.03270317293e-23)
(-0.000875679428567 -0.000219110304947 -2.1419282047e-22)
(-0.00134454595753 -0.000155770206257 -2.88130947723e-22)
(-3.27544572136e-05 -0.000313790296013 -1.19168052369e-22)
(-0.000294888892325 -0.000254082785528 -3.04092224529e-22)
(0.000423885623493 -0.000407356227845 5.40820171287e-23)
(0.000337251019362 -0.000349189608507 -6.83910499398e-23)
(0.000625835613534 -0.000520184509737 1.41059328454e-22)
(0.00062563172364 -0.00043784439175 1.14355041854e-22)
(0.000724034624628 -0.000660042270097 1.42548045799e-22)
(0.000757282050687 -0.000545521977931 1.52255914122e-22)
(0.000807098801826 -0.000843250175285 1.24067395206e-22)
(0.00085233421547 -0.000682574736475 1.38359686359e-22)
(0.000918391576746 -0.00108810875896 1.25339886615e-22)
(0.000971096101494 -0.000864950628501 1.37182196786e-22)
(0.00108662000403 -0.0014181592406 1.76551924922e-22)
(0.00114385685908 -0.00111289152033 1.62630063406e-22)
(0.00142699500043 -0.00144536149209 2.2705997281e-22)
(-0.00180179774799 -0.000121706935911 -2.01000787819e-22)
(-0.00224863745049 -0.000174478524601 5.34476448257e-24)
(-0.000775480293762 -0.000226071303227 -3.78030351782e-22)
(-0.00124028931135 -0.000162158594146 -3.64004830667e-22)
(5.895539448e-05 -0.000308192342972 -2.533152221e-22)
(-0.000212878774518 -0.000253012513689 -4.26688649933e-22)
(0.000521232817563 -0.000383558930847 -8.11802521434e-24)
(0.000412514662457 -0.000330341899359 -1.51112816129e-22)
(0.000740570375484 -0.000469076984434 1.25551627522e-22)
(0.000711081363942 -0.000391556199762 9.15723915126e-23)
(0.000869315499859 -0.00057393221536 1.48067554681e-22)
(0.000862141394092 -0.000462070041335 1.57535381878e-22)
(0.000998655147971 -0.000710760706234 1.51474487939e-22)
(0.000989283099966 -0.000551292333666 1.68059517315e-22)
(0.00117705255172 -0.000891701779628 1.74472373578e-22)
(0.00115241885152 -0.000670666259912 1.78974638947e-22)
(0.00143925239649 -0.00114237561102 2.13138111294e-22)
(0.00139527294854 -0.000832260261531 2.3479890661e-22)
(0.00175031246725 -0.00104752416552 2.40347723569e-22)
(-0.00168964726474 -0.000128467641657 -1.57659278365e-22)
(-0.00212022994329 -0.000185557795446 2.8130788222e-22)
(-0.000686438985052 -0.000229940546662 -4.12663128817e-22)
(-0.00113887624908 -0.000166251438618 -2.62721810229e-22)
(0.000128468216256 -0.000295492665722 -3.24486243962e-22)
(-0.000147394048341 -0.000248012635469 -4.07326706844e-22)
(0.000587521312725 -0.000344332140718 -5.1422399402e-23)
(0.000461286295207 -0.000302430152139 -1.61291493803e-22)
(0.000816329818671 -0.000392107431812 1.23556145869e-22)
(0.000758811117357 -0.00032880063738 8.99041187363e-23)
(0.000964128121052 -0.000447906838671 1.77527344512e-22)
(0.000917950944271 -0.000352707913081 1.80011534278e-22)
(0.00112363463224 -0.000517117247783 1.95559668323e-22)
(0.0010585985657 -0.00038131025731 2.30920460216e-22)
(0.00134894861099 -0.000611745889226 2.39301171979e-22)
(0.00124739833937 -0.000418644322561 3.05975216251e-22)
(0.00167494314861 -0.000752472192387 2.62008518885e-22)
(0.00153668142157 -0.000472384889848 4.04385923635e-22)
(0.00192946124536 -0.000550528733743 4.16459333462e-22)
(-0.00157543736647 -0.000134870612598 1.76245350356e-22)
(-0.00198534336405 -0.000195055222863 8.20421970445e-22)
(-0.000609502999703 -0.000228879299962 -2.57385388256e-22)
(-0.001044859134 -0.000168839594218 3.13123504761e-23)
(0.000173507407082 -0.000277026598375 -2.44131956685e-22)
(-9.92546752793e-05 -0.000240702921641 -2.17169119356e-22)
(0.000617971061373 -0.000295274878046 -1.99649756643e-23)
(0.000479521810865 -0.000270033636138 -6.30658073834e-23)
(0.000843399385089 -0.00030000207375 1.46359507146e-22)
(0.000763519582076 -0.000258792912372 1.5406283037e-22)
(0.000991478534221 -0.000296707430215 2.33404649982e-22)
(0.00091467935282 -0.000234774123884 3.11168514432e-22)
(0.00115865426378 -0.000285272123417 3.41336008144e-22)
(0.00104732273677 -0.000195149122562 5.8718277065e-22)
(0.00140414594571 -0.000289327496801 4.71059967908e-22)
(0.00125178377957 -0.000137298760149 1.03219625505e-21)
(0.0017588023616 -0.000283816422009 5.58836738212e-22)
(0.00153189762983 -7.60022745415e-05 1.41375565143e-21)
(0.00192861453908 -1.79391171571e-05 1.56637063677e-21)
(-0.00145905530138 -0.000139172123089 6.75488970565e-22)
(-0.0018460732046 -0.000206191754138 1.20954094676e-21)
(-0.000544589727413 -0.000229672106031 7.15286193769e-23)
(-0.000954275755476 -0.000172119984736 3.54976895228e-22)
(0.000194067975928 -0.000256843670004 -3.6102970054e-23)
(-7.20129855553e-05 -0.000234204421597 1.23597236534e-23)
(0.000610637652267 -0.000244983215297 1.10961998651e-22)
(0.000467655263068 -0.000239583894186 1.09921653735e-22)
(0.000817240755526 -0.000206481562537 3.18871837656e-22)
(0.000725081105132 -0.000193069012791 4.27650766337e-22)
(0.000951025326272 -0.000144014058268 6.64946635099e-22)
(0.000852303465911 -0.000119717000975 1.10422154327e-21)
(0.00110610769984 -5.51887732848e-05 1.27804301756e-21)
(0.00095858623267 -9.12739340739e-06 2.65406977386e-21)
(0.00134381141759 6.38045173679e-05 1.97489193857e-21)
(0.00168586270427 0.000182539248098 2.42128954998e-21)
(-0.00134119426592 -0.000147851688588 8.89028871419e-22)
(-0.000490668421747 -0.000233191940754 2.95807999505e-22)
(0.000192312835504 -0.000248711535775 1.58384347443e-22)
(0.00056562016755 -0.000211068045005 4.26610421421e-22)
(0.000735670131447 -0.000124928901528 1.21300047195e-21)
(0.00063890750074 -0.000141525175962 1.7036051065e-21)
(0.000839253444361 1.63244306205e-06 3.09334468203e-21)
)
;

boundaryField
{
    back
    {
        type            calculated;
        value           uniform (0 0 0);
    }
    sides
    {
        type            calculated;
        value           nonuniform List<vector> 0();
    }
    bottom
    {
        type            calculated;
        value           uniform (0 0 0);
    }
    front
    {
        type            calculated;
        value           uniform (0 0 0);
    }
    atmosphere
    {
        type            calculated;
        value           nonuniform List<vector> 0();
    }
    floatingObject
    {
        type            calculated;
        value           nonuniform List<vector> 0();
    }
    procBoundary4to0
    {
        type            processor;
        value           nonuniform List<vector> 8((-0.00256063810297 2.92519625282e-05 -1.9817747092e-22) (-0.00179565507557 8.8581912993e-05 -7.49041190205e-23) (-0.000833804387256 0.00011758568443 -1.09468738219e-23) (-0.000265325849435 0.000136660259056 4.64488681248e-23) (-1.67948799864e-05 0.00016558597429 2.22448043751e-23) (7.5310259129e-05 0.000223519658893 4.45166392094e-24) (0.000111329313396 0.000322355736305 -7.51630207772e-24) (0.000127349561083 0.000472801923037 -4.35297005254e-24));
    }
    procBoundary4to3
    {
        type            processor;
        value           nonuniform List<vector> 
13
(
(0.00113317509628 0.000144401108966 5.09545275722e-21)
(0.00141355280757 0.00030071155588 7.27479288389e-21)
(0.00176897125318 0.000424575088329 8.12288055247e-21)
(-0.00169807931738 -0.000218753590417 1.34099509671e-21)
(-0.000868806986462 -0.000177298119654 5.31527452859e-22)
(-5.6460648919e-05 -0.000231256826547 2.12566026239e-22)
(0.000430151636219 -0.000219700814401 5.07132822545e-22)
(0.000725795386204 -1.69121025189e-05 5.17202653004e-21)
(0.0009659944365 0.00017331945184 6.47147951352e-21)
(0.000787048242976 0.000160098308656 1.32132957919e-20)
(0.000485853782362 -0.000180103109389 1.78412750762e-21)
(0.000599766716047 -6.08918044954e-05 5.66263116459e-21)
(0.000519872777564 -0.000122470917376 7.26299775307e-21)
)
;
    }
    procBoundary4to5
    {
        type            processor;
        value           nonuniform List<vector> 
18
(
(9.00939884587e-06 0.000557633170231 -6.6668846962e-25)
(-0.000190268991319 0.000482696359163 6.89348133055e-24)
(-0.000339678819224 0.000525718471707 1.88625224092e-23)
(-0.000535158515961 0.000759519276348 2.51184416155e-23)
(-0.000817906364138 0.000775325684369 3.70425491818e-23)
(-0.00105392318371 0.000450167580105 3.85366691896e-23)
(-0.00121081882525 7.98256233616e-05 4.36152719673e-23)
(-0.001274568497 -0.000353221812583 4.94455231952e-23)
(-0.00121126810816 -0.000850220582007 5.35086235531e-23)
(-0.000970222470644 -0.00137053380579 4.16856029895e-23)
(-0.000531519855794 -0.00181492909239 1.15287945432e-22)
(6.87993425009e-05 -0.00207927974988 2.0327311211e-22)
(0.000735929865578 -0.0021077228233 2.82062174436e-22)
(0.0013500333059 -0.00188927904381 3.37092737897e-22)
(0.00182184919214 -0.00146471870263 2.09159789116e-22)
(0.00213161230271 -0.000930705670482 3.13762121998e-22)
(0.00224137295084 -0.000282264757308 6.11421549356e-22)
(0.002109272345 0.000343045049618 2.67576996395e-21)
)
;
    }
}


// ************************************************************************* //
