/*--------------------------------*- C++ -*----------------------------------*\
| =========                 |                                                 |
| \\      /  F ield         | OpenFOAM: The Open Source CFD Toolbox           |
|  \\    /   O peration     | Version:  v2012                                 |
|   \\  /    A nd           | Website:  www.openfoam.com                      |
|    \\/     M anipulation  |                                                 |
\*---------------------------------------------------------------------------*/
FoamFile
{
    version     2.0;
    format      ascii;
    class       volScalarField;
    location    "3.2";
    object      alpha.water;
}
// * * * * * * * * * * * * * * * * * * * * * * * * * * * * * * * * * * * * * //

dimensions      [0 0 0 0 0 0 0];


internalField   nonuniform List<scalar> 
167
(
0.999999368235
0.999998743776
0.999998201657
0.999997456798
0.999996412737
0.999996317766
0.999996491754
0.99999656279
0.999996570883
0.747547401809
0.056851979067
0
0.999999143501
0.999998069495
0.999997616034
0.99999648926
0.999996315922
0.999996315923
0.999997015212
0.999997100547
0.999997093072
0.737848802834
0.0573913411289
-3.61298788628e-54
0.999997601769
0.999997756653
0.999997760648
0.999996406773
0.99999631592
0.999996323849
0.999997761729
0.999997644852
0.999997642615
0.728343137175
0.0529934257888
-7.59251807967e-25
0.999995482714
0.999996779796
0.999996774607
0.999996315933
0.999997306224
0.999998322367
0.999998242059
0.999998260627
0.719290460026
0.0451362188474
-3.33309343134e-26
0.999995827265
0.999995953534
0.999997699784
0.999998187535
0.999998951437
0.999999001752
0.999998846989
0.709018772062
0.0359372382778
-5.51300156991e-26
0.999995835019
0.999997167989
0.999998277732
0.999999034526
0.999999713832
0.999999231515
0.999999289756
0.695252930205
0.0268218695809
-1.64888250656e-24
0.999997522625
0.999998411026
0.999999283538
0.999999801209
0.999999897942
0.999999851373
0.999999659817
0.677825435643
0.0183942664102
-3.4715179091e-23
0.999999825489
0.999999883247
1.00000022428
1.00000013543
0.999999994571
0.999999997472
0.999999822064
0.658387344642
0.0112726851757
-1.06091987157e-24
1.00000134321
1.00000112674
1.00000150594
1.00000101562
0.999999995404
0.9999999978
0.999999829818
0.640333431107
0.00587996764332
-1.36094846916e-26
1.00000336357
1.00000258925
1.00000266804
1.00000167135
0.999999995851
0.99999999971
0.99999983962
0.626432237959
0.00250447421744
0
1.00000523496
1.00000415854
1.00000390529
1.00000209272
0.999999998768
1.00000000111
0.999999842576
0.616379311726
0.0020735547803
8.3382686453e-13
1.00000689453
1.00000566305
1.00000512197
1.00000254243
1.00000000042
1.00000000117
0.999999838558
0.609480959194
0.00353466019618
-1.76885055733e-17
1.00000804164
1.00000668677
1.00000614373
1.00000321877
1.00000000019
1.00000000059
0.999999841504
0.608100181576
0.00467687423731
0
1.0000090296
1.00000801471
1.00000764136
1.0000043046
1
1.00000000009
0.999999843454
0.610326882272
0.00544897086327
0
1.0000108047
1.00001014276
1.00000985442
1.00000609095
1
1.00000000005
0.999999846827
0.615813512205
0.00579386606602
-1.50224248984e-23
1.00001104716
1.00001157017
1.00001122723
1.00000745414
1
1.00000000013
0.999999831553
0.622038111718
0.00650478588347
0
)
;

boundaryField
{
    back
    {
        type            zeroGradient;
    }
    sides
    {
        type            zeroGradient;
    }
    bottom
    {
        type            zeroGradient;
    }
    front
    {
        type            zeroGradient;
    }
    atmosphere
    {
        type            inletOutlet;
        inletValue      uniform 0;
        value           nonuniform List<scalar> 
16
(
0
0
0
0
0
0
0
0
0
0
8.3382686453e-13
0
0
0
0
0
)
;
    }
    floatingObject
    {
        type            zeroGradient;
    }
    procBoundary1to0
    {
        type            processor;
        value           nonuniform List<scalar> 10(1.0000119979 1.00001442264 1.00001501233 1.00001010026 1 0.999999999973 0.999999800099 0.628338734685 0.00777842667739 -1.24840902593e-23);
    }
    procBoundary1to2
    {
        type            processor;
        value           nonuniform List<scalar> 
18
(
1.00000008287
0.999999475586
0.999999661926
0.999997768611
0.999997768611
0.999995836659
0.999995836659
0.999997707187
0.999998924603
0.999999958193
1.00000124289
1.00000268176
1.00000411998
1.00000523453
1.0000060372
1.00000654909
1.00000675606
1.00000706777
)
;
    }
}


// ************************************************************************* //
