/*--------------------------------*- C++ -*----------------------------------*\
| =========                 |                                                 |
| \\      /  F ield         | OpenFOAM: The Open Source CFD Toolbox           |
|  \\    /   O peration     | Version:  v2012                                 |
|   \\  /    A nd           | Website:  www.openfoam.com                      |
|    \\/     M anipulation  |                                                 |
\*---------------------------------------------------------------------------*/
FoamFile
{
    version     2.0;
    format      ascii;
    class       surfaceVectorField;
    location    "2.6";
    object      Uf_0;
}
// * * * * * * * * * * * * * * * * * * * * * * * * * * * * * * * * * * * * * //

dimensions      [0 1 -1 0 0 0 0];


internalField   nonuniform List<vector> 
300
(
(0.0307851312423 -0.000664762493102 -5.39254270947e-22)
(0.0319075652225 -0.000397557988307 -2.65949604078e-22)
(0.0295830824727 -0.00130639055448 -4.70423915318e-22)
(0.0303174567649 -0.000784997311018 -5.23905378533e-22)
(0.0293074951554 -0.00188320714951 -7.37078336219e-23)
(0.0294318180292 -0.00118302822198 -8.80762017676e-23)
(0.0299607457761 -0.00240896934118 1.61892669357e-22)
(0.0297113407761 -0.00164571657736 1.14505394585e-22)
(0.0311774889894 -0.00285818613421 1.97142238532e-22)
(0.03066605313 -0.00198612809496 2.00939132597e-22)
(0.0327825054394 -0.00323843211056 1.49071738734e-22)
(0.0320730794837 -0.00225310580949 1.35038268694e-22)
(0.0347255618796 -0.00350849887603 1.44126662576e-22)
(0.0337987130707 -0.00242024612435 1.02988318925e-22)
(0.035834397345 -0.00246271382242 8.55325359821e-23)
(0.0312959115214 -0.000377685887953 -2.50600711664e-22)
(0.0322853771687 -0.000239465957708 1.49062840168e-23)
(0.0300513547501 -0.000732621224513 -1.41557664983e-22)
(0.0306725240847 -0.000349238550172 -2.1309505107e-22)
(0.0297194153231 -0.00102986166587 1.00137026439e-22)
(0.0297291844206 -0.00050001076507 1.22687392478e-22)
(0.0303116417253 -0.00126772248977 1.53551857825e-22)
(0.0299493224765 -0.000680580392621 1.26892968466e-22)
(0.031452156912 -0.00144550396752 1.38835162758e-22)
(0.0308439570206 -0.000746871865902 1.40056850223e-22)
(0.0329583478469 -0.0015197689359 8.89548488845e-23)
(0.0321474695777 -0.000730905693957 7.1255841363e-23)
(0.0347805137815 -0.00147701809142 4.43941923315e-23)
(0.0337560781416 -0.000604617048489 5.66318724054e-23)
(0.0369070064402 -0.00130891319673 3.82958153489e-23)
(0.0356663800813 -0.000350849705939 4.13719719931e-24)
(0.0393432467894 -0.000982933613548 6.78420285685e-23)
(0.0378740164018 5.28058607711e-05 4.08679498122e-23)
(0.0421025850498 -0.000506072810597 6.200380328e-23)
(0.0403985327716 0.000619808040723 3.75694059247e-23)
(0.0432524892952 0.00134494191754 -1.90573869135e-23)
(0.0315228757164 -9.52315225505e-05 5.24119446112e-23)
(0.0323807655893 -7.81923855411e-05 1.35595241695e-22)
(0.0302478429551 -0.000191861548419 5.11500063907e-23)
(0.030769311218 6.306362796e-05 9.46839597866e-24)
(0.0298583805286 -0.000227229822547 1.49443334504e-22)
(0.0297647024799 0.000132552401816 8.49764452009e-23)
(0.0303829056662 -0.000203365057347 1.13397960864e-22)
(0.029925603012 0.000219173394242 8.9480113779e-23)
(0.031438932556 -0.000103752999084 7.24775288282e-23)
(0.030744492838 0.000410748310882 8.55777838466e-23)
(0.0328399550614 0.000100930005975 3.8932864884e-23)
(0.031942940619 0.000689143249966 4.87265117002e-23)
(0.0345323835658 0.000428799319462 1.63748772732e-23)
(0.0334283626984 0.00108435555491 6.02714843804e-23)
(0.0365168974275 0.000904780750799 6.70933166254e-24)
(0.0351905383911 0.00162249589438 4.5223763524e-23)
(0.0388067230385 0.00153633808919 1.05953271683e-23)
(0.0372425952763 0.00232683993903 2.9679361061e-23)
(0.0414218147396 0.00234607921901 -4.34917842688e-23)
(0.0395889109549 0.0032174409209 1.6261313705e-23)
(0.04439613489 0.00337015495964 -1.00245615443e-22)
(0.0422285946316 0.00431552215495 -1.3051086328e-22)
(0.0477513103601 0.00448553739062 -6.56490752084e-22)
(0.045295020035 0.00565437621993 -2.90831688531e-22)
(0.0486918406304 0.00723228280886 -1.63381302041e-21)
(0.0314914904866 0.00014877892321 9.26516930628e-23)
(0.0322321453193 6.72799146254e-05 -8.88510668174e-24)
(0.030189076471 0.000327398323495 4.32948347888e-23)
(0.0305908461289 0.00044019931388 8.66371522785e-24)
(0.0297481090755 0.000528034181294 2.50132244759e-23)
(0.0295642162909 0.000715061110695 -5.45959364389e-23)
(0.0301986989207 0.000789820013747 6.16599367614e-23)
(0.029663969009 0.00104473947506 3.42979951103e-23)
(0.0311593681537 0.00114627819855 6.18267667186e-23)
(0.0303881982956 0.00147177364514 7.27268020996e-23)
(0.0324455073203 0.0016145360613 7.00651311966e-23)
(0.0314748652846 0.00199393505302 4.9830481945e-23)
(0.034002974473 0.00220599314838 8.91203706312e-23)
(0.0328371079235 0.00264007648205 7.60295202022e-23)
(0.0358339755363 0.00295075934071 6.81937929225e-23)
(0.0344459849993 0.00344627886808 7.36334145466e-23)
(0.0379384432195 0.00390040352011 3.53453475978e-23)
(0.0362931739442 0.00442299275294 3.01141895926e-23)
(0.0403553136298 0.00508829371219 -7.07577653062e-23)
(0.0384012540237 0.00562555362544 2.26028713742e-23)
(0.0431443964029 0.00646992146079 -3.21096936368e-22)
(0.0408472597025 0.00710869816925 -1.24665525317e-22)
(0.0463084502368 0.00814138244728 -1.26815395685e-21)
(0.0436240702444 0.00888539109128 -4.32215551134e-22)
(0.0497031142953 0.0100731690692 -2.15921355588e-21)
(0.046760866127 0.0110067405291 -1.55942945423e-21)
(0.0502305158845 0.0134332305618 -2.69922766998e-21)
(0.0312167243981 0.000388078852082 -9.28730845167e-23)
(0.0318441987818 0.000188667513076 -1.87747296666e-22)
(0.0298891821508 0.000788344397565 -8.92270559999e-23)
(0.0301907054723 0.000776371807922 -7.23813367846e-23)
(0.0294042928181 0.00122052247386 -4.53111658046e-23)
(0.0291321631714 0.00124861418818 -1.28997431032e-22)
(0.0297828998798 0.00171284675891 4.53648604484e-23)
(0.0291717805805 0.00179509429674 -6.99861761349e-24)
(0.0306430523636 0.0022775990153 6.0730517326e-23)
(0.0298236047124 0.00243148381512 5.06271338759e-23)
(0.0318020603382 0.00296402558907 5.57948709506e-23)
(0.030788629256 0.00317242893795 3.92105303619e-23)
(0.0332072808614 0.00380397793005 6.05425641175e-23)
(0.0319973819361 0.00404542233045 6.05504096721e-23)
(0.034849362594 0.00482836646119 3.55538112166e-23)
(0.0334218529729 0.00508312227217 5.03144529342e-23)
(0.0367323921969 0.00607325346716 1.73717133691e-23)
(0.0350485679462 0.00629902113718 2.83933248995e-23)
(0.0388880769691 0.00752114712951 -3.13048886367e-23)
(0.0369536609387 0.00777424628426 5.05154193428e-23)
(0.0413583190376 0.00929058539175 -2.35784140083e-22)
(0.0390781684842 0.00956985474727 -1.8661984511e-23)
(0.0442010474394 0.0114179861212 -7.23491048509e-22)
(0.0414972291744 0.0117100279655 -2.23476378804e-22)
(0.0474197921251 0.0139119076381 -2.09944356833e-21)
(0.0442677887355 0.0143071265659 -6.82375520744e-22)
(0.047337302069 0.0174392360404 -2.37471114497e-21)
(0.0307254201349 0.000608734644909 -1.67255548934e-22)
(0.0312355480482 0.000296778888477 -3.04097703025e-22)
(0.0293817907707 0.00118963148246 -1.12151711817e-22)
(0.0296098835672 0.00107378400599 -1.18547208341e-22)
(0.0288478656963 0.00181281024571 -9.0684882841e-23)
(0.0285090634382 0.00172499276473 -1.40799394904e-22)
(0.0291541744713 0.00249727796806 -1.73634418602e-24)
(0.0284874089389 0.00246948520589 -1.05418995553e-23)
(0.0299118519698 0.00327685325025 2.91071469118e-23)
(0.0290441547355 0.00328726059489 2.506191904e-23)
(0.0309341155541 0.00417777237235 4.39660690834e-23)
(0.0298878731132 0.00421361382978 3.2252259666e-23)
(0.0321682122893 0.0052310783394 5.03222984888e-23)
(0.0309442792018 0.00527970222423 4.94782457288e-23)
(0.0336009182755 0.00647093532472 4.31539666171e-23)
(0.0321822336603 0.00651100950345 2.88070210981e-23)
(0.0352498494014 0.00791669295772 6.15370308732e-23)
(0.0336030716205 0.00793984942023 4.14586160351e-23)
(0.0371172240782 0.00965484074777 6.31583234684e-23)
(0.0352157907562 0.00963144431999 8.57820051765e-23)
(0.0392100268191 0.0117482368232 -6.35422323156e-24)
(0.0369850811077 0.011651388623 4.43949063041e-23)
(0.0415837237308 0.0142779828594 -1.82360851039e-22)
(0.0389679644522 0.0140623186288 3.92426217048e-23)
(0.0442483648678 0.0174067934067 -9.57643097385e-22)
(0.0411396862543 0.0169924082061 -1.97674796159e-22)
(0.043399631268 0.0205995441776 -1.09807588717e-21)
(0.0300387939905 0.000787778085569 -2.55389362432e-22)
(0.0304477935066 0.000398586671081 -3.01554233109e-22)
(0.0286889869586 0.00157015528775 -1.47194891428e-22)
(0.0288275204742 0.00133780161929 -2.11178724924e-22)
(0.0281080428335 0.00236457808802 -6.06564116188e-23)
(0.0277146600128 0.00214344032746 -9.74216968438e-23)
(0.028334197441 0.00322676621896 1.62563636708e-23)
(0.0276252576753 0.00305887252029 2.36842362569e-23)
(0.0289851382026 0.00418592648631 2.82070317943e-23)
(0.028085059058 0.00403492884024 2.19044711899e-23)
(0.0298727628042 0.00525041929812 3.77644363114e-23)
(0.0288234782899 0.00511963238269 8.08435413037e-24)
(0.0309370551549 0.00646921394708 2.79629683381e-23)
(0.0297256148926 0.00634317859822 2.60623930996e-23)
(0.0321633288325 0.0078779571173 2.71116705161e-23)
(0.0307736445291 0.0077313083562 3.98799422642e-24)
(0.0335542925455 0.00951763596335 6.57035903384e-23)
(0.0319635569259 0.00932250328328 3.95278421747e-23)
(0.0350979958484 0.0114529184595 6.70185880121e-23)
(0.0332806739895 0.0111653808304 5.72249412337e-23)
(0.0367766809284 0.0137481761896 8.99917512404e-23)
(0.0346900039617 0.0133214695231 2.89602204191e-23)
(0.0385853024422 0.0165162368516 2.39286765852e-23)
(0.0362002089175 0.0158636318136 1.00880979225e-22)
(0.0404572362895 0.0199055095964 -3.38107585939e-22)
(0.037750888384 0.0188900599089 -6.37796208175e-23)
(0.0392046944273 0.0225283421773 -6.23806453343e-22)
(0.0291858845775 0.0009572207638 -2.57343595601e-22)
(0.0294905366072 0.000481436138263 -2.82388854985e-22)
(0.0278299594487 0.00187590403251 -1.6140553034e-22)
(0.0279087917146 0.00156342092917 -9.57262713047e-23)
(0.0272057073843 0.00282673377982 -1.30810489681e-23)
(0.0267637877591 0.00250527525337 -5.54842813341e-23)
(0.0273537190256 0.00383449605678 2.9332343776e-23)
(0.0266174649968 0.00356485859651 3.55166315842e-23)
(0.0279006279586 0.00493014671849 1.78179352599e-24)
(0.0269893973596 0.0046764112164 1.50931373093e-23)
(0.0286554923338 0.0061492376034 -3.61768908144e-24)
(0.0276043984256 0.00589143409617 3.12919897415e-24)
(0.0295518637734 0.00751537238679 2.08741898785e-24)
(0.0283595090554 0.0072373584995 -7.8030955095e-25)
(0.0305703132803 0.00906285621313 1.64041658849e-23)
(0.0292261966597 0.00874264408006 -1.03992974524e-23)
(0.0316982817872 0.0108370686865 3.10491930699e-23)
(0.0301893740131 0.0104420818882 2.43120261295e-23)
(0.0329152770176 0.0128899093484 1.91665736407e-23)
(0.031227851082 0.0123740002747 1.28626374923e-23)
(0.0341909425226 0.0152581847928 3.98494484033e-23)
(0.0323217548111 0.0145871931578 -1.54084552292e-24)
(0.0354797602955 0.0180430764098 1.31726818219e-23)
(0.0334154375952 0.0171375939837 5.86563807716e-23)
(0.0366816644821 0.0213377155513 -3.49478488222e-22)
(0.034456543427 0.0200794513702 9.9510532083e-24)
(0.0353353298793 0.0234782852367 -4.95733465313e-22)
(0.0281836035483 0.00108618505742 -1.20771530689e-22)
(0.0284042686726 0.000549470812956 -3.53333856553e-22)
(0.0268268989081 0.00215010902608 1.01949777008e-23)
(0.0268447760467 0.00175410857307 4.65182371423e-23)
(0.0261640545835 0.00322916087327 -6.88660078186e-24)
(0.025684642516 0.00281143238357 -2.10101238384e-23)
(0.0262407287927 0.00436268274351 2.12774251174e-23)
(0.0254838535705 0.00399106067912 -5.75332562115e-25)
(0.0266852416564 0.00557955293184 1.64405427574e-23)
(0.0257724467466 0.00521145292145 -4.50058071677e-24)
(0.0273081650636 0.00690916383483 5.96657850464e-24)
(0.0262747179504 0.00652890377332 1.18237007612e-23)
(0.0280427902363 0.00837823599531 -1.32670259912e-23)
(0.026890374077 0.00796812534617 -9.08815632683e-24)
(0.028864862229 0.0100176158353 -2.49143720782e-24)
(0.0275867507594 0.009555899605 -2.11452054377e-23)
(0.02975428757 0.0118609269636 6.12547055183e-24)
(0.0283459840799 0.0113210107161 -3.28727250142e-24)
(0.0306851175078 0.0139446774084 -7.8447816713e-24)
(0.0291440113729 0.0132934623428 -1.17739636407e-23)
(0.0316182115938 0.0163166942499 1.72660868453e-23)
(0.0299496695623 0.015506507807 -9.28421697266e-24)
(0.0324972467708 0.0190164984933 5.5434752158e-23)
(0.0307156766051 0.0179927790124 4.95247927398e-23)
(0.0332445563798 0.0220839771516 -1.36303923883e-22)
(0.0313893180432 0.0207795034057 9.97720244982e-23)
(0.0319398372473 0.0238669282801 -1.89904945052e-22)
(0.0270435248645 0.00120717852857 -1.86044088722e-22)
(0.0271969660187 0.000619303852598 -4.16094867434e-22)
(0.0256985593936 0.0023861527186 1.53131356031e-23)
(0.0256656693783 0.00191723095814 -4.55310471764e-23)
(0.0250058904151 0.00356805550925 -1.46988556186e-23)
(0.0245025987217 0.00306451561599 -4.6347951386e-23)
(0.0250185502675 0.00479951716464 -2.63533383963e-23)
(0.024252248051 0.00434011918154 -1.46265260472e-23)
(0.0253691833377 0.00610996106193 -9.11742271301e-24)
(0.024461866302 0.00564558879125 -2.62308142437e-23)
(0.0258714352547 0.00752516953502 -3.23103407028e-24)
(0.0248593905009 0.0070413797893 -4.60954595376e-24)
(0.0264571761464 0.00906966535336 -1.69663357734e-23)
(0.0253457812278 0.00854743946799 -1.27120294801e-23)
(0.0270999843462 0.0107714473817 -2.19410407313e-23)
(0.0258848909119 0.0101888088143 -1.81957394075e-23)
(0.0277811549023 0.0126495718696 -2.11867066939e-23)
(0.0264677966441 0.0119905534577 -1.32147165618e-23)
(0.0284706137453 0.0147309978222 -1.3213398942e-23)
(0.0270625459857 0.013969927296 -1.44522612258e-23)
(0.0291311304387 0.0170490266612 2.29744889218e-23)
(0.0276316644952 0.0161504862571 3.29096666467e-25)
(0.0297180086945 0.0196071461153 9.386206508e-23)
(0.0281577210677 0.018549123957 4.08791639685e-23)
(0.0301826122737 0.0223994781116 4.61710033296e-23)
(0.0285973956965 0.0211743697672 1.94997417196e-22)
(0.0304067874877 0.0254024654591 -1.10537774496e-21)
(0.0289376832342 0.0239880164166 1.46228367666e-22)
(0.0300604962129 0.0283854612069 -4.67697896122e-21)
(0.0290323535336 0.0270313133994 -1.50309991229e-21)
(0.0284672089928 0.0299682796954 -6.29183100677e-21)
(0.0257991616028 0.00131010371611 -2.75581825889e-22)
(0.0258867094456 0.000675352466656 -4.61248352348e-22)
(0.0244749440229 0.00257620631646 -1.07192134165e-22)
(0.0243993977549 0.00204530349786 -1.34615457645e-22)
(0.023758601193 0.00384069721164 -4.62756218145e-23)
(0.0232379258097 0.00326189271113 -1.56098053164e-22)
(0.0237107139761 0.0051503566482 -1.45040018946e-23)
(0.0229424099943 0.00461264087585 4.49448303297e-23)
(0.0239733713273 0.00653296321655 -2.17229374845e-23)
(0.0230791089209 0.00598416407973 -1.22313333895e-23)
(0.0243640640327 0.00801372845589 -1.40905413636e-23)
(0.0233785289925 0.00743808043405 -9.0170232143e-24)
(0.0248171661398 0.00961282379323 -1.39414331142e-23)
(0.0237466600645 0.00899096554791 -1.58825327796e-23)
(0.0253028926069 0.0113379729323 -9.46941523802e-24)
(0.0241597887201 0.0106624798306 -1.1733414087e-23)
(0.0258041714294 0.013230094415 -6.48027109374e-24)
(0.0245757908193 0.0124793221278 3.82306941978e-24)
(0.0262951705825 0.0152950234697 -9.09765617333e-25)
(0.0249978116355 0.0144472757296 -1.05369950294e-23)
(0.0267451066157 0.017545801661 1.82337717132e-23)
(0.0253812143953 0.016582925114 8.33029074542e-24)
(0.0271269791589 0.0199917719365 1.42014516084e-22)
(0.0257123159111 0.0188973287323 3.46963511735e-23)
(0.0274224726542 0.0226183093053 2.95054781533e-22)
(0.0259717895629 0.0213860352743 3.30726831731e-22)
(0.0276277798803 0.0253675443507 -2.51493799662e-22)
(0.0261899026394 0.0240235063804 7.94827865528e-22)
(0.0274924173985 0.0279931895336 -3.11795195784e-21)
(0.0264086891152 0.0268983783653 -1.65019403229e-22)
(0.0261639410891 0.0294742619266 -3.91102576517e-21)
(0.0244765824518 0.00137840824514 -3.20281984104e-22)
(0.0231759649291 0.00271231200021 -1.83521376644e-22)
(0.0224393208545 0.00404573831125 -6.487760102e-23)
(0.0223353053336 0.00541590827037 4.72174988348e-23)
(0.0225157367486 0.00685213714479 4.74580880659e-25)
(0.0228027533776 0.0083751254138 -1.08090146304e-23)
(0.0231357009855 0.0100024234772 -1.36745137524e-23)
(0.023487084924 0.0117607501838 1.5590705708e-24)
(0.0238364300227 0.0136409849231 -2.33654515897e-25)
(0.0241648993866 0.0156809695582 -1.29693866666e-24)
(0.0244470133414 0.0178634541701 2.47928702058e-23)
(0.0246652516527 0.0202121518139 2.2340866682e-22)
(0.0248390712714 0.0227204248736 8.30499915726e-22)
(0.0250355136251 0.0253516251852 8.81302261962e-22)
(0.0250736238527 0.0280044321462 -9.58093210562e-22)
)
;

boundaryField
{
    back
    {
        type            calculated;
        value           uniform (0 0 0);
    }
    sides
    {
        type            calculated;
        value           nonuniform List<vector> 0();
    }
    bottom
    {
        type            calculated;
        value           uniform (0 0 0);
    }
    front
    {
        type            calculated;
        value           uniform (0 0 0);
    }
    atmosphere
    {
        type            calculated;
        value           nonuniform List<vector> 0();
    }
    floatingObject
    {
        type            calculated;
        value           nonuniform List<vector> 0();
    }
    procBoundary7to6
    {
        type            processor;
        value           nonuniform List<vector> 
11
(
(0.0522838472456 0.0120269629368 -3.72894909601e-21)
(0.0500248207589 0.0168061087188 -6.52852690561e-21)
(0.0464189284046 0.0213452854292 -3.60905244227e-21)
(0.0417998875549 0.0241010341579 -1.98423457714e-21)
(0.0374171602259 0.0252076029903 -1.43332160719e-21)
(0.0336246123823 0.0254799815562 -1.32662165628e-21)
(0.0320137142786 0.0271984447819 -2.24209445619e-21)
(0.0311192016456 0.0309500326019 -6.6431991433e-21)
(0.0277701430403 0.0310390996952 -1.43074068099e-20)
(0.0256270084774 0.0302981851762 -1.08960105901e-20)
(0.0235961906632 0.0305618311686 -7.7692548808e-21)
)
;
    }
    procBoundary7to8
    {
        type            processor;
        value           nonuniform List<vector> 
17
(
(0.0312427576502 -0.000564663957932 -1.97026351053e-22)
(0.0296757622101 -0.00124170223911 -7.64933161466e-22)
(0.0288549284306 -0.00190402155237 -1.87033069047e-22)
(0.0291854924775 -0.00266485144473 1.03617768072e-22)
(0.030216719113 -0.00329854062196 2.7066606948e-22)
(0.0316926815537 -0.00387031088406 2.01323733181e-22)
(0.033528467914 -0.00435428741094 1.60838645249e-22)
(0.0357069160119 -0.0047188978404 1.25575087122e-22)
(0.0369955728888 -0.00363584731785 1.66388229957e-22)
(0.0381999216786 -0.00236069271408 1.19151509324e-22)
(0.040875483507 -0.00209793716552 1.86315283776e-22)
(0.0438600595774 -0.00165326152215 1.71988240895e-22)
(0.0451800904804 0.000101512085997 -5.0739642521e-23)
(0.0464101413485 0.0022276845737 -1.3192787105e-22)
(0.0500306062507 0.00325160509383 -7.69144664864e-22)
(0.0513599035036 0.00582520863647 -4.15462839129e-22)
(0.0521828541314 0.00899976605249 -9.40863374598e-22)
)
;
    }
    procBoundary7to9
    {
        type            processor;
        value           nonuniform List<vector> 
16
(
(0.0245081436078 0.000712503534002 -5.46031246084e-22)
(0.0230653100114 0.00213834563797 -1.70030107391e-22)
(0.0219043043347 0.00340692243823 -2.1614815133e-22)
(0.0215720622862 0.00481519639701 9.02482420983e-23)
(0.0216427592921 0.00623536888355 8.06786291627e-24)
(0.0218555143054 0.00772919132491 -8.40017817016e-24)
(0.0221194540226 0.0093138372621 -1.57388598654e-23)
(0.0224016773894 0.0110013364574 -9.62477743364e-24)
(0.022695889813 0.012815746759 1.02839455168e-23)
(0.0229582920567 0.0147621333067 -9.9071464971e-24)
(0.0231993895389 0.016848162253 4.68433505538e-24)
(0.0233645887483 0.019083606032 2.247554055e-23)
(0.0234649204425 0.0214694726572 2.93490275853e-22)
(0.0235606642725 0.0240052319656 9.66719387232e-22)
(0.0237581245691 0.0267772444024 4.60792864878e-22)
(0.0236085094839 0.02947631931 -1.49051330548e-21)
)
;
    }
}


// ************************************************************************* //
