/*--------------------------------*- C++ -*----------------------------------*\
| =========                 |                                                 |
| \\      /  F ield         | OpenFOAM: The Open Source CFD Toolbox           |
|  \\    /   O peration     | Version:  v2012                                 |
|   \\  /    A nd           | Website:  www.openfoam.com                      |
|    \\/     M anipulation  |                                                 |
\*---------------------------------------------------------------------------*/
FoamFile
{
    version     2.0;
    format      ascii;
    class       surfaceScalarField;
    location    "3.7";
    object      alphaPhi0.water;
}
// * * * * * * * * * * * * * * * * * * * * * * * * * * * * * * * * * * * * * //

dimensions      [0 3 -1 0 0 0 0];
oriented        oriented;


internalField   nonuniform List<scalar> 
300
(
-7.43288608632e-06
2.24730493387e-05
-1.39803747579e-05
1.87775444234e-05
-1.99590864398e-05
1.59154225546e-05
-2.64197517351e-05
1.40698738701e-05
-3.45290402982e-05
1.20856167987e-05
-4.7650193503e-05
8.72947681762e-06
-7.13665990253e-05
6.43375164422e-06
-0.000111905770066
1.02280837794e-05
-0.000129453410942
1.754840332e-05
-0.000128578020727
-8.7411633841e-07
-0.000132505607329
3.92943443096e-06
-0.000191510770819
5.90073773995e-05
-0.000101237744813
0.000218732427061
0.000142980255607
-7.13514321792e-06
2.96076636287e-05
-1.37516242729e-05
2.53933526371e-05
-2.04045562359e-05
2.256761248e-05
-2.78428549978e-05
2.15074311598e-05
-3.74468155035e-05
2.16889187543e-05
-5.05077758415e-05
2.17899898125e-05
-6.77799075882e-05
2.37058273166e-05
-8.86179143043e-05
3.10665688289e-05
-9.92415310176e-05
2.81730838617e-05
-0.000120493123083
2.03791624965e-05
-0.000143805857928
2.7244469909e-05
-0.000155929803893
7.11341711415e-05
-9.47869222979e-05
0.000157592764304
0.000135246285893
-6.88285313265e-06
3.64897377738e-05
-1.31924739699e-05
3.17020193501e-05
-1.94803988952e-05
2.88545226718e-05
-2.60258822861e-05
2.80519283367e-05
-3.33389615169e-05
2.90011507187e-05
-4.27820138488e-05
3.12324786893e-05
-5.40795817955e-05
3.50033026079e-05
-6.56660424229e-05
4.26535583691e-05
-8.10763135031e-05
4.35845804776e-05
-0.000102194979997
4.14998162257e-05
-0.000124718396094
4.97706361323e-05
-0.00013351747678
7.99369584075e-05
-0.000100327785646
0.000124407750348
0.000120659717669
-6.36717187582e-06
4.28558432128e-05
-1.23679238474e-05
3.77015137306e-05
-1.81821039042e-05
3.46673804443e-05
-2.41308170434e-05
3.39993590552e-05
-3.0716794105e-05
3.55860150998e-05
-3.82368194001e-05
3.87517250291e-05
-4.65280158889e-05
4.32942451837e-05
-5.3547953366e-05
4.96739459616e-05
-6.38157578525e-05
5.38536521595e-05
-7.91412112854e-05
5.6827421209e-05
-9.51746925353e-05
6.58063818173e-05
-0.000100324696854
8.50907506198e-05
-8.48295224421e-05
0.000108916921973
0.000112611924701
-5.89247340653e-06
4.87469407613e-05
-1.12543652805e-05
4.30618309509e-05
-1.64755632346e-05
3.9886945574e-05
-2.19615281131e-05
3.94837515849e-05
-2.75919042226e-05
4.12150063663e-05
-3.37157404756e-05
4.48745520206e-05
-4.02026549386e-05
4.97807390092e-05
-4.6443352155e-05
5.59150327762e-05
-5.41718856756e-05
6.15835207734e-05
-6.4481070109e-05
6.71383322494e-05
-7.4792853613e-05
7.61209827693e-05
-7.93654692781e-05
8.96680255796e-05
-7.44426057685e-05
0.000104001357716
0.00010989574457
-5.3198416131e-06
5.40651610899e-05
-9.97021712234e-06
4.77103918329e-05
-1.45440635689e-05
4.44589154716e-05
-1.91915604124e-05
4.41294392191e-05
-2.4261458226e-05
4.62833312041e-05
-2.92962154222e-05
4.99081705143e-05
-3.47274736578e-05
5.52115203018e-05
-4.02084602107e-05
6.13964177534e-05
-4.65641023092e-05
6.79402938712e-05
-5.44229706846e-05
7.4999489101e-05
-6.16431312903e-05
8.33441795852e-05
-6.62861836301e-05
9.43161109282e-05
-6.69133046391e-05
0.000104636024772
0.000110776986906
-4.52235600329e-06
5.8585706235e-05
-8.48459287808e-06
5.16706515791e-05
-1.23285923162e-05
4.83008901093e-05
-1.62264955676e-05
4.80254088106e-05
-2.02613884393e-05
5.03165628289e-05
-2.4719779109e-05
5.43654044834e-05
-2.91171442374e-05
5.96084839827e-05
-3.39062347233e-05
6.61859401383e-05
-3.92873014064e-05
7.33229886231e-05
-4.53668002739e-05
8.10819275508e-05
-5.18164627328e-05
8.97986234505e-05
-5.69238767978e-05
9.94300000321e-05
-6.0945062976e-05
0.000108666426387
0.000115824443731
-3.49222464238e-06
6.20760595545e-05
-6.72106049679e-06
5.48975136979e-05
-9.68537839961e-06
5.12632165169e-05
-1.26994101086e-05
5.1037567995e-05
-1.58933832971e-05
5.3508985633e-05
-1.93484196467e-05
5.7819476801e-05
-2.31567972023e-05
6.34167968e-05
-2.70677038862e-05
7.00978224249e-05
-3.15465916369e-05
7.78044782719e-05
-3.67619305315e-05
8.63018272962e-05
-4.26441562162e-05
9.56870657168e-05
-4.86476911812e-05
0.000105442727798
-5.5535846609e-05
0.000115572822723
0.000124881435856
-2.66183762577e-06
6.47362565327e-05
-4.84554284103e-06
5.70795445538e-05
-6.93778733778e-06
5.33537927875e-05
-9.03671788142e-06
5.31349759716e-05
-1.13024309075e-05
5.57735711571e-05
-1.37981673564e-05
6.03148157685e-05
-1.66206545666e-05
6.62399996628e-05
-1.97979204097e-05
7.32772345929e-05
-2.34393894229e-05
8.14495026212e-05
-2.79096213635e-05
9.07776540413e-05
-3.33534907725e-05
0.000101138023645
-4.01867555216e-05
0.000112287050833
-4.85593626785e-05
0.000123960293902
0.000136659833839
-1.52701651702e-06
6.62621168665e-05
-2.86057927238e-06
5.84119745527e-05
-4.01048748085e-06
5.45025962919e-05
-5.16794438474e-06
5.42915279162e-05
-6.44980203851e-06
5.70550534475e-05
-7.9382778869e-06
6.18039097825e-05
-9.69272905536e-06
6.79965887989e-05
-1.19129746618e-05
7.55010572463e-05
-1.45282922875e-05
8.40701431147e-05
-1.79481221107e-05
9.42041293552e-05
-2.25342752835e-05
0.000105732743544
-2.87396329504e-05
0.000118502743812
-3.67573975812e-05
0.000131991470291
0.000147305161893
-5.68877780763e-07
-8.16553493467e-07
-9.8091853188e-07
-1.14143799613e-06
-1.38464303676e-06
-1.75341052498e-06
-2.33751036499e-06
-3.2358593954e-06
-4.83035034534e-06
8.56719060883e-05
-6.64208973601e-06
9.60252667677e-05
-9.87253071768e-06
0.000108971443172
-1.45483526185e-05
0.000123187108472
-2.16172173474e-05
0.000139068205384
0.000156328427324
6.15486065636e-06
5.42300297253e-06
4.17246367191e-06
1.19352616925e-06
0.000126170766944
-4.20703367806e-06
0.000144465843099
0.000164351812031
1.95100952066e-05
1.72263499395e-05
0.000169350611994
)
;

boundaryField
{
    back
    {
        type            calculated;
        value           uniform 0;
    }
    sides
    {
        type            calculated;
        value           nonuniform List<scalar> 0();
    }
    bottom
    {
        type            calculated;
        value           uniform 0;
    }
    front
    {
        type            calculated;
        value           uniform 0;
    }
    atmosphere
    {
        type            calculated;
        value           nonuniform List<scalar> 0();
    }
    floatingObject
    {
        type            calculated;
        value           uniform 0;
    }
    procBoundary8to3
    {
        type            processor;
        value           nonuniform List<scalar> 8(-1.50408932464e-05 -1.22309562101e-05 -9.93766883495e-06 -7.610203219e-06 -3.9771490996e-06 4.39110685453e-06 1.72825671635e-05 3.03114665415e-05);
    }
    procBoundary8to6
    {
        type            processor;
        value           nonuniform List<scalar> 
16
(
-0.000309001051803
-0.00014522331577
-9.89877279816e-05
-8.70487500926e-05
-8.5737368173e-05
-7.67760326413e-05
-7.17208641148e-05
-6.77843392923e-05
-6.59713777449e-05
-6.45785032442e-05
-6.03171693938e-05
-4.73867693634e-05
-3.06318932644e-05
-1.22391007164e-05
1.22053779639e-05
4.46621150878e-05
)
;
    }
    procBoundary8to7
    {
        type            processor;
        value           nonuniform List<scalar> 
17
(
6.68304455173e-05
5.8659250135e-05
5.46666379565e-05
5.44519631934e-05
5.72987798355e-05
6.21742777702e-05
6.858459298e-05
7.64047168524e-05
-5.94191480778e-06
8.5469578781e-05
9.6764767889e-05
0.000110230403791
-1.97787351306e-05
0.000126436084454
0.000146734175695
-4.32917787078e-05
0.000167926850499
)
;
    }
}


// ************************************************************************* //
