/*--------------------------------*- C++ -*----------------------------------*\
| =========                 |                                                 |
| \\      /  F ield         | OpenFOAM: The Open Source CFD Toolbox           |
|  \\    /   O peration     | Version:  v2012                                 |
|   \\  /    A nd           | Website:  www.openfoam.com                      |
|    \\/     M anipulation  |                                                 |
\*---------------------------------------------------------------------------*/
FoamFile
{
    version     2.0;
    format      ascii;
    class       volScalarField;
    location    "3.7";
    object      nut;
}
// * * * * * * * * * * * * * * * * * * * * * * * * * * * * * * * * * * * * * //

dimensions      [0 2 -1 0 0 0 0];


internalField   nonuniform List<scalar> 
164
(
0.000390836650331
0.000583249180543
0.000602598355854
0.000610164237514
0.000612883237522
0.000612160761279
0.000605960517612
0.000589575340517
0.000424694825963
0.000423557976657
0.000426372822439
0.000434340365367
0.000614366739844
0.000659228217575
0.00039189246649
0.000584431842984
0.000603849584
0.000611671179577
0.000615106037468
0.000616367961356
0.000615653605354
0.000612604672237
0.000611629040998
0.000614189371902
0.000617604811397
0.000620785996103
0.000629934020264
0.000656169788686
0.000393058417138
0.000585829682939
0.000605278970437
0.000613222738814
0.000617000748933
0.000619183517355
0.000620635537817
0.000621690020954
0.000623435400626
0.000626074104288
0.000629161651793
0.000632684253429
0.000639267172777
0.000656554484617
0.000394267804176
0.000587369234253
0.000606820089303
0.000614785815519
0.000618649332932
0.000621082622149
0.000623089248145
0.000625069976273
0.000627314709481
0.000629924388229
0.000632808315516
0.000636207544623
0.000641859004191
0.000655122917373
0.000395482550358
0.000588971044892
0.000608407336684
0.000616338169193
0.000620163610056
0.000622584577354
0.000624631608035
0.000626700353624
0.000628946104169
0.000631410972246
0.000634107220812
0.000637320599259
0.000642406199397
0.000653969969214
0.000396656304257
0.000590571455095
0.000609984885875
0.000617845927374
0.000621581699515
0.000623902057913
0.000625839886722
0.000627788204196
0.000629886015887
0.000632173489003
0.000634700062561
0.000637780604684
0.000642747406777
0.000654111724405
0.000397753880451
0.000592118183992
0.000611503549211
0.000619278277168
0.000622900969514
0.00062509774233
0.000626898038758
0.000628692941072
0.000630622488413
0.000632738959618
0.000635131922546
0.000638195845173
0.00064349240952
0.000655936262874
0.000398756716202
0.000593575451393
0.000612927936273
0.000620607693624
0.000624112345432
0.000626181121657
0.000627848138477
0.00062949913411
0.00063127709506
0.000633247360172
0.000635538295694
0.000638670825907
0.000644557023867
0.000658741698726
0.000399669511116
0.000594918708972
0.000614238109825
0.000621820523479
0.000625206628438
0.000627153488237
0.000628695951324
0.000630219199242
0.00063186486948
0.000633707322577
0.000635901544218
0.000639059160257
0.000645354482803
0.00066080067279
0.000400471425684
0.000596135140169
0.000615421600296
0.000622906071202
0.000626177650005
0.000628010760808
0.000629441071439
0.000630850637414
0.000632380031951
0.000634102481867
0.000636177582326
0.000639215326306
0.000645408111753
0.000660874624447
0.00040118362176
0.000597211253767
0.000616467565815
0.000623859069179
0.000627022977567
0.000628751929537
0.000630082174857
0.000631392072143
0.000632818874892
0.000634434639861
0.0006363925041
0.00063927207001
0.000645179302069
0.000660172858654
0.000633178192806
0.000634701405355
0.000636560945028
0.000639329124435
0.000645077553438
0.0006597904678
0.000639332283868
0.000644903769687
0.000659132166415
0.000657487191425
)
;

boundaryField
{
    back
    {
        type            nutkWallFunction;
        blending        stepwise;
        Cmu             0.09;
        kappa           0.41;
        E               9.8;
        value           nonuniform List<scalar> 
164
(
5.53889380709e-05
6.13549097475e-05
6.32077146328e-05
6.39323732152e-05
6.41959024662e-05
6.41360429828e-05
6.35680999178e-05
6.20104694171e-05
5.98416880618e-05
5.96823119516e-05
6.00546612751e-05
6.08263469242e-05
6.40410930856e-05
6.8048113011e-05
5.55279666424e-05
6.14688375356e-05
6.33281390718e-05
6.40767207481e-05
6.44070178853e-05
6.45319281515e-05
6.44724006518e-05
6.41781937269e-05
6.4116163693e-05
6.43355960074e-05
6.46656313854e-05
6.49949175952e-05
6.58371010394e-05
6.81398545908e-05
5.56813845566e-05
6.16045226367e-05
6.3466784127e-05
6.42267910372e-05
6.45890218542e-05
6.47996329419e-05
6.49422263479e-05
6.50502899449e-05
6.52185002651e-05
6.54653199873e-05
6.57549374595e-05
6.60809217403e-05
6.66868726102e-05
6.82285436637e-05
5.58410168366e-05
6.17545286778e-05
6.36166189285e-05
6.4378438622e-05
6.47482601052e-05
6.4981603658e-05
6.51748022665e-05
6.5366935742e-05
6.55834509946e-05
6.58319555071e-05
6.61029689202e-05
6.64160864844e-05
6.69285925303e-05
6.81153431001e-05
5.60011620806e-05
6.1910990854e-05
6.377119126e-05
6.45293340968e-05
6.48951656883e-05
6.5126795078e-05
6.53227542033e-05
6.55210616071e-05
6.57364622778e-05
6.59717483521e-05
6.622654249e-05
6.65248854309e-05
6.69866792091e-05
6.80223649609e-05
5.61560274109e-05
6.2067591292e-05
6.39249740508e-05
6.4676083823e-05
6.50329873597e-05
6.52546878437e-05
6.54398643375e-05
6.56260144031e-05
6.58264421884e-05
6.60443962784e-05
6.62835052647e-05
6.65706864354e-05
6.70237131292e-05
6.80483882622e-05
5.63013327219e-05
6.22192011702e-05
6.40731463355e-05
6.48155046312e-05
6.51613454726e-05
6.5370948081e-05
6.5542747925e-05
6.57140039006e-05
6.58979991118e-05
6.60993828996e-05
6.63255573447e-05
6.66112343175e-05
6.70963368863e-05
6.8229399988e-05
5.64347982847e-05
6.236243082e-05
6.42123031689e-05
6.49449717943e-05
6.52791833135e-05
6.54763957587e-05
6.5635239343e-05
6.57925766228e-05
6.59618987472e-05
6.61490929308e-05
6.63653285687e-05
6.66570845823e-05
6.71980230274e-05
6.8500610989e-05
5.65561760391e-05
6.24947681268e-05
6.43404607978e-05
6.50631867613e-05
6.53856466998e-05
6.55709753811e-05
6.57177998945e-05
6.58627543395e-05
6.60192473661e-05
6.61939944039e-05
6.64006945235e-05
6.66942249009e-05
6.7273295311e-05
6.86963385517e-05
5.6663785299e-05
6.26148963746e-05
6.44564847426e-05
6.51691375897e-05
6.54801993766e-05
6.56543859466e-05
6.57903317202e-05
6.59242806248e-05
6.60694705396e-05
6.62326155249e-05
6.64277657939e-05
6.67097186554e-05
6.7278682623e-05
6.87045281622e-05
5.67589079094e-05
6.2721890035e-05
6.4559470522e-05
6.52624168694e-05
6.55626599805e-05
6.57265834336e-05
6.58527860436e-05
6.59770480982e-05
6.61122686264e-05
6.62650441334e-05
6.64490041172e-05
6.67168542598e-05
6.72620559134e-05
6.86518159186e-05
6.61473770409e-05
6.62909793066e-05
6.64657206365e-05
6.67242105596e-05
6.72594216327e-05
6.86375247821e-05
6.67242772577e-05
6.72457322998e-05
6.85930638857e-05
6.84373248709e-05
)
;
    }
    sides
    {
        type            nutkWallFunction;
        blending        stepwise;
        Cmu             0.09;
        kappa           0.41;
        E               9.8;
        value           nonuniform List<scalar> 0();
    }
    bottom
    {
        type            nutkWallFunction;
        blending        stepwise;
        Cmu             0.09;
        kappa           0.41;
        E               9.8;
        value           nonuniform List<scalar> 
11
(
2.94255510908e-05
2.9499863266e-05
2.95818652174e-05
2.96671871253e-05
2.97527815476e-05
2.98355523862e-05
2.99132122791e-05
2.99845431046e-05
3.00494125968e-05
3.01069228266e-05
3.0157759131e-05
)
;
    }
    front
    {
        type            nutkWallFunction;
        blending        stepwise;
        Cmu             0.09;
        kappa           0.41;
        E               9.8;
        value           nonuniform List<scalar> 
164
(
5.53889380709e-05
6.13549097475e-05
6.32077146328e-05
6.39323732152e-05
6.41959024662e-05
6.41360429828e-05
6.35680999178e-05
6.20104694171e-05
5.98416880618e-05
5.96823119516e-05
6.00546612751e-05
6.08263469242e-05
6.40410930856e-05
6.8048113011e-05
5.55279666424e-05
6.14688375356e-05
6.33281390718e-05
6.40767207481e-05
6.44070178853e-05
6.45319281515e-05
6.44724006518e-05
6.41781937269e-05
6.4116163693e-05
6.43355960074e-05
6.46656313854e-05
6.49949175952e-05
6.58371010394e-05
6.81398545908e-05
5.56813845566e-05
6.16045226367e-05
6.3466784127e-05
6.42267910372e-05
6.45890218542e-05
6.47996329419e-05
6.49422263479e-05
6.50502899449e-05
6.52185002651e-05
6.54653199873e-05
6.57549374595e-05
6.60809217403e-05
6.66868726102e-05
6.82285436637e-05
5.58410168366e-05
6.17545286778e-05
6.36166189285e-05
6.4378438622e-05
6.47482601052e-05
6.4981603658e-05
6.51748022665e-05
6.5366935742e-05
6.55834509946e-05
6.58319555071e-05
6.61029689202e-05
6.64160864844e-05
6.69285925303e-05
6.81153431001e-05
5.60011620806e-05
6.1910990854e-05
6.377119126e-05
6.45293340968e-05
6.48951656883e-05
6.5126795078e-05
6.53227542033e-05
6.55210616071e-05
6.57364622778e-05
6.59717483521e-05
6.622654249e-05
6.65248854309e-05
6.69866792091e-05
6.80223649609e-05
5.61560274109e-05
6.2067591292e-05
6.39249740508e-05
6.4676083823e-05
6.50329873597e-05
6.52546878437e-05
6.54398643375e-05
6.56260144031e-05
6.58264421884e-05
6.60443962784e-05
6.62835052647e-05
6.65706864354e-05
6.70237131292e-05
6.80483882622e-05
5.63013327219e-05
6.22192011702e-05
6.40731463355e-05
6.48155046312e-05
6.51613454726e-05
6.5370948081e-05
6.5542747925e-05
6.57140039006e-05
6.58979991118e-05
6.60993828996e-05
6.63255573447e-05
6.66112343175e-05
6.70963368863e-05
6.8229399988e-05
5.64347982847e-05
6.236243082e-05
6.42123031689e-05
6.49449717943e-05
6.52791833135e-05
6.54763957587e-05
6.5635239343e-05
6.57925766228e-05
6.59618987472e-05
6.61490929308e-05
6.63653285687e-05
6.66570845823e-05
6.71980230274e-05
6.8500610989e-05
5.65561760391e-05
6.24947681268e-05
6.43404607978e-05
6.50631867613e-05
6.53856466998e-05
6.55709753811e-05
6.57177998945e-05
6.58627543395e-05
6.60192473661e-05
6.61939944039e-05
6.64006945235e-05
6.66942249009e-05
6.7273295311e-05
6.86963385517e-05
5.6663785299e-05
6.26148963746e-05
6.44564847426e-05
6.51691375897e-05
6.54801993766e-05
6.56543859466e-05
6.57903317202e-05
6.59242806248e-05
6.60694705396e-05
6.62326155249e-05
6.64277657939e-05
6.67097186554e-05
6.7278682623e-05
6.87045281622e-05
5.67589079094e-05
6.2721890035e-05
6.4559470522e-05
6.52624168694e-05
6.55626599805e-05
6.57265834336e-05
6.58527860436e-05
6.59770480982e-05
6.61122686264e-05
6.62650441334e-05
6.64490041172e-05
6.67168542598e-05
6.72620559134e-05
6.86518159186e-05
6.61473770409e-05
6.62909793066e-05
6.64657206365e-05
6.67242105596e-05
6.72594216327e-05
6.86375247821e-05
6.67242772577e-05
6.72457322998e-05
6.85930638857e-05
6.84373248709e-05
)
;
    }
    atmosphere
    {
        type            calculated;
        value           nonuniform List<scalar> 0();
    }
    floatingObject
    {
        type            nutkWallFunction;
        blending        stepwise;
        Cmu             0.09;
        kappa           0.41;
        E               9.8;
        value           nonuniform List<scalar> 4(3.18049819119e-05 3.17198366429e-05 3.19187585907e-05 3.23309937149e-05);
    }
    procBoundary8to3
    {
        type            processor;
        value           nonuniform List<scalar> 8(0.000389933237587 0.00058229553398 0.000601589162754 0.000608866252207 0.000610784787662 0.000608006479965 0.000596148234245 0.000411650569713);
    }
    procBoundary8to6
    {
        type            processor;
        value           nonuniform List<scalar> 
16
(
0.000459883715119
0.000695760443757
0.00072361133208
0.000706361499782
0.000696287955222
0.000688851295864
0.000684596544187
0.000683916525768
0.000687187050045
0.000692622158993
0.000696530958947
0.000696925789636
0.000695851474997
0.000695005406502
0.000693138671977
0.000689126689701
)
;
    }
    procBoundary8to7
    {
        type            processor;
        value           nonuniform List<scalar> 
17
(
0.000401801063213
0.000598152045405
0.000617377331161
0.000624679967629
0.000627744049469
0.000629378824358
0.000630620855996
0.000631842215412
0.000631842215412
0.000633457891904
0.000634894076114
0.000636665117381
0.000636665117381
0.000639191185084
0.000644354067837
0.000644354067837
0.000655006667829
)
;
    }
}


// ************************************************************************* //
