/*--------------------------------*- C++ -*----------------------------------*\
| =========                 |                                                 |
| \\      /  F ield         | OpenFOAM: The Open Source CFD Toolbox           |
|  \\    /   O peration     | Version:  v2012                                 |
|   \\  /    A nd           | Website:  www.openfoam.com                      |
|    \\/     M anipulation  |                                                 |
\*---------------------------------------------------------------------------*/
FoamFile
{
    version     2.0;
    format      ascii;
    class       volScalarField;
    location    "1.4";
    object      epsilon;
}
// * * * * * * * * * * * * * * * * * * * * * * * * * * * * * * * * * * * * * //

dimensions      [0 2 -3 0 0 0 0];


internalField   nonuniform List<scalar> 
164
(
0.0117596485663
0.0119498973184
0.0128406225607
0.0130891083436
0.0131589019992
0.0131900595978
0.0132169075342
0.0132464368838
0.011764731284
0.0119607913612
0.0128584726673
0.0131106140031
0.0131819873106
0.0132140137635
0.0132416137651
0.0132719414504
0.0117692003435
0.0119664862803
0.0128715550942
0.0131283073554
0.0132019318872
0.0132352107315
0.0132638562521
0.0132952871888
0.0133307945588
0.013370450443
0.0117719515416
0.0119669558754
0.0128795720799
0.0131418774934
0.0132184339838
0.0132533889675
0.0132833993723
0.0133162497022
0.0133532994582
0.013394675892
0.0117712525389
0.0119622209259
0.0128824297253
0.0131510626409
0.0132311794125
0.0132682384565
0.0132999658616
0.013334585991
0.0133735774853
0.0134171270235
0.011766163257
0.0119518983797
0.0128798233384
0.013155512441
0.0132397964216
0.0132793998839
0.013313226447
0.0133500087877
0.0133913727654
0.0134375463244
0.0117559991958
0.011935581768
0.0128712927893
0.0131547584864
0.0132438462639
0.0132864668404
0.0133227987044
0.013362157685
0.0134063538069
0.0134556576475
0.0117401005208
0.0119128093786
0.0128563293991
0.0131482794696
0.0132428412015
0.0132889944328
0.0133282721174
0.0133706454189
0.0134181417457
0.0134710746274
0.0117178121316
0.0118830792025
0.0128343633331
0.0131354976015
0.0132362422783
0.0132864922554
0.0133291989928
0.0133750603438
0.0134263512931
0.0134834265012
0.0116884795979
0.0118458835431
0.012804800027
0.0131157906224
0.0132234618282
0.0132784259878
0.0133250967186
0.0133749677218
0.0134305905881
0.0134923578478
0.0116514428633
0.0118007270805
0.0127670307399
0.0130885021619
0.0132038682225
0.0132642205886
0.0133154524578
0.013369916658
0.0134304719922
0.0134975502484
0.0116060392984
0.0117471369307
0.0127204619287
0.0130529588851
0.0131767957428
0.0132432639236
0.0132997231121
0.013359439683
0.0134256157021
0.0134987290784
0.0115516292288
0.0116847284683
0.0126645683734
0.0130085121974
0.0131415662563
0.0132149152835
0.0132773374799
0.0133430561679
0.0134156533195
0.0134956594586
0.011487653447
0.0116132960044
0.0125989709088
0.0129545913086
0.0130975242631
0.0131785260142
0.0132477087748
0.0133202788918
0.0134002269721
0.0134881362963
0.0114137110606
0.0115328864347
0.0125235250314
0.0128907840047
0.0130440940657
0.013133477911
0.0132102617219
0.0132906306368
0.0133790050515
0.0134760161798
0.0113296360911
0.0114438728457
0.0124384254989
0.0128169421287
0.0129808752402
0.0130792521507
0.013164468958
0.0132536766112
0.0133517429835
0.0134592731706
0.0112356333019
0.011347110116
0.0123443783946
0.012733349192
0.0129077747917
0.0130155184136
0.0131099199841
0.0128251761529
)
;

boundaryField
{
    back
    {
        lowReCorrection 0;
        blending        stepwise;
        n               2;
        type            epsilonWallFunction;
        value           nonuniform List<scalar> 
164
(
0.0117596485663
0.0119498973184
0.0128406225607
0.0130891083436
0.0131589019992
0.0131900595978
0.0132169075342
0.0132464368838
0.011764731284
0.0119607913612
0.0128584726673
0.0131106140031
0.0131819873106
0.0132140137635
0.0132416137651
0.0132719414504
0.0117692003435
0.0119664862803
0.0128715550942
0.0131283073554
0.0132019318872
0.0132352107315
0.0132638562521
0.0132952871888
0.0133307945588
0.013370450443
0.0117719515416
0.0119669558754
0.0128795720799
0.0131418774934
0.0132184339838
0.0132533889675
0.0132833993723
0.0133162497022
0.0133532994582
0.013394675892
0.0117712525389
0.0119622209259
0.0128824297253
0.0131510626409
0.0132311794125
0.0132682384565
0.0132999658616
0.013334585991
0.0133735774853
0.0134171270235
0.011766163257
0.0119518983797
0.0128798233384
0.013155512441
0.0132397964216
0.0132793998839
0.013313226447
0.0133500087877
0.0133913727654
0.0134375463244
0.0117559991958
0.011935581768
0.0128712927893
0.0131547584864
0.0132438462639
0.0132864668404
0.0133227987044
0.013362157685
0.0134063538069
0.0134556576475
0.0117401005208
0.0119128093786
0.0128563293991
0.0131482794696
0.0132428412015
0.0132889944328
0.0133282721174
0.0133706454189
0.0134181417457
0.0134710746274
0.0117178121316
0.0118830792025
0.0128343633331
0.0131354976015
0.0132362422783
0.0132864922554
0.0133291989928
0.0133750603438
0.0134263512931
0.0134834265012
0.0116884795979
0.0118458835431
0.012804800027
0.0131157906224
0.0132234618282
0.0132784259878
0.0133250967186
0.0133749677218
0.0134305905881
0.0134923578478
0.0116514428633
0.0118007270805
0.0127670307399
0.0130885021619
0.0132038682225
0.0132642205886
0.0133154524578
0.013369916658
0.0134304719922
0.0134975502484
0.0116060392984
0.0117471369307
0.0127204619287
0.0130529588851
0.0131767957428
0.0132432639236
0.0132997231121
0.013359439683
0.0134256157021
0.0134987290784
0.0115516292288
0.0116847284683
0.0126645683734
0.0130085121974
0.0131415662563
0.0132149152835
0.0132773374799
0.0133430561679
0.0134156533195
0.0134956594586
0.011487653447
0.0116132960044
0.0125989709088
0.0129545913086
0.0130975242631
0.0131785260142
0.0132477087748
0.0133202788918
0.0134002269721
0.0134881362963
0.0114137110606
0.0115328864347
0.0125235250314
0.0128907840047
0.0130440940657
0.013133477911
0.0132102617219
0.0132906306368
0.0133790050515
0.0134760161798
0.0113296360911
0.0114438728457
0.0124384254989
0.0128169421287
0.0129808752402
0.0130792521507
0.013164468958
0.0132536766112
0.0133517429835
0.0134592731706
0.0112356333019
0.011347110116
0.0123443783946
0.012733349192
0.0129077747917
0.0130155184136
0.0131099199841
0.0128251761529
)
;
    }
    sides
    {
        lowReCorrection 0;
        blending        stepwise;
        n               2;
        type            epsilonWallFunction;
        value           nonuniform List<scalar> 0();
    }
    bottom
    {
        lowReCorrection 0;
        blending        stepwise;
        n               2;
        type            epsilonWallFunction;
        value           nonuniform List<scalar> 
17
(
0.0117596485663
0.011764731284
0.0117692003435
0.0117719515416
0.0117712525389
0.011766163257
0.0117559991958
0.0117401005208
0.0117178121316
0.0116884795979
0.0116514428633
0.0116060392984
0.0115516292288
0.011487653447
0.0114137110606
0.0113296360911
0.0112356333019
)
;
    }
    front
    {
        lowReCorrection 0;
        blending        stepwise;
        n               2;
        type            epsilonWallFunction;
        value           nonuniform List<scalar> 
164
(
0.0117596485663
0.0119498973184
0.0128406225607
0.0130891083436
0.0131589019992
0.0131900595978
0.0132169075342
0.0132464368838
0.011764731284
0.0119607913612
0.0128584726673
0.0131106140031
0.0131819873106
0.0132140137635
0.0132416137651
0.0132719414504
0.0117692003435
0.0119664862803
0.0128715550942
0.0131283073554
0.0132019318872
0.0132352107315
0.0132638562521
0.0132952871888
0.0133307945588
0.013370450443
0.0117719515416
0.0119669558754
0.0128795720799
0.0131418774934
0.0132184339838
0.0132533889675
0.0132833993723
0.0133162497022
0.0133532994582
0.013394675892
0.0117712525389
0.0119622209259
0.0128824297253
0.0131510626409
0.0132311794125
0.0132682384565
0.0132999658616
0.013334585991
0.0133735774853
0.0134171270235
0.011766163257
0.0119518983797
0.0128798233384
0.013155512441
0.0132397964216
0.0132793998839
0.013313226447
0.0133500087877
0.0133913727654
0.0134375463244
0.0117559991958
0.011935581768
0.0128712927893
0.0131547584864
0.0132438462639
0.0132864668404
0.0133227987044
0.013362157685
0.0134063538069
0.0134556576475
0.0117401005208
0.0119128093786
0.0128563293991
0.0131482794696
0.0132428412015
0.0132889944328
0.0133282721174
0.0133706454189
0.0134181417457
0.0134710746274
0.0117178121316
0.0118830792025
0.0128343633331
0.0131354976015
0.0132362422783
0.0132864922554
0.0133291989928
0.0133750603438
0.0134263512931
0.0134834265012
0.0116884795979
0.0118458835431
0.012804800027
0.0131157906224
0.0132234618282
0.0132784259878
0.0133250967186
0.0133749677218
0.0134305905881
0.0134923578478
0.0116514428633
0.0118007270805
0.0127670307399
0.0130885021619
0.0132038682225
0.0132642205886
0.0133154524578
0.013369916658
0.0134304719922
0.0134975502484
0.0116060392984
0.0117471369307
0.0127204619287
0.0130529588851
0.0131767957428
0.0132432639236
0.0132997231121
0.013359439683
0.0134256157021
0.0134987290784
0.0115516292288
0.0116847284683
0.0126645683734
0.0130085121974
0.0131415662563
0.0132149152835
0.0132773374799
0.0133430561679
0.0134156533195
0.0134956594586
0.011487653447
0.0116132960044
0.0125989709088
0.0129545913086
0.0130975242631
0.0131785260142
0.0132477087748
0.0133202788918
0.0134002269721
0.0134881362963
0.0114137110606
0.0115328864347
0.0125235250314
0.0128907840047
0.0130440940657
0.013133477911
0.0132102617219
0.0132906306368
0.0133790050515
0.0134760161798
0.0113296360911
0.0114438728457
0.0124384254989
0.0128169421287
0.0129808752402
0.0130792521507
0.013164468958
0.0132536766112
0.0133517429835
0.0134592731706
0.0112356333019
0.011347110116
0.0123443783946
0.012733349192
0.0129077747917
0.0130155184136
0.0131099199841
0.0128251761529
)
;
    }
    atmosphere
    {
        type            inletOutlet;
        inletValue      nonuniform List<scalar> 0();
        value           nonuniform List<scalar> 0();
    }
    floatingObject
    {
        lowReCorrection 0;
        blending        stepwise;
        n               2;
        type            epsilonWallFunction;
        value           nonuniform List<scalar> 0();
    }
    procBoundary4to0
    {
        type            processor;
        value           nonuniform List<scalar> 8(0.0117509027246 0.0119346298409 0.0128190731452 0.0130644394269 0.0131329876864 0.0131635176729 0.0131898508289 0.0132188347854);
    }
    procBoundary4to3
    {
        type            processor;
        value           nonuniform List<scalar> 
13
(
0.0132091075369
0.0133183078109
0.0134381063958
0.0111325097683
0.0112442129567
0.0122428600902
0.0126409474659
0.0129422949746
0.0132091075369
0.0130464241659
0.0126409474659
0.0129422949746
0.0127340910685
)
;
    }
    procBoundary4to5
    {
        type            processor;
        value           nonuniform List<scalar> 
18
(
0.0132798351253
0.0133062214035
0.0133062214035
0.0133446071733
0.0134149093249
0.0134408289092
0.0134655300096
0.0134887623342
0.0135102458278
0.0135295935544
0.0135463982093
0.0135603214827
0.0135711172267
0.013578642118
0.0135828222538
0.0135836107789
0.0135810370185
0.013575378397
)
;
    }
}


// ************************************************************************* //
