/*--------------------------------*- C++ -*----------------------------------*\
| =========                 |                                                 |
| \\      /  F ield         | OpenFOAM: The Open Source CFD Toolbox           |
|  \\    /   O peration     | Version:  v2012                                 |
|   \\  /    A nd           | Website:  www.openfoam.com                      |
|    \\/     M anipulation  |                                                 |
\*---------------------------------------------------------------------------*/
FoamFile
{
    version     2.0;
    format      ascii;
    class       volVectorField;
    location    "1.4";
    object      U;
}
// * * * * * * * * * * * * * * * * * * * * * * * * * * * * * * * * * * * * * //

dimensions      [0 1 -1 0 0 0 0];


internalField   nonuniform List<vector> 
164
(
(0.0671342082781 -0.000485474524282 -5.29088904132e-22)
(0.0719025251369 -0.000767423448226 9.0525316085e-23)
(0.0733120698485 -0.00173455524567 -4.92743396548e-23)
(0.0740832886783 -0.00246853622171 5.87452040067e-23)
(0.0748186557485 -0.00333557785165 -1.29455642494e-23)
(0.0756732617389 -0.0042668009118 -3.12014395683e-23)
(0.0766466326433 -0.0052788655998 -1.21377658249e-23)
(0.0777086356752 -0.00638788028524 -1.82190186352e-23)
(0.0676002889838 -0.000298955428509 -3.80515423188e-22)
(0.072506360046 -0.000495398259697 1.44827806706e-22)
(0.0740099747102 -0.00124215457398 -3.03267287204e-22)
(0.074837757355 -0.00179548154376 -6.41550553549e-23)
(0.0756414777099 -0.00251109045548 -2.75647523119e-23)
(0.0765832005638 -0.00330022891478 9.20767039659e-24)
(0.077662027774 -0.00420058674562 2.15695332743e-23)
(0.0788476403234 -0.00523789346486 -3.21323964247e-25)
(0.0678835984127 -0.000165925864793 -2.90023068082e-22)
(0.0728971564431 -0.000215878342761 3.85076224785e-22)
(0.0745169194605 -0.000708321735369 -4.05876272084e-23)
(0.0754040788896 -0.00106629752737 -9.37702872768e-23)
(0.0762996025235 -0.00160031201854 -3.9867938543e-23)
(0.0773543399666 -0.00222344057617 7.59302597874e-24)
(0.0785717730556 -0.00298791490216 6.35402641412e-24)
(0.0799255172488 -0.00392620845459 -3.64048522179e-24)
(0.0813816158273 -0.00508089273115 6.06606031905e-24)
(0.0828779480325 -0.00649324723006 1.19752045739e-23)
(0.0679712867515 -2.20477896457e-05 -4.73880401756e-22)
(0.073082540907 9.08625066836e-05 9.64548644384e-23)
(0.0747966042663 -0.000131763878802 -2.57742010363e-23)
(0.075764882205 -0.000273848591894 2.43808684583e-23)
(0.076770832235 -0.000582970246282 -1.83688139543e-23)
(0.0779585823163 -0.00100980782634 -1.45175692615e-23)
(0.0793458424309 -0.00160546298506 -1.223155966e-23)
(0.0809122345249 -0.00240360434396 -3.37331647358e-24)
(0.0826277504915 -0.00346135160438 -9.69985920374e-24)
(0.0844459407949 -0.00483672463307 4.9178058935e-24)
(0.0678277253586 0.000159342630783 -3.31660525622e-22)
(0.0730364478294 0.000437897416091 3.40434381057e-22)
(0.0748234270009 0.000499285408105 9.88770112949e-23)
(0.0758929780624 0.000607420813429 6.64704471515e-23)
(0.0770197651607 0.000555187512453 1.68545544387e-23)
(0.0783599778683 0.00036203307423 1.2538940982e-23)
(0.0799427847939 -1.59136289571e-05 -1.56851703627e-23)
(0.0817558354196 -0.000622635039193 -2.67844868786e-23)
(0.0837766053165 -0.00152282145716 -1.21225128443e-23)
(0.0859763311058 -0.00278342048839 7.73593496592e-24)
(0.067426269549 0.000363272167774 -3.74242618831e-23)
(0.0727168272546 0.000822396010351 5.52987677866e-22)
(0.0745782900917 0.00120158387582 2.02557836864e-22)
(0.0757539492822 0.00159542927404 2.35040841355e-22)
(0.0770081987344 0.00183158213879 4.51941521092e-23)
(0.0785157689638 0.00191493264721 5.67640648218e-24)
(0.0803111034657 0.00180408853363 -1.6597169674e-23)
(0.0823931029747 0.00144871132965 -4.53310440842e-23)
(0.0847514126059 0.000779945852935 -1.96470959263e-23)
(0.0873778210497 -0.000263709779342 -4.62669635915e-24)
(0.0667392194529 0.000582981473172 1.00473450097e-22)
(0.072093696045 0.00124509834579 2.65257586677e-22)
(0.0740318585578 0.00197856769383 2.1744945629e-22)
(0.0753114705017 0.00269597557912 1.7146085489e-22)
(0.0766976213526 0.00325711156412 2.1852318146e-23)
(0.0783772378983 0.00366173245406 2.83012503139e-23)
(0.0803932089265 0.00387089556357 1.24959724423e-23)
(0.0827542871679 0.00383250672453 1.38769234119e-23)
(0.0854624217725 0.00348122241898 -1.9520798828e-23)
(0.0885277046512 0.00274403727463 -3.01521108877e-23)
(0.065738478909 0.000819346472981 3.33653256593e-22)
(0.0711374036766 0.00170610581017 2.3863746177e-22)
(0.0731477721538 0.00282932614643 2.30204281122e-22)
(0.0745287422823 0.0039091954475 1.98087721313e-22)
(0.0760457702247 0.00483473918757 6.49530616222e-23)
(0.0778961280855 0.00560639856591 6.08457548385e-23)
(0.0801313306631 0.00618899263033 6.38976119696e-23)
(0.0827683680828 0.00653073463669 2.85632928192e-23)
(0.0858190755377 0.00657121902424 9.10948074259e-24)
(0.0893035292489 0.00624265364 -1.35767438109e-23)
(0.0643974903686 0.00107210937256 2.3122841754e-22)
(0.0698174314736 0.00220483405155 -6.56365132383e-22)
(0.0718906627753 0.00375062461529 1.52326891788e-22)
(0.0733676793684 0.00523105464582 3.07192563833e-22)
(0.0750097643332 0.00656085232228 1.11895399399e-22)
(0.0770234286188 0.00774462390705 8.55464473249e-23)
(0.0794685847184 0.00875208209805 3.83419836659e-23)
(0.0823691256682 0.00953344215514 5.75011342171e-23)
(0.0857438815656 0.010033590822 5.92384445039e-23)
(0.0896183064036 0.0101942379713 3.3855325191e-23)
(0.0626920380012 0.00133924318139 5.903429267e-22)
(0.068104652079 0.00273809728474 -4.78075765267e-22)
(0.0702271339877 0.00473623599299 2.78535878625e-22)
(0.0717911401367 0.00665346817865 2.55255561215e-22)
(0.0735478107864 0.00842574261201 1.32312457837e-22)
(0.0757117300421 0.0100646959665 1.27129341003e-22)
(0.0783511663273 0.0115456694896 1.10250475293e-22)
(0.0814960709667 0.0128209826071 4.21040051274e-23)
(0.0851692251613 0.0138390357503 1.28889449991e-22)
(0.0893958183554 0.0145486550066 8.8288625185e-23)
(0.0606010432205 0.00161732621489 1.04459040766e-21)
(0.0659726000033 0.00330045907619 3.92011200879e-22)
(0.0681265524094 0.00577688973534 4.35611344054e-22)
(0.0697642442868 0.00816403754019 3.7585561713e-22)
(0.0716202590153 0.0104144856106 1.18898015762e-22)
(0.0739162522549 0.0125494663497 4.29582772274e-23)
(0.0767294287312 0.0145502014726 4.88295276848e-23)
(0.0800958644256 0.0163695081311 -2.82260946716e-23)
(0.0840406557444 0.0179556446859 5.12779569612e-23)
(0.088585876656 0.019258700233 1.04047134714e-22)
(0.0581075074061 0.00190340561993 6.31442432825e-22)
(0.063398652661 0.0038853812664 -1.57636328382e-21)
(0.0655620448059 0.00686049471862 -6.81641098451e-23)
(0.0672550327022 0.00974640844854 2.01642134087e-22)
(0.0691897433201 0.0125078523124 8.21622449508e-23)
(0.0715942446616 0.0151777185388 7.69034693173e-23)
(0.0745562547286 0.0177430332544 7.9966739341e-23)
(0.0781194974039 0.0201548767393 9.53709553583e-23)
(0.0823122269714 0.0223571832675 6.81014785831e-23)
(0.0871543679258 0.0242944498095 -8.48604696129e-24)
(0.0551995062465 0.00219330034552 7.74779381173e-22)
(0.0603651439917 0.0044838197432 -1.79273472741e-21)
(0.0625116839258 0.00797156513475 -2.5336289108e-22)
(0.0642354586782 0.0113797392424 5.33707708919e-22)
(0.066221333195 0.0146813722731 2.38044451418e-22)
(0.0687038426618 0.0179232954384 1.05570670362e-22)
(0.0717842472561 0.0210985894322 6.98577635314e-23)
(0.0755175530362 0.0241545243676 -3.21936319196e-23)
(0.0799384078804 0.0270265437569 4.62248159523e-23)
(0.0850670362423 0.0296476315106 7.42208554193e-23)
(0.0518720816079 0.00248059713626 2.42615631629e-21)
(0.0568610751957 0.00508300350411 -2.70075714571e-21)
(0.0589598068168 0.00908899303516 -7.7982625327e-22)
(0.0606822346101 0.013035729215 2.73862933699e-22)
(0.0626825039498 0.0169022248291 2.182724164e-22)
(0.0652027971963 0.0207525201782 1.27346664438e-22)
(0.0683627220727 0.0245867567805 1.61652396017e-22)
(0.0722345353573 0.0283461722692 9.63822009819e-23)
(0.0768649816228 0.0319521030198 1.63487252651e-22)
(0.0822765860702 0.0353186121312 5.53250679411e-23)
(0.0481301534656 0.002757540862 1.31290373024e-21)
(0.0528847590946 0.00566646498408 -3.06105352924e-21)
(0.0548992591677 0.010184974804 -9.32983779779e-22)
(0.0565781824992 0.0146765519759 3.55532866097e-22)
(0.0585432595029 0.0191267706615 2.47064245159e-22)
(0.0610469171863 0.023621315058 1.27091675529e-22)
(0.0642340438192 0.0281694726047 1.78059634181e-22)
(0.0682029109878 0.032704871649 9.8026768886e-23)
(0.0730236850381 0.0371260329188 2.11247551098e-22)
(0.0787249195287 0.04131264132 1.73589547134e-22)
(0.0439891312038 0.00301647618057 3.20238840678e-21)
(0.0484460339573 0.00621613913627 -1.7855363743e-21)
(0.0503344336227 0.0112267734591 -4.70485007812e-22)
(0.0519150962695 0.0162548634049 1.17554273661e-22)
(0.0537775242537 0.021297802022 1.83927500984e-22)
(0.0561888396984 0.0264700527595 1.09422910612e-22)
(0.0593289463946 0.0317946846203 9.53477712054e-23)
(0.0633341772728 0.03719998758 6.85108237777e-23)
(0.0683236853569 0.0425493116888 1.3454684143e-22)
(0.074343770733 0.0476600933538 1.29256165832e-22)
(0.0394764118867 0.00325009659181 5.30512737739e-21)
(0.0435697474811 0.00670887840852 -1.05966035716e-21)
(0.0452854355861 0.0121719954315 3.54184401859e-23)
(0.0466979686196 0.0177076587588 4.51331699064e-22)
(0.0483663921899 0.0233369549215 2.83603151355e-22)
(0.0505779700587 0.0292150098841 1.76999486927e-22)
(0.0535624750073 0.0353869707064 1.00717323585e-22)
(0.042303111927 0.0251348717709 2.12499000746e-22)
)
;

boundaryField
{
    back
    {
        type            noSlip;
    }
    sides
    {
        type            noSlip;
    }
    bottom
    {
        type            noSlip;
    }
    front
    {
        type            noSlip;
    }
    atmosphere
    {
        type            pressureInletOutletVelocity;
        value           nonuniform List<vector> 0();
    }
    floatingObject
    {
        type            movingWallVelocity;
        value           nonuniform List<vector> 0();
    }
    procBoundary4to0
    {
        type            processor;
        value           nonuniform List<vector> 8((0.0664235526739 -0.000627521988676 -8.88088660057e-22) (0.0710934015565 -0.000999841594995 6.49480140055e-22) (0.0724424282856 -0.00217664980017 1.24451975329e-22) (0.0731586301738 -0.00308443375759 3.72012979286e-23) (0.0738467147218 -0.00409263180664 4.78000163853e-24) (0.0746415683952 -0.00515061566676 -1.37708777843e-23) (0.0755443785804 -0.00626038521725 -4.46378754178e-24) (0.0765257292083 -0.0074275286745 -4.04279236337e-23));
    }
    procBoundary4to3
    {
        type            processor;
        value           nonuniform List<vector> 
13
(
(0.057503994307 0.041790705695 2.34589382148e-23)
(0.0626322423377 0.0482365744287 1.25074652956e-22)
(0.069031171563 0.0544330627 -7.84907245737e-24)
(0.0346369689717 0.00344992829157 2.12694629471e-21)
(0.0383027924827 0.00711358734749 -1.46325997801e-21)
(0.0397947998376 0.0129640800276 -3.30246266904e-22)
(0.0409516162516 0.0189494231206 1.47065661979e-22)
(0.0441625195618 0.0317351206276 1.75516646664e-22)
(0.057503994307 0.041790705695 2.34589382148e-23)
(0.0468330052367 0.0388292372152 2.42102909077e-22)
(0.0409516162516 0.0189494231206 1.47065661979e-22)
(0.0441625195618 0.0317351206276 1.75516646664e-22)
(0.0356006483572 0.0265344866339 2.7999606193e-22)
)
;
    }
    procBoundary4to5
    {
        type            processor;
        value           nonuniform List<vector> 
18
(
(0.0788120404941 -0.00760825246818 -6.42047627402e-24)
(0.0800974048921 -0.00643983596211 7.09985535875e-24)
(0.0800974048921 -0.00643983596211 7.09985535875e-24)
(0.0813495303107 -0.0078347537619 3.92287442987e-25)
(0.0843531905593 -0.00822708546234 7.74791148317e-24)
(0.086312173471 -0.00660882194265 1.14094393861e-23)
(0.0883258220105 -0.00449358211414 -7.43626972021e-25)
(0.0902569245281 -0.00179983549819 -2.9928815082e-23)
(0.0919479657854 0.00152592942336 -2.12208872526e-23)
(0.0932489759679 0.00546991224421 -3.2195040412e-23)
(0.0940277487761 0.00995904746952 4.94890230422e-23)
(0.0942065105805 0.0149059914322 1.20896376274e-23)
(0.0937510896898 0.020235962809 -7.10763740076e-23)
(0.0926561860055 0.0259146334402 1.55212869309e-22)
(0.0909081572197 0.0319543090903 2.71926750832e-23)
(0.0884637500123 0.0383674754015 3.02752832595e-22)
(0.0852790583123 0.0451501272346 1.93994909472e-22)
(0.0813355603922 0.0523470086002 1.74552043794e-22)
)
;
    }
}


// ************************************************************************* //
