/*--------------------------------*- C++ -*----------------------------------*\
| =========                 |                                                 |
| \\      /  F ield         | OpenFOAM: The Open Source CFD Toolbox           |
|  \\    /   O peration     | Version:  v2012                                 |
|   \\  /    A nd           | Website:  www.openfoam.com                      |
|    \\/     M anipulation  |                                                 |
\*---------------------------------------------------------------------------*/
FoamFile
{
    version     2.0;
    format      ascii;
    class       volVectorField;
    location    "2.8";
    object      ddtCorrDdt0(U);
}
// * * * * * * * * * * * * * * * * * * * * * * * * * * * * * * * * * * * * * //

dimensions      [0 1 -2 0 0 0 0];


internalField   nonuniform List<vector> 
164
(
(0.17343244207 -0.00283262685223 8.30817328126e-23)
(0.173880446226 -0.00876241665608 6.53928734931e-23)
(0.174609822044 -0.0144993398045 6.171573307e-23)
(0.176233258722 -0.0204182480074 2.83869743841e-23)
(0.178311514609 -0.0264180902952 4.17841386413e-23)
(0.180761706676 -0.0325663655804 -1.47245140207e-25)
(0.183564205631 -0.03888915289 2.42787198089e-24)
(0.186656408665 -0.045428939811 -3.42194442101e-24)
(0.178933591011 -0.00253240353572 1.41350395634e-22)
(0.17941539053 -0.00792055472863 -3.11949974548e-22)
(0.180271383964 -0.0131364248201 5.34229345771e-23)
(0.182093213786 -0.0185429040318 2.55316965893e-23)
(0.184418122578 -0.0240791254651 7.80782054991e-23)
(0.187153904927 -0.0298219101579 4.95758392244e-23)
(0.190255207067 -0.0358147424681 4.79214130399e-23)
(0.193638762726 -0.0421303772183 4.55287895891e-24)
(0.183871973247 -0.00219680200435 2.03869085614e-22)
(0.184385683661 -0.00698145951498 -1.56216651543e-22)
(0.185374581871 -0.0116142452316 -5.16972552349e-23)
(0.187401072213 -0.0164516373995 1.27638967665e-23)
(0.189987713885 -0.0214725431767 1.76969352277e-23)
(0.19303991715 -0.0267716501326 3.50118764675e-23)
(0.196497408722 -0.0324173450627 8.44783185442e-24)
(0.200265592928 -0.038500180327 8.11006747361e-24)
(0.204216999645 -0.0450660907314 5.99416160821e-23)
(0.208123093742 -0.0522186153008 9.19022002305e-23)
(0.188165809632 -0.00183852620661 1.82267681838e-22)
(0.18872295402 -0.00594035640537 -8.98916030276e-23)
(0.189870287749 -0.00991461579087 3.67828468376e-23)
(0.192132273834 -0.0141138032727 3.77798124419e-23)
(0.195025816175 -0.0185572219109 4.92146751964e-23)
(0.198456105119 -0.0233536200073 1.83227425787e-23)
(0.202356244646 -0.0285982573105 9.31004646817e-24)
(0.206625705091 -0.0344097023757 1.581587597e-23)
(0.211109999775 -0.0409115132042 1.47997035666e-22)
(0.21556291545 -0.0481993595851 1.00543522453e-22)
(0.191717216573 -0.00145114034625 1.37551616448e-22)
(0.192335769925 -0.0047803430181 -4.52114702113e-22)
(0.19366599583 -0.00800540988952 -2.10197487843e-23)
(0.196202833799 -0.0114841880628 4.71983223134e-23)
(0.199459962738 -0.0152677735324 1.52845030232e-23)
(0.203347687507 -0.0194833961433 3.08630907938e-23)
(0.207794439454 -0.024257847984 1.03409768841e-23)
(0.212697419857 -0.0297462865442 -1.14103912229e-22)
(0.217893464035 -0.0361235294595 6.46898566097e-23)
(0.223168261397 -0.0435261688524 3.92312593105e-23)
(0.194421992645 -0.00100359898802 1.00158175263e-22)
(0.195128369662 -0.00346916260501 6.58172897781e-23)
(0.196665262313 -0.00585457433636 2.04043323205e-23)
(0.19951931501 -0.00851331786662 1.06174962534e-23)
(0.203200130703 -0.0115348030089 4.05353309151e-23)
(0.207618418231 -0.0150634783063 1.82600557095e-23)
(0.212726398467 -0.0192594459582 5.82549790103e-23)
(0.218427441897 -0.0243100273075 -8.79616205183e-24)
(0.224568621299 -0.0304350009549 1.26793452087e-22)
(0.230968505266 -0.037855149798 7.79809869249e-23)
(0.196208536406 -0.000501908585231 4.24075832596e-23)
(0.196993452454 -0.0019838612209 -1.73384520697e-22)
(0.198761728351 -0.00342737531212 5.55797048852e-23)
(0.201965016185 -0.0051473168882 2.26380502095e-23)
(0.206124943555 -0.00729254427352 2.85551496906e-23)
(0.211154281994 -0.010000944084 8.96351369551e-24)
(0.217038799443 -0.0134588816009 -7.85706339518e-24)
(0.223711411625 -0.0179033017654 -2.42584436099e-24)
(0.230989103904 -0.0235779424797 1.0831259888e-24)
(0.238835648377 -0.0307747260132 2.25053956859e-23)
(0.196955293158 4.66681113568e-05 3.28951149777e-23)
(0.197817946798 -0.000336878953145 2.02723979515e-22)
(0.199838705852 -0.000700508110185 5.615542585e-23)
(0.20341020488 -0.00134936145039 -7.28316187895e-24)
(0.20807885194 -0.00247095475728 3.79345117346e-23)
(0.213790728333 -0.00419394518224 2.35943943119e-23)
(0.220538196201 -0.0067107740165 5.14909495386e-24)
(0.228249109185 -0.0103574796135 1.58129787187e-23)
(0.236966615396 -0.0153062765336 -3.50860001924e-23)
(0.246514858381 -0.0218931802283 1.22694759507e-24)
(0.196506635389 0.000656347064048 3.5227419285e-23)
(0.197478251643 0.00150334059516 6.15612146192e-23)
(0.199749142789 0.00234297824164 6.6289566463e-23)
(0.203707850382 0.00289296560615 -1.35566562011e-23)
(0.208916761443 0.00296285926656 -7.01568328617e-24)
(0.215360148078 0.00241419205815 -5.39925826191e-23)
(0.223028871487 0.000990546606271 4.64964262088e-23)
(0.23193022461 -0.00147287779455 -3.13838043117e-23)
(0.242160440184 -0.00530637671399 -1.01381256102e-22)
(0.253568966867 -0.0109320149722 -1.37397569345e-23)
(0.194749694338 0.00133637153697 -1.72917233223e-22)
(0.195845133006 0.00353071836951 2.00001321777e-22)
(0.1983557343 0.00570467804299 -2.39355460814e-22)
(0.202708474431 0.00762077028469 -5.36334446265e-23)
(0.208471952179 0.0090562696752 -2.15189264708e-23)
(0.215660451202 0.00987231718883 -2.34057125591e-23)
(0.224296334307 0.00984834680231 -4.39495153121e-23)
(0.234469377523 0.00877529604103 1.03797897052e-22)
(0.246133998452 0.00634058391667 -8.73935409395e-23)
(0.259440556174 0.0021919184088 -1.2443110353e-22)
(0.19155422043 0.00209456646288 -2.88155111149e-22)
(0.192804189244 0.00575612708032 2.20198932866e-22)
(0.19553873406 0.00937625423159 -1.11627787075e-22)
(0.200252737114 0.0128125942514 -8.27797912932e-24)
(0.206554597811 0.0157924572582 8.32583030433e-24)
(0.21444871302 0.0181948241523 4.02141978097e-23)
(0.224035955167 0.0197888073499 1.321563724e-23)
(0.235386608792 0.0203635637799 1.46918497617e-23)
(0.248545763075 0.0196656529132 5.77410932741e-23)
(0.263627309716 0.0173508625384 6.90127061893e-23)
(0.186748761734 0.00294373771295 -1.29490146046e-22)
(0.188265790527 0.00817247203094 6.24704752649e-22)
(0.191166355661 0.0133215699845 1.72094378736e-22)
(0.196182002287 0.0184443091523 -1.54660051335e-22)
(0.202956245477 0.0231279538082 -9.09198033322e-23)
(0.211510211841 0.0273076587954 -1.02481413153e-22)
(0.221976914065 0.0307733692717 -2.45969881449e-23)
(0.234453910865 0.0332828098787 -8.76475888282e-23)
(0.249033042676 0.0345734690312 -4.6936077117e-23)
(0.265778033399 0.0343693077029 1.19803382181e-22)
(0.180090549339 0.00398534171777 -3.12711651153e-22)
(0.182301424324 0.010830296417 4.52286863471e-22)
(0.185125921618 0.0174497506923 1.27312394292e-22)
(0.190327196501 0.0244138890798 -2.16819406237e-22)
(0.19749621873 0.0310012802555 -1.53235353093e-22)
(0.206637160225 0.0371694563772 3.08390291035e-23)
(0.217893922011 0.0427190055403 -4.33867494109e-23)
(0.23140454491 0.0474186195406 2.72143476357e-22)
(0.247302519768 0.0509886669377 -1.73239242816e-22)
(0.265693688975 0.0531182275116 -6.9695319646e-23)
(0.172004196707 0.00553805052373 -6.15617335586e-22)
(0.174531228641 0.0138634973476 1.13403348355e-21)
(0.177208269716 0.0214999917396 3.04489152272e-22)
(0.182524611254 0.0306312541043 -1.98098732073e-22)
(0.190016952031 0.0393212106374 -1.13658060916e-22)
(0.199611041498 0.0476621761585 -8.40050390913e-23)
(0.21152172971 0.055531993594 -2.26771557609e-22)
(0.225968092606 0.0627009767008 -1.68857143759e-22)
(0.243206251929 0.0688682528601 -1.79957698071e-22)
(0.263009970521 0.0735167970423 1.62619967776e-22)
(0.162516208842 0.00689896217261 -4.65694400977e-22)
(0.164455189176 0.0166797995091 1.14189844325e-21)
(0.167617820668 0.0255891527948 1.4818844002e-22)
(0.172724043079 0.0370502070644 -1.58798574865e-22)
(0.180390699831 0.0479780478239 -1.15311707651e-22)
(0.190246827813 0.0586363768755 2.06104171848e-23)
(0.202628028978 0.0690728922058 -1.13151684356e-23)
(0.217982936089 0.0790963323149 1.67365073743e-22)
(0.236318786492 0.0880341889591 -1.24258128181e-23)
(0.257603301359 0.0953176385126 -1.09603254646e-22)
(0.151286439445 0.00785871645209 -1.03491116475e-21)
(0.152392193241 0.0195888015516 3.09370261893e-22)
(0.155931848602 0.0299009141491 -8.47816681636e-23)
(0.161128265365 0.043240351363 -1.25798912261e-22)
(0.168554893615 0.0567404953677 -4.70303462313e-23)
(0.178360613297 0.0698607224675 -1.16282055299e-23)
(0.191009390193 0.083256445007 1.66696106146e-22)
(0.206927826612 0.0963866377869 8.4525877326e-23)
(0.226312796467 0.108486516806 3.90634461773e-22)
(0.249392876464 0.118915936038 6.30320057582e-22)
(0.138284611532 0.00836892322376 -1.14097802931e-21)
(0.138964974668 0.021920184593 5.33187772165e-22)
(0.142131106777 0.0344495036072 -4.55627649524e-23)
(0.147373814595 0.0495212598623 4.74020452643e-23)
(0.15428310307 0.0651142629533 -4.64837099676e-24)
(0.163677860055 0.0810553748725 5.64571551584e-23)
(0.176198355595 0.0976270565921 7.39009271337e-22)
(0.137431772572 0.0729525362469 4.53046160913e-22)
)
;

boundaryField
{
    back
    {
        type            calculated;
        value           uniform (0 0 0);
    }
    sides
    {
        type            calculated;
        value           nonuniform List<vector> 0();
    }
    bottom
    {
        type            calculated;
        value           uniform (0 0 0);
    }
    front
    {
        type            calculated;
        value           uniform (0 0 0);
    }
    atmosphere
    {
        type            calculated;
        value           nonuniform List<vector> 0();
    }
    floatingObject
    {
        type            calculated;
        value           nonuniform List<vector> 0();
    }
    procBoundary4to0
    {
        type            processor;
        value           nonuniform List<vector> 8((0.167427541336 -0.00309694492327 2.12462408974e-22) (0.167847692221 -0.0094986083251 -3.193448006e-22) (0.168451554295 -0.0156916597144 4.92457190674e-23) (0.169895821507 -0.0220666970988 3.3680839757e-23) (0.17175984844 -0.0284927334277 2.9432423187e-23) (0.173976633703 -0.03503004655 1.24452277119e-23) (0.176543969303 -0.0416946759964 8.57331083294e-24) (0.179442236845 -0.0485121754717 6.48100402699e-24));
    }
    procBoundary4to3
    {
        type            processor;
        value           nonuniform List<vector> 
13
(
(0.192365058869 0.114394996994 1.57128041281e-21)
(0.212843605879 0.130504320081 2.06041018196e-21)
(0.237975960766 0.144705488448 2.9677792929e-21)
(0.123544426919 0.0088832523601 -3.84344380447e-22)
(0.124190902367 0.0239935263444 5.81137959036e-22)
(0.126809998026 0.0384266220853 2.0193739351e-22)
(0.131277912271 0.0552531403061 4.08456565319e-23)
(0.145898118196 0.091737879238 1.51161507847e-21)
(0.192365058869 0.114394996994 1.57128041281e-21)
(0.157802804978 0.111915865887 3.82232793488e-21)
(0.131277912271 0.0552531403061 4.08456565319e-23)
(0.145898118196 0.091737879238 1.51161507847e-21)
(0.11803290299 0.0796495447488 2.32705566974e-21)
)
;
    }
    procBoundary4to5
    {
        type            processor;
        value           nonuniform List<vector> 
18
(
(0.189952091382 -0.052193463994 5.77381340358e-24)
(0.197187151677 -0.0487731169335 4.01632852312e-23)
(0.197187151677 -0.0487731169335 4.01632852312e-23)
(0.200765341611 -0.0558618739075 1.38902225634e-23)
(0.211873069756 -0.0599665674429 1.34809516909e-23)
(0.219793690053 -0.0562901636125 -1.17618936715e-23)
(0.228226919062 -0.0520684889747 -1.11588751712e-22)
(0.237315098308 -0.046812816561 2.839028791e-24)
(0.246946100722 -0.0398768641553 1.45391475743e-22)
(0.256797788464 -0.0306617333184 -2.62660031872e-23)
(0.266239963561 -0.0187273834819 1.25861841962e-22)
(0.274416590276 -0.00399000176018 2.19658392026e-22)
(0.280752887505 0.0131757009411 -1.84710651648e-23)
(0.284788382935 0.032436554129 -4.83609108919e-22)
(0.286452820261 0.0536981381039 2.80136313516e-22)
(0.285380017614 0.0764856503089 -6.37583276384e-22)
(0.281743945116 0.100854629619 2.18582558393e-22)
(0.275694022522 0.12708247142 1.27859376089e-22)
)
;
    }
}


// ************************************************************************* //
