/*--------------------------------*- C++ -*----------------------------------*\
| =========                 |                                                 |
| \\      /  F ield         | OpenFOAM: The Open Source CFD Toolbox           |
|  \\    /   O peration     | Version:  v2012                                 |
|   \\  /    A nd           | Website:  www.openfoam.com                      |
|    \\/     M anipulation  |                                                 |
\*---------------------------------------------------------------------------*/
FoamFile
{
    version     2.0;
    format      ascii;
    class       volScalarField;
    location    "2.8";
    object      rAU;
}
// * * * * * * * * * * * * * * * * * * * * * * * * * * * * * * * * * * * * * //

dimensions      [-1 3 1 0 0 0 0];


internalField   nonuniform List<scalar> 
164
(
2.18939328242e-05
2.16688097542e-05
2.16362955925e-05
2.16350005383e-05
2.16350824829e-05
2.1634633203e-05
2.16345976101e-05
2.16343381219e-05
2.19006669999e-05
2.16741646906e-05
2.16389945678e-05
2.16364571909e-05
2.16356053172e-05
2.16347474511e-05
2.16343338741e-05
2.16336384379e-05
2.19060952673e-05
2.16789357235e-05
2.16416534419e-05
2.16379223547e-05
2.1636305985e-05
2.16351849976e-05
2.16347246153e-05
2.16337044859e-05
2.1631923963e-05
2.16293713383e-05
2.19101313126e-05
2.16825081976e-05
2.16445768651e-05
2.16397965743e-05
2.1637288463e-05
2.16358498178e-05
2.16352735252e-05
2.16341323299e-05
2.16321375188e-05
2.16287052874e-05
2.19120830525e-05
2.16850295831e-05
2.16473668837e-05
2.16419289185e-05
2.16387352414e-05
2.16375630896e-05
2.16370592134e-05
2.16360264709e-05
2.16335459587e-05
2.16292175033e-05
2.19123045976e-05
2.16864273307e-05
2.16489804926e-05
2.16436266317e-05
2.16403753225e-05
2.16395338927e-05
2.16394441448e-05
2.16385517693e-05
2.1635660518e-05
2.16310194687e-05
2.19133911264e-05
2.16876583989e-05
2.16500417147e-05
2.16450685768e-05
2.16426072083e-05
2.16418251605e-05
2.16421493669e-05
2.1641530136e-05
2.16384092428e-05
2.16338240394e-05
2.19146099483e-05
2.16881897205e-05
2.16511287258e-05
2.16461786679e-05
2.16441101894e-05
2.16441263972e-05
2.16459390192e-05
2.16469075254e-05
2.16444299141e-05
2.16373167702e-05
2.19149544828e-05
2.16885311393e-05
2.16518756662e-05
2.16465704019e-05
2.16441867255e-05
2.16456721871e-05
2.16502203111e-05
2.16549992363e-05
2.1653363386e-05
2.16411699198e-05
2.19147728647e-05
2.16887388267e-05
2.16514270688e-05
2.16460782363e-05
2.1643537806e-05
2.16460199312e-05
2.16521868694e-05
2.16628171524e-05
2.16713223906e-05
2.16440488446e-05
2.191507842e-05
2.16888730247e-05
2.16508926116e-05
2.1645182704e-05
2.16424121687e-05
2.16427411423e-05
2.1646269359e-05
2.16563053009e-05
2.15836088349e-05
2.15915518804e-05
2.1915441771e-05
2.16891766254e-05
2.16507326254e-05
2.16439253204e-05
2.16400681488e-05
2.16370747132e-05
2.16341272225e-05
2.1624727685e-05
2.15266575882e-05
2.15702745479e-05
2.19147806101e-05
2.16889523059e-05
2.1650120968e-05
2.16425357387e-05
2.16372930581e-05
2.16328628633e-05
2.16255394186e-05
2.16085562183e-05
2.157449853e-05
2.15835527862e-05
2.19145690123e-05
2.16886000036e-05
2.16502589255e-05
2.16417240978e-05
2.1635786485e-05
2.16307664259e-05
2.16232548793e-05
2.16110635754e-05
2.15969426806e-05
2.15906037343e-05
2.19158880737e-05
2.16896217163e-05
2.16511323131e-05
2.16424725162e-05
2.16359501429e-05
2.16306569616e-05
2.16237136662e-05
2.16151752299e-05
2.1606443447e-05
2.16006164666e-05
2.19168724014e-05
2.16917407315e-05
2.16521897153e-05
2.16436052773e-05
2.1636988369e-05
2.16320520755e-05
2.16260482739e-05
2.16191981446e-05
2.16131896879e-05
2.16109019859e-05
2.1917088446e-05
2.16934705509e-05
2.16540693748e-05
2.16446395926e-05
2.16382042304e-05
2.16332940274e-05
2.16278000465e-05
2.16396265323e-05
)
;

boundaryField
{
    back
    {
        type            calculated;
        value           nonuniform List<scalar> 
164
(
2.18939328242e-05
2.16688097542e-05
2.16362955925e-05
2.16350005383e-05
2.16350824829e-05
2.1634633203e-05
2.16345976101e-05
2.16343381219e-05
2.19006669999e-05
2.16741646906e-05
2.16389945678e-05
2.16364571909e-05
2.16356053172e-05
2.16347474511e-05
2.16343338741e-05
2.16336384379e-05
2.19060952673e-05
2.16789357235e-05
2.16416534419e-05
2.16379223547e-05
2.1636305985e-05
2.16351849976e-05
2.16347246153e-05
2.16337044859e-05
2.1631923963e-05
2.16293713383e-05
2.19101313126e-05
2.16825081976e-05
2.16445768651e-05
2.16397965743e-05
2.1637288463e-05
2.16358498178e-05
2.16352735252e-05
2.16341323299e-05
2.16321375188e-05
2.16287052874e-05
2.19120830525e-05
2.16850295831e-05
2.16473668837e-05
2.16419289185e-05
2.16387352414e-05
2.16375630896e-05
2.16370592134e-05
2.16360264709e-05
2.16335459587e-05
2.16292175033e-05
2.19123045976e-05
2.16864273307e-05
2.16489804926e-05
2.16436266317e-05
2.16403753225e-05
2.16395338927e-05
2.16394441448e-05
2.16385517693e-05
2.1635660518e-05
2.16310194687e-05
2.19133911264e-05
2.16876583989e-05
2.16500417147e-05
2.16450685768e-05
2.16426072083e-05
2.16418251605e-05
2.16421493669e-05
2.1641530136e-05
2.16384092428e-05
2.16338240394e-05
2.19146099483e-05
2.16881897205e-05
2.16511287258e-05
2.16461786679e-05
2.16441101894e-05
2.16441263972e-05
2.16459390192e-05
2.16469075254e-05
2.16444299141e-05
2.16373167702e-05
2.19149544828e-05
2.16885311393e-05
2.16518756662e-05
2.16465704019e-05
2.16441867255e-05
2.16456721871e-05
2.16502203111e-05
2.16549992363e-05
2.1653363386e-05
2.16411699198e-05
2.19147728647e-05
2.16887388267e-05
2.16514270688e-05
2.16460782363e-05
2.1643537806e-05
2.16460199312e-05
2.16521868694e-05
2.16628171524e-05
2.16713223906e-05
2.16440488446e-05
2.191507842e-05
2.16888730247e-05
2.16508926116e-05
2.1645182704e-05
2.16424121687e-05
2.16427411423e-05
2.1646269359e-05
2.16563053009e-05
2.15836088349e-05
2.15915518804e-05
2.1915441771e-05
2.16891766254e-05
2.16507326254e-05
2.16439253204e-05
2.16400681488e-05
2.16370747132e-05
2.16341272225e-05
2.1624727685e-05
2.15266575882e-05
2.15702745479e-05
2.19147806101e-05
2.16889523059e-05
2.1650120968e-05
2.16425357387e-05
2.16372930581e-05
2.16328628633e-05
2.16255394186e-05
2.16085562183e-05
2.157449853e-05
2.15835527862e-05
2.19145690123e-05
2.16886000036e-05
2.16502589255e-05
2.16417240978e-05
2.1635786485e-05
2.16307664259e-05
2.16232548793e-05
2.16110635754e-05
2.15969426806e-05
2.15906037343e-05
2.19158880737e-05
2.16896217163e-05
2.16511323131e-05
2.16424725162e-05
2.16359501429e-05
2.16306569616e-05
2.16237136662e-05
2.16151752299e-05
2.1606443447e-05
2.16006164666e-05
2.19168724014e-05
2.16917407315e-05
2.16521897153e-05
2.16436052773e-05
2.1636988369e-05
2.16320520755e-05
2.16260482739e-05
2.16191981446e-05
2.16131896879e-05
2.16109019859e-05
2.1917088446e-05
2.16934705509e-05
2.16540693748e-05
2.16446395926e-05
2.16382042304e-05
2.16332940274e-05
2.16278000465e-05
2.16396265323e-05
)
;
    }
    sides
    {
        type            calculated;
        value           nonuniform List<scalar> 0();
    }
    bottom
    {
        type            calculated;
        value           nonuniform List<scalar> 
17
(
2.18939328242e-05
2.19006669999e-05
2.19060952673e-05
2.19101313126e-05
2.19120830525e-05
2.19123045976e-05
2.19133911264e-05
2.19146099483e-05
2.19149544828e-05
2.19147728647e-05
2.191507842e-05
2.1915441771e-05
2.19147806101e-05
2.19145690123e-05
2.19158880737e-05
2.19168724014e-05
2.1917088446e-05
)
;
    }
    front
    {
        type            calculated;
        value           nonuniform List<scalar> 
164
(
2.18939328242e-05
2.16688097542e-05
2.16362955925e-05
2.16350005383e-05
2.16350824829e-05
2.1634633203e-05
2.16345976101e-05
2.16343381219e-05
2.19006669999e-05
2.16741646906e-05
2.16389945678e-05
2.16364571909e-05
2.16356053172e-05
2.16347474511e-05
2.16343338741e-05
2.16336384379e-05
2.19060952673e-05
2.16789357235e-05
2.16416534419e-05
2.16379223547e-05
2.1636305985e-05
2.16351849976e-05
2.16347246153e-05
2.16337044859e-05
2.1631923963e-05
2.16293713383e-05
2.19101313126e-05
2.16825081976e-05
2.16445768651e-05
2.16397965743e-05
2.1637288463e-05
2.16358498178e-05
2.16352735252e-05
2.16341323299e-05
2.16321375188e-05
2.16287052874e-05
2.19120830525e-05
2.16850295831e-05
2.16473668837e-05
2.16419289185e-05
2.16387352414e-05
2.16375630896e-05
2.16370592134e-05
2.16360264709e-05
2.16335459587e-05
2.16292175033e-05
2.19123045976e-05
2.16864273307e-05
2.16489804926e-05
2.16436266317e-05
2.16403753225e-05
2.16395338927e-05
2.16394441448e-05
2.16385517693e-05
2.1635660518e-05
2.16310194687e-05
2.19133911264e-05
2.16876583989e-05
2.16500417147e-05
2.16450685768e-05
2.16426072083e-05
2.16418251605e-05
2.16421493669e-05
2.1641530136e-05
2.16384092428e-05
2.16338240394e-05
2.19146099483e-05
2.16881897205e-05
2.16511287258e-05
2.16461786679e-05
2.16441101894e-05
2.16441263972e-05
2.16459390192e-05
2.16469075254e-05
2.16444299141e-05
2.16373167702e-05
2.19149544828e-05
2.16885311393e-05
2.16518756662e-05
2.16465704019e-05
2.16441867255e-05
2.16456721871e-05
2.16502203111e-05
2.16549992363e-05
2.1653363386e-05
2.16411699198e-05
2.19147728647e-05
2.16887388267e-05
2.16514270688e-05
2.16460782363e-05
2.1643537806e-05
2.16460199312e-05
2.16521868694e-05
2.16628171524e-05
2.16713223906e-05
2.16440488446e-05
2.191507842e-05
2.16888730247e-05
2.16508926116e-05
2.1645182704e-05
2.16424121687e-05
2.16427411423e-05
2.1646269359e-05
2.16563053009e-05
2.15836088349e-05
2.15915518804e-05
2.1915441771e-05
2.16891766254e-05
2.16507326254e-05
2.16439253204e-05
2.16400681488e-05
2.16370747132e-05
2.16341272225e-05
2.1624727685e-05
2.15266575882e-05
2.15702745479e-05
2.19147806101e-05
2.16889523059e-05
2.1650120968e-05
2.16425357387e-05
2.16372930581e-05
2.16328628633e-05
2.16255394186e-05
2.16085562183e-05
2.157449853e-05
2.15835527862e-05
2.19145690123e-05
2.16886000036e-05
2.16502589255e-05
2.16417240978e-05
2.1635786485e-05
2.16307664259e-05
2.16232548793e-05
2.16110635754e-05
2.15969426806e-05
2.15906037343e-05
2.19158880737e-05
2.16896217163e-05
2.16511323131e-05
2.16424725162e-05
2.16359501429e-05
2.16306569616e-05
2.16237136662e-05
2.16151752299e-05
2.1606443447e-05
2.16006164666e-05
2.19168724014e-05
2.16917407315e-05
2.16521897153e-05
2.16436052773e-05
2.1636988369e-05
2.16320520755e-05
2.16260482739e-05
2.16191981446e-05
2.16131896879e-05
2.16109019859e-05
2.1917088446e-05
2.16934705509e-05
2.16540693748e-05
2.16446395926e-05
2.16382042304e-05
2.16332940274e-05
2.16278000465e-05
2.16396265323e-05
)
;
    }
    atmosphere
    {
        type            calculated;
        value           nonuniform List<scalar> 0();
    }
    floatingObject
    {
        type            calculated;
        value           nonuniform List<scalar> 0();
    }
    procBoundary4to0
    {
        type            processor;
        value           nonuniform List<scalar> 8(2.18853933514e-05 2.16640629048e-05 2.16344772999e-05 2.16353135409e-05 2.16362584567e-05 2.16367216486e-05 2.16363880916e-05 2.16357102312e-05);
    }
    procBoundary4to3
    {
        type            processor;
        value           nonuniform List<scalar> 
13
(
2.16218251011e-05
2.1617080747e-05
2.16181170339e-05
2.19182346138e-05
2.16950694426e-05
2.16562542292e-05
2.1646319022e-05
2.16347146836e-05
2.16218251011e-05
2.16287984442e-05
2.1646319022e-05
2.16347146836e-05
2.16413688676e-05
)
;
    }
    procBoundary4to5
    {
        type            processor;
        value           nonuniform List<scalar> 
18
(
2.16337000582e-05
2.16324460985e-05
2.16324460985e-05
2.16307060156e-05
2.16254653356e-05
2.16240101962e-05
2.16236189264e-05
2.16248685671e-05
2.16270101778e-05
2.16285618167e-05
2.16286239813e-05
2.16283608312e-05
2.16142674066e-05
2.16119370593e-05
2.16056105066e-05
2.1591078085e-05
2.15958777219e-05
2.16112991174e-05
)
;
    }
}


// ************************************************************************* //
