/*--------------------------------*- C++ -*----------------------------------*\
| =========                 |                                                 |
| \\      /  F ield         | OpenFOAM: The Open Source CFD Toolbox           |
|  \\    /   O peration     | Version:  v2012                                 |
|   \\  /    A nd           | Website:  www.openfoam.com                      |
|    \\/     M anipulation  |                                                 |
\*---------------------------------------------------------------------------*/
FoamFile
{
    version     2.0;
    format      ascii;
    class       volScalarField;
    location    "5";
    object      ddt0(k);
}
// * * * * * * * * * * * * * * * * * * * * * * * * * * * * * * * * * * * * * //

dimensions      [0 2 -3 0 0 0 0];


internalField   nonuniform List<scalar> 
166
(
-0.0005038752853
-0.000633038647981
-0.000668131669528
-0.000678895777535
-0.00068207295731
-0.000683392825479
-0.000684508843148
-0.000685808771306
-0.000687375022863
-0.000689350503809
-0.000692275804308
-0.000697982061717
-0.000712242568998
-0.000754800696046
-0.000901446200307
-0.00147536467662
-0.00365961745572
-0.00955665830476
-0.025488127301
-0.155751847438
-0.000502264782357
-0.000630491979288
-0.000665889137029
-0.000676925870761
-0.000680246258217
-0.000681591948036
-0.00068266521652
-0.000683890447646
-0.0006853710834
-0.000687269176863
-0.000690126965136
-0.00069573661489
-0.00070948263731
-0.000749508044824
-0.000883630736689
-0.00139212951724
-0.00337567045965
-0.00884207331483
-0.0101320367931
0.0790657124045
-0.000500691509595
-0.000627829196634
-0.000663571241262
-0.00067490842008
-0.000678392658058
-0.000679778536937
-0.00068081458263
-0.000681960080901
-0.000683335897782
-0.000685118962118
-0.000687854845623
-0.000693228566826
-0.000706322247637
-0.000743644130541
-0.000865392118476
-0.00130121244811
-0.00295638877241
-0.00735496983613
0.00111653951778
0.349084368973
-0.000499036395343
-0.000625059970285
-0.000661171999158
-0.000672838814053
-0.000676501764382
-0.000677938335943
-0.000678942579407
-0.000680004769238
-0.000681278001389
-0.000682932066286
-0.000685522737334
-0.000690605037951
-0.000702883974778
-0.000737351898935
-0.000847811809632
-0.00121233492045
-0.00245953620796
-0.00601430192029
-0.0069654572511
0.167988530949
-0.000497400025246
-0.000622181778339
-0.000658701947275
-0.000670730219059
-0.000674592404075
-0.000676087280204
-0.000677054100169
-0.000678031490183
-0.000679192511937
-0.000680701488961
-0.00068308747732
-0.000687844760055
-0.000699231251135
-0.000730701154681
-0.000830441202837
-0.00113591248421
-0.0020167040662
-0.00511147678717
-0.0118176401116
0.00524915466835
-0.000495767975744
-0.000619189201112
-0.000656186462807
-0.000668607131222
-0.000672683027947
-0.000674235479485
-0.000675166573213
-0.000676058972261
-0.000677096247594
-0.000678433792014
-0.000680582219608
-0.000684946544681
-0.000695351389638
-0.000723372757848
-0.000811791747685
-0.00106454631574
-0.00158893820852
-0.00426212407414
-0.0197705699759
0.0680734136367
-0.000493900540039
-0.000616211267164
-0.000653721872897
-0.000666542699291
-0.000670818555037
-0.000672405662154
-0.000673294910445
-0.000674092740768
-0.000674999814888
-0.000676154486141
-0.000678029225502
-0.000681949854398
-0.000691120847488
-0.000715498860146
-0.000790375132903
-0.000982365118889
-0.00115098977242
-0.00349175797954
-0.0276853328122
-0.113278518679
-0.000491289141073
-0.000613453574019
-0.000651451220743
-0.000664601701997
-0.000669006051346
-0.000670600928874
-0.000671408944944
-0.00067207562773
-0.000672805106937
-0.000673748034716
-0.000675277849125
-0.000678510298275
-0.000686392549694
-0.00070808483392
-0.000767416054988
-0.000892062901535
-0.000752105208311
-0.002642756935
-0.0206676809101
0.0714955245047
-0.000488711104847
-0.000610705376277
-0.000649209534782
-0.00048616418059
-0.000483634142062
-0.000481155104965
)
;

boundaryField
{
    back
    {
        type            calculated;
        value           nonuniform List<scalar> 
166
(
-0.0005038752853
-0.000633038647981
-0.000668131669528
-0.000678895777535
-0.00068207295731
-0.000683392825479
-0.000684508843148
-0.000685808771306
-0.000687375022863
-0.000689350503809
-0.000692275804308
-0.000697982061717
-0.000712242568998
-0.000754800696046
-0.000901446200307
-0.00147536467662
-0.00365961745572
-0.00955665830476
-0.025488127301
-0.155751847438
-0.000502264782357
-0.000630491979288
-0.000665889137029
-0.000676925870761
-0.000680246258217
-0.000681591948036
-0.00068266521652
-0.000683890447646
-0.0006853710834
-0.000687269176863
-0.000690126965136
-0.00069573661489
-0.00070948263731
-0.000749508044824
-0.000883630736689
-0.00139212951724
-0.00337567045965
-0.00884207331483
-0.0101320367931
0.0790657124045
-0.000500691509595
-0.000627829196634
-0.000663571241262
-0.00067490842008
-0.000678392658058
-0.000679778536937
-0.00068081458263
-0.000681960080901
-0.000683335897782
-0.000685118962118
-0.000687854845623
-0.000693228566826
-0.000706322247637
-0.000743644130541
-0.000865392118476
-0.00130121244811
-0.00295638877241
-0.00735496983613
0.00111653951778
0.349084368973
-0.000499036395343
-0.000625059970285
-0.000661171999158
-0.000672838814053
-0.000676501764382
-0.000677938335943
-0.000678942579407
-0.000680004769238
-0.000681278001389
-0.000682932066286
-0.000685522737334
-0.000690605037951
-0.000702883974778
-0.000737351898935
-0.000847811809632
-0.00121233492045
-0.00245953620796
-0.00601430192029
-0.0069654572511
0.167988530949
-0.000497400025246
-0.000622181778339
-0.000658701947275
-0.000670730219059
-0.000674592404075
-0.000676087280204
-0.000677054100169
-0.000678031490183
-0.000679192511937
-0.000680701488961
-0.00068308747732
-0.000687844760055
-0.000699231251135
-0.000730701154681
-0.000830441202837
-0.00113591248421
-0.0020167040662
-0.00511147678717
-0.0118176401116
0.00524915466835
-0.000495767975744
-0.000619189201112
-0.000656186462807
-0.000668607131222
-0.000672683027947
-0.000674235479485
-0.000675166573213
-0.000676058972261
-0.000677096247594
-0.000678433792014
-0.000680582219608
-0.000684946544681
-0.000695351389638
-0.000723372757848
-0.000811791747685
-0.00106454631574
-0.00158893820852
-0.00426212407414
-0.0197705699759
0.0680734136367
-0.000493900540039
-0.000616211267164
-0.000653721872897
-0.000666542699291
-0.000670818555037
-0.000672405662154
-0.000673294910445
-0.000674092740768
-0.000674999814888
-0.000676154486141
-0.000678029225502
-0.000681949854398
-0.000691120847488
-0.000715498860146
-0.000790375132903
-0.000982365118889
-0.00115098977242
-0.00349175797954
-0.0276853328122
-0.113278518679
-0.000491289141073
-0.000613453574019
-0.000651451220743
-0.000664601701997
-0.000669006051346
-0.000670600928874
-0.000671408944944
-0.00067207562773
-0.000672805106937
-0.000673748034716
-0.000675277849125
-0.000678510298275
-0.000686392549694
-0.00070808483392
-0.000767416054988
-0.000892062901535
-0.000752105208311
-0.002642756935
-0.0206676809101
0.0714955245047
-0.000488711104847
-0.000610705376277
-0.000649209534782
-0.00048616418059
-0.000483634142062
-0.000481155104965
)
;
    }
    sides
    {
        type            calculated;
        value           nonuniform List<scalar> 0();
    }
    bottom
    {
        type            calculated;
        value           nonuniform List<scalar> 
12
(
-0.0005038752853
-0.000502264782357
-0.000500691509595
-0.000499036395343
-0.000497400025246
-0.000495767975744
-0.000493900540039
-0.000491289141073
-0.000488711104847
-0.00048616418059
-0.000483634142062
-0.000481155104965
)
;
    }
    front
    {
        type            calculated;
        value           nonuniform List<scalar> 
166
(
-0.0005038752853
-0.000633038647981
-0.000668131669528
-0.000678895777535
-0.00068207295731
-0.000683392825479
-0.000684508843148
-0.000685808771306
-0.000687375022863
-0.000689350503809
-0.000692275804308
-0.000697982061717
-0.000712242568998
-0.000754800696046
-0.000901446200307
-0.00147536467662
-0.00365961745572
-0.00955665830476
-0.025488127301
-0.155751847438
-0.000502264782357
-0.000630491979288
-0.000665889137029
-0.000676925870761
-0.000680246258217
-0.000681591948036
-0.00068266521652
-0.000683890447646
-0.0006853710834
-0.000687269176863
-0.000690126965136
-0.00069573661489
-0.00070948263731
-0.000749508044824
-0.000883630736689
-0.00139212951724
-0.00337567045965
-0.00884207331483
-0.0101320367931
0.0790657124045
-0.000500691509595
-0.000627829196634
-0.000663571241262
-0.00067490842008
-0.000678392658058
-0.000679778536937
-0.00068081458263
-0.000681960080901
-0.000683335897782
-0.000685118962118
-0.000687854845623
-0.000693228566826
-0.000706322247637
-0.000743644130541
-0.000865392118476
-0.00130121244811
-0.00295638877241
-0.00735496983613
0.00111653951778
0.349084368973
-0.000499036395343
-0.000625059970285
-0.000661171999158
-0.000672838814053
-0.000676501764382
-0.000677938335943
-0.000678942579407
-0.000680004769238
-0.000681278001389
-0.000682932066286
-0.000685522737334
-0.000690605037951
-0.000702883974778
-0.000737351898935
-0.000847811809632
-0.00121233492045
-0.00245953620796
-0.00601430192029
-0.0069654572511
0.167988530949
-0.000497400025246
-0.000622181778339
-0.000658701947275
-0.000670730219059
-0.000674592404075
-0.000676087280204
-0.000677054100169
-0.000678031490183
-0.000679192511937
-0.000680701488961
-0.00068308747732
-0.000687844760055
-0.000699231251135
-0.000730701154681
-0.000830441202837
-0.00113591248421
-0.0020167040662
-0.00511147678717
-0.0118176401116
0.00524915466835
-0.000495767975744
-0.000619189201112
-0.000656186462807
-0.000668607131222
-0.000672683027947
-0.000674235479485
-0.000675166573213
-0.000676058972261
-0.000677096247594
-0.000678433792014
-0.000680582219608
-0.000684946544681
-0.000695351389638
-0.000723372757848
-0.000811791747685
-0.00106454631574
-0.00158893820852
-0.00426212407414
-0.0197705699759
0.0680734136367
-0.000493900540039
-0.000616211267164
-0.000653721872897
-0.000666542699291
-0.000670818555037
-0.000672405662154
-0.000673294910445
-0.000674092740768
-0.000674999814888
-0.000676154486141
-0.000678029225502
-0.000681949854398
-0.000691120847488
-0.000715498860146
-0.000790375132903
-0.000982365118889
-0.00115098977242
-0.00349175797954
-0.0276853328122
-0.113278518679
-0.000491289141073
-0.000613453574019
-0.000651451220743
-0.000664601701997
-0.000669006051346
-0.000670600928874
-0.000671408944944
-0.00067207562773
-0.000672805106937
-0.000673748034716
-0.000675277849125
-0.000678510298275
-0.000686392549694
-0.00070808483392
-0.000767416054988
-0.000892062901535
-0.000752105208311
-0.002642756935
-0.0206676809101
0.0714955245047
-0.000488711104847
-0.000610705376277
-0.000649209534782
-0.00048616418059
-0.000483634142062
-0.000481155104965
)
;
    }
    atmosphere
    {
        type            calculated;
        value           nonuniform List<scalar> 8(-0.519101761494 0.0790434887337 -1.32083931672 -1.21219189904 3.6820655546e-08 -1.03410559268 -0.406350568748 -1.00483121322);
    }
    floatingObject
    {
        type            calculated;
        value           nonuniform List<scalar> 0();
    }
    procBoundary9to6
    {
        type            processor;
        value           nonuniform List<scalar> 4(-0.0038461826012 -0.0100603504196 -0.0246521170702 -0.139105748368);
    }
    procBoundary9to7
    {
        type            processor;
        value           nonuniform List<scalar> 
16
(
-0.000505389076684
-0.000635423273355
-0.00067021855056
-0.00068072704515
-0.000683775605732
-0.000685081854352
-0.00068626213901
-0.000687675105151
-0.000689389924472
-0.000691533423486
-0.000694633211694
-0.000700508695924
-0.000715198074349
-0.000759125131185
-0.00091185810724
-0.00151955441471
)
;
    }
    procBoundary9to10
    {
        type            processor;
        value           nonuniform List<scalar> 
15
(
-0.00066266322721
-0.000667223860875
-0.000668823571651
-0.000669558912315
-0.000670090947272
-0.000670623978264
-0.00067126285074
-0.000672205637671
-0.000607939454489
-0.00066266322721
-0.000646951612357
-0.000607939454489
-0.000605203175668
-0.00060252350638
-0.000478742526174
)
;
    }
    procBoundary9to11
    {
        type            processor;
        value           nonuniform List<scalar> 9(-0.000674171292912 -0.000678381252244 -0.000688462682466 -0.000722740653254 -0.000795929378063 -0.000475286491349 -0.00132558063108 -0.0127943914147 -0.0103232641968);
    }
}


// ************************************************************************* //
