/*--------------------------------*- C++ -*----------------------------------*\
| =========                 |                                                 |
| \\      /  F ield         | OpenFOAM: The Open Source CFD Toolbox           |
|  \\    /   O peration     | Version:  v2012                                 |
|   \\  /    A nd           | Website:  www.openfoam.com                      |
|    \\/     M anipulation  |                                                 |
\*---------------------------------------------------------------------------*/
FoamFile
{
    version     2.0;
    format      ascii;
    class       volScalarField;
    location    "5";
    object      p_rgh;
}
// * * * * * * * * * * * * * * * * * * * * * * * * * * * * * * * * * * * * * //

dimensions      [1 -1 -2 0 0 0 0];


internalField   nonuniform List<scalar> 
166
(
8645.27000217
8645.23611337
8645.15788128
8645.03993879
8644.88680492
8644.70147239
8644.48800925
8644.2513642
8643.99582656
8643.72852592
8643.46263992
8643.20520224
8643.02580927
8642.97584125
8643.11347101
8643.65092958
8644.7759395
5763.29527887
224.908589972
0.122092003228
8649.90230335
8649.88211802
8649.83279797
8649.75853267
8649.66339232
8649.55066126
8649.42480855
8649.29102745
8649.15538157
8649.02643662
8648.91048012
8648.8592772
8648.86349037
8648.99664951
8649.39679092
8650.1894196
8651.46135919
5856.42415942
249.5705979
0.0284540663382
8654.5616031
8654.55464658
8654.53301354
8654.50034548
8654.4598052
8654.41407756
8654.3670365
8654.32310185
8654.28966983
8654.27602089
8654.29127428
8654.35937672
8654.51409693
8654.77283859
8655.27786002
8656.10920715
8657.34149936
5936.32207859
273.038625238
-0.0131686396318
8659.23399129
8659.2394639
8659.24427199
8659.2509202
8659.26129144
8659.27715531
8659.30050994
8659.33377365
8659.38180646
8659.45328993
8659.5609688
8659.70456348
8659.9430192
8660.29429045
8660.80217711
8661.60560876
8662.84384428
6025.32460096
291.944369804
-0.0258057513493
8663.90609184
8663.9237964
8663.9540852
8663.99836309
8664.05714771
8664.13093927
8664.21930343
8664.32163346
8664.43782343
8664.57217531
8664.7401704
8664.94564006
8665.20053135
8665.55998855
8666.02155864
8666.70238417
8667.70650475
6092.64162191
307.394615236
-0.0123057107325
8668.565573
8668.59513743
8668.65008431
8668.7313246
8668.83797826
8668.96791685
8669.11973169
8669.28934791
8669.47375167
8669.6733798
8669.88862741
8670.12335685
8670.35292358
8670.64115974
8671.00532418
8671.47902708
8672.12532793
6145.94000521
322.976257661
0.016260845491
8673.19782316
8673.23886746
8673.31895508
8673.43848268
8673.59384873
8673.78123337
8673.99611612
8674.23282998
8674.4840495
8674.74143714
8674.9969626
8675.24094831
8675.45583578
8675.65050148
8675.84893659
8676.0523206
8676.27411609
6192.27576572
341.395984839
0.0217931661108
8677.78743578
8677.84079448
8677.94826101
8678.10796233
8678.31503782
8678.56328071
8678.8455052
8679.15174543
8679.4716458
8679.78895578
8680.09137856
8680.34965461
8680.53510315
8680.67276735
8680.66505355
8680.56766281
8680.23177605
6229.00879184
354.948113022
0.000633824681316
8682.32031448
8682.38711336
8682.52372382
8686.77972011
8691.14698281
8695.40432818
)
;

boundaryField
{
    back
    {
        type            fixedFluxPressure;
        gradient        uniform 0;
        value           nonuniform List<scalar> 
166
(
8645.27000217
8645.23611337
8645.15788128
8645.03993879
8644.88680492
8644.70147239
8644.48800925
8644.2513642
8643.99582656
8643.72852592
8643.46263992
8643.20520224
8643.02580927
8642.97584125
8643.11347101
8643.65092958
8644.7759395
5763.29527887
224.908589972
0.122092003228
8649.90230335
8649.88211802
8649.83279797
8649.75853267
8649.66339232
8649.55066126
8649.42480855
8649.29102745
8649.15538157
8649.02643662
8648.91048012
8648.8592772
8648.86349037
8648.99664951
8649.39679092
8650.1894196
8651.46135919
5856.42415942
249.5705979
0.0284540663382
8654.5616031
8654.55464658
8654.53301354
8654.50034548
8654.4598052
8654.41407756
8654.3670365
8654.32310185
8654.28966983
8654.27602089
8654.29127428
8654.35937672
8654.51409693
8654.77283859
8655.27786002
8656.10920715
8657.34149936
5936.32207859
273.038625238
-0.0131686396318
8659.23399129
8659.2394639
8659.24427199
8659.2509202
8659.26129144
8659.27715531
8659.30050994
8659.33377365
8659.38180646
8659.45328993
8659.5609688
8659.70456348
8659.9430192
8660.29429045
8660.80217711
8661.60560876
8662.84384428
6025.32460096
291.944369804
-0.0258057513493
8663.90609184
8663.9237964
8663.9540852
8663.99836309
8664.05714771
8664.13093927
8664.21930343
8664.32163346
8664.43782343
8664.57217531
8664.7401704
8664.94564006
8665.20053135
8665.55998855
8666.02155864
8666.70238417
8667.70650475
6092.64162191
307.394615236
-0.0123057107325
8668.565573
8668.59513743
8668.65008431
8668.7313246
8668.83797826
8668.96791685
8669.11973169
8669.28934791
8669.47375167
8669.6733798
8669.88862741
8670.12335685
8670.35292358
8670.64115974
8671.00532418
8671.47902708
8672.12532793
6145.94000521
322.976257661
0.016260845491
8673.19782316
8673.23886746
8673.31895508
8673.43848268
8673.59384873
8673.78123337
8673.99611612
8674.23282998
8674.4840495
8674.74143714
8674.9969626
8675.24094831
8675.45583578
8675.65050148
8675.84893659
8676.0523206
8676.27411609
6192.27576572
341.395984839
0.0217931661108
8677.78743578
8677.84079448
8677.94826101
8678.10796233
8678.31503782
8678.56328071
8678.8455052
8679.15174543
8679.4716458
8679.78895578
8680.09137856
8680.34965461
8680.53510315
8680.67276735
8680.66505355
8680.56766281
8680.23177605
6229.00879184
354.948113022
0.000633824681316
8682.32031448
8682.38711336
8682.52372382
8686.77972011
8691.14698281
8695.40432818
)
;
    }
    sides
    {
        type            fixedFluxPressure;
        gradient        nonuniform List<scalar> 0();
        value           nonuniform List<scalar> 0();
    }
    bottom
    {
        type            fixedFluxPressure;
        gradient        uniform 0;
        value           nonuniform List<scalar> 
12
(
8645.27000217
8649.90230335
8654.5616031
8659.23399129
8663.90609184
8668.565573
8673.19782316
8677.78743578
8682.32031448
8686.77972011
8691.14698281
8695.40432818
)
;
    }
    front
    {
        type            fixedFluxPressure;
        gradient        uniform 0;
        value           nonuniform List<scalar> 
166
(
8645.27000217
8645.23611337
8645.15788128
8645.03993879
8644.88680492
8644.70147239
8644.48800925
8644.2513642
8643.99582656
8643.72852592
8643.46263992
8643.20520224
8643.02580927
8642.97584125
8643.11347101
8643.65092958
8644.7759395
5763.29527887
224.908589972
0.122092003228
8649.90230335
8649.88211802
8649.83279797
8649.75853267
8649.66339232
8649.55066126
8649.42480855
8649.29102745
8649.15538157
8649.02643662
8648.91048012
8648.8592772
8648.86349037
8648.99664951
8649.39679092
8650.1894196
8651.46135919
5856.42415942
249.5705979
0.0284540663382
8654.5616031
8654.55464658
8654.53301354
8654.50034548
8654.4598052
8654.41407756
8654.3670365
8654.32310185
8654.28966983
8654.27602089
8654.29127428
8654.35937672
8654.51409693
8654.77283859
8655.27786002
8656.10920715
8657.34149936
5936.32207859
273.038625238
-0.0131686396318
8659.23399129
8659.2394639
8659.24427199
8659.2509202
8659.26129144
8659.27715531
8659.30050994
8659.33377365
8659.38180646
8659.45328993
8659.5609688
8659.70456348
8659.9430192
8660.29429045
8660.80217711
8661.60560876
8662.84384428
6025.32460096
291.944369804
-0.0258057513493
8663.90609184
8663.9237964
8663.9540852
8663.99836309
8664.05714771
8664.13093927
8664.21930343
8664.32163346
8664.43782343
8664.57217531
8664.7401704
8664.94564006
8665.20053135
8665.55998855
8666.02155864
8666.70238417
8667.70650475
6092.64162191
307.394615236
-0.0123057107325
8668.565573
8668.59513743
8668.65008431
8668.7313246
8668.83797826
8668.96791685
8669.11973169
8669.28934791
8669.47375167
8669.6733798
8669.88862741
8670.12335685
8670.35292358
8670.64115974
8671.00532418
8671.47902708
8672.12532793
6145.94000521
322.976257661
0.016260845491
8673.19782316
8673.23886746
8673.31895508
8673.43848268
8673.59384873
8673.78123337
8673.99611612
8674.23282998
8674.4840495
8674.74143714
8674.9969626
8675.24094831
8675.45583578
8675.65050148
8675.84893659
8676.0523206
8676.27411609
6192.27576572
341.395984839
0.0217931661108
8677.78743578
8677.84079448
8677.94826101
8678.10796233
8678.31503782
8678.56328071
8678.8455052
8679.15174543
8679.4716458
8679.78895578
8680.09137856
8680.34965461
8680.53510315
8680.67276735
8680.66505355
8680.56766281
8680.23177605
6229.00879184
354.948113022
0.000633824681316
8682.32031448
8682.38711336
8682.52372382
8686.77972011
8691.14698281
8695.40432818
)
;
    }
    atmosphere
    {
        type            totalPressure;
        rho             rho;
        psi             none;
        gamma           1;
        p0              uniform 0;
        value           nonuniform List<scalar> 8(0 -6.52161117819e-05 -0.000526973451405 -0.000325673007216 -7.53396096911e-05 -0.000141226929723 0 0);
    }
    floatingObject
    {
        type            fixedFluxPressure;
        gradient        nonuniform List<scalar> 0();
        value           nonuniform List<scalar> 0();
    }
    procBoundary9to6
    {
        type            processor;
        value           nonuniform List<scalar> 4(8636.86338012 5627.13083781 185.694472561 0.0969107039469);
    }
    procBoundary9to7
    {
        type            processor;
        value           nonuniform List<scalar> 
16
(
8640.67962224
8640.63100076
8640.5218791
8640.35673733
8640.14038159
8639.87580727
8639.56664677
8639.21754636
8638.83280422
8638.41859138
8637.98584997
8637.55057432
8637.1285455
8636.74475618
8636.51831369
8636.50590615
)
;
    }
    procBoundary9to10
    {
        type            processor;
        value           nonuniform List<scalar> 
15
(
8682.72697198
8682.99073537
8683.30644213
8683.66373741
8684.05032538
8684.44866591
8684.84453809
8685.2034255
8686.86162819
8682.72697198
8687.03029747
8686.86162819
8691.2470071
8695.52198946
8699.52875588
)
;
    }
    procBoundary9to11
    {
        type            processor;
        value           nonuniform List<scalar> 9(8685.50391695 8685.69496072 8685.75287245 8685.61249819 8685.29333827 8684.48004156 6268.4484847 377.219197361 -0.00538954473462);
    }
}


// ************************************************************************* //
