/*--------------------------------*- C++ -*----------------------------------*\
| =========                 |                                                 |
| \\      /  F ield         | OpenFOAM: The Open Source CFD Toolbox           |
|  \\    /   O peration     | Version:  v2012                                 |
|   \\  /    A nd           | Website:  www.openfoam.com                      |
|    \\/     M anipulation  |                                                 |
\*---------------------------------------------------------------------------*/
FoamFile
{
    version     2.0;
    format      ascii;
    class       volVectorField;
    location    "5";
    object      U;
}
// * * * * * * * * * * * * * * * * * * * * * * * * * * * * * * * * * * * * * //

dimensions      [0 1 -1 0 0 0 0];


internalField   nonuniform List<vector> 
166
(
(-0.0371188971474 0.000531160797062 -3.71815219497e-22)
(-0.0380820049247 0.00152332224741 -2.31891864614e-22)
(-0.0392635384868 0.00251993525604 -1.09211757746e-22)
(-0.0402599908399 0.00352543445471 1.95178143315e-23)
(-0.0411039037733 0.00455880144472 1.94718523267e-23)
(-0.0419457198736 0.00564484829669 4.72430791878e-24)
(-0.0428900858774 0.00679638258641 -2.05880840855e-24)
(-0.0439836546451 0.0080244531269 -9.86389258165e-25)
(-0.0452481003719 0.00933769787029 5.48676566983e-24)
(-0.0466940418927 0.010738802044 3.2339990603e-24)
(-0.0483335922314 0.0121951160225 1.45917628276e-23)
(-0.0501793369525 0.0137446383864 3.59693562676e-23)
(-0.0522158139905 0.0153590939123 -4.46773793252e-23)
(-0.0544865435819 0.0168993149396 -3.05903389848e-22)
(-0.0572517844892 0.0181345820743 -1.276110628e-21)
(-0.0610141408142 0.0193390936499 7.25192329714e-22)
(-0.0650978131265 0.0195740278668 -3.99579872834e-21)
(-0.0659753143495 0.0189906452075 -8.75835484117e-21)
(-0.121725389907 0.0180646838279 9.48850444149e-21)
(-0.112632955428 0.226529453681 -1.07282518343e-20)
(-0.0380584942384 0.000455550175339 -3.88236841889e-22)
(-0.0390028533519 0.00128738922526 -2.28849612096e-22)
(-0.0401799095493 0.00212827707469 -1.02268957451e-22)
(-0.0411941929046 0.0029743667077 -2.29209130303e-24)
(-0.0420775950988 0.00384516411522 5.4162933119e-24)
(-0.0429780792163 0.0047651998978 -2.06787570875e-24)
(-0.0439921638015 0.00574716387141 2.17329692621e-24)
(-0.0451645387555 0.00679951863336 -2.63034363928e-24)
(-0.0465161861235 0.0079304000819 1.41876123386e-23)
(-0.0480493126792 0.00914229656243 1.53215399556e-23)
(-0.0497669486491 0.0103985302661 -1.36660748414e-23)
(-0.0516379861165 0.0117297339346 -5.54473664371e-23)
(-0.0536787833852 0.0131084495294 -2.14137027801e-22)
(-0.0558362440665 0.0143849569762 -7.91136348939e-22)
(-0.0582035966416 0.0152039676917 -1.11706360535e-21)
(-0.0612142596883 0.015835262467 -7.2422671166e-23)
(-0.0651111081679 0.0156651173925 -6.04725652856e-21)
(-0.0683227754007 0.0135915410787 -6.27898430957e-21)
(-0.142105039166 0.013696476137 -6.35317487533e-21)
(-0.269006575276 0.0228559976484 -2.4838747733e-20)
(-0.0388376236783 0.000375597965261 -3.71345518757e-22)
(-0.03976252717 0.00103447203762 -2.2978458494e-22)
(-0.0409324873166 0.00170900103146 -1.09798715466e-22)
(-0.0419642252294 0.00238450172727 -3.62930339419e-23)
(-0.0428845749674 0.00308108690492 -1.68505365241e-23)
(-0.0438391676807 0.0038245362724 -8.48043906907e-24)
(-0.0449166709071 0.00462770594395 -1.13043401395e-24)
(-0.0461611772196 0.00549378619585 4.52793445232e-24)
(-0.0475952447985 0.00643497406261 9.41856690913e-24)
(-0.0492086017823 0.00745445067013 1.09024111391e-23)
(-0.0509930953651 0.00853692428361 -2.54610155729e-23)
(-0.052912794756 0.00967877156084 -1.49365016458e-22)
(-0.0549436202319 0.0108647488035 -3.78716545692e-22)
(-0.0569570267614 0.0120087892033 -1.03257545507e-21)
(-0.0587927312397 0.0126090563199 -7.54724989128e-22)
(-0.060720983521 0.0130841392847 -1.25360358752e-21)
(-0.0636802152601 0.0126500830561 -7.03939063141e-21)
(-0.0714440738654 0.00970765669451 -9.925432737e-21)
(-0.141156855414 0.0143038882083 -1.87230951117e-20)
(-0.20988542738 -0.0221034898827 -4.43049197765e-21)
(-0.0394444003394 0.000288559218948 -3.92678671972e-22)
(-0.0403501806125 0.000765993711761 -2.44614101955e-22)
(-0.0415099774838 0.00126363055777 -1.50246247867e-22)
(-0.0425567304419 0.00175761783513 -7.15827190049e-23)
(-0.0435126608331 0.00226979356402 -3.9218731718e-23)
(-0.0445183690403 0.00282797586514 -1.52328500512e-23)
(-0.0456583903435 0.00344634128659 -6.10055137483e-24)
(-0.0469762360315 0.00412003184072 5.87942541725e-24)
(-0.0484814842284 0.00487228201333 2.45291383901e-23)
(-0.0501753749768 0.00571632219479 1.86488553398e-23)
(-0.0520331381122 0.00662807469535 -1.68673356784e-23)
(-0.054043945682 0.00761639242493 -1.89425980642e-22)
(-0.0560973193526 0.00866610252644 -5.19203944053e-22)
(-0.0580097441117 0.00977863990619 -1.48514380176e-21)
(-0.0594368273343 0.0103914442373 -1.9241740673e-21)
(-0.0604328740036 0.0115037040696 -4.67955302421e-22)
(-0.0623248088686 0.0115566752225 -5.74371810166e-21)
(-0.0735779706386 0.00951302350134 -1.11694291932e-20)
(-0.135896680346 0.0143689463505 -4.03769463286e-20)
(-0.157723183243 -0.0211588034077 -4.23204594779e-21)
(-0.0398690647145 0.000191994199225 -3.99892823249e-22)
(-0.0407518500274 0.000480823639165 -2.9815994333e-22)
(-0.0419018725258 0.000792796724664 -1.98299900898e-22)
(-0.0429610576318 0.00109145118363 -1.04109859996e-22)
(-0.0439560474943 0.0014091839234 -4.71104246458e-23)
(-0.0450055163728 0.00177094617803 -3.69726869971e-24)
(-0.0462102058478 0.00219203621411 -4.1739433546e-24)
(-0.0476018684598 0.00267566936197 5.92906968024e-24)
(-0.0491822960467 0.00323885475364 2.19195366791e-23)
(-0.0509648356706 0.0038990752743 1.47070885897e-23)
(-0.0529253379545 0.00463258163331 2.06725412392e-23)
(-0.0550284089908 0.00546908875998 -1.63933530178e-22)
(-0.057174268532 0.00642863025642 -6.59970768082e-22)
(-0.0591366543022 0.00756369264311 -2.17006961054e-21)
(-0.0604389741308 0.00823390615096 -3.61205004537e-21)
(-0.0609869911031 0.0101876851826 -6.22200787121e-23)
(-0.0622305835977 0.0109449959285 -7.61946015528e-21)
(-0.0730690504347 0.0101894825521 -1.50337425573e-20)
(-0.132224760195 0.0106984865282 -3.145986008e-20)
(-0.117973180843 -0.00729501351617 -8.07347727892e-21)
(-0.0400949292136 9.45799810492e-05 -3.73820640668e-22)
(-0.0409567221622 0.000181661447224 -2.46444990154e-22)
(-0.0420959304569 0.00029201400603 -1.702304892e-22)
(-0.0431640470277 0.000379727900471 -7.14280808297e-23)
(-0.0441910589844 0.000497637833404 -2.99454358642e-23)
(-0.0452921555243 0.000656331752908 -6.62166717053e-24)
(-0.0465573151681 0.000864586407636 -1.3402474816e-24)
(-0.0480208907986 0.00114288335407 -3.78253514401e-24)
(-0.0496886843815 0.00149908297311 -6.90837017847e-24)
(-0.0515720104142 0.00195556530599 -9.98742647143e-24)
(-0.0536454931591 0.00250954144826 -6.16145777523e-23)
(-0.0558704643977 0.00319070619177 -1.26623155013e-22)
(-0.0581595138997 0.00400900376155 -4.71391033815e-22)
(-0.0602933366584 0.00511235565529 -1.17454282172e-21)
(-0.0617313706368 0.00584009047968 -3.01112129574e-21)
(-0.0623620690233 0.00826979324548 -4.64256766378e-22)
(-0.0634025603217 0.00936159207166 -6.00941377959e-21)
(-0.0712288863248 0.00937101925046 -1.18879874163e-20)
(-0.130556930395 0.00847544612032 -1.5507778185e-20)
(-0.10121662643 0.00816141621897 -8.44056169435e-21)
(-0.0401215330138 -7.00002188843e-06 -2.42789098367e-22)
(-0.040954255348 -0.000139841287784 -1.11320985577e-22)
(-0.0420791027971 -0.000238319841463 -5.31186056756e-23)
(-0.0431529692977 -0.00036589184954 6.51434912141e-24)
(-0.0442063446769 -0.00046825623616 -7.58198368361e-24)
(-0.04536440379 -0.000526361177868 3.62040074319e-24)
(-0.0466928430561 -0.000533377234885 -3.46585938508e-24)
(-0.0482306233086 -0.000474516347235 7.61832972538e-24)
(-0.0499909844818 -0.000341846961689 6.15578215788e-24)
(-0.0519682660536 -9.83034800702e-05 9.70095321544e-24)
(-0.0541601161881 0.000257335872919 -6.70394152767e-23)
(-0.0565320375779 0.000749084221021 -8.38132069112e-23)
(-0.0590065718433 0.00138483238477 -2.97925753266e-22)
(-0.0613328552896 0.00235940528767 -8.52715047581e-22)
(-0.063106779903 0.00301182376489 -1.93187642081e-21)
(-0.0642859426935 0.00570660839371 -4.47260734123e-22)
(-0.0653828807521 0.00698059994917 -3.86854433951e-21)
(-0.0700084934758 0.00741497543171 -8.66482605911e-21)
(-0.134855600048 0.0070908830081 -1.53606771967e-20)
(-0.133565474121 0.0353059074887 -1.18575951344e-20)
(-0.0399257515696 -0.000124000231278 -9.90940574352e-23)
(-0.0407323289674 -0.000479566703193 2.02723341848e-23)
(-0.0418401482681 -0.000797936429849 6.72297487686e-23)
(-0.042921388243 -0.00114995101543 5.3294693559e-23)
(-0.0440048659784 -0.00148225312647 6.88707799272e-24)
(-0.0452077341089 -0.00177094439952 -3.69861262218e-24)
(-0.0466033625575 -0.0020052506705 -2.83938643266e-24)
(-0.0482209674002 -0.00217765822849 2.94836682401e-25)
(-0.050070174226 -0.00226778309155 4.07060640298e-23)
(-0.0521407713012 -0.00225316343327 2.80028506033e-23)
(-0.0544600563769 -0.00212405739177 -2.30698400964e-23)
(-0.05697835296 -0.00185457608438 -4.97732504128e-23)
(-0.0596377313395 -0.00143043817192 -3.08965499767e-22)
(-0.0621933582787 -0.000686332869846 -1.14925375451e-21)
(-0.0644736640664 -0.000237817589695 -1.67870784413e-21)
(-0.066208791285 0.00246647653177 -5.30880120177e-21)
(-0.0678189000868 0.00381857831939 -6.12367260769e-21)
(-0.0702617264368 0.00463094315369 -8.45472810841e-21)
(-0.147516502678 0.00665861567825 -8.29378243659e-21)
(-0.146346851748 0.0226642430329 -7.80834666194e-21)
(-0.0395041358848 -0.000235690142614 -1.30133370079e-23)
(-0.0402844095549 -0.000829657882991 7.28090393626e-23)
(-0.0413729693178 -0.00137846712498 8.66386696985e-23)
(-0.0388495261665 -0.000351000339086 4.3545875878e-23)
(-0.0379493587676 -0.000472723532406 6.45104305001e-23)
(-0.0367985667378 -0.000594938705389 2.92808488193e-22)
)
;

boundaryField
{
    back
    {
        type            noSlip;
    }
    sides
    {
        type            noSlip;
    }
    bottom
    {
        type            noSlip;
    }
    front
    {
        type            noSlip;
    }
    atmosphere
    {
        type            pressureInletOutletVelocity;
        value           nonuniform List<vector> 8((-0.112632955428 0.226529453681 -1.07282518343e-20) (-0.269006575276 0.0228559976484 -2.4838747733e-20) (0 -0.0221034898827 0) (0 -0.0211588034077 0) (0 -0.00729501351617 0) (-0.10121662643 0.00816141621897 -8.44056169435e-21) (-0.133565474121 0.0353059074887 -1.18575951344e-20) (-0.146346851748 0.0226642430329 -7.80834666194e-21));
    }
    floatingObject
    {
        type            movingWallVelocity;
        value           nonuniform List<vector> 0();
    }
    procBoundary9to6
    {
        type            processor;
        value           nonuniform List<vector> 4((-0.0637517639272 0.0235055263691 -9.95197142733e-21) (-0.0637834466924 0.0232747288023 -1.04072695934e-20) (-0.0885389860202 0.0241463320653 2.1144352447e-20) (0.136046132916 0.0902165813364 4.4468672258e-20));
    }
    procBoundary9to7
    {
        type            processor;
        value           nonuniform List<vector> 
16
(
(-0.0360270982154 0.000602374311709 -3.19732778483e-22)
(-0.0370098869596 0.00174380622308 -2.08220746953e-22)
(-0.0381944164147 0.00288572467069 -9.97920964859e-23)
(-0.0391708534994 0.00404067066445 2.20255098835e-23)
(-0.0399723042721 0.00522364896847 1.52724957473e-23)
(-0.040753245729 0.00646175483086 3.36699900625e-24)
(-0.0416231677411 0.00777069957144 -6.11344215759e-24)
(-0.0426316479841 0.00916083550795 -4.94988355708e-24)
(-0.0438021759908 0.010643963458 2.6463693301e-24)
(-0.0451502104966 0.0122265979478 -7.44896071439e-24)
(-0.0466954676064 0.0138921639749 4.23024660497e-23)
(-0.0484815615655 0.0156664179396 9.12080863184e-23)
(-0.0504744211773 0.0175390658703 1.04334773322e-22)
(-0.0528004312983 0.019434379754 -1.08079278391e-22)
(-0.0558104004732 0.0212246801835 -1.56111047241e-21)
(-0.0599601089506 0.0232010797805 5.60723220674e-22)
)
;
    }
    procBoundary9to10
    {
        type            processor;
        value           nonuniform List<vector> 
15
(
(-0.042458624325 -0.00196688303551 4.86602559408e-23)
(-0.0435689758468 -0.00253787415252 -3.50128695885e-24)
(-0.0448142708876 -0.0030700979354 -8.03901519209e-24)
(-0.0462683461473 -0.00354992331717 2.55915661976e-24)
(-0.0479622207963 -0.00396252873504 3.32641752851e-23)
(-0.0499026184481 -0.00428938085975 6.65932374166e-23)
(-0.0520862037269 -0.00452541555629 2.12160298761e-23)
(-0.0545257824053 -0.00464890007703 -1.0249855006e-23)
(-0.0396010169195 -0.00119248297168 4.86408144799e-23)
(-0.042458624325 -0.00196688303551 4.86602559408e-23)
(-0.0406675997168 -0.00197771476072 6.31292612111e-23)
(-0.0396010169195 -0.00119248297168 4.86408144799e-23)
(-0.0386726705631 -0.00156647800956 1.55852547198e-22)
(-0.0374916058664 -0.0019460733158 2.50368251689e-22)
(-0.0353950382521 -0.000713903704809 4.50506713495e-22)
)
;
    }
    procBoundary9to11
    {
        type            processor;
        value           nonuniform List<vector> 9((-0.0571873036882 -0.00462847105931 -8.21349735291e-23) (-0.0600161601673 -0.00444824687985 -3.65755057767e-22) (-0.0628414982 -0.00402759917129 -1.3639700443e-21) (-0.0655842093697 -0.00360302011872 -4.48645560195e-21) (-0.0679149646081 -0.00132355219313 -4.49269705313e-21) (-0.0697400695585 -0.000737804787335 -6.29444135054e-21) (-0.0713020150251 0.000603023904671 -1.00592765257e-20) (-0.160929973459 0.0019917801554 -1.62278363344e-20) (-0.12027003773 0.012325354412 -3.70250419117e-21));
    }
}


// ************************************************************************* //
