/*--------------------------------*- C++ -*----------------------------------*\
| =========                 |                                                 |
| \\      /  F ield         | OpenFOAM: The Open Source CFD Toolbox           |
|  \\    /   O peration     | Version:  v2012                                 |
|   \\  /    A nd           | Website:  www.openfoam.com                      |
|    \\/     M anipulation  |                                                 |
\*---------------------------------------------------------------------------*/
FoamFile
{
    version     2.0;
    format      ascii;
    class       surfaceScalarField;
    location    "1.7";
    object      alphaPhi0.water;
}
// * * * * * * * * * * * * * * * * * * * * * * * * * * * * * * * * * * * * * //

dimensions      [0 3 -1 0 0 0 0];
oriented        oriented;


internalField   nonuniform List<scalar> 
300
(
-2.51958877929e-06
-2.23909360407e-05
-4.75403872611e-06
-4.49235192772e-05
-6.80654655937e-06
-5.46414317623e-05
-9.21347678808e-06
-5.98708024963e-05
-1.19447372517e-05
-6.47479006557e-05
-1.52330125227e-05
-7.04258285652e-05
-1.91764412333e-05
-7.74272768738e-05
-8.58554038085e-05
-3.42928729833e-06
-1.89618034916e-05
-6.64368385692e-06
-4.17093117077e-05
-1.00024502621e-05
-5.12828803345e-05
-1.36425823372e-05
-5.62309142539e-05
-1.76980452933e-05
-6.06926716292e-05
-2.22992052147e-05
-6.58248455136e-05
-2.7686871337e-05
-7.20397028335e-05
-3.40386204129e-05
-7.95036663847e-05
-4.17670749802e-05
-8.80449368027e-05
-5.12905158576e-05
-9.76668841589e-05
-0.000108167896301
-4.26206046515e-06
-1.46999264381e-05
-8.46158265978e-06
-3.75100079344e-05
-1.28573557959e-05
-4.68873565321e-05
-1.75807354931e-05
-5.15078041428e-05
-2.28075296023e-05
-5.54661271995e-05
-2.85842758824e-05
-6.00483123536e-05
-3.50844008287e-05
-6.55397640521e-05
-4.2661281392e-05
-7.19269034282e-05
-5.14408812144e-05
-7.92654023528e-05
-6.17875944706e-05
-8.73201959918e-05
-7.42187950295e-05
-9.57368452314e-05
-8.91372654997e-05
-0.000104028719329
-0.000111423884596
-5.01533448137e-06
-9.68480011728e-06
-1.00988333924e-05
-3.24267622927e-05
-1.54377892103e-05
-4.15486717079e-05
-2.11607117003e-05
-4.5785163463e-05
-2.73318598749e-05
-4.92952545484e-05
-3.41125121614e-05
-5.32679287147e-05
-4.16419191065e-05
-5.80105904132e-05
-5.00517253422e-05
-6.35172798283e-05
-5.95650512582e-05
-6.97522178462e-05
-7.03483571062e-05
-7.65370011545e-05
-8.25307156369e-05
-8.35546469748e-05
-9.62246174846e-05
-9.03351693006e-05
-0.000111865746971
-9.57833000211e-05
-9.85702650518e-05
-5.6794780348e-06
-4.00556572903e-06
-1.15206618808e-05
-2.65858290375e-05
-1.76792354336e-05
-3.53903649842e-05
-2.42413792527e-05
-3.92232953422e-05
-3.12688126209e-05
-4.22681212223e-05
-3.88807199843e-05
-4.5656326387e-05
-4.72038582355e-05
-4.96877035288e-05
-5.63411281454e-05
-5.43802198528e-05
-6.64031130608e-05
-5.96904114248e-05
-7.74256851803e-05
-6.55145656176e-05
-8.93504345702e-05
-7.16300423603e-05
-0.000101879334045
-7.78065495744e-05
-0.000114096732575
-8.35663245488e-05
-8.85217072874e-05
-6.23809545797e-06
2.23227494934e-06
-1.27201046155e-05
-2.01041220887e-05
-1.96152220513e-05
-2.84955729452e-05
-2.68680728023e-05
-3.19707731484e-05
-3.46058217706e-05
-3.45307106224e-05
-4.29205195948e-05
-3.73419032023e-05
-5.19188183522e-05
-4.06896662825e-05
-6.16839909263e-05
-4.46152587361e-05
-7.22645948247e-05
-4.91099860949e-05
-8.36211864519e-05
-5.41581003015e-05
-9.55951213202e-05
-5.96562187313e-05
-0.000107737410374
-6.56644441616e-05
-0.000119191373396
-7.21126174004e-05
-7.9133733957e-05
-6.67071326621e-06
8.90272128338e-06
-1.37158743458e-05
-1.30592707738e-05
-2.11792226521e-05
-2.10325522388e-05
-2.90243430566e-05
-2.41259843119e-05
-3.73556566992e-05
-2.61997152152e-05
-4.62683831059e-05
-2.84294571546e-05
-5.58598139168e-05
-3.10984825528e-05
-6.6203599915e-05
-3.42716743979e-05
-7.73392429052e-05
-3.79745020832e-05
-8.92544137249e-05
-4.22430262069e-05
-0.000101661032865
-4.72496633521e-05
-0.000114360505364
-5.29650526915e-05
-0.00012657371818
-5.98994924938e-05
-6.84088529644e-05
-6.96655890783e-06
1.58689991773e-05
-1.45033533152e-05
-5.52278901492e-06
-2.23877718651e-05
-1.31484570671e-05
-3.07105263756e-05
-1.58035529812e-05
-3.95275802953e-05
-1.73829624383e-05
-4.89386086109e-05
-1.90187001216e-05
-5.90399781288e-05
-2.09973381336e-05
-6.99238038102e-05
-2.33880361106e-05
-8.16320732114e-05
-2.62663687305e-05
-9.41420975195e-05
-2.97330691175e-05
-0.000107443532727
-3.39482496192e-05
-0.000121198125908
-3.92104566238e-05
-0.000135095275576
-4.60022954246e-05
-5.48778731263e-05
-7.39228735797e-06
2.32609977875e-05
-1.50791822996e-05
2.16379414191e-06
-2.32748664848e-05
-4.95309146141e-06
-3.19367184494e-05
-7.14201338381e-06
-4.11235672364e-05
-8.19639550996e-06
-5.09174171727e-05
-9.22512146741e-06
-6.14461109379e-05
-1.04688571355e-05
-7.28033937328e-05
-1.2030933117e-05
-8.50896675187e-05
-1.39802168727e-05
-9.83713110599e-05
-1.64514795301e-05
-0.000112664437899
-1.96551248173e-05
-0.000127950328473
-2.39245186097e-05
-0.000144232560188
-2.9719983993e-05
-3.77505959814e-05
-7.40921154161e-06
3.06698721946e-05
-1.53522657638e-05
1.01065021941e-05
-2.37923077585e-05
3.48660331505e-06
-3.26830470949e-05
1.7483891483e-06
-4.21042012133e-05
1.22444081167e-06
-5.21708305598e-05
8.41224886488e-07
-6.2999446298e-05
3.59496556023e-07
-7.47444753311e-05
-2.86122099593e-07
-8.75272513311e-05
-1.1975937104e-06
-0.000101515688395
-2.46313404044e-06
-0.000116838808778
-4.33203905925e-06
-0.000133712676352
-7.05063437057e-06
-0.000152363745036
-1.10688307935e-05
-0.000173208595629
-1.69054978704e-05
-0.000197205407766
-2.45114043107e-05
-3.57825549341e-05
-7.42893896891e-06
3.80984137212e-05
-1.54260296159e-05
1.81031848254e-05
-2.39893219943e-05
1.20494894495e-05
-3.29535821364e-05
1.0712251562e-05
-4.24668644735e-05
1.07373393803e-05
-5.26508272194e-05
1.10248268834e-05
-6.36524704944e-05
1.13608088688e-05
-7.56178545684e-05
1.16789755498e-05
-8.87692228258e-05
1.19535444197e-05
-0.000103288311808
1.20557912086e-05
-0.000119466463167
1.18460174153e-05
-0.000137638196101
1.11210676559e-05
-0.000158266140147
9.55915420624e-06
-0.000182162376292
6.99099984195e-06
-0.000210771869188
4.09808880733e-06
-9.3957225109e-07
-7.38958747293e-06
-1.53652919457e-05
-2.38102251228e-05
-3.27410441744e-05
-4.2212386052e-05
-5.23744503348e-05
-6.33826083529e-05
-7.53975711041e-05
-8.86999014966e-05
-0.000103523130841
-0.000120207378848
-0.000139185182308
-0.000161046466384
-0.000186905771223
-0.000218110195982
)
;

boundaryField
{
    back
    {
        type            calculated;
        value           uniform 0;
    }
    sides
    {
        type            calculated;
        value           nonuniform List<scalar> 0();
    }
    bottom
    {
        type            calculated;
        value           uniform 0;
    }
    front
    {
        type            calculated;
        value           uniform 0;
    }
    atmosphere
    {
        type            calculated;
        value           nonuniform List<scalar> 0();
    }
    floatingObject
    {
        type            calculated;
        value           nonuniform List<scalar> 0();
    }
    procBoundary7to6
    {
        type            processor;
        value           nonuniform List<scalar> 
11
(
-0.000126116229023
-0.000124145722161
-0.000128579555164
-0.000137298601599
-0.000148626125018
-0.000161359634852
4.85082259739e-05
6.41484282692e-05
-0.000225571282107
-0.00024561485178
-0.000256910974326
)
;
    }
    procBoundary7to8
    {
        type            processor;
        value           nonuniform List<scalar> 
17
(
2.4910355145e-05
4.71577442277e-05
5.66936617913e-05
6.22774367527e-05
6.74788511391e-05
7.37139024764e-05
8.13706614354e-05
9.07310593743e-05
-2.40519010878e-05
9.57735765143e-05
0.000107190642819
0.000120269632977
-6.33920346475e-05
0.000118946928878
0.00013045756283
-0.000108171817203
0.000112819610779
)
;
    }
    procBoundary7to9
    {
        type            processor;
        value           nonuniform List<scalar> 
16
(
4.54875904167e-05
2.607846277e-05
2.04939941875e-05
1.96426454939e-05
2.02082699957e-05
2.11864956195e-05
2.23685976282e-05
2.36936041146e-05
2.52555927652e-05
2.68788058441e-05
2.85301252578e-05
3.00988015303e-05
3.14204419051e-05
3.28505546133e-05
3.53025135155e-05
3.78612694653e-05
)
;
    }
}


// ************************************************************************* //
