/*--------------------------------*- C++ -*----------------------------------*\
| =========                 |                                                 |
| \\      /  F ield         | OpenFOAM: The Open Source CFD Toolbox           |
|  \\    /   O peration     | Version:  v2012                                 |
|   \\  /    A nd           | Website:  www.openfoam.com                      |
|    \\/     M anipulation  |                                                 |
\*---------------------------------------------------------------------------*/
FoamFile
{
    version     2.0;
    format      ascii;
    class       volScalarField;
    location    "1.7";
    object      nut;
}
// * * * * * * * * * * * * * * * * * * * * * * * * * * * * * * * * * * * * * //

dimensions      [0 2 -1 0 0 0 0];


internalField   nonuniform List<scalar> 
164
(
0.000736838588556
0.0010915502077
0.00112258207328
0.00113321197429
0.00113721440583
0.00113929271432
0.00114097552288
0.00114271896774
0.000737756607729
0.00109309605869
0.00112388033456
0.00113418663835
0.00113793888647
0.00113983695894
0.00114137108632
0.00114297004545
0.00114474252063
0.00114671196066
0.00114888907943
0.000738502603834
0.00109437453409
0.00112491308426
0.0011349162088
0.00113844234779
0.00114018251759
0.0011415873944
0.00114305984103
0.0011446985076
0.00114652539348
0.00114855147803
0.00115082411122
0.00115358651994
0.000739090941675
0.00109540035738
0.0011256988816
0.00113542083737
0.00113874497826
0.00114034782949
0.0011416410561
0.00114300331047
0.00114452490636
0.00114622541734
0.0011481184974
0.00115026918511
0.00115297955079
0.00115746553951
0.000739536177717
0.00109618965496
0.00112625624422
0.00113572057457
0.0011388666804
0.00114035091473
0.00114154792527
0.0011428149518
0.00114423385729
0.00114582303367
0.00114759990009
0.00114965007779
0.00115236384705
0.00115732358048
0.000739852898378
0.00109676025067
0.00112660431951
0.0011358355615
0.00113882617542
0.00114020910115
0.00114132383774
0.00114250846956
0.00114383786125
0.00114532949555
0.00114700604435
0.00114897972416
0.00115175421262
0.00115731334621
0.000740068381687
0.00109713052628
0.00112676199249
0.00113578486765
0.00113864130864
0.00113993859271
0.00114098352963
0.00114209731505
0.00114334911309
0.00114475600195
0.00114634772165
0.00114826707183
0.00115114391352
0.00115736226061
0.000740188598943
0.00109731791946
0.00112674800274
0.00113558636886
0.00113832872972
0.00113955457772
0.00114054096834
0.00114159452363
0.0011427798098
0.00114411418681
0.00114563560241
0.00114752165823
0.00115053251409
0.00115742700949
0.000740225867207
0.00109734149979
0.00112657993844
0.00113525699027
0.00113790406773
0.0011390713954
0.00114000938564
0.00114101243499
0.00114214173658
0.00114341544005
0.00114488093341
0.00114675541428
0.00114993289384
0.0011575314267
0.000740192275466
0.00109722201093
0.00112627351207
0.00113481213265
0.00113738158409
0.00113850203352
0.00113940064611
0.00114036210862
0.00114144509847
0.00114266930536
0.00114409302338
0.00114597580614
0.00114934847322
0.00115765737776
0.00118067943589
0.00124324361955
0.000740107106866
0.00109697396356
0.00112584421989
0.00113426530841
0.00113677314985
0.00113785686552
0.00113872400047
0.00113965178394
0.00114069722113
0.00114188250854
0.00114327786398
0.0011451894973
0.00114878923531
0.00115783643162
0.00118249727681
0.00124708770255
0.000739983749649
0.00109660849968
0.00112530718022
0.00113363049304
0.00113609070912
0.00113714648941
0.00113798925527
0.00113889067983
0.00113990673257
0.00114106280941
0.00114244253271
0.00114440295353
0.0011482615506
0.00115809060384
0.00118441102393
0.00125101538662
)
;

boundaryField
{
    back
    {
        type            nutkWallFunction;
        blending        stepwise;
        Cmu             0.09;
        kappa           0.41;
        E               9.8;
        value           nonuniform List<scalar> 
164
(
9.83141634767e-05
0.000108133864166
0.000110914312529
0.000111863068363
0.000112219747963
0.000112405471554
0.000112556423475
0.000112712990629
9.84267271001e-05
0.000108276669646
0.000111033784783
0.000111952812126
0.00011228665108
0.000112455962802
0.000112593352035
0.000112736725206
0.000112895610926
0.000113071936479
0.000113266462727
9.85184374724e-05
0.000108395130503
0.000111129236185
0.000112020378286
0.000112333565612
0.000112488470211
0.000112614051374
0.00011274587265
0.000112892551561
0.000113055931177
0.000113236868606
0.000113439144105
0.00011368224013
9.85910490854e-05
0.00010849063494
0.000111202293447
0.000112067568082
0.000112362283181
0.000112504633314
0.000112619986889
0.000112741720438
0.000112877699834
0.000113029592793
0.00011319850023
0.000113389680364
0.000113627807509
0.000114012387157
9.86463452316e-05
0.000108564623901
0.000111254614686
0.000112096169931
0.000112374566814
0.000112506041315
0.000112612547284
0.000112725517397
0.000112852076614
0.000112993798767
0.000113152097251
0.00011333395036
0.000113571347205
0.000113994946083
9.86859057721e-05
0.000108618684319
0.000111287895157
0.000112107959606
0.000112372065565
0.000112494209004
0.000112593106401
0.000112698453709
0.000112816752449
0.000112949494374
0.000113098499875
0.000113272891032
0.000113513954594
0.000113986141096
9.87116239702e-05
0.000108654432053
0.000111303797757
0.00011210460422
0.000112356333032
0.000112470543289
0.000112562943602
0.00011266169704
0.000112772788953
0.000112897655722
0.000113038668406
0.000113207369853
0.000113455400924
0.000113980763328
9.87249290742e-05
0.000108673347146
0.000111303926964
0.000112087638531
0.000112328797443
0.000112436349839
0.000112523266523
0.000112616383642
0.000112721261965
0.000112839326816
0.00011297359151
0.000113138365152
0.000113395973013
0.00011397573209
9.87272513718e-05
0.000108676819055
0.000111289714757
0.000112058472138
0.000112290773275
0.000112392850064
0.000112475217185
0.000112563591442
0.000112663216717
0.000112775545585
0.000112904324717
0.000113067050108
0.000113337013087
0.000113973498309
9.87206975922e-05
0.000108666356441
0.000111262365608
0.000112018352346
0.000112243454235
0.000112341154698
0.000112419828024
0.000112504298102
0.000112599572493
0.000112707195055
0.000112831774171
0.000112994234806
0.00011327919618
0.000113973601562
0.000115892143142
0.000121055164626
9.87077628915e-05
0.000108643175278
0.000111223051218
0.000111968394116
0.000112187885673
0.000112282218453
0.00011235798769
0.000112439335977
0.000112531100819
0.000112635018799
0.000112756644513
0.000112920735768
0.000113223739191
0.000113979286531
0.000116036051734
0.000121365985717
9.86904374291e-05
0.000108608460427
0.00011117312256
0.000111909766185
0.000112125040012
0.000112216883811
0.000112290451734
0.000112369397909
0.000112458451877
0.000112559606918
0.000112679507927
0.000112847165763
0.00011317143711
0.000113993093691
0.00011619344973
0.000121704278472
)
;
    }
    sides
    {
        type            nutkWallFunction;
        blending        stepwise;
        Cmu             0.09;
        kappa           0.41;
        E               9.8;
        value           nonuniform List<scalar> 0();
    }
    bottom
    {
        type            nutkWallFunction;
        blending        stepwise;
        Cmu             0.09;
        kappa           0.41;
        E               9.8;
        value           nonuniform List<scalar> 
12
(
5.2322653548e-05
5.23825985842e-05
5.24314380463e-05
5.24701064543e-05
5.24995536103e-05
5.25206209374e-05
5.2534316721e-05
5.25414021166e-05
5.25426388142e-05
5.25391487171e-05
5.25322605715e-05
5.25230341951e-05
)
;
    }
    front
    {
        type            nutkWallFunction;
        blending        stepwise;
        Cmu             0.09;
        kappa           0.41;
        E               9.8;
        value           nonuniform List<scalar> 
164
(
9.83141634767e-05
0.000108133864166
0.000110914312529
0.000111863068363
0.000112219747963
0.000112405471554
0.000112556423475
0.000112712990629
9.84267271001e-05
0.000108276669646
0.000111033784783
0.000111952812126
0.00011228665108
0.000112455962802
0.000112593352035
0.000112736725206
0.000112895610926
0.000113071936479
0.000113266462727
9.85184374724e-05
0.000108395130503
0.000111129236185
0.000112020378286
0.000112333565612
0.000112488470211
0.000112614051374
0.00011274587265
0.000112892551561
0.000113055931177
0.000113236868606
0.000113439144105
0.00011368224013
9.85910490854e-05
0.00010849063494
0.000111202293447
0.000112067568082
0.000112362283181
0.000112504633314
0.000112619986889
0.000112741720438
0.000112877699834
0.000113029592793
0.00011319850023
0.000113389680364
0.000113627807509
0.000114012387157
9.86463452316e-05
0.000108564623901
0.000111254614686
0.000112096169931
0.000112374566814
0.000112506041315
0.000112612547284
0.000112725517397
0.000112852076614
0.000112993798767
0.000113152097251
0.00011333395036
0.000113571347205
0.000113994946083
9.86859057721e-05
0.000108618684319
0.000111287895157
0.000112107959606
0.000112372065565
0.000112494209004
0.000112593106401
0.000112698453709
0.000112816752449
0.000112949494374
0.000113098499875
0.000113272891032
0.000113513954594
0.000113986141096
9.87116239702e-05
0.000108654432053
0.000111303797757
0.00011210460422
0.000112356333032
0.000112470543289
0.000112562943602
0.00011266169704
0.000112772788953
0.000112897655722
0.000113038668406
0.000113207369853
0.000113455400924
0.000113980763328
9.87249290742e-05
0.000108673347146
0.000111303926964
0.000112087638531
0.000112328797443
0.000112436349839
0.000112523266523
0.000112616383642
0.000112721261965
0.000112839326816
0.00011297359151
0.000113138365152
0.000113395973013
0.00011397573209
9.87272513718e-05
0.000108676819055
0.000111289714757
0.000112058472138
0.000112290773275
0.000112392850064
0.000112475217185
0.000112563591442
0.000112663216717
0.000112775545585
0.000112904324717
0.000113067050108
0.000113337013087
0.000113973498309
9.87206975922e-05
0.000108666356441
0.000111262365608
0.000112018352346
0.000112243454235
0.000112341154698
0.000112419828024
0.000112504298102
0.000112599572493
0.000112707195055
0.000112831774171
0.000112994234806
0.00011327919618
0.000113973601562
0.000115892143142
0.000121055164626
9.87077628915e-05
0.000108643175278
0.000111223051218
0.000111968394116
0.000112187885673
0.000112282218453
0.00011235798769
0.000112439335977
0.000112531100819
0.000112635018799
0.000112756644513
0.000112920735768
0.000113223739191
0.000113979286531
0.000116036051734
0.000121365985717
9.86904374291e-05
0.000108608460427
0.00011117312256
0.000111909766185
0.000112125040012
0.000112216883811
0.000112290451734
0.000112369397909
0.000112458451877
0.000112559606918
0.000112679507927
0.000112847165763
0.00011317143711
0.000113993093691
0.00011619344973
0.000121704278472
)
;
    }
    atmosphere
    {
        type            calculated;
        value           nonuniform List<scalar> 0();
    }
    floatingObject
    {
        type            nutkWallFunction;
        blending        stepwise;
        Cmu             0.09;
        kappa           0.41;
        E               9.8;
        value           nonuniform List<scalar> 0();
    }
    procBoundary7to6
    {
        type            processor;
        value           nonuniform List<scalar> 
11
(
0.00116852960006
0.00117024423954
0.0011724888918
0.00117476858525
0.00117686291937
0.00117887174291
0.00117887174291
0.00123909305274
0.0014043445508
0.00140811507038
0.00141158583672
)
;
    }
    procBoundary7to8
    {
        type            processor;
        value           nonuniform List<scalar> 
17
(
0.000735732721528
0.00108972083374
0.00112099999271
0.00113197023046
0.00113624631997
0.00113852801687
0.00114038125216
0.00114229049707
0.00114464413041
0.00114464413041
0.00114677460163
0.00114911945743
0.00115130839188
0.00115130839188
0.00115417117278
0.00115774569935
0.00115774569935
)
;
    }
    procBoundary7to9
    {
        type            processor;
        value           nonuniform List<scalar> 
16
(
0.000739772639928
0.0010961332117
0.00112468203386
0.00113292192894
0.00113534342427
0.00113637760216
0.00113720213758
0.00113808390288
0.0011390783448
0.00114021440712
0.00114159042692
0.00114361652863
0.00114775846108
0.00115840135862
0.001186374696
0.00125466333827
)
;
    }
}


// ************************************************************************* //
