/*--------------------------------*- C++ -*----------------------------------*\
| =========                 |                                                 |
| \\      /  F ield         | OpenFOAM: The Open Source CFD Toolbox           |
|  \\    /   O peration     | Version:  v2012                                 |
|   \\  /    A nd           | Website:  www.openfoam.com                      |
|    \\/     M anipulation  |                                                 |
\*---------------------------------------------------------------------------*/
FoamFile
{
    version     2.0;
    format      ascii;
    class       volVectorField;
    location    "3.8";
    object      ddtCorrDdt0(U);
}
// * * * * * * * * * * * * * * * * * * * * * * * * * * * * * * * * * * * * * //

dimensions      [0 1 -2 0 0 0 0];


internalField   nonuniform List<vector> 
166
(
(-0.147723898158 0.0497132694261 -2.45693262049e-24)
(-0.1502317173 0.0574688724772 1.19578048819e-24)
(-0.152705486392 0.0656653666641 -7.39264395164e-24)
(-0.154967398532 0.074339940957 -3.62313824574e-24)
(-0.156812451256 0.0834739307317 -8.37758426923e-23)
(-0.157691948348 0.0930351335505 -4.73502555296e-23)
(-0.156978983571 0.102865059625 -1.70174846283e-22)
(-0.153391976886 0.11260345641 -1.70649245181e-21)
(-0.138348587453 0.127138923037 4.35270267436e-21)
(-0.12554818628 0.122310703361 8.83633186841e-21)
(-0.127816233848 0.117555782007 -8.20499792552e-22)
(-0.171638242858 0.166343620699 9.44755988095e-22)
(0.105854130959 0.17618431034 -3.41710604704e-21)
(-0.149919426313 0.0331002783463 7.81561340162e-24)
(-0.152441786101 0.0398781095314 7.39759567042e-24)
(-0.155242817485 0.047077100398 6.28068612296e-24)
(-0.15821150795 0.0547735418482 -1.16017019626e-24)
(-0.161226759209 0.0630651147104 -3.09238940018e-25)
(-0.164107638556 0.0720620174957 -2.16039572511e-25)
(-0.166593546258 0.0818872829402 -7.84441556564e-23)
(-0.168244534887 0.0927121769572 -4.37289131797e-23)
(-0.168409752504 0.104752479633 -4.09236796576e-22)
(-0.165771955644 0.118345923182 5.69629336967e-21)
(-0.158194845886 0.135053714611 3.62806383177e-21)
(-0.139547370884 0.133595185792 -5.22308519901e-21)
(-0.134324488142 0.13196923508 9.13830237315e-21)
(-0.276049696068 0.20453756789 3.51101489331e-21)
(0.168373568447 0.289268539954 -1.42685371186e-20)
(-0.14834861276 0.00281003970976 2.03107339698e-23)
(-0.149324035615 0.00783477350367 -6.60781789691e-23)
(-0.153876959693 0.0245265221569 3.57151043359e-23)
(-0.1563614094 0.0305746981471 1.83519463647e-24)
(-0.159271281895 0.0370178752672 8.82965275727e-25)
(-0.162553968099 0.043951423516 9.92706288962e-25)
(-0.16613016773 0.0514935825499 4.29744491632e-23)
(-0.169884293216 0.0597797595853 -5.63478775063e-24)
(-0.173654864405 0.0689840500517 3.27038478209e-23)
(-0.177218593037 0.0793325583193 -6.13601777689e-24)
(-0.180221918206 0.0911220562921 7.60270677505e-23)
(-0.182159779777 0.104696427465 1.82474604487e-22)
(-0.182038373399 0.120542798074 -1.1046851836e-21)
(-0.177995152626 0.139625239753 -1.46365674811e-21)
(-0.159692467914 0.146081178948 -2.93502449837e-20)
(-0.149639318857 0.150831725057 -3.7628437926e-22)
(-0.470133399465 0.249001241015 -2.53211158865e-20)
(0.180183403284 0.531661164177 -2.11023698091e-19)
(-0.153167381531 0.00257895019086 -2.37834099602e-23)
(-0.154355367956 0.00703490896031 -1.01541390983e-22)
(-0.15554551492 0.0118630339572 -2.10333223565e-23)
(-0.157259172688 0.0168538330827 1.07276854517e-23)
(-0.159523219131 0.0220975639425 2.00471632015e-23)
(-0.162346106698 0.0276636203786 1.31538904871e-23)
(-0.165706052248 0.0336650584379 1.1775720434e-23)
(-0.169562044205 0.0402151232715 -8.32597122791e-23)
(-0.173859198663 0.0474564135041 7.96962515715e-23)
(-0.178520215961 0.0555663311111 5.43205246117e-23)
(-0.183422919775 0.06476363083 -9.47841956328e-23)
(-0.188405355127 0.0753416413783 1.01762749944e-22)
(-0.193191466196 0.0876858511483 5.63328994049e-23)
(-0.19737893104 0.102162371883 -1.54786214715e-22)
(-0.199926232308 0.119502148532 -2.27642198104e-21)
(-0.198812998006 0.139725885687 1.13817092558e-20)
(-0.191499982016 0.156602124145 -4.1068128338e-20)
(-0.197591389626 0.169905198655 -1.0281064031e-20)
(-0.61971063536 0.304557995037 -6.9635734136e-20)
(-0.180119465681 0.293242014753 -1.25428530663e-19)
(-0.157533218194 0.00218230030711 5.55765236636e-23)
(-0.158821594359 0.00597854831857 -1.17764575045e-22)
(-0.160144399951 0.010288360501 2.8386280103e-23)
(-0.1620545891 0.0146934860896 3.44568372586e-23)
(-0.164596119266 0.0193456783241 5.83534415025e-23)
(-0.167790321835 0.0243356309336 -3.50518663996e-23)
(-0.171639880538 0.0297762220241 2.71904133843e-23)
(-0.176122595979 0.0357945290321 1.48463193658e-24)
(-0.181219322136 0.0425465648016 3.86765694391e-23)
(-0.18690064857 0.0502364081469 6.52135823568e-23)
(-0.19311983938 0.0591263173879 -6.4092027386e-23)
(-0.199784657957 0.0695694322401 -1.18963069774e-24)
(-0.206714350748 0.0820451470803 4.78467490592e-23)
(-0.213605615971 0.0971232329107 6.1228676999e-22)
(-0.21934834816 0.115884592283 -1.67854064935e-22)
(-0.222398488576 0.139721426223 9.8554109405e-21)
(-0.228829007468 0.163843503787 1.83101803592e-20)
(-0.252174075101 0.175537157148 1.27047318381e-20)
(-0.721980231052 0.110546883164 1.09772895339e-20)
(-0.259935205905 1.18601484128 -1.7491283939e-19)
(-0.161391064506 0.00188699561948 2.05766057557e-22)
(-0.162674152907 0.00498309346267 -1.65976235666e-25)
(-0.164087164378 0.00857603729005 2.29706048942e-23)
(-0.166191084443 0.0122937473333 3.38591283384e-23)
(-0.169019807603 0.0162668244939 1.1407861064e-22)
(-0.172587480526 0.0205707748849 6.07256218769e-23)
(-0.176931197897 0.0253137886667 4.13447235859e-24)
(-0.182061914797 0.0306330034783 -5.15784425831e-23)
(-0.187999747531 0.0366839499738 9.75694400679e-23)
(-0.194759087186 0.0436757421322 1.14171709716e-24)
(-0.202386963659 0.0518909000582 -1.57929079959e-22)
(-0.21089976025 0.0617279385499 2.70597471796e-22)
(-0.220250654771 0.073723896043 -4.11284635485e-23)
(-0.230321132823 0.0886783033049 5.00527267883e-22)
(-0.240515700828 0.107413003402 -3.29498519714e-21)
(-0.249786861571 0.132801753377 6.3846934733e-21)
(-0.266813262264 0.168020880326 3.53989207324e-20)
(-0.293890834693 0.179120923526 7.91036494109e-21)
(-0.747787425311 0.0567127432288 -1.98054898246e-19)
(-0.300277257528 -0.375224688538 -2.19787411269e-19)
(-0.164357594207 0.00153252953018 1.93813940647e-22)
(-0.165766754444 0.00388152823974 1.05765487155e-23)
(-0.16729599118 0.00670812323546 -7.5375333019e-23)
(-0.169574401859 0.0096465651818 -1.08238696507e-23)
(-0.17263928556 0.0128521858806 1.01288428748e-22)
(-0.176596055268 0.0163739283163 9.8776111879e-24)
(-0.181423776631 0.0202789100676 -3.30048637718e-25)
(-0.187186673405 0.0247161092302 9.32979940649e-23)
(-0.193966908063 0.0298467075148 9.1092178244e-23)
(-0.201780123295 0.0358516122606 9.81551300872e-23)
(-0.210820465151 0.0429863383906 3.3706791868e-24)
(-0.221203496096 0.0516713212997 1.56187459094e-22)
(-0.233060373004 0.0624503218997 8.25267385553e-23)
(-0.246563249086 0.0760860911146 1.36800012597e-22)
(-0.261740773024 0.0933169935114 4.13545729097e-21)
(-0.277940450399 0.117576220183 -5.91848532718e-22)
(-0.305752273386 0.159885951685 -3.15399875236e-20)
(-0.340113146593 0.171831577436 -1.92181128758e-21)
(-0.648097164484 0.243185875799 -2.89429778757e-19)
(0.247978405791 -0.283712855151 -5.60124204011e-21)
(-0.166546655403 0.00113979199715 1.38234747037e-22)
(-0.168059525121 0.00268459935751 -1.38003669492e-23)
(-0.169696491211 0.00469788675701 -5.02574074857e-23)
(-0.172132946671 0.00682875308611 5.56928099603e-23)
(-0.175427184652 0.00914137256635 6.88567012296e-23)
(-0.179700001596 0.0117307436276 5.41763277117e-24)
(-0.18496048495 0.0146938324316 -5.14352699014e-25)
(-0.191279532413 0.018072586991 2.99408503955e-24)
(-0.198750928551 0.0220820935505 1.08999828513e-22)
(-0.207620088245 0.0268213998039 -6.12049952947e-24)
(-0.217997300569 0.0324643879135 5.70896633509e-24)
(-0.230124016466 0.0394442183253 4.41453794084e-22)
(-0.244318254755 0.0482039571334 -9.19265328812e-23)
(-0.261030298632 0.0593439347241 1.03206961683e-22)
(-0.280726082877 0.0734626529415 -4.37384302144e-21)
(-0.304544803808 0.0938983696626 3.51779530724e-21)
(-0.339486292856 0.138824326252 -9.63040893146e-22)
(-0.383443700517 0.153639900679 -1.68783765891e-20)
(-0.705427900965 0.178151681958 -2.48177398794e-20)
(0.923865349705 0.662756441891 -7.80073159093e-20)
(-0.167906624641 0.000717493533685 1.8918045694e-22)
(-0.169503984381 0.00141330344474 -5.3891365609e-23)
(-0.171221969694 0.00255591064357 1.58023217136e-23)
(-0.173793305729 0.00378593563622 6.07160012728e-23)
(-0.177301224422 0.00517501612388 6.27658478024e-23)
(-0.181809556797 0.00678124282187 8.33578656976e-24)
(-0.187421329223 0.00866950492928 4.66701562695e-24)
(-0.194218124399 0.0109081221043 -4.97759059435e-23)
(-0.202330158903 0.0134951306815 5.21392816637e-24)
(-0.212039493399 0.0166002735881 1.60281666568e-22)
(-0.223525188363 0.0204776041089 -1.89358493182e-23)
(-0.237105591802 0.0253108817666 3.09439897566e-22)
(-0.253189616189 0.0314044771048 -2.43885185906e-22)
(-0.272337287217 0.0392297400767 -9.81593108715e-23)
(-0.295558970398 0.0489479103167 -1.10507971852e-21)
(-0.325113950108 0.0611324414079 7.20854791191e-21)
(-0.364030272891 0.106582536959 -1.6504069029e-20)
(-0.416311591722 0.117680736734 1.35890285878e-20)
(-0.758239301111 0.0541401513697 1.28963186374e-18)
(0.408569504728 1.93332480614 2.26577960681e-18)
)
;

boundaryField
{
    back
    {
        type            calculated;
        value           uniform (0 0 0);
    }
    sides
    {
        type            calculated;
        value           nonuniform List<vector> 0();
    }
    bottom
    {
        type            calculated;
        value           uniform (0 0 0);
    }
    front
    {
        type            calculated;
        value           uniform (0 0 0);
    }
    atmosphere
    {
        type            calculated;
        value           nonuniform List<vector> 9((-0.0252177829356 0.17618431034 -5.87125083172e-21) (0.154602727909 0.289268539954 -7.13438433825e-21) (1.84636118155 0.531661164177 -4.79150640073e-19) (-0.0775106015401 0.293242014753 1.01276510897e-22) (-1.78798254102 1.18601484128 -3.33630761338e-20) (-0.292682284253 -0.375224688538 -2.18513202021e-19) (0.23955447692 -0.283712855151 -6.93382171533e-21) (0.929656696336 0.662756441891 -6.81592549109e-20) (0.415943712739 1.93332480614 2.27451493771e-18));
    }
    floatingObject
    {
        type            calculated;
        value           nonuniform List<vector> 0();
    }
    procBoundary0to1
    {
        type            processor;
        value           nonuniform List<vector> 10((-0.14624166927 0.0761647002805 5.20896099659e-23) (-0.148025119942 0.0846154048731 -1.98605067386e-23) (-0.148712693079 0.0929385782806 1.87196135864e-22) (-0.148050545282 0.100843509366 3.55929132636e-22) (-0.145028118829 0.100931606253 -1.76996938808e-22) (-0.137928697621 0.114907059099 -5.55241667751e-22) (-0.124509633538 0.113291290934 1.32488578974e-21) (-0.131626995751 0.104695330931 -5.98771082406e-21) (-0.145449248601 0.0858631065157 -1.4234773853e-20) (0.0457699049025 0.0478875693654 -2.00121194744e-20));
    }
    procBoundary0to2
    {
        type            processor;
        value           nonuniform List<vector> 
14
(
(-0.14009668804 0.051976267522 -1.83015769363e-24)
(-0.142274601707 0.0597397080409 -2.37369108414e-23)
(-0.144390424644 0.0677903424794 -3.89580045797e-23)
(-0.143121964945 0.0352832540401 -2.02014639616e-24)
(-0.145313501969 0.0423390780974 -1.1180778321e-23)
(-0.145313501969 0.0423390780974 -1.1180778321e-23)
(-0.142831287259 0.00303411530268 1.56613279326e-22)
(-0.143725420205 0.0085647557536 1.26631472138e-22)
(-0.147750430941 0.0266547172343 2.15288712442e-23)
(-0.147750430941 0.0266547172343 2.15288712442e-23)
(-0.150359196122 0.0132353398752 -4.16983398279e-23)
(-0.150359196122 0.0132353398752 -4.16983398279e-23)
(-0.151880487497 0.0187692304986 -2.78938881368e-23)
(-0.151880487497 0.0187692304986 -2.78938881368e-23)
)
;
    }
    procBoundary0to4
    {
        type            processor;
        value           nonuniform List<vector> 8((-0.168395353176 0.000269924149228 6.7537438308e-23) (-0.170055915007 9.00755649328e-05 -2.45598919527e-23) (-0.171819445406 0.000324658803992 3.73897345088e-24) (-0.174470307401 0.000612531790794 5.18447019388e-23) (-0.178093125726 0.0010098424229 2.80438160808e-23) (-0.182793770523 0.0015500880399 -4.52593456651e-23) (-0.188667709543 0.0022572223279 3.52636366932e-24) (-0.195835151615 0.0031499994211 1.24553167882e-24));
    }
    procBoundary0to5
    {
        type            processor;
        value           nonuniform List<vector> 
12
(
(-0.204484641921 0.00425449428245 1.5816668806e-22)
(-0.214769722561 0.00562673176707 1.40518656514e-23)
(-0.227063698212 0.00739866392533 -3.30216988263e-24)
(-0.241713090818 0.00974857311787 9.75010732836e-25)
(-0.259141521003 0.0128703631253 -2.03095348391e-22)
(-0.279915716629 0.0168091613311 1.69699105148e-22)
(-0.305167452884 0.0217572087585 -4.37995739756e-21)
(-0.336173461804 0.0249884929151 1.08101994922e-20)
(-0.375301112684 0.063301041316 5.38784011661e-21)
(-0.426395641583 0.076351889374 2.7795485111e-20)
(-0.597463252124 0.0334496044154 -9.25933490289e-20)
(-6.82691577153 0.906268182036 2.40142282899e-18)
)
;
    }
}


// ************************************************************************* //
