/*--------------------------------*- C++ -*----------------------------------*\
| =========                 |                                                 |
| \\      /  F ield         | OpenFOAM: The Open Source CFD Toolbox           |
|  \\    /   O peration     | Version:  v2012                                 |
|   \\  /    A nd           | Website:  www.openfoam.com                      |
|    \\/     M anipulation  |                                                 |
\*---------------------------------------------------------------------------*/
FoamFile
{
    version     2.0;
    format      ascii;
    class       volScalarField;
    location    "3.8";
    object      p_rgh;
}
// * * * * * * * * * * * * * * * * * * * * * * * * * * * * * * * * * * * * * //

dimensions      [1 -1 -2 0 0 0 0];


internalField   nonuniform List<scalar> 
166
(
8568.8362263
8566.26353037
8563.29632413
8559.89351344
8556.01340314
8551.60651379
8546.6085359
8540.99455918
8534.71123145
8457.70740392
3796.36640018
-0.00118550331519
-0.00663290989668
8580.5438033
8578.86261686
8576.86607093
8574.51407
8571.78227013
8568.63098313
8565.00615726
8560.84478921
8556.05911741
8550.59458765
8544.39007968
8496.97242783
3925.58150781
0.848421521214
-0.0259637165803
8592.06579434
8591.8449918
8589.72310294
8588.50749881
8587.02139014
8585.24404283
8583.13765873
8580.67615147
8577.81529159
8574.49536596
8570.64150804
8566.15208783
8560.94587434
8554.95953339
8544.24788711
4061.56617004
3.89589800658
-0.0470979260701
8599.77469571
8599.58956594
8599.19739902
8598.59621188
8597.78198487
8596.74822707
8595.47382435
8593.93794786
8592.11204469
8589.9641371
8587.44528419
8584.49361765
8581.02551504
8576.92633765
8572.08313525
8566.37439736
8559.1942349
4250.74283481
10.3441904691
0.0574231207027
8607.67624073
8607.52930898
8607.21225984
8606.72535449
8606.06540982
8605.2195583
8604.17430607
8602.91336774
8601.4041498
8599.61414353
8597.49485114
8594.98334795
8591.99310834
8588.40104043
8584.07942703
8578.84843208
8572.05100964
4465.17803682
23.2005682647
0.18419051761
8615.73295481
8615.62643321
8615.38958007
8615.02438712
8614.52672685
8613.88717857
8613.09229839
8612.1267612
8610.96732603
8609.58223777
8607.92004146
8605.92457866
8603.51197684
8600.56247842
8596.94151348
8592.49007907
8586.48346202
4703.58170672
45.0331730206
-0.105851302819
8623.90526512
8623.84083483
8623.68810143
8623.45047174
8623.12561651
8622.70622746
8622.18172688
8621.53718483
8620.75404693
8619.80411548
8618.65432817
8617.24972322
8615.51607757
8613.34400551
8610.61745069
8607.23191716
8602.50347536
4969.8360669
79.6247990404
-0.0645006007879
8632.15154356
8632.13038144
8632.06478766
8631.9595247
8631.81435154
8631.62477413
8631.38367222
8631.0799471
8630.70040031
8630.22423403
8629.62710058
8628.86732699
8627.890022
8626.61898014
8624.96870938
8622.87148613
8619.82686046
5257.11458032
127.347821091
-0.0752515506982
8640.42872633
8640.4516186
8640.47495688
8640.50512092
8640.54405567
8640.5902793
8640.64012629
8640.6901298
8640.7310619
8640.75236462
8640.74092453
8640.6746126
8640.51968641
8640.22382263
8639.74200412
8639.05473765
8637.98682597
5559.38699154
198.475381011
-0.202197693624
)
;

boundaryField
{
    back
    {
        type            fixedFluxPressure;
        gradient        uniform 0;
        value           nonuniform List<scalar> 
166
(
8568.8362263
8566.26353037
8563.29632413
8559.89351344
8556.01340314
8551.60651379
8546.6085359
8540.99455918
8534.71123145
8457.70740392
3796.36640018
-0.00118550331519
-0.00663290989668
8580.5438033
8578.86261686
8576.86607093
8574.51407
8571.78227013
8568.63098313
8565.00615726
8560.84478921
8556.05911741
8550.59458765
8544.39007968
8496.97242783
3925.58150781
0.848421521214
-0.0259637165803
8592.06579434
8591.8449918
8589.72310294
8588.50749881
8587.02139014
8585.24404283
8583.13765873
8580.67615147
8577.81529159
8574.49536596
8570.64150804
8566.15208783
8560.94587434
8554.95953339
8544.24788711
4061.56617004
3.89589800658
-0.0470979260701
8599.77469571
8599.58956594
8599.19739902
8598.59621188
8597.78198487
8596.74822707
8595.47382435
8593.93794786
8592.11204469
8589.9641371
8587.44528419
8584.49361765
8581.02551504
8576.92633765
8572.08313525
8566.37439736
8559.1942349
4250.74283481
10.3441904691
0.0574231207027
8607.67624073
8607.52930898
8607.21225984
8606.72535449
8606.06540982
8605.2195583
8604.17430607
8602.91336774
8601.4041498
8599.61414353
8597.49485114
8594.98334795
8591.99310834
8588.40104043
8584.07942703
8578.84843208
8572.05100964
4465.17803682
23.2005682647
0.18419051761
8615.73295481
8615.62643321
8615.38958007
8615.02438712
8614.52672685
8613.88717857
8613.09229839
8612.1267612
8610.96732603
8609.58223777
8607.92004146
8605.92457866
8603.51197684
8600.56247842
8596.94151348
8592.49007907
8586.48346202
4703.58170672
45.0331730206
-0.105851302819
8623.90526512
8623.84083483
8623.68810143
8623.45047174
8623.12561651
8622.70622746
8622.18172688
8621.53718483
8620.75404693
8619.80411548
8618.65432817
8617.24972322
8615.51607757
8613.34400551
8610.61745069
8607.23191716
8602.50347536
4969.8360669
79.6247990404
-0.0645006007879
8632.15154356
8632.13038144
8632.06478766
8631.9595247
8631.81435154
8631.62477413
8631.38367222
8631.0799471
8630.70040031
8630.22423403
8629.62710058
8628.86732699
8627.890022
8626.61898014
8624.96870938
8622.87148613
8619.82686046
5257.11458032
127.347821091
-0.0752515506982
8640.42872633
8640.4516186
8640.47495688
8640.50512092
8640.54405567
8640.5902793
8640.64012629
8640.6901298
8640.7310619
8640.75236462
8640.74092453
8640.6746126
8640.51968641
8640.22382263
8639.74200412
8639.05473765
8637.98682597
5559.38699154
198.475381011
-0.202197693624
)
;
    }
    sides
    {
        type            fixedFluxPressure;
        gradient        nonuniform List<scalar> 0();
        value           nonuniform List<scalar> 0();
    }
    bottom
    {
        type            fixedFluxPressure;
        gradient        uniform 0;
        value           nonuniform List<scalar> 7(8592.06579434 8599.77469571 8607.67624073 8615.73295481 8623.90526512 8632.15154356 8640.42872633);
    }
    front
    {
        type            fixedFluxPressure;
        gradient        uniform 0;
        value           nonuniform List<scalar> 
166
(
8568.8362263
8566.26353037
8563.29632413
8559.89351344
8556.01340314
8551.60651379
8546.6085359
8540.99455918
8534.71123145
8457.70740392
3796.36640018
-0.00118550331519
-0.00663290989668
8580.5438033
8578.86261686
8576.86607093
8574.51407
8571.78227013
8568.63098313
8565.00615726
8560.84478921
8556.05911741
8550.59458765
8544.39007968
8496.97242783
3925.58150781
0.848421521214
-0.0259637165803
8592.06579434
8591.8449918
8589.72310294
8588.50749881
8587.02139014
8585.24404283
8583.13765873
8580.67615147
8577.81529159
8574.49536596
8570.64150804
8566.15208783
8560.94587434
8554.95953339
8544.24788711
4061.56617004
3.89589800658
-0.0470979260701
8599.77469571
8599.58956594
8599.19739902
8598.59621188
8597.78198487
8596.74822707
8595.47382435
8593.93794786
8592.11204469
8589.9641371
8587.44528419
8584.49361765
8581.02551504
8576.92633765
8572.08313525
8566.37439736
8559.1942349
4250.74283481
10.3441904691
0.0574231207027
8607.67624073
8607.52930898
8607.21225984
8606.72535449
8606.06540982
8605.2195583
8604.17430607
8602.91336774
8601.4041498
8599.61414353
8597.49485114
8594.98334795
8591.99310834
8588.40104043
8584.07942703
8578.84843208
8572.05100964
4465.17803682
23.2005682647
0.18419051761
8615.73295481
8615.62643321
8615.38958007
8615.02438712
8614.52672685
8613.88717857
8613.09229839
8612.1267612
8610.96732603
8609.58223777
8607.92004146
8605.92457866
8603.51197684
8600.56247842
8596.94151348
8592.49007907
8586.48346202
4703.58170672
45.0331730206
-0.105851302819
8623.90526512
8623.84083483
8623.68810143
8623.45047174
8623.12561651
8622.70622746
8622.18172688
8621.53718483
8620.75404693
8619.80411548
8618.65432817
8617.24972322
8615.51607757
8613.34400551
8610.61745069
8607.23191716
8602.50347536
4969.8360669
79.6247990404
-0.0645006007879
8632.15154356
8632.13038144
8632.06478766
8631.9595247
8631.81435154
8631.62477413
8631.38367222
8631.0799471
8630.70040031
8630.22423403
8629.62710058
8628.86732699
8627.890022
8626.61898014
8624.96870938
8622.87148613
8619.82686046
5257.11458032
127.347821091
-0.0752515506982
8640.42872633
8640.4516186
8640.47495688
8640.50512092
8640.54405567
8640.5902793
8640.64012629
8640.6901298
8640.7310619
8640.75236462
8640.74092453
8640.6746126
8640.51968641
8640.22382263
8639.74200412
8639.05473765
8637.98682597
5559.38699154
198.475381011
-0.202197693624
)
;
    }
    atmosphere
    {
        type            totalPressure;
        rho             rho;
        psi             none;
        gamma           1;
        p0              uniform 0;
        value           nonuniform List<scalar> 9(0 0 0 0 0 0 -0.000520943698373 -0.0109515209737 0);
    }
    floatingObject
    {
        type            fixedFluxPressure;
        gradient        nonuniform List<scalar> 0();
        value           nonuniform List<scalar> 0();
    }
    procBoundary0to1
    {
        type            processor;
        value           nonuniform List<scalar> 10(8551.60725469 8547.50474377 8542.89843532 8537.7490169 8532.07851364 8525.89361828 8426.45891207 3674.56572614 3.04222681698e-05 0.0133510705789);
    }
    procBoundary0to2
    {
        type            processor;
        value           nonuniform List<scalar> 
14
(
8561.17897873
8558.41272966
8555.22970136
8572.88421284
8571.03572337
8571.03572337
8584.58382803
8584.33009195
8581.91978747
8581.91978747
8591.38306238
8591.38306238
8590.67847039
8590.67847039
)
;
    }
    procBoundary0to4
    {
        type            processor;
        value           nonuniform List<scalar> 8(8648.69318682 8648.76027044 8648.87280133 8649.03883496 8649.26249552 8649.54535997 8649.88940198 8650.29477525);
    }
    procBoundary0to5
    {
        type            processor;
        value           nonuniform List<scalar> 
12
(
8650.75964927
8651.29023247
8651.87927184
8652.52594
8653.22238584
8653.94732387
8654.6853802
8655.45593103
8656.15043181
5853.78683093
290.460509291
2.23126068557
)
;
    }
}


// ************************************************************************* //
