/*--------------------------------*- C++ -*----------------------------------*\
| =========                 |                                                 |
| \\      /  F ield         | OpenFOAM: The Open Source CFD Toolbox           |
|  \\    /   O peration     | Version:  v2012                                 |
|   \\  /    A nd           | Website:  www.openfoam.com                      |
|    \\/     M anipulation  |                                                 |
\*---------------------------------------------------------------------------*/
FoamFile
{
    version     2.0;
    format      ascii;
    class       volScalarField;
    location    "3.8";
    object      rAU;
}
// * * * * * * * * * * * * * * * * * * * * * * * * * * * * * * * * * * * * * //

dimensions      [-1 3 1 0 0 0 0];


internalField   nonuniform List<scalar> 
166
(
2.1765969229e-05
2.17634717896e-05
2.17606823589e-05
2.17574374277e-05
2.17533769511e-05
2.17475177237e-05
2.17359814032e-05
2.16972280837e-05
2.15923350138e-05
2.17136402944e-05
4.94104028403e-05
0.00600007533275
0.0207177253176
2.17703382915e-05
2.17679008925e-05
2.17654715891e-05
2.17628463575e-05
2.17597726535e-05
2.17561046917e-05
2.1751564865e-05
2.17452882483e-05
2.17348898244e-05
2.16949629468e-05
2.15673256164e-05
2.16149255259e-05
4.79673107861e-05
0.00574577994235
0.0206362693626
2.1984249624e-05
2.1806929881e-05
2.17729245522e-05
2.17699137824e-05
2.17673874205e-05
2.17648296853e-05
2.17621437026e-05
2.17590337064e-05
2.17551629696e-05
2.17504240894e-05
2.17439542095e-05
2.17357454215e-05
2.16945791878e-05
2.15370309971e-05
2.14920839659e-05
4.65222980571e-05
0.00516726304521
0.0201762741631
2.19834188221e-05
2.18058949253e-05
2.1783020682e-05
2.17759782297e-05
2.17722962005e-05
2.17692393363e-05
2.17667273797e-05
2.1764152876e-05
2.17613632511e-05
2.17581647004e-05
2.17541790876e-05
2.17492824944e-05
2.17426196762e-05
2.17366745494e-05
2.16913140859e-05
2.14928866454e-05
2.13988023158e-05
4.47806459248e-05
0.0042750052062
0.0191680459176
2.19820299197e-05
2.18047609125e-05
2.17823103517e-05
2.17752205279e-05
2.17714607827e-05
2.17684273397e-05
2.17659270992e-05
2.17633790161e-05
2.17605176636e-05
2.17571376944e-05
2.1753066742e-05
2.17481438689e-05
2.17411941891e-05
2.1735104817e-05
2.16849339406e-05
2.14427614555e-05
2.13700750259e-05
4.2644064072e-05
0.00327156782998
0.0182070407641
2.19808102722e-05
2.18034535345e-05
2.17813857321e-05
2.17742574114e-05
2.17704748601e-05
2.17675670519e-05
2.17651439628e-05
2.17625528942e-05
2.17595300344e-05
2.17560667514e-05
2.17518877292e-05
2.17468192875e-05
2.1739752684e-05
2.17305992872e-05
2.16771311544e-05
2.14153424364e-05
2.13419019629e-05
4.0589614099e-05
0.00238630030609
0.01895283197
2.19794786079e-05
2.18020133617e-05
2.17802107594e-05
2.17730009896e-05
2.17692478034e-05
2.17664470806e-05
2.17640604233e-05
2.17615360477e-05
2.17586134405e-05
2.1755051684e-05
2.17507677782e-05
2.17454585325e-05
2.17373332618e-05
2.17271717445e-05
2.16709181954e-05
2.14741728468e-05
2.14030985139e-05
3.84823072499e-05
0.0016688015132
0.0161845431697
2.1977746326e-05
2.18004905375e-05
2.17787822878e-05
2.17714710671e-05
2.17676448647e-05
2.17649412398e-05
2.17627652326e-05
2.17603785065e-05
2.17575296578e-05
2.17540148436e-05
2.17497306933e-05
2.17441896761e-05
2.17354054079e-05
2.17255688652e-05
2.16665336304e-05
2.16356583415e-05
2.15525613689e-05
3.63296317824e-05
0.00119031062403
0.0124544273877
2.19761256172e-05
2.17988715699e-05
2.1777054435e-05
2.17696270644e-05
2.17657765599e-05
2.17633488367e-05
2.17613789296e-05
2.17591146057e-05
2.1756314251e-05
2.17529108297e-05
2.17487239595e-05
2.17432411992e-05
2.17346448786e-05
2.17247574735e-05
2.16663732243e-05
2.17415912708e-05
2.15770067052e-05
3.41599955729e-05
0.00083811418674
0.0131042569341
)
;

boundaryField
{
    back
    {
        type            calculated;
        value           nonuniform List<scalar> 
166
(
2.1765969229e-05
2.17634717896e-05
2.17606823589e-05
2.17574374277e-05
2.17533769511e-05
2.17475177237e-05
2.17359814032e-05
2.16972280837e-05
2.15923350138e-05
2.17136402944e-05
4.94104028403e-05
0.00600007533275
0.0207177253176
2.17703382915e-05
2.17679008925e-05
2.17654715891e-05
2.17628463575e-05
2.17597726535e-05
2.17561046917e-05
2.1751564865e-05
2.17452882483e-05
2.17348898244e-05
2.16949629468e-05
2.15673256164e-05
2.16149255259e-05
4.79673107861e-05
0.00574577994235
0.0206362693626
2.1984249624e-05
2.1806929881e-05
2.17729245522e-05
2.17699137824e-05
2.17673874205e-05
2.17648296853e-05
2.17621437026e-05
2.17590337064e-05
2.17551629696e-05
2.17504240894e-05
2.17439542095e-05
2.17357454215e-05
2.16945791878e-05
2.15370309971e-05
2.14920839659e-05
4.65222980571e-05
0.00516726304521
0.0201762741631
2.19834188221e-05
2.18058949253e-05
2.1783020682e-05
2.17759782297e-05
2.17722962005e-05
2.17692393363e-05
2.17667273797e-05
2.1764152876e-05
2.17613632511e-05
2.17581647004e-05
2.17541790876e-05
2.17492824944e-05
2.17426196762e-05
2.17366745494e-05
2.16913140859e-05
2.14928866454e-05
2.13988023158e-05
4.47806459248e-05
0.0042750052062
0.0191680459176
2.19820299197e-05
2.18047609125e-05
2.17823103517e-05
2.17752205279e-05
2.17714607827e-05
2.17684273397e-05
2.17659270992e-05
2.17633790161e-05
2.17605176636e-05
2.17571376944e-05
2.1753066742e-05
2.17481438689e-05
2.17411941891e-05
2.1735104817e-05
2.16849339406e-05
2.14427614555e-05
2.13700750259e-05
4.2644064072e-05
0.00327156782998
0.0182070407641
2.19808102722e-05
2.18034535345e-05
2.17813857321e-05
2.17742574114e-05
2.17704748601e-05
2.17675670519e-05
2.17651439628e-05
2.17625528942e-05
2.17595300344e-05
2.17560667514e-05
2.17518877292e-05
2.17468192875e-05
2.1739752684e-05
2.17305992872e-05
2.16771311544e-05
2.14153424364e-05
2.13419019629e-05
4.0589614099e-05
0.00238630030609
0.01895283197
2.19794786079e-05
2.18020133617e-05
2.17802107594e-05
2.17730009896e-05
2.17692478034e-05
2.17664470806e-05
2.17640604233e-05
2.17615360477e-05
2.17586134405e-05
2.1755051684e-05
2.17507677782e-05
2.17454585325e-05
2.17373332618e-05
2.17271717445e-05
2.16709181954e-05
2.14741728468e-05
2.14030985139e-05
3.84823072499e-05
0.0016688015132
0.0161845431697
2.1977746326e-05
2.18004905375e-05
2.17787822878e-05
2.17714710671e-05
2.17676448647e-05
2.17649412398e-05
2.17627652326e-05
2.17603785065e-05
2.17575296578e-05
2.17540148436e-05
2.17497306933e-05
2.17441896761e-05
2.17354054079e-05
2.17255688652e-05
2.16665336304e-05
2.16356583415e-05
2.15525613689e-05
3.63296317824e-05
0.00119031062403
0.0124544273877
2.19761256172e-05
2.17988715699e-05
2.1777054435e-05
2.17696270644e-05
2.17657765599e-05
2.17633488367e-05
2.17613789296e-05
2.17591146057e-05
2.1756314251e-05
2.17529108297e-05
2.17487239595e-05
2.17432411992e-05
2.17346448786e-05
2.17247574735e-05
2.16663732243e-05
2.17415912708e-05
2.15770067052e-05
3.41599955729e-05
0.00083811418674
0.0131042569341
)
;
    }
    sides
    {
        type            calculated;
        value           nonuniform List<scalar> 0();
    }
    bottom
    {
        type            calculated;
        value           nonuniform List<scalar> 7(2.1984249624e-05 2.19834188221e-05 2.19820299197e-05 2.19808102722e-05 2.19794786079e-05 2.1977746326e-05 2.19761256172e-05);
    }
    front
    {
        type            calculated;
        value           nonuniform List<scalar> 
166
(
2.1765969229e-05
2.17634717896e-05
2.17606823589e-05
2.17574374277e-05
2.17533769511e-05
2.17475177237e-05
2.17359814032e-05
2.16972280837e-05
2.15923350138e-05
2.17136402944e-05
4.94104028403e-05
0.00600007533275
0.0207177253176
2.17703382915e-05
2.17679008925e-05
2.17654715891e-05
2.17628463575e-05
2.17597726535e-05
2.17561046917e-05
2.1751564865e-05
2.17452882483e-05
2.17348898244e-05
2.16949629468e-05
2.15673256164e-05
2.16149255259e-05
4.79673107861e-05
0.00574577994235
0.0206362693626
2.1984249624e-05
2.1806929881e-05
2.17729245522e-05
2.17699137824e-05
2.17673874205e-05
2.17648296853e-05
2.17621437026e-05
2.17590337064e-05
2.17551629696e-05
2.17504240894e-05
2.17439542095e-05
2.17357454215e-05
2.16945791878e-05
2.15370309971e-05
2.14920839659e-05
4.65222980571e-05
0.00516726304521
0.0201762741631
2.19834188221e-05
2.18058949253e-05
2.1783020682e-05
2.17759782297e-05
2.17722962005e-05
2.17692393363e-05
2.17667273797e-05
2.1764152876e-05
2.17613632511e-05
2.17581647004e-05
2.17541790876e-05
2.17492824944e-05
2.17426196762e-05
2.17366745494e-05
2.16913140859e-05
2.14928866454e-05
2.13988023158e-05
4.47806459248e-05
0.0042750052062
0.0191680459176
2.19820299197e-05
2.18047609125e-05
2.17823103517e-05
2.17752205279e-05
2.17714607827e-05
2.17684273397e-05
2.17659270992e-05
2.17633790161e-05
2.17605176636e-05
2.17571376944e-05
2.1753066742e-05
2.17481438689e-05
2.17411941891e-05
2.1735104817e-05
2.16849339406e-05
2.14427614555e-05
2.13700750259e-05
4.2644064072e-05
0.00327156782998
0.0182070407641
2.19808102722e-05
2.18034535345e-05
2.17813857321e-05
2.17742574114e-05
2.17704748601e-05
2.17675670519e-05
2.17651439628e-05
2.17625528942e-05
2.17595300344e-05
2.17560667514e-05
2.17518877292e-05
2.17468192875e-05
2.1739752684e-05
2.17305992872e-05
2.16771311544e-05
2.14153424364e-05
2.13419019629e-05
4.0589614099e-05
0.00238630030609
0.01895283197
2.19794786079e-05
2.18020133617e-05
2.17802107594e-05
2.17730009896e-05
2.17692478034e-05
2.17664470806e-05
2.17640604233e-05
2.17615360477e-05
2.17586134405e-05
2.1755051684e-05
2.17507677782e-05
2.17454585325e-05
2.17373332618e-05
2.17271717445e-05
2.16709181954e-05
2.14741728468e-05
2.14030985139e-05
3.84823072499e-05
0.0016688015132
0.0161845431697
2.1977746326e-05
2.18004905375e-05
2.17787822878e-05
2.17714710671e-05
2.17676448647e-05
2.17649412398e-05
2.17627652326e-05
2.17603785065e-05
2.17575296578e-05
2.17540148436e-05
2.17497306933e-05
2.17441896761e-05
2.17354054079e-05
2.17255688652e-05
2.16665336304e-05
2.16356583415e-05
2.15525613689e-05
3.63296317824e-05
0.00119031062403
0.0124544273877
2.19761256172e-05
2.17988715699e-05
2.1777054435e-05
2.17696270644e-05
2.17657765599e-05
2.17633488367e-05
2.17613789296e-05
2.17591146057e-05
2.1756314251e-05
2.17529108297e-05
2.17487239595e-05
2.17432411992e-05
2.17346448786e-05
2.17247574735e-05
2.16663732243e-05
2.17415912708e-05
2.15770067052e-05
3.41599955729e-05
0.00083811418674
0.0131042569341
)
;
    }
    atmosphere
    {
        type            calculated;
        value           nonuniform List<scalar> 9(0.0207177253176 0.0206362693626 0.0201762741631 0.0191680459176 0.0182070407641 0.01895283197 0.0161845431697 0.0124544273877 0.0131042569341);
    }
    floatingObject
    {
        type            calculated;
        value           nonuniform List<scalar> 0();
    }
    procBoundary0to1
    {
        type            processor;
        value           nonuniform List<scalar> 10(2.17589360444e-05 2.17551788131e-05 2.17490585832e-05 2.17365303147e-05 2.1703257046e-05 2.16101914552e-05 2.17724387751e-05 5.07829454969e-05 0.00606207553053 0.0164455481519);
    }
    procBoundary0to2
    {
        type            processor;
        value           nonuniform List<scalar> 
14
(
2.17664443017e-05
2.17641229716e-05
2.17616059759e-05
2.17707786552e-05
2.17683118763e-05
2.17683118763e-05
2.19851193369e-05
2.1807823244e-05
2.17733659667e-05
2.17733659667e-05
2.17835374454e-05
2.17835374454e-05
2.17765749375e-05
2.17765749375e-05
)
;
    }
    procBoundary0to4
    {
        type            processor;
        value           nonuniform List<scalar> 8(2.19740777044e-05 2.17969638325e-05 2.1774965101e-05 2.17674637545e-05 2.1763660813e-05 2.17615461143e-05 2.17598469609e-05 2.17577741778e-05);
    }
    procBoundary0to5
    {
        type            processor;
        value           nonuniform List<scalar> 
12
(
2.17551747093e-05
2.17519785544e-05
2.17479549029e-05
2.17427988948e-05
2.17345170738e-05
2.17258270777e-05
2.1670935357e-05
2.17411534561e-05
2.15249983723e-05
3.22781148946e-05
0.000584697761234
0.00865868399835
)
;
    }
}


// ************************************************************************* //
