/*--------------------------------*- C++ -*----------------------------------*\
| =========                 |                                                 |
| \\      /  F ield         | OpenFOAM: The Open Source CFD Toolbox           |
|  \\    /   O peration     | Version:  v2012                                 |
|   \\  /    A nd           | Website:  www.openfoam.com                      |
|    \\/     M anipulation  |                                                 |
\*---------------------------------------------------------------------------*/
FoamFile
{
    version     2.0;
    format      ascii;
    class       surfaceScalarField;
    location    "1.2";
    object      alphaPhi0.water;
}
// * * * * * * * * * * * * * * * * * * * * * * * * * * * * * * * * * * * * * //

dimensions      [0 3 -1 0 0 0 0];
oriented        oriented;


internalField   nonuniform List<scalar> 
3840
(
-3.10164231397e-05
3.10152034503e-05
-6.71487002878e-05
3.61308755149e-05
-0.000103893590464
3.67433434389e-05
-0.000140597844432
3.67025587427e-05
-0.000177598450725
3.69988103372e-05
-0.000215204750825
3.7603920894e-05
-0.0002536471981
3.84396170421e-05
-0.000293121186673
3.94708865342e-05
-0.000333810157313
4.06852928803e-05
-0.000375887344629
4.20754181629e-05
-0.00041952598862
4.36372609452e-05
-0.000464878254343
4.53513542358e-05
-0.000511812779407
4.69341942255e-05
-0.000559277035154
4.7464255752e-05
-0.000605857414194
4.6580207182e-05
-0.000652628680468
4.67711235887e-05
-0.000707393712926
5.47671543262e-05
-0.000203923886714
6.95901510306e-05
3.57463678131e-12
3.24666166253e-06
-2.18137377104e-14
-3.59672137734e-05
6.69810752927e-05
-7.19399374725e-05
7.21020990946e-05
-0.000108526917255
7.33286609458e-05
-0.000145816744794
7.39905761003e-05
-0.000183793065566
7.4973232052e-05
-0.000222543960478
7.63523964824e-05
-0.000262206594593
7.80990483083e-05
-0.000302936462498
8.01981638992e-05
-0.000344900009951
8.2643962344e-05
-0.000388263463868
8.54369533046e-05
-0.000433204650196
8.85770097676e-05
-0.000479915069106
9.20607761422e-05
-0.000528777978596
9.57965734691e-05
-0.000580952240794
9.96385179498e-05
-0.000638309386843
0.00010393725151
-0.000701100868883
0.000109562458975
-0.00076356284855
0.000117231791362
-0.00020810904686
8.90130169166e-05
-1.12218549783e-12
3.79308690399e-06
1.12095384399e-14
-3.63114991043e-05
0.000103291274803
-7.23752810313e-05
0.000108164426748
-0.000108829601237
0.000109781345786
-0.000145965800611
0.000111124948134
-0.000183817387629
0.000112822879628
-0.000222463731138
0.000114996216258
-0.000262029716668
0.000117662600041
-0.000302664765733
0.000120828899723
-0.000344530047527
0.000124505990719
-0.000387797428029
0.000128700787601
-0.000432651214175
0.000133428941569
-0.000479291441267
0.000138699669068
-0.000527976872074
0.000144481265098
-0.000579168183818
0.000150829829839
-0.000633224506081
0.000157993425171
-0.000689224531916
0.000165562224854
-0.000744815253687
0.000172824696288
-0.000205631633478
0.000122756431858
2.10114509616e-12
4.0630986255e-06
1.75275927654e-14
-3.54908855702e-05
0.000138780994054
-7.14286182019e-05
0.000144100841456
-0.000107686374168
0.000146037572695
-0.00014447556516
0.000147912376617
-0.000181917540557
0.000150262949521
-0.000220130943303
0.000153207454026
-0.000259251889727
0.000156780594601
-0.000299429912725
0.000161004440004
-0.000340828831521
0.000165897815964
-0.000383616576632
0.000171484976566
-0.000427981692897
0.000177791107634
-0.000474124094676
0.000184840281168
-0.000522255947792
0.000192611990967
-0.000572586548342
0.000201160426964
-0.000625159900234
0.000210566600578
-0.000679438930945
0.000219840910225
-0.000734001085267
0.000227388575254
-0.000202956150128
0.000156957563293
4.92798935221e-12
4.71036590681e-06
-2.74176891265e-15
-3.46058655763e-05
0.000173385877849
-7.00736276222e-05
0.000179567470095
-0.000105883205761
0.000181845771491
-0.000142145112634
0.000184172619564
-0.00017900436843
0.000187120347169
-0.000216602224215
0.00019080332519
-0.000255084051938
0.000195260035507
-0.000294602209089
0.000200519398207
-0.000335317322066
0.000206609383904
-0.000377399401841
0.000213560237548
-0.000421026416609
0.000221413368056
-0.000466388720297
0.000230200337899
-0.000513674734439
0.000239896580985
-0.000563050241788
0.000250535922518
-0.000614552775132
0.000262068937069
-0.000667774292503
0.000273061979893
-0.000721716759329
0.000281332244244
-0.000200166976389
0.000192237395134
3.90275255742e-12
5.57978827165e-06
-1.37881271328e-14
-3.37316859391e-05
0.000207116799573
-6.85011394778e-05
0.000214336004428
-0.00010363880488
0.000216982234497
-0.00013919775459
0.000219730028276
-0.000175318082297
0.000223238856354
-0.000212145693825
0.00022762897227
-0.000249828250587
0.000232940417592
-0.000288518331191
0.000239206361773
-0.000328374154066
0.000246461243891
-0.000369561305192
0.000254742834166
-0.000412253836881
0.000264100224948
-0.000456627560855
0.000274571488879
-0.000502856528289
0.00028612380903
-0.000551096023995
0.000298775381072
-0.0006014133404
0.000312385982566
-0.00065357060168
0.000325218679842
-0.00070705737403
0.000334819716896
-0.00019686619921
0.000228261934062
1.50556351549e-12
6.51627351404e-06
-2.76752768232e-14
-3.2798781287e-05
0.000239915052915
-6.67057292108e-05
0.00024824226096
-0.000100995390889
0.000251270884585
-0.000135690407113
0.000254423644567
-0.000170920112535
0.000258466813792
-0.00020682705911
0.000263533925412
-0.000243556592573
0.000269667746317
-0.00028125870984
0.000276905368613
-0.000320088531767
0.000285286881057
-0.000360207242148
0.000294856764755
-0.000401784521913
0.000305671353786
-0.000444989645001
0.000317773769677
-0.000489993491885
0.000331125670027
-0.000536952500041
0.000345734170855
-0.000585958472362
0.000361391634108
-0.000636895820642
0.000376155347225
-0.000689420194132
0.000387344279744
-0.000192899223275
0.000264456405203
-1.21431384058e-12
7.60268424632e-06
-1.17495822787e-14
-3.17728662078e-05
0.000271687628694
-6.46767200521e-05
0.000281145646875
-9.79679851481e-05
0.000284561325094
-0.000131651089375
0.000288105491425
-0.00016584441199
0.000292658476856
-0.000200684062528
0.00029837159701
-0.000236310477749
0.00030529190134
-0.000272869150426
0.000313460902005
-0.000310511025909
0.00032292439279
-0.000349392983641
0.000333733786667
-0.000389681382065
0.00034595325683
-0.000431543144075
0.000359632498212
-0.000475153131941
0.000374733486006
-0.000520678944446
0.000391259480276
-0.000568241736908
0.00040895390427
-0.000617817515099
0.000425730195357
-0.00066904737236
0.000438573797531
-0.000188260307087
0.00030024856391
-1.83840266197e-12
8.7662864987e-06
2.37419010887e-14
-3.0641506531e-05
0.000302329064022
-6.24138177938e-05
0.000312917690572
-9.4571267251e-05
0.000316718115379
-0.000127105221241
0.0003206383143
-0.000160123727754
0.000325675409652
-0.000193755118113
0.000332001039773
-0.000228133292497
0.000339667788462
-0.000263397785931
0.000348722216103
-0.000299694249681
0.000359216389057
-0.000337174877975
0.000371209378999
-0.000376002742014
0.000384774425375
-0.00041634399499
0.000399970604731
-0.000458380893131
0.000416768092363
-0.000502298036981
0.000435175785541
-0.000548237614014
0.000454892710156
-0.000596232207623
0.000473723599759
-0.000646066828528
0.000488407559977
-0.000183150442388
0.00033571578478
-2.5077737392e-14
1.00061020852e-05
2.02912245339e-14
-2.94014644166e-05
0.000331730638403
-5.99224989793e-05
0.000343438617934
-9.08215989373e-05
0.000347616688108
-0.000122078744383
0.000351894429646
-0.000153791944884
0.000357387108493
-0.000186080938411
0.000364288126766
-0.000219071836113
0.000372656404444
-0.000252896928728
0.000382544114935
-0.000287695182784
0.000394010160263
-0.000323613002965
0.000407122133756
-0.000360808953206
0.000421963621071
-0.000399447113452
0.000438605585077
-0.000439713114033
0.000457031749015
-0.000481795869522
0.000477257451659
-0.000525847400117
0.000498943281496
-0.000571973484803
0.000519848329998
-0.000619945153357
0.00053637795427
-0.000177512426088
0.000370806430613
9.74558631646e-13
1.14546232885e-05
-2.00729645585e-14
-2.80551924366e-05
0.000359786068531
-5.72129045235e-05
0.000372596330637
-8.67383395556e-05
0.000377141685279
-0.000116600115697
0.000381755249365
-0.000146885959419
0.000387671509163
-0.00017770624129
0.000395106546514
-0.000209178112353
0.000404126020943
-0.000241425160927
0.000414788008945
-0.00027457816194
0.000427158706492
-0.000308775976379
0.000441314985888
-0.000344170895361
0.000457351839391
-0.000380923059241
0.000475354596599
-0.000419220259891
0.000495326655342
-0.000459261863816
0.000517297779508
-0.000501214363289
0.000540894670103
-0.000545220036983
0.000563852555552
-0.000591103456683
0.000582259789567
-0.000171344324922
0.00040532969931
-1.23092518186e-13
1.31160934953e-05
-4.94775664039e-15
-2.66086609428e-05
0.000386395032043
-5.42989925952e-05
0.00040028671112
-8.23443916517e-05
0.000405186689245
-0.000110701486031
0.000410111429645
-0.00013944707425
0.00041641569845
-0.000168681248767
0.000424338900329
-0.000198510945376
0.00043395351289
-0.000229049526503
0.00044532349754
-0.000260417544155
0.000458522452503
-0.000292744204097
0.000473636845638
-0.000326172600866
0.000490773795377
-0.000360855516849
0.00051003449303
-0.000396976973128
0.000531445855063
-0.000434732742827
0.000555052308545
-0.000474285368634
0.000580446187433
-0.000515809716552
0.000605375397806
-0.000559198455237
0.000625646679756
-0.000164695220256
0.000439423658047
-2.83288891624e-13
1.50347096799e-05
1.53223550844e-14
-2.5069832293e-05
0.000411465166453
-5.11974828753e-05
0.000426414397097
-7.7665841341e-05
0.000431654643954
-0.00010441873667
0.000436863415288
-0.000131521205401
0.000443516786181
-0.000159062022693
0.000451877938186
-0.00018713657236
0.000462025928851
-0.000215846209493
0.000474030219324
-0.000245299246597
0.000487971454437
-0.000275612401468
0.000503945599741
-0.000306916286952
0.000522071630695
-0.000339352204534
0.000542467598944
-0.000373094695894
0.00056518624206
-0.000408330552174
0.000590286909414
-0.000445217414949
0.000617331915161
-0.000483960081089
0.000644116328687
-0.000524492546762
0.000666177136861
-0.000157505193621
0.000472921985858
2.81910481565e-13
1.73449511497e-05
-8.95926838153e-15
-2.34478759161e-05
0.000434913279223
-4.79271051669e-05
0.000450893585322
-7.2731434671e-05
0.00045645850602
-9.77911395482e-05
0.000461922172063
-0.00012315860853
0.000468882878955
-0.000148910262292
0.000477627883338
-0.000175128598455
0.000488242301074
-0.000201901217601
0.000500799967159
-0.000229321593162
0.000515388071935
-0.000257491266937
0.000532110961159
-0.000286524635213
0.000551099694599
-0.000316547657634
0.000572488016755
-0.000347720894138
0.00059635755386
-0.000380220635442
0.000622785373443
-0.000414196729771
0.000651306832082
-0.000449841027132
0.000679759131282
-0.000487118569063
0.000703452588017
-0.000149786822426
0.000505785463133
-6.08911196007e-14
2.01450285493e-05
1.65197414858e-15
-2.1752714716e-05
0.000456666102555
-4.45080471403e-05
0.000473648741143
-6.75720308279e-05
0.000479521912127
-9.08608326868e-05
0.000485209974988
-0.000114413550114
0.00049243427562
-0.000138293329556
0.000501505867031
-0.00016256827081
0.000512514502118
-0.000187309901923
0.000525538683247
-0.000212595269939
0.000540669454331
-0.000238506902495
0.000558019459465
-0.000265140286517
0.000577727336453
-0.000292599165161
0.000599944573998
-0.000321024172622
0.000624780464691
-0.000350571650334
0.000652331554803
-0.000381375230113
0.000682109254576
-0.000413605746014
0.00071198827835
-0.00044731402198
0.000737158884537
-0.000141548333404
0.000538033002066
-7.59073469983e-15
2.35126423194e-05
6.50344368847e-16
-1.99950086589e-05
0.000476660910966
-4.09617176491e-05
0.000494614960564
-6.22201392376e-05
0.000500779599688
-8.36725657036e-05
0.000506661405576
-0.000105344029037
0.000514103489641
-0.00012728278547
0.000523441764359
-0.000149541336149
0.000534770671921
-0.000172175417322
0.000548169465302
-0.000195241022354
0.00056373254575
-0.000218801230261
0.000581575821695
-0.000242924443044
0.00060184673862
-0.000267690629154
0.000624708414508
-0.000293209511094
0.000650297973916
-0.000319608488418
0.000678729315345
-0.00034699811459
0.000709497902376
-0.000375515453692
0.000740504337309
-0.000405328219137
0.000766969723061
-0.000132689165015
0.000569623001245
1.47142410907e-14
2.76442227437e-05
-7.65151985379e-16
-1.81854370431e-05
0.000494845711884
-3.73099513387e-05
0.000513738745911
-5.67096472522e-05
0.000520178294232
-7.6272801847e-05
0.000526221854296
-9.60085508849e-05
0.00053383713444
-0.000115952475056
0.000543383161836
-0.000136140394091
0.000554955647533
-0.000156608945483
0.000568633560914
-0.000177393082697
0.000584512408876
-0.00019853037733
0.000602709567109
-0.000220062221307
0.000623374438554
-0.000242036136142
0.00064667956794
-0.000264525211685
0.000672784603071
-0.000287617964643
0.000701820681719
-0.000311393929738
0.000733273380956
-0.000335935182055
0.000765048218532
-0.000361503249869
0.000792535450832
-0.000123025695379
0.000600259368621
-8.96639601194e-15
3.2642091515e-05
3.97829351208e-16
-1.63343979193e-05
0.000511179245928
-3.35745617232e-05
0.00053097765445
-5.10737299981e-05
0.000537675152883
-6.87057571681e-05
0.000543852315186
-8.64682649304e-05
0.000551596794159
-0.000104379987351
0.00056129048395
-0.000122459374863
0.000573031882817
-0.000140724140512
0.000586896420536
-0.000159187871029
0.000602974222486
-0.000177860477956
0.000621380463733
-0.00019675102417
0.000642263405805
-0.000215871092618
0.000665798461422
-0.00023524971744
0.000692162235716
-0.000254930518695
0.000721501063506
-0.000274956088996
0.000753299027113
-0.000295329857102
0.000785424385115
-0.000316334878977
0.000813539518097
-0.000112416702073
0.000629632032441
3.41429280503e-15
3.86668946626e-05
-8.03325249488e-17
-1.44530308345e-05
0.000525630854063
-2.97769582926e-05
0.000546299744634
-4.53439468145e-05
0.000553240030205
-6.10178593229e-05
0.000559523818023
-7.67811551548e-05
0.000567356699668
-9.26373212591e-05
0.000577144699962
-0.000108591102154
0.000588983938598
-0.000124639135932
0.00060294294564
-0.00014077083254
0.00061910449908
-0.000156967721823
0.000637576071227
-0.000173204223878
0.000658498781991
-0.000189451141576
0.000682044474368
-0.00020568815982
0.000708398537455
-0.000221906810311
0.000737719113963
-0.000238104172886
0.000769496419032
-0.000254191130568
0.000801511401827
-0.000270353644894
0.000829701536665
-0.000100700764733
0.000657324079278
-2.69684541197e-16
4.58432866169e-05
-8.85232994688e-17
-1.25483285563e-05
0.000538178125336
-2.59343850313e-05
0.000559684474166
-3.95497428953e-05
0.000566852863973
-5.32483608789e-05
0.000573220075444
-6.70003278392e-05
0.000581106973308
-8.07975237792e-05
0.000590940374581
-9.46276891406e-05
0.000602812700037
-0.000108468506191
0.000616782508179
-0.000122285435446
0.000632920273392
-0.00013603026257
0.000651319887569
-0.000149640593956
0.000672108215608
-0.000163042594648
0.000695445732691
-0.000176162056831
0.000721517367039
-0.000188931899114
0.000750488396113
-0.000201304311362
0.000781868851104
-0.000213125438845
0.000813332604672
-0.00022411616026
0.000840691863793
-8.76756524258e-05
0.000682803101867
-1.00918519341e-15
5.43196119327e-05
1.09940989563e-16
-1.0629175835e-05
0.000548806206559
-2.20642725764e-05
0.000571118311792
-3.37155365421e-05
0.000578502674975
-4.54330512518e-05
0.000584936126508
-5.71757887443e-05
0.000592848304114
-6.89237949935e-05
0.000602687074169
-8.06512520488e-05
0.000614538952097
-9.23184207862e-05
0.000628448593356
-0.000103867812029
0.000644468692961
-0.000115221280121
0.00066267250013
-0.000126277940071
0.000683164110359
-0.000136915699111
0.00070608280819
-0.00014700151194
0.000731602554705
-0.000156405370491
0.000759891664823
-0.000165038106496
0.000790501599188
-0.000172720065638
0.00082101465751
-0.000178290835785
0.000846262318881
-7.31990978242e-05
0.000705501130037
8.69270593927e-16
6.42676673917e-05
-4.15781938409e-17
-8.70226510908e-06
0.000557507347645
-1.81812056065e-05
0.000580596020915
-2.78637246193e-05
0.000588183883176
-3.76014570519e-05
0.000594672559313
-4.73455965372e-05
0.000602591193435
-5.70674597726e-05
0.000612407768515
-6.67307211013e-05
0.000624201138978
-7.62810935495e-05
0.000637997997754
-8.56404333029e-05
0.000653827166015
-9.47019533018e-05
0.000671733237553
-0.000103325744229
0.000691787173112
-0.000111338020017
0.000714094380891
-0.000118540018154
0.000738803856431
-0.000124733242189
0.000766084201979
-0.000129801142463
0.000795569506145
-0.000133593997119
0.000824807524342
-0.000133761652273
0.000846429771007
-5.72255038152e-05
0.000724832619391
-1.37726659167e-16
7.58003340893e-05
-4.67189868491e-18
-6.77274954474e-06
0.000564278874148
-1.42955019438e-05
0.000588117509253
-2.20065297194e-05
0.000595893619939
-2.97701942252e-05
0.000602434950099
-3.75338959752e-05
0.000610353661241
-4.52635393673e-05
0.000620136237149
-5.29164181491e-05
0.000631852918732
-6.04280914942e-05
0.000645508651598
-6.77038390391e-05
0.000661101962367
-7.46120028893e-05
0.000678640494764
-8.09751212303e-05
0.000698149388985
-8.65649264864e-05
0.000719683250288
-9.11047977923e-05
0.000743342741591
-9.43026666304e-05
0.000769281061978
-9.60254100537e-05
0.000797291773474
-9.62738929202e-05
0.00082505600914
-9.151805962e-05
0.00084167375654
-3.99491779761e-05
0.000740463522392
-8.50049759335e-17
8.90255130683e-05
5.55377368445e-18
-4.84653550025e-06
0.000569124105838
-1.041031441e-05
0.000593679960546
-1.61411527401e-05
0.000601623110592
-2.19397988145e-05
0.000608232246314
-2.77470695351e-05
0.000616159592334
-3.35264093734e-05
0.00062591426397
-3.92343139218e-05
0.000637559551688
-4.48027274279e-05
0.000651075740159
-5.0126524403e-05
0.0006664245055
-5.50572062931e-05
0.000683569926501
-5.93852028174e-05
0.000702476076542
-6.28292880908e-05
0.000723125934261
-6.50226897197e-05
0.000745534640186
-6.55100131717e-05
0.00076976683784
-6.40209093141e-05
0.000795801201952
-6.11892731362e-05
0.00082222437401
-5.25949033488e-05
0.000833079384621
-2.18292716888e-05
0.0007524696363
1.95850033898e-17
0.000104104441122
1.08010158256e-18
-2.93909314895e-06
0.000572061952126
-6.50659419449e-06
0.000597246215227
-1.02356128011e-05
0.000605350866155
-1.40935966814e-05
0.000612088940893
-1.79720086807e-05
0.000620036690728
-2.18461780645e-05
0.000629787109298
-2.56793586763e-05
0.000641391213835
-2.94107597638e-05
0.000654805558005
-3.29312531548e-05
0.000669943277714
-3.60910612601e-05
0.000686727944705
-3.86603440534e-05
0.000705043665226
-4.03174895584e-05
0.000724781282708
-4.06193795269e-05
0.000745834597969
-3.89171243458e-05
0.000768062583994
-3.37925648718e-05
0.000790674682476
-2.81908761737e-05
0.000816622685656
-1.8735039519e-05
0.000823623547611
-3.48502878556e-06
0.000760707142864
2.22275961608e-08
0.000121215539886
2.22275961448e-08
-1.03994890853e-06
0.000573100389661
-2.4733701379e-06
0.000598678144782
-4.25841987427e-06
0.000607134387652
-6.21002117264e-06
0.000614038941847
-8.17416459597e-06
0.000621999150177
-1.0183431717e-05
0.000631794521958
-1.22074070401e-05
0.000643413006473
-1.42069019792e-05
0.000656802441687
-1.6076004128e-05
0.000671808743807
-1.76852709744e-05
0.000688334453747
-1.8808448852e-05
0.000706164181264
-1.9106558148e-05
0.000725076653744
-1.81099842156e-05
0.000744835111491
-1.53324575439e-05
0.000765282013683
-9.35039731368e-06
0.000784689612822
3.88770417726e-06
0.000803382091156
1.20124455184e-05
0.000815498849955
1.85443404948e-05
0.000759687969378
6.06196706861e-08
0.000139041336055
8.86986850887e-08
1.05403848486e-06
0.000572045869812
1.62010024898e-06
0.000598111652511
1.66722950792e-06
0.000607086782645
1.80028239992e-06
0.000613905305989
1.77142854847e-06
0.00062202727886
1.63283162517e-06
0.000631932071702
1.35947997508e-06
0.000643684951482
1.07541652922e-06
0.00065708458045
7.11967734964e-07
0.000672168799737
5.17461187338e-07
0.000688526227999
5.50563337885e-07
0.000706128468737
1.1105263025e-06
0.000724514183568
2.65447006239e-06
0.000743288588386
6.35080801105e-06
0.000761583054613
1.13889635314e-05
0.000779649003051
2.27274227893e-05
0.000792041778637
3.85804562134e-05
0.00079964581666
3.78566364118e-05
0.000755873892269
4.96330122388e-07
0.000160184163425
3.13688259418e-07
3.0176229279e-06
0.000569028226418
5.5277665939e-06
0.00059560154949
7.75656531402e-06
0.000604857944789
9.7682798351e-06
0.000611893381228
1.16271624563e-05
0.000620167962736
1.3294808244e-05
0.000630263618109
1.47911410347e-05
0.000642187488849
1.59855326619e-05
0.000655888261228
1.70386302089e-05
0.000671111740703
1.78930038886e-05
0.000687667469447
1.8726779164e-05
0.000705290110775
1.96782439769e-05
0.000723559800068
2.12595348243e-05
0.000741704387261
2.35233878001e-05
0.000759316326151
2.82366441509e-05
0.000774933145846
3.63674135339e-05
0.00078390895589
5.0608702498e-05
0.000785403640081
4.74146462492e-05
0.000751564014617
8.67359777948e-08
0.00018457532176
3.86203883989e-07
5.02708643247e-06
0.000564001556576
9.55417508089e-06
0.000591074940904
1.38375902265e-05
0.000600574888658
1.78947186085e-05
0.000607836322862
2.16985617343e-05
0.000616363879001
2.52125656479e-05
0.000626749023923
2.83704958664e-05
0.000639028409451
3.11865696702e-05
0.000653070281117
3.357002414e-05
0.000668725102052
3.54365974832e-05
0.000685797032443
3.68743566375e-05
0.00070384695665
3.79396076347e-05
0.000722491144819
3.84801974015e-05
0.000741160464498
3.91069487799e-05
0.000758686345802
4.04877079648e-05
0.000773549502113
4.30738512615e-05
0.000781320526685
4.95190815991e-05
0.000778957143381
4.31771587275e-05
0.000753837891563
-3.79563694679e-07
0.000213869412838
9.73279820086e-09
7.06600193637e-06
0.00055693632208
1.3712994476e-05
0.000584428777285
2.0117172421e-05
0.000594171363181
2.62340821522e-05
0.00060171979749
3.20410736004e-05
0.000610556870353
3.74654841581e-05
0.000621324200744
4.24267392342e-05
0.000634066218311
4.67975840924e-05
0.000648697460624
5.0496123237e-05
0.000665023117004
5.34467895419e-05
0.000682842078891
5.54564304653e-05
0.000701831176681
5.6351474178e-05
0.000721592233549
5.59974504295e-05
0.000741510737934
5.40824943501e-05
0.000760597712031
5.0488911098e-05
0.000777139899232
4.45127589924e-05
0.000787294196176
3.74836149523e-05
0.000785984876374
2.13693152528e-05
0.000773553366608
-7.73680315897e-07
0.00024919959588
2.34512422096e-08
9.1733627261e-06
0.000547764164738
1.80069998809e-05
0.000575596370846
2.65933365709e-05
0.000585586063143
3.4868685507e-05
0.000593445114764
4.27654416513e-05
0.000602660297677
5.0185957947e-05
0.000613903341858
5.70043103472e-05
0.00062724690735
6.30946490831e-05
0.000642605036548
6.82914030633e-05
0.000659822643397
7.23907705761e-05
0.000678738037013
7.51334975045e-05
0.000699081682938
7.6177604378e-05
0.000720543860807
7.49543833238e-05
0.0007427298441
7.05537439948e-05
0.00076499444179
6.15064119762e-05
0.000786183772443
4.53031507315e-05
0.000803494770319
1.86152882369e-05
0.000812671127377
-1.39536621141e-05
0.00081315002617
-4.53017431191e-06
0.000285102940407
2.05062147283e-07
1.13652011374e-05
0.000536400497908
2.24842079905e-05
0.000564478945918
3.33502491127e-05
0.000574721364639
4.38719981113e-05
0.000582924274029
5.39642322444e-05
0.000592568437313
6.34993542454e-05
0.000604367937376
7.23275919584e-05
0.000618417674456
8.02745259e-05
0.000634655927621
8.71300891724e-05
0.000652963154745
9.26530420604e-05
0.000673210118266
9.65107404138e-05
0.000695216741007
9.82063119662e-05
0.000718843712734
9.69647524637e-05
0.000743967006116
9.13802307667e-05
0.000770574807155
7.88132228262e-05
0.000798747109343
5.46131935754e-05
0.000827691945742
9.70186855111e-06
0.000857580722012
-5.80665555606e-05
0.000888619509258
8.32666343526e-08
0.000357221846833
-1.63606329867e-08
1.36447599854e-05
0.000522757566094
2.714542613e-05
0.000550980126636
4.04069723467e-05
0.000561461393788
5.3302305626e-05
0.000570030062645
6.57253420506e-05
0.000580145911471
7.75309594594e-05
0.000592562065209
8.85408595936e-05
0.000607406837939
9.85509492326e-05
0.00062464362206
0.000107327766265
0.00064418229083
0.00011460547886
0.000665927263524
0.00012002916547
0.000689785508971
0.0001231520439
0.00071571606148
0.000123231307234
0.000743883180863
0.000118907147539
0.000774894680987
0.000107324298849
0.000810326188717
8.21061751788e-05
0.000852907144125
2.92518869776e-05
0.000910433287253
-6.86338806321e-05
0.000994017566686
-1.51967114802e-07
0.000497490235822
-1.59633994977e-07
1.60176098983e-05
0.000506741979979
3.20151504882e-05
0.000534984592785
4.77963145e-05
0.000545681959078
6.320337313e-05
0.000554624263784
7.81140721438e-05
0.000565235752604
9.23662147775e-05
0.00057830986863
0.000105759873236
0.000594012364398
0.000118066998033
0.000612334299255
0.000129032210169
0.000633213005883
0.000138395217263
0.000656559084569
0.000145876248434
0.000682296851402
0.000151171235261
0.000710416265022
0.000153947957714
0.00074110190622
0.00015378564752
0.000775052757131
0.000149826236999
0.000814281903521
0.000139624545273
0.000863105988194
0.00012470679759
0.000925349396097
0.000114826433614
0.00100389793084
-4.85469274998e-07
0.000802875386208
-6.44549922422e-07
1.84808540922e-05
0.000488263229387
3.7087582295e-05
0.000516379946498
5.55252690816e-05
0.000527246033938
7.35981547976e-05
0.000536552572661
9.11740099651e-05
0.000547660542499
0.00010807475648
0.000561409370189
0.000124077920537
0.00057800837489
0.000138924826303
0.000597485224467
0.000152351451501
0.00061978240815
0.000164096888403
0.000644808644065
0.00017394555423
0.000672440774145
0.000181799079874
0.000702558116118
0.000187812751338
0.000735083938642
0.000192839133123
0.000770022447922
0.00019925453813
0.000807863126446
0.000211797505796
0.00085056049648
0.000216838607362
0.000920306856093
0.000329017498292
0.000891718841866
-3.49959668457e-06
0.00124965951144
-4.1441499286e-06
2.10258959334e-05
0.000467239348457
4.23567807635e-05
0.000495050988041
6.35840609151e-05
0.000506020546504
8.44909546443e-05
0.000515647048459
0.000104927368241
0.000527225257025
0.000124701789423
0.000541634972625
0.000143561592371
0.000559147686685
0.000161220122964
0.00057982459101
0.000177365610045
0.000603633223554
0.000191708807023
0.000630460870172
0.000204044918961
0.000660097852936
0.000214347561708
0.00069225133265
0.0002229380425
0.000726489738368
0.000231073849382
0.000761883356128
0.000244305898188
0.0007946283733
0.000279945259646
0.000814919207874
0.00039235847825
0.000807892527487
0.000513106270939
0.000770970498673
0.00165316149786
0.000133742405546
3.3605458764e-07
2.3642214472e-05
0.000443599118986
4.78000007204e-05
0.000470894984994
7.19521003565e-05
0.00048186983856
9.58574356779e-05
0.00049174305635
0.000119366522881
0.000503716706965
0.000142274197303
0.000518727102187
0.000164292863469
0.000537128063742
0.000185064820822
0.000559050670532
0.000204201956898
0.000584492883962
0.000221338981983
0.000613320020237
0.000236180562788
0.000645250543131
0.000248594323029
0.000679834284755
0.000258570455787
0.000716510854746
0.00026553994101
0.000754911642213
0.000264054009664
0.000796112638876
0.000228277351942
0.000850694832901
0.000101700996698
0.000934468398173
-0.000228346040254
0.00110101750962
-3.36047930774e-07
3.45804293324e-05
-2.33463479353e-13
2.63060103848e-05
0.000417294517291
5.33712846933e-05
0.000443831110636
8.05607479901e-05
0.000454681770749
0.000107634766787
0.000464669923392
0.000134446522336
0.000476905193509
0.000160779924759
0.000492393340009
0.000186300485847
0.000511606546504
0.000210566471249
0.000534782979518
0.000233066576068
0.000561990394475
0.000253274191699
0.000593109763699
0.000270739660858
0.00062778098459
0.000285167719802
0.000665404232549
0.000296390979005
0.000705286287852
0.000303652339148
0.000747649572386
0.000304180688065
0.000795584092074
0.000299939182108
0.000854936560545
0.00032193900053
0.000912468957575
0.000460238270769
0.000962718208263
-8.76786737751e-13
0.000665847573316
9.76121040146e-14
2.89710016229e-05
0.000388324747752
5.89883352066e-05
0.00041381476093
8.93027603484e-05
0.000424367936149
0.000119699321615
0.000434273230746
0.00015005617906
0.000446548401801
0.00018015664749
0.000462292413339
0.000209615758802
0.000482146647166
0.000237879843565
0.000506517917638
0.00026425188724
0.000535617531818
0.000287969330434
0.000569391926412
0.000308331868591
0.000607417173618
0.000324900778961
0.000648835892731
0.00033795755758
0.000692230988647
0.000349759443477
0.000735850074882
0.000366946172882
0.000778400127449
0.000402957096224
0.00081892852482
0.000450470098158
0.000864958234773
0.000603019646427
0.000810168616464
-4.2046980524e-14
0.00132497008612
5.48002276446e-14
3.15736078666e-05
0.00035675148477
6.45274422312e-05
0.00038086108895
9.80005307706e-05
0.000390894835846
0.000131845242827
0.000400428792421
0.000165998168852
0.000412395094738
0.000200265433657
0.000428024889636
0.00023421636223
0.00044819593694
0.000267160147452
0.000473574573454
0.000298139429376
0.000504640404868
0.000326034119646
0.000541498703589
0.000349761328971
0.000583694596342
0.000368472899215
0.000630128764626
0.000382064203884
0.000678645773408
0.000393464953279
0.000724455853651
0.000415707716675
0.000756164519497
0.000474740333996
0.000759901892442
0.000629012323578
0.000710690875129
0.00090760859506
0.000531572259162
0.00273187508178
-0.000481206408552
-2.87614871717e-09
3.40346266814e-05
0.000322716319886
6.98238929615e-05
0.000345071426416
0.000106405912963
0.000354312202729
0.000143762483886
0.000363072337983
0.000181945146476
0.000374212269537
0.000220830988808
0.000389140409046
0.000259966694557
0.000409061504453
0.000298532434067
0.000435011075484
0.000335189488145
0.000467985623263
0.000368284407409
0.000508409234251
0.000396177032587
0.000555808881104
0.000417321119582
0.00060899239739
0.000429954163077
0.000666021339387
0.000429500036909
0.000724919945403
0.000397078979779
0.000788594893942
0.000287793412302
0.000869195938064
3.64348306836e-05
0.000962055300654
-0.000425539942481
0.000993547032299
-6.08546492855e-12
-0.000187571920795
4.42619445368e-11