/*--------------------------------*- C++ -*----------------------------------*\
| =========                 |                                                 |
| \\      /  F ield         | OpenFOAM: The Open Source CFD Toolbox           |
|  \\    /   O peration     | Version:  v2012                                 |
|   \\  /    A nd           | Website:  www.openfoam.com                      |
|    \\/     M anipulation  |                                                 |
\*---------------------------------------------------------------------------*/
FoamFile
{
    version     2.0;
    format      ascii;
    class       volScalarField;
    location    "1.2";
    object      nut;
}
// * * * * * * * * * * * * * * * * * * * * * * * * * * * * * * * * * * * * * //

dimensions      [0 2 -1 0 0 0 0];


internalField   nonuniform List<scalar> 
1984
(
0.000736960041223
0.000886506881853
0.000900102176147
0.000904158570905
0.000906288214144
0.000908105015697
0.000909894074804
0.000911699145279
0.00091352986046
0.000915405556094
0.000917433910645
0.000920119387566
0.000925484680304
0.000940149308155
0.000980821442806
0.001076937135
0.00125940480562
0.00154466886253
0.00193012019529
0.00238040315819
0.000888173393158
0.00129932586026
0.00132560882108
0.00133294012032
0.00133592576112
0.00133808121132
0.00134011485238
0.00134214628527
0.0013441990098
0.00134631176802
0.00134868990062
0.00135223720302
0.00136034724608
0.00138337095713
0.0014453628022
0.00158349744078
0.00182527627075
0.00216524342342
0.0025973325605
0.00317408141575
0.000905445923935
0.0013324831325
0.00136159999556
0.00136957036407
0.00137259310678
0.00137468323052
0.00137666066983
0.00137865923404
0.00138069857142
0.00138281610329
0.00138522333279
0.00138884793375
0.00139710322589
0.00142021572666
0.0014816330942
0.00161748409824
0.00185608150122
0.0021973772391
0.002632825529
0.00318989254556
0.00091142264528
0.00134377648879
0.0013738761456
0.00138200598546
0.00138496013057
0.00138695854408
0.00138886770957
0.00139082407413
0.00139284390793
0.00139495786284
0.00139737341127
0.00140100962892
0.00140923141909
0.00143209092737
0.00149262488802
0.00162658185726
0.00186287230549
0.00220292971018
0.002637794766
0.00319178513792
0.000914095744784
0.0013482602473
0.00137862454035
0.00138672048645
0.00138955699922
0.00139143848777
0.00139325191058
0.00139513549457
0.00139710143647
0.00139917948613
0.00140156521411
0.00140516113885
0.00141327670926
0.00143580748406
0.00149551218881
0.00162799639075
0.00186273260353
0.00220238722653
0.00263880000019
0.00319253897554
0.00091584264148
0.00135072301126
0.00138111498727
0.00138912029851
0.00139182917324
0.00139358640331
0.00139529113257
0.00139708311193
0.00139897348137
0.00140098892917
0.00140332073557
0.00140684676512
0.00141481527386
0.00143696636027
0.00149580749318
0.0016268600325
0.00186014243676
0.00219926910537
0.00263638623287
0.00319186735833
0.000917334023808
0.00135262011944
0.00138298224344
0.0013908950387
0.0013934852819
0.00139512335525
0.00139671856291
0.00139841352613
0.00140021957778
0.00140216147372
0.00140442428549
0.00140786293947
0.00141565757895
0.00143738176259
0.00149527637996
0.00162475486553
0.00185631544518
0.00219445628045
0.00263187634153
0.00319024691896
0.000918744981651
0.00135436212073
0.00138469381205
0.00139252907254
0.00139501608054
0.00139654584
0.00139803735359
0.00139963706632
0.00140135742271
0.00140322214632
0.00140540991037
0.00140875146372
0.00141635154834
0.00143760003189
0.00149444170897
0.0016221471273
0.00185165502681
0.00218833049372
0.00262581454039
0.00318796381318
0.000920116189077
0.0013560542237
0.00138636942233
0.00139414479065
0.00139654454712
0.00139797847886
0.00139937504751
0.00140088494946
0.00140252240898
0.0014043106039
0.00140642185175
0.00140966059972
0.00141704791438
0.00143776805575
0.0014934288262
0.00161911837071
0.00184624348871
0.00218111675263
0.00261838412599
0.00318506440072
0.000921454146722
0.00135771855076
0.00138803314712
0.00139576477679
0.00139809183659
0.00139944218191
0.00140075345019
0.00140218069442
0.00140374018428
0.00140545494629
0.00140749061516
0.00141062306121
0.00141778036622
0.00143791565999
0.00149225040393
0.00161564179668
0.00183997531548
0.00217264908636
0.00260959762913
0.00318161072124
0.000922757251062
0.00135935620591
0.00138968503275
0.00139738687464
0.00139965394629
0.00140093198592
0.00140216754497
0.00140351990592
0.00140500749495
0.00140665323755
0.00140861580334
0.00141163992998
0.00141855131439
0.00143804605551
0.00149091001327
0.00161172243738
0.00183287784091
0.00216295132331
0.00259933040777
0.00317761292436
0.000924022155471
0.00136096349104
0.00139131998169
0.00139900402939
0.00140122209885
0.00140243798464
0.00140360694336
0.00140489229729
0.00140631453344
0.00140789649886
0.00140978936438
0.00141270420348
0.00141935446899
0.00143815088899
0.0014893860327
0.00160730288854
0.00182484474272
0.00215194842818
0.00258758071628
0.00317301423598
0.00092524516973
0.00136253580807
0.00139293226319
0.00140060896855
0.00140278757106
0.00140395036058
0.00140506119848
0.00140628721748
0.00140765084601
0.00140917468144
0.00141100194198
0.00141380746323
0.00142018294357
0.00143822602376
0.00148767920271
0.00160238576826
0.00181584213904
0.00213945818311
0.00257411990188
0.00316787231716
0.000926422497834
0.00136406845469
0.00139451637001
0.00140219502032
0.00140434251225
0.00140546029671
0.0014065208481
0.00140769496073
0.00140900668941
0.00141047829175
0.0014122444255
0.00141494147174
0.00142103014935
0.00143826759356
0.00148578708598
0.00159695876225
0.00180583126975
0.0021254230637
0.00255886238453
0.00316210464927
0.000927550237703
0.00136555670757
0.00139606704568
0.00140375606522
0.00140587988609
0.00140696001897
0.00140797775424
0.0014091069417
0.0014103733169
0.00141179850406
0.00141350863882
0.00141609870531
0.0014218903415
0.001438272161
0.00148370402949
0.00159099740694
0.00179476068779
0.00210981031742
0.00254182411602
0.00315577713896
0.000928624356757
0.00136699577733
0.00139757917959
0.00140528640187
0.00140739350769
0.00140844291496
0.00140942460697
0.0014105159244
0.00141174318549
0.0014131283427
0.00141478751897
0.00141727341079
0.00142276012397
0.00143824197223
0.00148143970869
0.00158450961969
0.00178260081305
0.0020925092685
0.00252288788491
0.00314889188004
0.000929640709587
0.00136838085169
0.00139904778219
0.00140678089742
0.00140887770574
0.00140990274648
0.00141085489205
0.00141191596748
0.0014131102733
0.00141446161902
0.00141607523189
0.00141846080756
0.00142363792003
0.00143818296604
0.00147901584304
0.00157753173257
0.001769364528
0.0020734114536
0.0025016972425
0.00314133501454
0.000930595032479
0.00136970699699
0.00140046816458
0.00140823423026
0.00141032658979
0.00141133292472
0.00141225963758
0.00141329005043
0.00141445757278
0.00141578004199
0.00141735356345
0.00141964331357
0.00142450977138
0.00143809264402
0.0014764514376
0.00157010511181
0.0017550846969
0.0020525000657
0.00247816709339
0.00313310539664
0.000931482826103
0.0013709695235
0.00140183516522
0.00140964035584
0.00141173374465
0.00141272164675
0.00141362889685
0.00141463989202
0.00141578653202
0.00141708610474
0.00141862531536
0.00142082431353
0.00142538230252
0.00143798672127
0.00147378200137
0.0015622895278
0.00173981934977
0.00202976704204
0.0024521168677
0.00312418317067
0.000932297516471
0.00137215992439
0.0014031427358
0.00141099397404
0.00141308926434
0.00141406869528
0.00141496242132
0.00141595931905
0.00141709096607
0.00141837374649
0.00141988481628
0.00142199955628
0.0014262552102
0.00143787604202
0.00147104302995
0.00155415543136
0.00172363652585
0.00200520680579
0.00242338979086
0.00311460285958
0.000933034594276
0.00137327263437
0.00140438117684
0.00141228575927
0.00141439229819
0.00141536816431
0.00141625371297
0.00141724179377
0.00141836429623
0.00141963642733
0.00142112583667
0.00142316403413
0.00142712751796
0.00143777211312
0.00146827623663
0.00154579281095
0.00170664375949
0.00197887055962
0.00239196552986
0.00310449097081
0.000933688596077
0.00137430253421
0.00140554865579
0.0014135138001
0.00141563676361
0.00141661365952
0.00141749623417
0.00141848096235
0.00141960025963
0.00142086799883
0.00142234257654
0.00142431307254
0.00142799849795
0.00143768691136
0.00146552646478
0.00153730740249
0.00168900389693
0.00195089403894
0.00235776340682
0.00309400034145
0.000934253138095
0.00137524244634
0.00140663846285
0.0014146715492
0.00141681600958
0.00141779870588
0.00141868361749
0.00141967073256
0.00142079300096
0.0014220628847
0.00142352992673
0.00142544269655
0.0014288678594
0.00143763189291
0.00146283575119
0.00152880140668
0.00167089980788
0.00192153077698
0.00232111229946
0.00308350434919
0.000934721428821
0.00137608451041
0.00140764311848
0.0014157519755
0.00141792333111
0.00141891691649
0.00141980974003
0.00142080534847
0.00142193715665
0.00142321613173
0.0014246835102
0.00142654965764
0.00142973577065
0.00143761821178
0.00146024364254
0.00152038120177
0.00165255967392
0.00189115010223
0.00228252132414
0.00307325501964
0.000935086740989
0.00137681990859
0.00140855459585
0.00141674784945
0.00141895193688
0.00141996188441
0.00142086859415
0.00142187928707
0.00142302782992
0.0014243232834
0.00142579949284
0.00142763127712
0.00143060281347
0.00143765720983
0.0014577813504
0.00151214025772
0.00163430746415
0.00186024942815
0.00224275791532
0.00305256041734
0.00093534374561
0.00137743605695
0.00140936336084
0.00141765126593
0.00141989445719
0.00142092674737
0.00142185382987
0.00142288700894
0.00142406050336
0.00142538037724
0.00142687498013
0.00142868614816
0.00143147104221
0.00143776489993
0.00145552762423
0.00150420518121
0.00161699202388
0.00183085479477
0.00218785524752
0.00274218471362
0.000935523090547
0.00137788081052
0.00141003705923
0.00141844337702
0.00142073739
0.00142179960422
0.00142275419244
0.00142381704519
0.0014250237104
0.00142637723999
0.00142790081362
0.00142970708727
0.00143234157335
0.00143798024124
0.00145372570216
0.00149760328554
0.0016013228266
0.00180209261691
0.00213652142252
0.00261207156816
0.000935682050893
0.00137813066793
0.00141054412133
0.00141910241767
0.00142147079612
0.00142257565759
0.00142356702586
0.00142466911835
0.00142591939442
0.00142731784779
0.00142888282464
0.00143070585686
0.00143324244722
0.00143836542466
0.00145238011767
0.00149175746576
0.00158692219521
0.00177526206501
0.00209424778959
0.00255403210827
0.000935774733883
0.00137819150078
0.00141088182118
0.00141962352718
0.00142208588488
0.00142324568855
0.00142428341076
0.00142543422321
0.00142673636879
0.00142819257332
0.00142981471565
0.00143167543649
0.00143415658603
0.00143887074733
0.00145138479664
0.0014866958388
0.00157378591399
0.00175075290514
0.00208164397798
0.0029343297015
0.00093577659736
0.00137805685248
0.00141103996452
0.00141999462687
0.00142257123884
0.00142379910499
0.00142489421183
0.00142610462052
0.00142747146602
0.00142899881734
0.00143069324853
0.00143261263156
0.00143507771178
0.00143947074127
0.00145069334117
0.00148235609432
0.00156186384505
0.00172736607568
0.00205887696009
0.00300027125396
0.000935668605517
0.00137771334056
0.00141100550295
0.0014202021379
0.00142291384964
0.00142422400591
0.00142538870288
0.00142667136587
0.00142811690116
0.00142972979134
0.00143151370996
0.00143351393629
0.0014359990884
0.00144015196353
0.00145027436413
0.00147867154199
0.00155112809989
0.00170477452135
0.00199516159743
0.00266214738549
0.000935432909141
0.00137714493186
0.00141076182109
0.00142022992085
0.00142309904219
0.00142450728055
0.00142575512254
0.00142712393845
0.0014286633554
0.00143037813685
0.00143227003855
0.0014343739431
0.00143691425169
0.00144090152199
0.00145009488051
0.0014755693089
0.00154187073568
0.00169752209151
0.00211020475635
0.00304106467463
0.000935051937845
0.00137633428854
0.00141029083164
0.00142006004784
0.001423110467
0.00142463434621
0.00142598043895
0.00142745068314
0.0014291005527
0.00143093515102
0.00143295458133
0.00143518516468
0.00143781400553
0.00144170124443
0.00145011295868
0.00147295134732
0.00153379682836
0.00169763953983
0.00224621934531
0.00319827672169
0.000934508174582
0.00137526197923
0.0014095718904
0.00141967243413
0.00142292989763
0.00142458895424
0.00142605020129
0.00142763888077
0.00142941736984
0.00143139119032
0.00143355883367
0.00143593875391
0.00143868590168
0.00144252633611
0.00145027072819
0.00147066885656
0.00152608772766
0.00168712219154
0.00234673128906
0.00330935718894
0.000933783879041
0.00137390781988
0.00140858307635
0.00141904514697
0.00142253720229
0.00142435314973
0.00142594851876
0.00142767464033
0.00142960184257
0.00143173612973
0.00143407403549
0.0014366260279
0.00143951784397
0.00144335314409
0.00145051897388
0.00146864996317
0.00151899940851
0.00168414069693
0.00239876869012
0.00338916116576
0.00093286071411
0.00137225141008
0.00140730139798
0.00141815464178
0.00142191039453
0.0014239072817
0.00142565813134
0.00142754303504
0.00142964137674
0.00143195982725
0.00143449230635
0.00143724087364
0.00144030369815
0.00144417110803
0.0014508264397
0.00146674732003
0.0015101797438
0.00165232065163
0.00224039582416
0.00319308064775
0.000931719727692
0.0013702726285
0.00140570387507
0.00141697626982
0.00142102589702
0.00142323005292
0.00142516032945
0.00142722804004
0.00142952292736
0.00143205254001
0.00143480744082
0.00143778103467
0.00144104588983
0.00144499135843
0.0014512496028
0.00146544840313
0.00150687136413
0.00170599104945
0.00233462448398
0.0033969467043
0.000930341949833
0.00136795423787
0.0014037694699
0.00141548572828
0.00141985922251
0.00142229875313
0.00142443502826
0.00142671277911
0.00142923342235
0.00143200541462
0.00143501515446
0.00143824746684
0.00144175327214
0.00144584507095
0.00145189339513
0.00146480720617
0.00150266780606
0.00167329103902
0.00250635147392
0.00341205342473
0.000928709909469
0.00136528540839
0.00140148182143
0.0014136607906
0.00141838609463
0.00142108995876
0.00142346127172
0.00142597989044
0.00142875992852
0.00143181058364
0.00143511285364
0.00143864207651
0.00144242795589
0.00144671313458
0.00145262103437
0.00146426565023
0.00149746869567
0.0016427347105
0.00231385486078
0.00342706856616
0.000926809684962
0.00136226444839
0.00139883235781
0.00141148403972
0.00141658431331
0.00141958072275
0.00142221806578
0.001425012123
0.00142809025083
0.0014314631209
0.00143510077835
0.0014389708948
0.00144307326281
0.00144757066875
0.0014533056064
0.00146341234256
0.00149027271562
0.00160863373145
0.00216967065853
0.00318298747153
0.000924632623269
0.00135890161897
0.00139582391664
0.00140894658808
0.00141443684816
0.00141775102755
0.00142068604461
0.00142379376352
0.00142721689969
0.0014309607374
0.00143498991887
0.0014392514032
0.00144371972142
0.00144846888114
0.00145409665922
0.00146329534828
0.00149384548513
0.00176877976064
0.00251822002188
0.00339140951536
0.000922179256919
0.00135522537839
0.00139247755184
0.00140605331651
0.00141193736468
0.00141558672519
0.00141884932286
0.00142231420172
0.0014261329736
0.00143031189366
0.00143479241237
0.00143951095706
0.00144442806424
0.00144959351593
0.00145548491079
0.00146453345228
0.00149211755397
0.00168015443245
0.00252548057985
0.00336406583439
0.000919466231303
0.00135129463124
0.00138884142789
0.00140283367824
0.00140909336161
0.00141308578909
0.00141669908686
0.00142056047829
0.00142484288161
0.00142952780126
0.0014345327615
0.00143977991946
0.00144523602909
0.00145094848173
0.0014573342565
0.00146639055755
0.00149124482402
0.00164111334517
0.00240269283301
0.00333640743417
0.000916530655063
0.00134720652737
0.00138500089764
0.00139934152227
0.0014059360876
0.00141025068628
0.00141423052435
0.00141853407103
0.00142335423517
0.00142862605633
0.00143422240138
0.00144005254709
0.00144609956063
0.0014524011871
0.00145933146388
0.00146842411716
0.00149124249468
0.00162473688203
0.00235697020045
0.00338396496165
0.000913443818561
0.00134311636776
0.00138109619227
0.00139568487648
0.00140252734151
0.0014071123877
0.00141141982239
0.00141614343606
0.00142153211177
0.00142743855799
0.00143367229524
0.00144013947407
0.00144682730524
0.00145373565319
0.00146119235198
0.00147042686715
0.00149168745395
0.00162139881937
0.0023964883221
0.00345323735014
0.000910307912468
0.00133922655587
0.00137731645078
0.00139201535093
0.00139896386659
0.00140364813014
0.00140797765829
0.00141249676512
0.00141798049777
0.00142422009968
0.00143100793091
0.00143826865177
0.00144595634966
0.00145387758682
0.00146215441136
0.00147181641192
0.00149011871571
0.00159025795385
0.00222093651912
0.00335824688938
0.00090725738126
0.00133577295845
0.00137389070526
0.00138852496511
0.00139532425294
0.00139956599254
0.00140224624567
0.00140139274112
0.00140406953117
0.00140875786908
0.00141556611712
0.00142438120002
0.00143537368122
0.0014470600001
0.00145817967756
0.00146947679417
0.00148546083494
0.00155026326651
0.00195837550477
0.00299685786364
0.000904446115437
0.00133297104997
0.00137104736334
0.00138541457181
0.00139161737065
0.00139396790435
0.00138876949002
0.00136080018304
0.000993767066896
0.000986419419505
0.000990096592051
0.00100217258942
0.00138203812644
0.00141577449181
0.00143900857538
0.00145699397387
0.0014756445405
0.00153768732751
0.00193093168776
0.00327166139922
0.000902060313858
0.00133099793964
0.00136901323245
0.0013828915644
0.00138780231409
0.00138629550227
0.00136797186663
0.000952523746883
0.001000615867
0.00138818011868
0.00141926250984
0.0014424323589
0.00146636921803
0.00155563474094
0.00216080879383
0.00351333724434
0.000900409543652
0.00132979707156
0.00136792378764
0.00138163845706
0.00138597809276
0.00138252989101
0.00135813656384
0.00092948420773
0.000947813647094
0.00137483052922
0.00140817557215
0.00143181042032
0.00145666893789
0.00152825202967
0.00195983499893
0.00318158276978
0.000900409615699
0.00132979716189
0.00136792380012
0.00138163838531
0.00138597798762
0.00138252982904
0.00135813672628
0.000929484292726
0.000947817707258
0.00137484061129
0.00140819299563
0.00143182676913
0.0014566865092
0.00152827119815
0.00195985196346
0.0031815889895
0.000902060517852
0.00133099832669
0.00136901345185
0.00138289160282
0.00138780222403
0.00138629550374
0.0013679721284
0.000952524145215
0.0010006247851
0.00138819686513
0.00141929373347
0.00144246244454
0.00146639766725
0.00155565571389
0.00216082449462
0.00351334410249
0.000904446314533
0.00133297157896
0.00137104777799
0.00138541484056
0.00139161758632
0.00139396820577
0.00138877027891
0.00136080178723
0.000993768585123
0.000986422075836
0.000990101283216
0.00100218070087
0.00138205674349
0.00141580118552
0.00143905669446
0.00145703779836
0.00147568657843
0.00153771512845
0.00193093534531
0.00327168489165
0.000907257734301
0.00133577389331
0.00137389166622
0.00138852592692
0.00139532527704
0.00139956719778
0.00140224782032
0.00140139524497
0.00140407332895
0.0014087634079
0.00141557437946
0.00142439137837
0.00143538621948
0.00144708048422
0.00145822755119
0.00146952590081
0.00148551196675
0.00155030802621
0.00195841991394
0.0029969999676
0.000910308528979
0.00133922797497
0.00137731806458
0.00139201709244
0.00139896575068
0.0014036504712
0.00140798066585
0.00141250069402
0.0014179858203
0.001424227154
0.00143101723342
0.00143828067486
0.00144597049764
0.00145389982433
0.00146220274043
0.00147186816306
0.00149017258695
0.00159029932546
0.00222096514469
0.00335826960233
0.000913444853103
0.00134311835015
0.00138109847094
0.00139568724181
0.00140252956486
0.00140711542905
0.00141142388528
0.00141614864693
0.00142153872301
0.00142744681309
0.00143368256197
0.0014401517949
0.00144684179563
0.00145375841947
0.00146123885784
0.0014704777422
0.00149173746572
0.00162142953861
0.00239651692016
0.00345323929918
0.000916532115171
0.00134720904929
0.0013850037056
0.00139934407845
0.0014059365408
0.00141025360039
0.00141423488516
0.00141853986493
0.00142336150621
0.00142863486289
0.00143423296524
0.00144006470557
0.00144611343927
0.00145242320205
0.00145937460789
0.00146847175764
0.00149128620243
0.00162475583659
0.00235698375387
0.00338396966775
0.000919467625033
0.00135129709091
0.00138884436385
0.00140283595483
0.00140909579133
0.00141308705617
0.00141670300235
0.00142056627335
0.00142485023199
0.0014295363248
0.00143454269734
0.00143979142435
0.00144524951715
0.00145097012755
0.0014573750441
0.00146643502089
0.00149128344696
0.00164112635858
0.00240270432028
0.00333641164747
0.00092218249557
0.00135523099863
0.00139248330882
0.00140605970359
0.00141194313046
0.00141559305568
0.00141885606091
0.00142231964848
0.00142614116507
0.00143032063682
0.00143480323252
0.00143952473503
0.0014444457651
0.00144962003427
0.001455529937
0.00146458046566
0.00149216096684
0.00168017985541
0.00252549711392
0.00336407374242
0.000924637319314
0.00135890979385
0.00139583242142
0.00140895515084
0.00141444580194
0.00141776008073
0.00142069544463
0.00142380381044
0.00142722764949
0.00143097332408
0.00143500297524
0.00143926788539
0.00144373995011
0.00144849844001
0.00145414361377
0.00146334307007
0.00149388892834
0.00176880242032
0.00251822252073
0.003391414066
0.000926815760146
0.00136227491434
0.00139884315877
0.00141149494394
0.00141659542802
0.00141959218117
0.00142223005622
0.00142502488753
0.00142810489932
0.00143147752378
0.00143511701903
0.00143899055007
0.00144309759078
0.00144760369913
0.00145335687365
0.00146346179636
0.00149031898652
0.00160865530065
0.00216967337632
0.00318299143617
0.000928717300146
0.00136529823285
0.00140149510122
0.00141367421631
0.00141839974722
0.00142110402868
0.00142347603428
0.00142599563176
0.00142877807776
0.00143182786225
0.00143513015759
0.00143866478273
0.00144245474455
0.00144674859181
0.00145267393051
0.00146431430867
0.00149751235475
0.00164276318739
0.00231386920716
0.00342707190476
0.000930350227115
0.00136796862939
0.0014037844218
0.0014155009141
0.00141987471727
0.00142231473695
0.00142445188593
0.00142673108601
0.00142925477764
0.00143202528852
0.00143503522773
0.00143827479178
0.00144178333793
0.0014458834555
0.00145194789783
0.00146485470648
0.0015027118269
0.00167331551423
0.00250636154775
0.00341205586466
0.000931728607298
0.00137028797926
0.00140571989543
0.00141699261402
0.00142104261487
0.0014232473718
0.00142517841234
0.00142724755831
0.00142954596483
0.00143207405053
0.00143482997341
0.00143781205653
0.00144107932487
0.0014450339523
0.00145130619575
0.00146549582091
0.00150691506427
0.00170600931933
0.00233459736681
0.00339694366422
0.000932868960281
0.00137226560997
0.00140731627746
0.00141816990191
0.00142192610673
0.00142392360375
0.00142567528123
0.00142756131
0.00142966236683
0.00143198140795
0.00143451569032
0.00143727325848
0.00144033856947
0.00144421596336
0.00145088428585
0.00146679447711
0.00151022443505
0.00165233952175
0.0022403306703
0.00319305470714
0.000933792256738
0.00137392221271
0.00140859825444
0.0014190608177
0.00142255343833
0.00142437007885
0.00142596627221
0.00142769317331
0.00142962111594
0.00143175636326
0.00143409578117
0.0014366549359
0.00143955196532
0.00144339768086
0.00145057466274
0.00146869574752
0.00151904461993
0.0016841694299
0.00239874868556
0.00338916652452
0.000934516669908
0.00137527658506
0.00140958737635
0.00141968849763
0.00142294661654
0.00142460645601
0.00142606859591
0.00142765808612
0.00142943724462
0.00143141196342
0.001433580686
0.00143596504648
0.00143871673853
0.00144256597869
0.00145032248226
0.00147071305047
0.00152613377215
0.00168716481141
0.00234674827946
0.0033093508759
0.000935060518077
0.0013763490618
0.00141030654604
0.001420076394
0.00142312752467
0.00142465225259
0.00142599929844
0.00142747042987
0.001429121057
0.00143095661659
0.00143297714914
0.00143521159651
0.00143784423083
0.00144173756144
0.00145016208807
0.00147299461881
0.00153384359909
0.00169769133266
0.00224623906395
0.00319828398258
0.000935441553691
0.00137715983666
0.00141077770038
0.00142024646017
0.0014231163233
0.00142452544586
0.00142577427831
0.00142714401507
0.00142868425637
0.00143040011055
0.0014322932452
0.00143440082646
0.00143694475575
0.00144093764153
0.00145014288475
0.00147561249048
0.00154191787477
0.00169757220348
0.00211023668304
0.00304109510866
0.000935677302132
0.00137772836096
0.00141102151272
0.00142021882313
0.00142293129409
0.00142424235317
0.00142540804889
0.00142669160574
0.00142813792861
0.00142975204642
0.00143153743203
0.00143354136506
0.00143603013648
0.00144018839217
0.00145032182228
0.00147871551294
0.00155117550686
0.00170482247475
0.00199520089823
0.0026621810782
0.000935785340474
0.00137807197682
0.00141105610015
0.00142001145631
0.00142258884612
0.00142381763167
0.00142491371978
0.00142612490518
0.00142749231118
0.00142902111921
0.00143071745427
0.00143264072667
0.00143510944414
0.00143950758115
0.00145074008452
0.00148240146428
0.00156191298241
0.00172741436599
0.00205892741527
0.00300030974589
0.000935783523647
0.00137820674434
0.00141089810463
0.00141964053274
0.00142210369617
0.00142326444549
0.00142430310843
0.00142545446977
0.00142675665231
0.00142821468809
0.0014298395048
0.00143170433301
0.00143418888411
0.00143890761092
0.00145142976524
0.00148674159416
0.00157383627675
0.00175080172336
0.00208168610211
0.00293435487432
0.00093569085817
0.0013781460181
0.00141056055584
0.00141911961688
0.00142148884716
0.00142259470253
0.00142358699134
0.00142468939078
0.00142593885661
0.00142733974063
0.00142890858372
0.00143073568057
0.0014332754996
0.00143840219546
0.001452422458
0.00149180227637
0.00158697176893
0.00177530711547
0.00209428302931
0.00255404401888
0.000935531845023
0.00137789620291
0.00141005360055
0.00141846074487
0.0014207556779
0.00142181895777
0.00142277469537
0.00142383837349
0.00142504560994
0.00142640211961
0.00142792866783
0.00142973810412
0.0014323755576
0.00143801706149
0.00145376459915
0.00149764344058
0.0016013671934
0.00180213222922
0.00213654555007
0.00261208128339
0.000935351948587
0.00137745056767
0.00140937902122
0.00141766780372
0.00141991198214
0.00142094542266
0.00142187377105
0.00142290813865
0.00142408268486
0.00142540557588
0.00142690292935
0.00142871691443
0.00143150455778
0.00143780067513
0.00145556413036
0.00150424113203
0.00161702931744
0.0018308866408
0.00218787296924
0.00274218785712
0.000935095220399
0.00137683488485
0.0014085707942
0.00141676504131
0.00141897026526
0.00141998155617
0.00142088982143
0.00142190228568
0.00142305282814
0.00142435102854
0.00142583020357
0.00142766510561
0.00143063958184
0.00143769593778
0.00145782018097
0.00151217706292
0.00163434255865
0.0018602800829
0.00224277370281
0.00305256447153
0.000934729510148
0.00137609861492
0.00140765840436
0.00141576829708
0.00141794084803
0.00141893581523
0.00141983023322
0.00142082767381
0.00142196159307
0.00142324303672
0.00142471314232
0.00142658216335
0.00142977082661
0.00143765450866
0.00146027870414
0.00152041281978
0.00165258848044
0.00189117476691
0.00228253391491
0.00307325648475
0.000934260942574
0.00137525605854
0.00140665320396
0.00141468740158
0.00141683319948
0.00141781739279
0.00141870399282
0.00141969306167
0.00142081757194
0.00142209001005
0.00142355988059
0.00142547555437
0.00142890308756
0.00143766780671
0.00146286932586
0.00152883020879
0.00167092490917
0.00192155176843
0.0023211225753
0.00308350535296
0.00093369597359
0.00137431535541
0.00140556240875
0.00141352878257
0.00141565335443
0.00141663194784
0.00141751630134
0.00141850308626
0.00141962470868
0.00142089508488
0.00142237257203
0.00142434597514
0.00142803349774
0.00143772198
0.00146555812001
0.00153733308753
0.00168902526199
0.0019509115255
0.00235777156252
0.00309400136771
0.000933041375376
0.00137328428497
0.00140439327241
0.00141229930075
0.00141440790573
0.00141538587576
0.00141627332269
0.00141726361369
0.00141838850983
0.00141966334035
0.00142115575361
0.00142319687289
0.00142716201319
0.00143780595776
0.00146830561018
0.00154581512619
0.00170666130828
0.00197888478454
0.00239197231093
0.00310449183916
0.000932303529157
0.00137217011773
0.00140315261838
0.00141100563013
0.00141310333535
0.00141408558374
0.0014149813689
0.00141598080447
0.00141711492643
0.00141840046467
0.00141991476086
0.00142203260561
0.0014262892088
0.00143790854871
0.00147107011843
0.0015541745743
0.00172365065577
0.00200521836834
0.00242339562177
0.00311460374904
0.000931488337219
0.00137097970143
0.00140184686613
0.00140965419457
0.00141174588863
0.0014127373303
0.00141364670735
0.0014146608616
0.00141581006916
0.00141711243557
0.0014186554459
0.00142085806678
0.00142541577501
0.00143801766861
0.001473806851
0.00156230592733
0.00173983086009
0.00202977682848
0.00245212155731
0.00312418376067
0.000930601221444
0.00136971950356
0.00140048180614
0.00140824922142
0.00141034038262
0.00141134613203
0.00141227438985
0.00141330893237
0.00141447903089
0.00141580441047
0.00141738227171
0.00141967663931
0.0014245415058
0.00143812053691
0.00147647278696
0.00157011812253
0.00175509327518
0.00205250782897
0.0024781685962
0.00313310486569
0.000929647169984
0.00136839401875
0.00139906122397
0.00140679560081
0.00140889196462
0.00140991723958
0.00141086991242
0.00141193047183
0.00141312733116
0.00141448109842
0.0014160999208
0.00141849101883
0.00142366569695
0.00143820549366
0.00147903154511
0.00157753873036
0.00176936681891
0.00207341450484
0.0025017004994
0.00314133590284
0.000928630420361
0.00136700795583
0.00139759086838
0.00140529804894
0.00140740586521
0.00140845613158
0.00140943877477
0.00141053120369
0.00141176059245
0.00141314869677
0.00141481259066
0.00141730485839
0.00142278863157
0.00143826383321
0.00148145340366
0.0015845141349
0.00178260144634
0.00209251006385
0.00252289044994
0.00314889282152
0.000927555625919
0.00136556627387
0.00139607665953
0.0014037664533
0.00140589137574
0.00140697274956
0.00140799173429
0.00140912246836
0.00141039074037
0.00141181919958
0.00141353399358
0.00141612859803
0.00142191704851
0.00143829305762
0.00148371610557
0.00159100001411
0.00179475977168
0.00210981043999
0.00254182366264
0.00315577670728
0.000926427214024
0.00136407655865
0.00139452493506
0.0014022044612
0.00140435303159
0.00140547207472
0.00140653408206
0.0014077097714
0.00140902344904
0.00141049836328
0.00141226900734
0.00141496993612
0.00142105362173
0.00143828631388