/*--------------------------------*- C++ -*----------------------------------*\
| =========                 |                                                 |
| \\      /  F ield         | OpenFOAM: The Open Source CFD Toolbox           |
|  \\    /   O peration     | Version:  v2012                                 |
|   \\  /    A nd           | Website:  www.openfoam.com                      |
|    \\/     M anipulation  |                                                 |
\*---------------------------------------------------------------------------*/
FoamFile
{
    version     2.0;
    format      ascii;
    class       volScalarField;
    location    "5.9";
    object      alpha.water;
}
// * * * * * * * * * * * * * * * * * * * * * * * * * * * * * * * * * * * * * //

dimensions      [0 0 0 0 0 0 0];


internalField   nonuniform List<scalar> 
167
(
0.999998221373
0.999999025303
0.999999327595
1.00000016452
1.00000041546
0.990817985771
0.430548945834
-7.82648104765e-10
3.58143080819e-11
1.0000001034
1.00000041475
1.00000030589
1.00000024832
0.990843231139
0.42001524052
6.43677952888e-07
3.44130366422e-08
1.00000149056
1.00000118786
1.00000039148
1.00000028818
0.991225703064
0.413101464098
7.88332690935e-06
7.12602608906e-07
1.00000015354
1.00000214703
1.00000124998
1.00000019677
1.00000022624
0.992036602238
0.408974996545
2.20522090683e-05
1.12250206857e-06
0.999998885458
1.00000147984
1.0000007166
1.00000026759
1.00000022374
0.993671031143
0.408106979117
1.12250206857e-06
8.84561725146e-07
0.999997922485
1.00000029855
0.99999987364
0.999999813966
1.00000031958
0.995511015767
0.409972342083
4.85473607048e-05
1.04430798452e-05
0.999993179718
0.999997935893
0.999999245868
0.999999354149
0.999999681141
1.00000031505
0.997301057238
0.414462765661
0.000179560656996
6.09821449985e-05
0.99998628321
0.999994572049
0.999997691766
0.999998416651
0.999998768881
0.999999735159
1.00000015039
0.999165185568
0.421614449836
0.000148981119599
1.48107240131e-20
0.999977776209
0.99999308057
0.999994230976
0.999994578531
0.999996169488
0.999999785944
1
1
0.431465728628
0.000191232543968
-3.40467540126e-22
0.999978378679
0.999988259388
0.999990742755
0.99999151146
0.999999354526
1
1
0.44212304417
0.000410977322217
2.96071457761e-24
0.999963373611
0.999982147012
0.999985575216
0.99998765747
0.999998892923
1
1
0.452384933725
0.000731467826615
-3.53485140538e-22
0.999963373552
0.999970445297
0.999981144945
0.999986952711
0.999991863302
0.999999999916
1
0.462783673568
0.00125706429901
3.75255582876e-06
0.999963373552
0.999963373552
0.999979759644
0.999986310552
0.999996538573
0.999999920983
0.999999953831
0.472758455976
0.00186959940898
8.12805019168e-05
0.999963373552
0.999968053905
0.999980685474
0.999986566491
0.999999167027
0.999999512969
0.999999860791
0.481055843817
0.00232726540325
-2.0645660962e-08
0.999963700259
0.999966800937
0.999981191717
0.999981952162
0.999988228055
0.999993347916
0.99999946572
0.999999718813
0.488734408916
0.00291826784842
6.80700712413e-23
0.999963767004
0.99997890675
0.999986519308
0.999985434283
0.999988203519
0.999993200545
0.999999286786
0.999999516324
0.494297723473
0.003328559914
-1.51546331166e-22
0.999979517836
0.999991450685
0.999991850313
0.999991850313
0.999991227989
0.999993688079
0.999999141492
0.999999395961
0.49616462439
0.00371266599139
1.41489795231e-20
)
;

boundaryField
{
    back
    {
        type            zeroGradient;
    }
    sides
    {
        type            zeroGradient;
    }
    bottom
    {
        type            zeroGradient;
    }
    front
    {
        type            zeroGradient;
    }
    atmosphere
    {
        type            inletOutlet;
        inletValue      uniform 0;
        value           nonuniform List<scalar> 
17
(
0
3.44130366422e-08
7.12602608906e-07
1.12250206857e-06
0
1.04430798452e-05
6.09821449985e-05
1.48107240131e-20
0
0
0
3.75255582876e-06
8.12805019168e-05
-2.0645660962e-08
0
0
1.41489795231e-20
)
;
    }
    floatingObject
    {
        type            zeroGradient;
    }
    procBoundary11to9
    {
        type            processor;
        value           nonuniform List<scalar> 9(0.999996588924 0.999996595266 0.999998190239 0.999999932854 1 0.99141402784 0.444044439416 -2.50376605583e-24 -4.23074738683e-14);
    }
    procBoundary11to10
    {
        type            processor;
        value           nonuniform List<scalar> 
23
(
0.999998175992
0.99999943794
0.99999943794
1.00000087419
1.00000087419
0.999999766944
0.999998930134
0.999996392257
0.999996392257
0.999994262195
0.999994262195
0.999990843985
0.999988060066
0.999976516167
0.999976516167
0.999977301868
0.999971811757
0.999966985724
0.999963709563
0.999963709563
0.999964885453
0.999972592669
0.99998490168
)
;
    }
}


// ************************************************************************* //
