/*--------------------------------*- C++ -*----------------------------------*\
| =========                 |                                                 |
| \\      /  F ield         | OpenFOAM: The Open Source CFD Toolbox           |
|  \\    /   O peration     | Version:  v2012                                 |
|   \\  /    A nd           | Website:  www.openfoam.com                      |
|    \\/     M anipulation  |                                                 |
\*---------------------------------------------------------------------------*/
FoamFile
{
    version     2.0;
    format      ascii;
    class       volVectorField;
    location    "5.9";
    object      ddt0(rho,U);
}
// * * * * * * * * * * * * * * * * * * * * * * * * * * * * * * * * * * * * * //

dimensions      [1 -2 -2 0 0 0 0];


internalField   nonuniform List<vector> 
167
(
(102.67694678 92.7143418894 -1.63308262298e-20)
(107.701908816 104.960244104 -4.64285827651e-20)
(114.683809571 117.689554207 9.15961167026e-20)
(125.113289938 126.517867112 -1.2374730995e-18)
(137.711805212 156.883489357 2.31911275083e-19)
(145.667113069 178.306831827 -2.6349334826e-18)
(70.5535143097 83.3890050096 2.90742625822e-18)
(0.132566478926 0.137764497358 5.78066256974e-21)
(0.051786326951 0.161912136098 1.23675320367e-20)
(93.5285738964 110.682932488 -9.29470723478e-20)
(99.107316734 127.170368641 -3.54975661416e-19)
(108.448200515 144.437622683 -3.31581242202e-18)
(125.773963322 171.376617008 9.56577115752e-19)
(131.11368507 181.652847295 -1.71058865297e-17)
(61.7405178528 83.197825227 -6.3551130073e-18)
(0.135033819001 0.217078617464 -3.80583116241e-21)
(0.0981485888109 0.18764381354 3.02766019736e-20)
(77.5453346079 114.038644168 -5.89473846181e-20)
(79.9406606019 132.239160237 -4.7594276401e-20)
(83.5407519087 153.344808885 -4.13172178532e-18)
(90.6362323185 181.914982941 8.43399196158e-18)
(97.80061733 184.681848326 5.17954075899e-18)
(52.4266692955 82.1567943093 -7.81829511152e-18)
(0.155695101616 0.310274368349 5.89654566119e-21)
(0.243451015523 0.192565180949 -5.75352262093e-20)
(61.7884903376 98.9381862335 1.43717553811e-19)
(60.7852328919 114.407582015 1.04629441143e-19)
(59.6937388869 132.896409688 -2.07319393552e-19)
(58.4687916097 155.238168767 -1.23223167932e-18)
(56.9423407417 182.459814185 2.83032356236e-18)
(61.3665538881 186.354256372 -1.49230965838e-18)
(42.5434919299 85.2256538522 -8.11051256847e-18)
(0.203044463918 0.252808475051 -8.60039262941e-21)
(0.570988855897 0.00572615779303 7.69206463357e-20)
(47.6178889903 96.8583634402 1.60619705758e-19)
(44.1655673999 111.876659559 3.62514865058e-19)
(39.8445994242 129.717093932 7.65241209892e-19)
(34.3732193739 150.354632036 9.09263367988e-18)
(26.1839456641 175.415817569 -1.23119916601e-17)
(28.8338172896 184.321861915 -2.88019150706e-17)
(31.660741975 87.6484304063 -7.05171899683e-18)
(0.292197682873 0.244626024614 -1.00569846306e-20)
(1.4254076669 -0.385925451069 -1.04744185685e-20)
(34.2366201803 92.6545907198 2.36215469494e-19)
(28.5565275263 106.588826315 3.97136467287e-19)
(21.3514431428 122.875820521 1.4904204615e-18)
(12.1495557481 141.547983682 -2.00439708908e-18)
(0.149509664172 164.578495092 -4.27809179374e-18)
(-1.10091547734 178.378366926 -1.18735322967e-18)
(18.5373398534 87.9575528058 -3.82621407455e-18)
(0.276800976218 0.360023002632 -2.36645754193e-20)
(1.57874512752 1.08795087447 1.77240653284e-19)
(28.0381134507 75.7730539921 -9.23414035978e-20)
(22.0594329369 86.6744555378 2.67356363125e-19)
(14.4987359547 98.9478379475 4.77086175192e-19)
(4.97013297934 113.144857799 5.63704890299e-19)
(-7.14043742695 129.799522377 -6.22406121129e-18)
(-22.9926889538 150.026236504 1.60364554138e-17)
(-28.454703189 168.16406293 -2.48824625107e-17)
(2.26986795393 86.9731076613 -1.36978249438e-17)
(-0.0969479801168 0.35613893368 2.07915808457e-19)
(-0.727893473098 2.97285072321 -6.09185113938e-20)
(24.2361862354 61.2815480623 -2.53594945113e-20)
(18.5784035086 69.8474604456 3.26522627259e-20)
(11.4444063281 79.1511952609 2.66286962274e-19)
(2.48588521637 89.4971287482 3.55928732381e-19)
(-8.87950981526 101.120927466 8.37431989462e-19)
(-23.0978434162 114.374295249 2.32428823942e-18)
(-41.8525410723 130.236662466 6.45318675702e-18)
(-50.8825818146 149.796462422 -3.20605615795e-17)
(-13.2188435322 81.2559534841 -1.41878441095e-17)
(-0.277802392884 0.151844278482 -3.06925799446e-19)
(-1.70927466386 -1.02426166752 -1.03340898129e-20)
(16.8611659494 55.9003293134 2.1857233477e-20)
(10.5989256346 63.053285625 8.56918458939e-20)
(2.7758408713 70.6433035652 1.30373417152e-19)
(-7.06426795829 78.7123309699 3.67070366172e-19)
(-19.5394639984 87.3911423132 1.3516850366e-18)
(-35.0525206135 97.0160213439 3.18537275047e-18)
(-54.4352172618 107.030421689 -9.03260710951e-18)
(-65.516857458 126.016240749 -7.54449944263e-18)
(-22.5005667149 73.1723551155 -1.22479410483e-17)
(-0.179460852553 0.130486827105 3.86106773786e-20)
(-0.574105192149 -0.000335834983038 -1.58964948608e-19)
(4.28260147504 55.8626010463 2.91442798813e-20)
(-3.84175194792 61.6125562099 1.7111308708e-19)
(-14.0334568492 67.3478843476 2.80090711551e-19)
(-26.7643138853 72.9727678327 -5.96197502394e-19)
(-42.4694394871 79.3245687471 3.3325976439e-18)
(-61.8275682399 83.8273810035 -1.15608247638e-17)
(-73.7427402825 102.491855089 -2.93367493922e-17)
(-27.3313788476 64.5479006133 -2.23566780499e-17)
(-0.303805077472 0.104802643794 3.46580260973e-20)
(-0.449858449301 0.413215828648 -5.01899145091e-21)
(-0.415843015189 48.5590742246 4.24632009521e-20)
(-8.48255373746 52.5160319798 1.33773012638e-19)
(-18.431325713 56.0249283971 2.37034556865e-19)
(-30.8441235063 58.9072411272 -4.92436576295e-19)
(-45.8778328582 62.2765693453 -3.76133794625e-19)
(-65.0987872404 62.3650324471 9.62026881178e-18)
(-78.6159251755 82.180323247 -1.2384344655e-18)
(-29.6152377845 55.7812131218 -8.68631158039e-18)
(-0.329322111316 0.381494514486 -1.00890203986e-19)
(-1.05825403193 0.70463691926 1.04399352614e-19)
(-3.58665469163 41.5052815985 2.78929242076e-20)
(-11.1501641657 43.7800952875 7.9098278818e-20)
(-20.4919136882 45.2520901598 4.0712027215e-19)
(-32.0889484251 45.6417467906 -4.4307201961e-19)
(-46.1597887951 46.4249962182 1.34083512554e-19)
(-64.6706702062 42.4143263691 -9.19266713398e-19)
(-79.9727570476 62.8396183546 -1.83276714775e-17)
(-32.8602042976 44.6142115131 -9.16813375227e-18)
(-0.178307242601 0.585765793966 -2.86389941226e-19)
(-0.877254121352 -0.651841133224 -3.26209062637e-23)
(-5.32276969744 35.0366338867 3.62361134255e-20)
(-12.0601028444 35.7437006456 8.27238072615e-20)
(-20.4322339448 35.3197422422 5.66892520387e-19)
(-30.773732514 33.3944567284 -1.32848677286e-18)
(-43.395914846 31.886563636 7.36176104886e-19)
(-60.7116964689 24.021176758 -1.95338534766e-18)
(-75.8186151763 44.3329841127 -1.89294883017e-17)
(-38.6228949566 36.8272020964 -1.08105028907e-17)
(-0.266005018585 0.654920927793 1.11278398163e-19)
(0.536342196043 -2.14400866273 3.40248936674e-20)
(-5.75621811213 29.3903750169 1.22327523697e-20)
(-11.4208724997 28.6997968081 4.00514005985e-20)
(-18.4688325385 26.6412318399 5.93923047772e-19)
(-27.2382552074 22.6603408735 2.56244335672e-18)
(-38.1093626108 18.7709062131 6.70751487772e-18)
(-53.2542549091 7.39607708185 2.2268180494e-18)
(-68.5797573074 27.269875942 -8.35252518351e-18)
(-40.2613689111 33.5843682221 -2.67167546373e-18)
(-0.308333442961 1.25221603251 -4.51944687809e-19)
(1.02755098055 0.932920985392 1.24095605119e-20)
(-1.65764096468 25.3857739451 -3.2922386483e-20)
(-5.10076675455 24.7924298339 4.04163157389e-22)
(-9.44222724354 22.9013807287 8.97534527233e-20)
(-14.9131410169 19.4055775751 4.2126818073e-19)
(-21.8410306431 13.6293272021 1.23499147921e-18)
(-30.4343734059 7.65688323321 7.21467968224e-18)
(-41.5221211013 -8.39933273912 4.97200794275e-18)
(-57.3564394733 6.81559695053 -5.34823309483e-18)
(-34.8399777857 26.1098138353 -2.18363727868e-17)
(-0.176870561734 1.47480082684 -5.16527052298e-19)
(0.0789736356733 0.333359515283 4.85692863856e-21)
(-1.36159609549 22.7349956769 5.81472408223e-21)
(-3.53409300771 21.427196487 1.82611058299e-20)
(-6.28726379123 18.6363291432 3.51776534255e-21)
(-9.89236954656 13.9084235481 1.1482024333e-19)
(-14.5317857026 6.78318440371 -1.26531444168e-18)
(-20.5386963277 -1.41302370015 -4.44374177378e-18)
(-26.2574858424 -22.0342525598 -9.70146957864e-18)
(-39.5044606192 -13.8582780391 -8.62144151937e-18)
(-26.6193966644 18.5992207294 1.47180624891e-17)
(-0.124289117489 1.43672077002 1.58616939752e-18)
(-0.354890726466 0.147152544482 1.67024718525e-21)
(-0.278187277568 20.8265463363 -4.74641117707e-21)
(-1.00451807652 19.1045007792 -3.38554904702e-20)
(-1.99123398408 15.6843253782 -1.28015103108e-19)
(-3.46101689652 9.99132326131 6.54055186651e-19)
(-5.60829542799 1.55888910275 -4.56225720403e-18)
(-9.20659805717 -8.86771199606 -1.75945511387e-18)
(-12.7484060143 -29.230934477 -1.16880958262e-17)
(-15.1138952336 -21.3856055282 -6.13274668417e-17)
(-2.50255682069 9.36891935281 -6.53194936372e-18)
(0.883888051928 1.28817735047 5.71866585348e-18)
(-0.39713284023 -0.761563019598 3.2399451914e-20)
)
;

boundaryField
{
    back
    {
        type            calculated;
        value           uniform (0 0 0);
    }
    sides
    {
        type            calculated;
        value           uniform (0 0 0);
    }
    bottom
    {
        type            calculated;
        value           nonuniform List<vector> 0();
    }
    front
    {
        type            calculated;
        value           uniform (0 0 0);
    }
    atmosphere
    {
        type            calculated;
        value           nonuniform List<vector> 
17
(
(1.20971054549e-07 0.16191213644 3.7240837306e-27)
(0.217174255349 0.187643842654 -1.67132822493e-19)
(0.173838348683 0.19256468732 -1.01950091208e-20)
(0.607069996361 0.00572276289003 2.80639320658e-20)
(-0.88467468469 -0.385897721899 5.44897966525e-20)
(1.54745397037 1.08795087096 1.71336667814e-19)
(-0.708565938875 2.97285090233 -5.14530728134e-20)
(-1.68532628134 -1.02426145213 -1.62416014515e-20)
(-0.586235814349 -0.000335734519023 -1.58129671041e-19)
(-0.0543613429003 0.413207627175 8.97309201263e-21)
(0.437466091019 0.704349908692 -1.05534580501e-20)
(-0.876862920707 -0.651841133225 -1.55525105063e-22)
(0.536094904359 -2.14400866267 3.42040074563e-20)
(0.0710482439428 0.93580574026 -1.00533168831e-19)
(0.0264274969098 0.333460994692 -1.55836696447e-21)
(-0.132792028884 0.146940406835 -1.67989452429e-20)
(-0.395964245631 -0.761563511827 2.67109825183e-20)
)
;
    }
    floatingObject
    {
        type            calculated;
        value           nonuniform List<vector> 0();
    }
    procBoundary11to9
    {
        type            processor;
        value           nonuniform List<vector> 9((114.239158071 87.8469518423 -4.92184370312e-20) (119.972964843 98.839386799 4.09139355008e-21) (126.947820239 110.184650015 4.82645583596e-19) (134.770217584 121.267963703 1.36706257104e-18) (137.459152345 144.473183633 4.21634199409e-19) (145.899273902 157.511118769 -1.36542112821e-17) (75.7158729662 75.5366408024 1.17120562341e-18) (0.157474680617 0.140848691029 1.51189176675e-21) (0.0482347269875 0.160259514896 -1.29062488422e-21));
    }
    procBoundary11to10
    {
        type            processor;
        value           nonuniform List<vector> 
23
(
(98.8658365819 81.3860613414 2.91791786538e-21)
(89.8792802954 96.6392501309 -3.07882952538e-21)
(89.8792802954 96.6392501309 -3.07882952538e-21)
(76.0915796818 98.846675834 6.7091619728e-21)
(76.0915796818 98.846675834 6.7091619728e-21)
(62.7478623209 85.6753613856 -1.11569122785e-20)
(50.4556874887 83.9064476318 2.15584524021e-20)
(38.760349637 80.5368308412 4.78101843556e-20)
(38.760349637 80.5368308412 4.78101843556e-20)
(32.8052548918 65.9919644093 9.54763903433e-20)
(32.8052548918 65.9919644093 9.54763903433e-20)
(28.7552267364 53.3832309472 3.85004150435e-20)
(21.8257786644 49.1097909312 4.10413238817e-20)
(10.793430863 50.1289152329 7.91860479747e-21)
(10.793430863 50.1289152329 7.91860479747e-21)
(6.00223879383 44.2971297517 3.89604924332e-20)
(2.45099304963 38.6741619898 6.30629822267e-21)
(0.0824412829816 33.5096367764 4.67669634444e-20)
(-1.2375625535 29.0048078491 5.0391263331e-21)
(-1.2375625535 29.0048078491 5.0391263331e-21)
(1.07576093331 24.8858667867 -1.4403690076e-20)
(0.344880571709 22.8212184101 -4.08984166706e-20)
(0.291491018659 21.2786943013 -8.8785694187e-20)
)
;
    }
}


// ************************************************************************* //
