/*--------------------------------*- C++ -*----------------------------------*\
| =========                 |                                                 |
| \\      /  F ield         | OpenFOAM: The Open Source CFD Toolbox           |
|  \\    /   O peration     | Version:  v2012                                 |
|   \\  /    A nd           | Website:  www.openfoam.com                      |
|    \\/     M anipulation  |                                                 |
\*---------------------------------------------------------------------------*/
FoamFile
{
    version     2.0;
    format      ascii;
    class       volScalarField;
    location    "5.9";
    object      nut;
}
// * * * * * * * * * * * * * * * * * * * * * * * * * * * * * * * * * * * * * //

dimensions      [0 2 -1 0 0 0 0];


internalField   nonuniform List<scalar> 
167
(
0.000435225421147
0.00044251999929
0.000461702765678
0.00051495291102
0.000651170311384
0.000924173182706
0.00134265198902
0.00194094072446
0.00268430302635
0.000442893790315
0.00046339258173
0.000519931111667
0.000661875946803
0.000940139278621
0.00135917283932
0.00192233101315
0.00247261949947
0.000443282702462
0.000465153116824
0.000525041594035
0.000672063213908
0.000951417164944
0.00136172471912
0.00188748086575
0.00238576412924
0.000434856888083
0.000443654174721
0.000466738481865
0.000529308021213
0.000679987511771
0.000958337943744
0.00135620249174
0.00185291577778
0.00232996783329
0.000434712306913
0.000444001745911
0.000468134430249
0.000532710918809
0.000685875403612
0.000962056752083
0.00134938314539
0.00184853268264
0.00290476180666
0.000434565302385
0.000444392424077
0.000469755134211
0.000536692407841
0.000692284729634
0.000966481277804
0.0013428538014
0.00180103152382
0.00227686417399
0.000429905439965
0.000434421555932
0.000444875852007
0.000471878438614
0.000542164395717
0.000700440746822
0.000971301641611
0.00133578365185
0.00176617674036
0.00215806703066
0.000427070242596
0.000429507147514
0.000434275546344
0.00044538586522
0.000474200414928
0.000548333877242
0.000709756287742
0.000976151664588
0.00132862686488
0.00174443294161
0.0023471268376
0.000426547895384
0.000429103259625
0.000434125160468
0.000445883676141
0.000476417626438
0.000554175549757
0.000718848525476
0.000981474140929
0.00132149765651
0.00172770880046
0.00234027732687
0.000428684007037
0.000433968203542
0.00044637575227
0.000478577823285
0.000559859851993
0.000728139802037
0.000988411892558
0.00132256273243
0.00181136502052
0.00292171558184
0.000428220124483
0.000433783243258
0.00044690277559
0.000481035794313
0.000566581904789
0.000739440208071
0.000997060465977
0.00131626832295
0.00180012316006
0.00300939157044
0.0004275969541
0.000433457746927
0.000447445483379
0.000484166791366
0.00057535502857
0.000753267018996
0.00100681432021
0.00130313422657
0.00165574830508
0.00230213584783
0.00042651760591
0.000432677252012
0.000447632268381
0.000487380616446
0.000584863079299
0.000767305958074
0.00101553434749
0.00129582991753
0.00162458505168
0.00232443529887
0.000424229819393
0.000430607835471
0.000446394273533
0.000488938489167
0.000592065708249
0.000778021015847
0.00102086738692
0.00129869933069
0.00176037538222
0.00307313187171
0.000415775181211
0.000418870102106
0.000425279438152
0.000441388874779
0.000485305003247
0.000591139101913
0.000778178542587
0.00101751797091
0.0012949806639
0.0017778463338
0.00300196404283
0.000402608745387
0.000405604275372
0.000411719390584
0.000427121034068
0.000469383003565
0.000572229538494
0.000756397350505
0.000995567131482
0.0012748372471
0.00175382590783
0.00295092353291
0.000271607346618
0.000273747054454
0.000277712535649
0.000287207336813
0.000313071713619
0.00037769797631
0.00050118900755
0.000674001354564
0.000873248193079
0.00111423013422
0.00151327264391
)
;

boundaryField
{
    back
    {
        type            nutkWallFunction;
        blending        stepwise;
        Cmu             0.09;
        kappa           0.41;
        E               9.8;
        value           nonuniform List<scalar> 
167
(
4.66651149114e-05
4.73783818239e-05
4.92459911725e-05
5.43770470723e-05
6.73252306476e-05
9.30512531571e-05
0.000132274118019
0.000233794857976
0.000333026765366
4.74186302945e-05
4.94238684205e-05
5.49017444938e-05
6.84698174617e-05
9.48066369629e-05
0.000134344838135
0.000234664533304
0.000320573373304
4.74612039651e-05
4.96091738909e-05
5.54406571567e-05
6.9578973578e-05
9.61798508085e-05
0.000135136793827
0.000232711163274
0.000308668344237
4.66338326979e-05
4.75028373036e-05
4.97769984036e-05
5.58898621218e-05
7.04540166129e-05
9.71213690652e-05
0.000135108651327
0.000229651574379
0.00029903393097
4.66222592724e-05
4.75426158546e-05
4.99268638034e-05
5.62517831158e-05
7.1116173651e-05
9.77306933594e-05
0.000134801812471
0.000228508693993
0.000315617258477
4.66107145485e-05
4.75874008411e-05
5.01019771899e-05
5.66846846554e-05
7.18522055864e-05
9.8420513404e-05
0.000134757679685
0.00022469319151
0.000288179014864
4.61512052498e-05
4.65996693118e-05
4.76412844775e-05
5.03284696574e-05
5.72726562953e-05
7.27602761572e-05
9.90669861793e-05
0.000134417936377
0.000219824269694
0.00027671721268
4.58731558506e-05
4.61140902416e-05
4.65882413646e-05
4.76970617216e-05
5.05696038196e-05
5.79153016173e-05
7.37546155716e-05
9.96735331416e-05
0.000133909385675
0.00021774239671
0.000280255326015
4.58234402967e-05
4.60764000977e-05
4.65765061179e-05
4.77510643396e-05
5.07976898651e-05
5.85099344837e-05
7.47057670013e-05
0.000100320617393
0.000133339757765
0.000214440132914
0.000276923569405
4.60371997339e-05
4.65640843446e-05
4.78044778802e-05
5.10181750172e-05
5.90856238245e-05
7.56654427839e-05
0.000101081418018
0.000133122052586
0.000215497618387
0.000328576970737
4.59934698538e-05
4.65486199811e-05
4.78608211629e-05
5.12673299456e-05
5.97619493841e-05
7.6821452112e-05
0.000102025599292
0.000132594677348
0.000208898301422
0.000329032097632
4.5933694693e-05
4.6518906646e-05
4.79182484366e-05
5.1584107532e-05
6.06459015654e-05
7.82217555004e-05
0.000103066534888
0.000131844254028
0.000194926253944
0.000264472494479
4.58284190002e-05
4.64436864905e-05
4.79396589201e-05
5.19077105588e-05
6.16018527721e-05
7.96350251571e-05
0.0001039643346
0.000131223186038
0.000188127160784
0.000258815898539
4.56032267105e-05
4.6240379114e-05
4.78196122121e-05
5.20672991273e-05
6.23268442124e-05
8.07141454057e-05
0.000104505899659
0.000130931777764
0.000193008118278
0.000329806153412
4.47666756298e-05
4.50743691847e-05
4.57151018293e-05
4.73280428147e-05
5.17182859331e-05
6.22616325948e-05
8.07727397707e-05
0.000104202836042
0.000130288250193
0.000193108639307
0.000334649359338
4.3466211136e-05
4.37643493963e-05
4.43771274892e-05
4.59243058769e-05
5.0164646614e-05
6.04455640784e-05
7.8736138599e-05
0.00010221413491
0.00012855413482
0.000189845146039
0.000331664936107
3.94660570671e-05
3.97531089317e-05
4.02899508455e-05
4.15815728962e-05
4.51008955642e-05
5.38542070647e-05
7.04066075127e-05
9.33450385848e-05
0.000119620580923
0.000168982020827
0.000246403204185
)
;
    }
    sides
    {
        type            nutkWallFunction;
        blending        stepwise;
        Cmu             0.09;
        kappa           0.41;
        E               9.8;
        value           nonuniform List<scalar> 
11
(
2.0905108951e-05
2.10589028778e-05
2.13465054311e-05
2.20383545239e-05
2.39226928991e-05
2.86051370305e-05
3.74460284498e-05
4.96759526851e-05
6.36628094734e-05
8.95930587267e-05
0.000127955212798
)
;
    }
    bottom
    {
        type            nutkWallFunction;
        blending        stepwise;
        Cmu             0.09;
        kappa           0.41;
        E               9.8;
        value           nonuniform List<scalar> 0();
    }
    front
    {
        type            nutkWallFunction;
        blending        stepwise;
        Cmu             0.09;
        kappa           0.41;
        E               9.8;
        value           nonuniform List<scalar> 
167
(
4.66651149114e-05
4.73783818239e-05
4.92459911725e-05
5.43770470723e-05
6.73252306476e-05
9.30512531571e-05
0.000132274118019
0.000233794857976
0.000333026765366
4.74186302945e-05
4.94238684205e-05
5.49017444938e-05
6.84698174617e-05
9.48066369629e-05
0.000134344838135
0.000234664533304
0.000320573373304
4.74612039651e-05
4.96091738909e-05
5.54406571567e-05
6.9578973578e-05
9.61798508085e-05
0.000135136793827
0.000232711163274
0.000308668344237
4.66338326979e-05
4.75028373036e-05
4.97769984036e-05
5.58898621218e-05
7.04540166129e-05
9.71213690652e-05
0.000135108651327
0.000229651574379
0.00029903393097
4.66222592724e-05
4.75426158546e-05
4.99268638034e-05
5.62517831158e-05
7.1116173651e-05
9.77306933594e-05
0.000134801812471
0.000228508693993
0.000315617258477
4.66107145485e-05
4.75874008411e-05
5.01019771899e-05
5.66846846554e-05
7.18522055864e-05
9.8420513404e-05
0.000134757679685
0.00022469319151
0.000288179014864
4.61512052498e-05
4.65996693118e-05
4.76412844775e-05
5.03284696574e-05
5.72726562953e-05
7.27602761572e-05
9.90669861793e-05
0.000134417936377
0.000219824269694
0.00027671721268
4.58731558506e-05
4.61140902416e-05
4.65882413646e-05
4.76970617216e-05
5.05696038196e-05
5.79153016173e-05
7.37546155716e-05
9.96735331416e-05
0.000133909385675
0.00021774239671
0.000280255326015
4.58234402967e-05
4.60764000977e-05
4.65765061179e-05
4.77510643396e-05
5.07976898651e-05
5.85099344837e-05
7.47057670013e-05
0.000100320617393
0.000133339757765
0.000214440132914
0.000276923569405
4.60371997339e-05
4.65640843446e-05
4.78044778802e-05
5.10181750172e-05
5.90856238245e-05
7.56654427839e-05
0.000101081418018
0.000133122052586
0.000215497618387
0.000328576970737
4.59934698538e-05
4.65486199811e-05
4.78608211629e-05
5.12673299456e-05
5.97619493841e-05
7.6821452112e-05
0.000102025599292
0.000132594677348
0.000208898301422
0.000329032097632
4.5933694693e-05
4.6518906646e-05
4.79182484366e-05
5.1584107532e-05
6.06459015654e-05
7.82217555004e-05
0.000103066534888
0.000131844254028
0.000194926253944
0.000264472494479
4.58284190002e-05
4.64436864905e-05
4.79396589201e-05
5.19077105588e-05
6.16018527721e-05
7.96350251571e-05
0.0001039643346
0.000131223186038
0.000188127160784
0.000258815898539
4.56032267105e-05
4.6240379114e-05
4.78196122121e-05
5.20672991273e-05
6.23268442124e-05
8.07141454057e-05
0.000104505899659
0.000130931777764
0.000193008118278
0.000329806153412
4.47666756298e-05
4.50743691847e-05
4.57151018293e-05
4.73280428147e-05
5.17182859331e-05
6.22616325948e-05
8.07727397707e-05
0.000104202836042
0.000130288250193
0.000193108639307
0.000334649359338
4.3466211136e-05
4.37643493963e-05
4.43771274892e-05
4.59243058769e-05
5.0164646614e-05
6.04455640784e-05
7.8736138599e-05
0.00010221413491
0.00012855413482
0.000189845146039
0.000331664936107
3.94660570671e-05
3.97531089317e-05
4.02899508455e-05
4.15815728962e-05
4.51008955642e-05
5.38542070647e-05
7.04066075127e-05
9.33450385848e-05
0.000119620580923
0.000168982020827
0.000246403204185
)
;
    }
    atmosphere
    {
        type            calculated;
        value           nonuniform List<scalar> 
17
(
0.00268430302635
0.00247261949947
0.00238576412924
0.00232996783329
0.009
0.00227686417399
0.00215806703066
0.009
0.009
0.009
0.009
0.00230213584783
0.00232443529887
0.009
0.009
0.009
0.00151327264391
)
;
    }
    floatingObject
    {
        type            nutkWallFunction;
        blending        stepwise;
        Cmu             0.09;
        kappa           0.41;
        E               9.8;
        value           nonuniform List<scalar> 0();
    }
    procBoundary11to9
    {
        type            processor;
        value           nonuniform List<scalar> 9(0.000435320886701 0.000442177756047 0.000460251030145 0.000510726725983 0.000641379223992 0.000905390390063 0.00131342348661 0.00192567334312 0.00301518085689);
    }
    procBoundary11to10
    {
        type            processor;
        value           nonuniform List<scalar> 
23
(
0.000432027493567
0.000435113430791
0.000435113430791
0.000434990688356
0.000434990688356
0.000431044763539
0.000430677934043
0.000430297582132
0.000430297582132
0.00042758645857
0.00042758645857
0.000425557841047
0.000424965950038
0.000426008716435
0.000426008716435
0.000425420994324
0.000424673317079
0.000423483642516
0.000421128460361
0.000421128460361
0.000413895259937
0.000400746034062
0.000270147401638
)
;
    }
}


// ************************************************************************* //
