/*--------------------------------*- C++ -*----------------------------------*\
| =========                 |                                                 |
| \\      /  F ield         | OpenFOAM: The Open Source CFD Toolbox           |
|  \\    /   O peration     | Version:  v2012                                 |
|   \\  /    A nd           | Website:  www.openfoam.com                      |
|    \\/     M anipulation  |                                                 |
\*---------------------------------------------------------------------------*/
FoamFile
{
    version     2.0;
    format      ascii;
    class       volScalarField;
    location    "5.9";
    object      rAU;
}
// * * * * * * * * * * * * * * * * * * * * * * * * * * * * * * * * * * * * * //

dimensions      [-1 3 1 0 0 0 0];


internalField   nonuniform List<scalar> 
167
(
2.18930088388e-05
2.1882361911e-05
2.18580314215e-05
2.18026076215e-05
2.1694672424e-05
2.17890622498e-05
4.94668020894e-05
0.00600075873382
0.0164747216336
2.18814109163e-05
2.18577427279e-05
2.18031395302e-05
2.16750113746e-05
2.17556183852e-05
5.07697358391e-05
0.00608576718887
0.0206012238816
2.18812618984e-05
2.18581288166e-05
2.17983040382e-05
2.16359264546e-05
2.16850057424e-05
5.16133380433e-05
0.00612926812562
0.020477802235
2.18932492083e-05
2.18821526462e-05
2.18578922512e-05
2.17847934661e-05
2.15665797088e-05
2.15850520411e-05
5.20885109324e-05
0.00615239599547
0.0203988952342
2.18942780177e-05
2.18836962238e-05
2.18590851629e-05
2.17781618638e-05
2.15292277143e-05
2.15030558947e-05
5.21573645164e-05
0.00618972877263
0.0160593311458
2.18969888306e-05
2.18863174282e-05
2.18614390444e-05
2.17773754944e-05
2.15060697292e-05
2.14235478812e-05
5.18702188204e-05
0.00609852270545
0.0194014210532
2.19044427455e-05
2.1899714961e-05
2.18903108688e-05
2.18678355472e-05
2.17699972298e-05
2.14786830026e-05
2.13285723459e-05
5.11758758621e-05
0.00583378535432
0.0175836342503
2.19096518677e-05
2.19054434874e-05
2.19003192294e-05
2.18907304915e-05
2.18708502215e-05
2.17628023656e-05
2.1454188621e-05
2.12712144511e-05
5.03716794497e-05
0.00587999812534
0.0202348494283
2.1911125912e-05
2.19070734912e-05
2.19005181861e-05
2.18892191686e-05
2.18700816379e-05
2.17554213692e-05
2.14425210076e-05
2.1226590187e-05
4.92817790237e-05
0.00574802971412
0.0194239725224
2.19093920216e-05
2.19031894189e-05
2.18889662333e-05
2.18718814448e-05
2.17494868248e-05
2.14360945082e-05
2.11841998134e-05
4.80949879439e-05
0.00539487958245
0.0163344672336
2.19120535763e-05
2.19062348579e-05
2.1889926327e-05
2.18746723383e-05
2.17441411351e-05
2.14216992684e-05
2.11508642134e-05
4.69651659395e-05
0.00509542179047
0.0159702746211
2.19145225661e-05
2.19087999817e-05
2.18917295647e-05
2.18793802547e-05
2.17360220218e-05
2.13991835765e-05
2.11284078906e-05
4.5849878182e-05
0.00431977880159
0.0191012736554
2.19170239638e-05
2.19125887649e-05
2.18937846913e-05
2.18906481182e-05
2.17279990913e-05
2.13741349318e-05
2.11074182187e-05
4.49115762159e-05
0.00376579690034
0.0177627952941
2.19202033574e-05
2.19161122306e-05
2.18955599582e-05
2.19013335914e-05
2.17243551774e-05
2.13570876399e-05
2.10991290834e-05
4.41746086967e-05
0.00355549114828
0.0197355965453
2.19269299544e-05
2.19247589975e-05
2.19198739145e-05
2.18999418261e-05
2.19119444139e-05
2.17206561526e-05
2.13487558375e-05
2.11183634847e-05
4.34837311466e-05
0.00327682633723
0.0160560073733
2.19476505738e-05
2.19453962605e-05
2.19389737468e-05
2.19185564089e-05
2.19105705552e-05
2.17362662609e-05
2.13949083896e-05
2.11865184691e-05
4.3019498812e-05
0.00299861316784
0.0160700521849
2.20702804938e-05
2.20683307777e-05
2.20642673766e-05
2.20549109737e-05
2.20974017627e-05
2.19454990698e-05
2.16312979494e-05
2.14973334079e-05
4.36104034458e-05
0.00331774444703
0.020292902878
)
;

boundaryField
{
    back
    {
        type            calculated;
        value           nonuniform List<scalar> 
167
(
2.18930088388e-05
2.1882361911e-05
2.18580314215e-05
2.18026076215e-05
2.1694672424e-05
2.17890622498e-05
4.94668020894e-05
0.00600075873382
0.0164747216336
2.18814109163e-05
2.18577427279e-05
2.18031395302e-05
2.16750113746e-05
2.17556183852e-05
5.07697358391e-05
0.00608576718887
0.0206012238816
2.18812618984e-05
2.18581288166e-05
2.17983040382e-05
2.16359264546e-05
2.16850057424e-05
5.16133380433e-05
0.00612926812562
0.020477802235
2.18932492083e-05
2.18821526462e-05
2.18578922512e-05
2.17847934661e-05
2.15665797088e-05
2.15850520411e-05
5.20885109324e-05
0.00615239599547
0.0203988952342
2.18942780177e-05
2.18836962238e-05
2.18590851629e-05
2.17781618638e-05
2.15292277143e-05
2.15030558947e-05
5.21573645164e-05
0.00618972877263
0.0160593311458
2.18969888306e-05
2.18863174282e-05
2.18614390444e-05
2.17773754944e-05
2.15060697292e-05
2.14235478812e-05
5.18702188204e-05
0.00609852270545
0.0194014210532
2.19044427455e-05
2.1899714961e-05
2.18903108688e-05
2.18678355472e-05
2.17699972298e-05
2.14786830026e-05
2.13285723459e-05
5.11758758621e-05
0.00583378535432
0.0175836342503
2.19096518677e-05
2.19054434874e-05
2.19003192294e-05
2.18907304915e-05
2.18708502215e-05
2.17628023656e-05
2.1454188621e-05
2.12712144511e-05
5.03716794497e-05
0.00587999812534
0.0202348494283
2.1911125912e-05
2.19070734912e-05
2.19005181861e-05
2.18892191686e-05
2.18700816379e-05
2.17554213692e-05
2.14425210076e-05
2.1226590187e-05
4.92817790237e-05
0.00574802971412
0.0194239725224
2.19093920216e-05
2.19031894189e-05
2.18889662333e-05
2.18718814448e-05
2.17494868248e-05
2.14360945082e-05
2.11841998134e-05
4.80949879439e-05
0.00539487958245
0.0163344672336
2.19120535763e-05
2.19062348579e-05
2.1889926327e-05
2.18746723383e-05
2.17441411351e-05
2.14216992684e-05
2.11508642134e-05
4.69651659395e-05
0.00509542179047
0.0159702746211
2.19145225661e-05
2.19087999817e-05
2.18917295647e-05
2.18793802547e-05
2.17360220218e-05
2.13991835765e-05
2.11284078906e-05
4.5849878182e-05
0.00431977880159
0.0191012736554
2.19170239638e-05
2.19125887649e-05
2.18937846913e-05
2.18906481182e-05
2.17279990913e-05
2.13741349318e-05
2.11074182187e-05
4.49115762159e-05
0.00376579690034
0.0177627952941
2.19202033574e-05
2.19161122306e-05
2.18955599582e-05
2.19013335914e-05
2.17243551774e-05
2.13570876399e-05
2.10991290834e-05
4.41746086967e-05
0.00355549114828
0.0197355965453
2.19269299544e-05
2.19247589975e-05
2.19198739145e-05
2.18999418261e-05
2.19119444139e-05
2.17206561526e-05
2.13487558375e-05
2.11183634847e-05
4.34837311466e-05
0.00327682633723
0.0160560073733
2.19476505738e-05
2.19453962605e-05
2.19389737468e-05
2.19185564089e-05
2.19105705552e-05
2.17362662609e-05
2.13949083896e-05
2.11865184691e-05
4.3019498812e-05
0.00299861316784
0.0160700521849
2.20702804938e-05
2.20683307777e-05
2.20642673766e-05
2.20549109737e-05
2.20974017627e-05
2.19454990698e-05
2.16312979494e-05
2.14973334079e-05
4.36104034458e-05
0.00331774444703
0.020292902878
)
;
    }
    sides
    {
        type            calculated;
        value           nonuniform List<scalar> 
11
(
2.20702804938e-05
2.20683307777e-05
2.20642673766e-05
2.20549109737e-05
2.20974017627e-05
2.19454990698e-05
2.16312979494e-05
2.14973334079e-05
4.36104034458e-05
0.00331774444703
0.020292902878
)
;
    }
    bottom
    {
        type            calculated;
        value           nonuniform List<scalar> 0();
    }
    front
    {
        type            calculated;
        value           nonuniform List<scalar> 
167
(
2.18930088388e-05
2.1882361911e-05
2.18580314215e-05
2.18026076215e-05
2.1694672424e-05
2.17890622498e-05
4.94668020894e-05
0.00600075873382
0.0164747216336
2.18814109163e-05
2.18577427279e-05
2.18031395302e-05
2.16750113746e-05
2.17556183852e-05
5.07697358391e-05
0.00608576718887
0.0206012238816
2.18812618984e-05
2.18581288166e-05
2.17983040382e-05
2.16359264546e-05
2.16850057424e-05
5.16133380433e-05
0.00612926812562
0.020477802235
2.18932492083e-05
2.18821526462e-05
2.18578922512e-05
2.17847934661e-05
2.15665797088e-05
2.15850520411e-05
5.20885109324e-05
0.00615239599547
0.0203988952342
2.18942780177e-05
2.18836962238e-05
2.18590851629e-05
2.17781618638e-05
2.15292277143e-05
2.15030558947e-05
5.21573645164e-05
0.00618972877263
0.0160593311458
2.18969888306e-05
2.18863174282e-05
2.18614390444e-05
2.17773754944e-05
2.15060697292e-05
2.14235478812e-05
5.18702188204e-05
0.00609852270545
0.0194014210532
2.19044427455e-05
2.1899714961e-05
2.18903108688e-05
2.18678355472e-05
2.17699972298e-05
2.14786830026e-05
2.13285723459e-05
5.11758758621e-05
0.00583378535432
0.0175836342503
2.19096518677e-05
2.19054434874e-05
2.19003192294e-05
2.18907304915e-05
2.18708502215e-05
2.17628023656e-05
2.1454188621e-05
2.12712144511e-05
5.03716794497e-05
0.00587999812534
0.0202348494283
2.1911125912e-05
2.19070734912e-05
2.19005181861e-05
2.18892191686e-05
2.18700816379e-05
2.17554213692e-05
2.14425210076e-05
2.1226590187e-05
4.92817790237e-05
0.00574802971412
0.0194239725224
2.19093920216e-05
2.19031894189e-05
2.18889662333e-05
2.18718814448e-05
2.17494868248e-05
2.14360945082e-05
2.11841998134e-05
4.80949879439e-05
0.00539487958245
0.0163344672336
2.19120535763e-05
2.19062348579e-05
2.1889926327e-05
2.18746723383e-05
2.17441411351e-05
2.14216992684e-05
2.11508642134e-05
4.69651659395e-05
0.00509542179047
0.0159702746211
2.19145225661e-05
2.19087999817e-05
2.18917295647e-05
2.18793802547e-05
2.17360220218e-05
2.13991835765e-05
2.11284078906e-05
4.5849878182e-05
0.00431977880159
0.0191012736554
2.19170239638e-05
2.19125887649e-05
2.18937846913e-05
2.18906481182e-05
2.17279990913e-05
2.13741349318e-05
2.11074182187e-05
4.49115762159e-05
0.00376579690034
0.0177627952941
2.19202033574e-05
2.19161122306e-05
2.18955599582e-05
2.19013335914e-05
2.17243551774e-05
2.13570876399e-05
2.10991290834e-05
4.41746086967e-05
0.00355549114828
0.0197355965453
2.19269299544e-05
2.19247589975e-05
2.19198739145e-05
2.18999418261e-05
2.19119444139e-05
2.17206561526e-05
2.13487558375e-05
2.11183634847e-05
4.34837311466e-05
0.00327682633723
0.0160560073733
2.19476505738e-05
2.19453962605e-05
2.19389737468e-05
2.19185564089e-05
2.19105705552e-05
2.17362662609e-05
2.13949083896e-05
2.11865184691e-05
4.3019498812e-05
0.00299861316784
0.0160700521849
2.20702804938e-05
2.20683307777e-05
2.20642673766e-05
2.20549109737e-05
2.20974017627e-05
2.19454990698e-05
2.16312979494e-05
2.14973334079e-05
4.36104034458e-05
0.00331774444703
0.020292902878
)
;
    }
    atmosphere
    {
        type            calculated;
        value           nonuniform List<scalar> 
17
(
0.0164747216336
0.0206012238816
0.020477802235
0.0203988952342
0.0160593311458
0.0194014210532
0.0175836342503
0.0202348494283
0.0194239725224
0.0163344672336
0.0159702746211
0.0191012736554
0.0177627952941
0.0197355965453
0.0160560073733
0.0160700521849
0.020292902878
)
;
    }
    floatingObject
    {
        type            calculated;
        value           nonuniform List<scalar> 0();
    }
    procBoundary11to9
    {
        type            processor;
        value           nonuniform List<scalar> 9(2.18942382251e-05 2.18852784785e-05 2.18645408421e-05 2.18159863816e-05 2.1708836096e-05 2.17744327946e-05 4.7834705926e-05 0.00600895017321 0.0164826321459);
    }
    procBoundary11to10
    {
        type            processor;
        value           nonuniform List<scalar> 
23
(
2.18982326212e-05
2.18919635752e-05
2.18919635752e-05
2.18918553715e-05
2.18918553715e-05
2.189818244e-05
2.18998938812e-05
2.19019650795e-05
2.19019650795e-05
2.19070310832e-05
2.19070310832e-05
2.19108289758e-05
2.19126924731e-05
2.19127351889e-05
2.19127351889e-05
2.19138438998e-05
2.19158839762e-05
2.19182318109e-05
2.19211613361e-05
2.19211613361e-05
2.19281902809e-05
2.19486749021e-05
2.20705435339e-05
)
;
    }
}


// ************************************************************************* //
