/*--------------------------------*- C++ -*----------------------------------*\
| =========                 |                                                 |
| \\      /  F ield         | OpenFOAM: The Open Source CFD Toolbox           |
|  \\    /   O peration     | Version:  v2012                                 |
|   \\  /    A nd           | Website:  www.openfoam.com                      |
|    \\/     M anipulation  |                                                 |
\*---------------------------------------------------------------------------*/
FoamFile
{
    version     2.0;
    format      ascii;
    class       volScalarField;
    location    "3.9";
    object      ddt0(epsilon);
}
// * * * * * * * * * * * * * * * * * * * * * * * * * * * * * * * * * * * * * //

dimensions      [0 2 -4 0 0 0 0];


internalField   nonuniform List<scalar> 
164
(
-0.000743780003932
-0.000774462764379
-0.000852928868147
-0.000883409987303
-0.00089561481002
-0.000901437701829
-0.000905372733479
-0.000908976682705
-0.000748334068484
-0.000778885781742
-0.000856854624364
-0.000886588094355
-0.000898171243458
-0.000903545885826
-0.000907156089469
-0.000910465364012
-0.000913869139565
-0.000917377864602
-0.000920594482824
-0.000752654314899
-0.000782868367443
-0.000860317433368
-0.000889325030556
-0.000900324458191
-0.000905280065907
-0.000908570867798
-0.000911611062627
-0.000914766096624
-0.000918044734049
-0.000921194601713
-0.000923575437093
-0.000925181110573
-0.000756699406592
-0.000786446723536
-0.000863342889464
-0.000891635382284
-0.000902100177235
-0.00090670142799
-0.000909710488759
-0.000912510324817
-0.000915432482424
-0.000918517910475
-0.000921706863481
-0.000925152407527
-0.000930759212957
-0.000949797568669
-0.000759407738138
-0.000789998399602
-0.000866251510049
-0.000893752551764
-0.000903624824805
-0.000907850343437
-0.000910615904807
-0.000913185825445
-0.000915894249606
-0.000918788733595
-0.000921926568667
-0.000925765310606
-0.000932832556053
-0.000955118587179
-0.000760893124621
-0.000793548809831
-0.000869084235902
-0.000895726723066
-0.000904959365708
-0.000908794801023
-0.000911320632872
-0.000913714038798
-0.000916269878987
-0.000919031850018
-0.000922165911179
-0.000926420875439
-0.000934848791917
-0.000959769892488
-0.000762287799242
-0.00079675815755
-0.00087156300821
-0.000897404225248
-0.000906063539255
-0.000909565015201
-0.000911891914928
-0.000914157615308
-0.000916604293794
-0.000919309845908
-0.00092252963062
-0.00092743050895
-0.000938260407316
-0.000970121806157
-0.000763841821654
-0.000799581078707
-0.000873659148167
-0.000898774317022
-0.000906954190997
-0.000910191680861
-0.00091237058815
-0.000914543904715
-0.000916920516286
-0.00091960896207
-0.000922967186006
-0.0009286028484
-0.000942111722261
-0.000981863147665
-0.000765425339537
-0.000801992047762
-0.000875380219155
-0.000899884628345
-0.000907668784271
-0.000910700678224
-0.000912779485138
-0.000914891263139
-0.00091723717099
-0.000919936254819
-0.000923466478866
-0.000929853756905
-0.000945637774362
-0.000992399863932
-0.000766976850791
-0.00080400605133
-0.000876777869651
-0.000900756761533
-0.000908215953182
-0.000911091386407
-0.000913104921976
-0.000915192000456
-0.000917539099125
-0.000920284263689
-0.000924017282614
-0.00093101056211
-0.000948976646619
-0.00100169304707
-0.00116038611848
-0.00169819780556
-0.000768464609613
-0.000805668591716
-0.000877855619764
-0.00090138460473
-0.000908587099443
-0.000911353915828
-0.000913335091768
-0.000915422429912
-0.00091779579735
-0.000920617960089
-0.000924597252137
-0.000932340047196
-0.000952414778519
-0.0010107394154
-0.00118725392383
-0.00182109002626
-0.000769721798028
-0.000806951773486
-0.000878603638445
-0.000901756331659
-0.000908772559396
-0.000911482407077
-0.000913473141408
-0.000915599678246
-0.000918037546459
-0.000920986725706
-0.000925271440754
-0.000933842122185
-0.000956036181909
-0.0010197136116
-0.00121503587998
-0.00195066844292
)
;

boundaryField
{
    back
    {
        type            calculated;
        value           nonuniform List<scalar> 
164
(
-0.000743780003932
-0.000774462764379
-0.000852928868147
-0.000883409987303
-0.00089561481002
-0.000901437701829
-0.000905372733479
-0.000908976682705
-0.000748334068484
-0.000778885781742
-0.000856854624364
-0.000886588094355
-0.000898171243458
-0.000903545885826
-0.000907156089469
-0.000910465364012
-0.000913869139565
-0.000917377864602
-0.000920594482824
-0.000752654314899
-0.000782868367443
-0.000860317433368
-0.000889325030556
-0.000900324458191
-0.000905280065907
-0.000908570867798
-0.000911611062627
-0.000914766096624
-0.000918044734049
-0.000921194601713
-0.000923575437093
-0.000925181110573
-0.000756699406592
-0.000786446723536
-0.000863342889464
-0.000891635382284
-0.000902100177235
-0.00090670142799
-0.000909710488759
-0.000912510324817
-0.000915432482424
-0.000918517910475
-0.000921706863481
-0.000925152407527
-0.000930759212957
-0.000949797568669
-0.000759407738138
-0.000789998399602
-0.000866251510049
-0.000893752551764
-0.000903624824805
-0.000907850343437
-0.000910615904807
-0.000913185825445
-0.000915894249606
-0.000918788733595
-0.000921926568667
-0.000925765310606
-0.000932832556053
-0.000955118587179
-0.000760893124621
-0.000793548809831
-0.000869084235902
-0.000895726723066
-0.000904959365708
-0.000908794801023
-0.000911320632872
-0.000913714038798
-0.000916269878987
-0.000919031850018
-0.000922165911179
-0.000926420875439
-0.000934848791917
-0.000959769892488
-0.000762287799242
-0.00079675815755
-0.00087156300821
-0.000897404225248
-0.000906063539255
-0.000909565015201
-0.000911891914928
-0.000914157615308
-0.000916604293794
-0.000919309845908
-0.00092252963062
-0.00092743050895
-0.000938260407316
-0.000970121806157
-0.000763841821654
-0.000799581078707
-0.000873659148167
-0.000898774317022
-0.000906954190997
-0.000910191680861
-0.00091237058815
-0.000914543904715
-0.000916920516286
-0.00091960896207
-0.000922967186006
-0.0009286028484
-0.000942111722261
-0.000981863147665
-0.000765425339537
-0.000801992047762
-0.000875380219155
-0.000899884628345
-0.000907668784271
-0.000910700678224
-0.000912779485138
-0.000914891263139
-0.00091723717099
-0.000919936254819
-0.000923466478866
-0.000929853756905
-0.000945637774362
-0.000992399863932
-0.000766976850791
-0.00080400605133
-0.000876777869651
-0.000900756761533
-0.000908215953182
-0.000911091386407
-0.000913104921976
-0.000915192000456
-0.000917539099125
-0.000920284263689
-0.000924017282614
-0.00093101056211
-0.000948976646619
-0.00100169304707
-0.00116038611848
-0.00169819780556
-0.000768464609613
-0.000805668591716
-0.000877855619764
-0.00090138460473
-0.000908587099443
-0.000911353915828
-0.000913335091768
-0.000915422429912
-0.00091779579735
-0.000920617960089
-0.000924597252137
-0.000932340047196
-0.000952414778519
-0.0010107394154
-0.00118725392383
-0.00182109002626
-0.000769721798028
-0.000806951773486
-0.000878603638445
-0.000901756331659
-0.000908772559396
-0.000911482407077
-0.000913473141408
-0.000915599678246
-0.000918037546459
-0.000920986725706
-0.000925271440754
-0.000933842122185
-0.000956036181909
-0.0010197136116
-0.00121503587998
-0.00195066844292
)
;
    }
    sides
    {
        type            calculated;
        value           nonuniform List<scalar> 0();
    }
    bottom
    {
        type            calculated;
        value           nonuniform List<scalar> 
12
(
-0.000743780003932
-0.000748334068484
-0.000752654314899
-0.000756699406592
-0.000759407738138
-0.000760893124621
-0.000762287799242
-0.000763841821654
-0.000765425339537
-0.000766976850791
-0.000768464609613
-0.000769721798028
)
;
    }
    front
    {
        type            calculated;
        value           nonuniform List<scalar> 
164
(
-0.000743780003932
-0.000774462764379
-0.000852928868147
-0.000883409987303
-0.00089561481002
-0.000901437701829
-0.000905372733479
-0.000908976682705
-0.000748334068484
-0.000778885781742
-0.000856854624364
-0.000886588094355
-0.000898171243458
-0.000903545885826
-0.000907156089469
-0.000910465364012
-0.000913869139565
-0.000917377864602
-0.000920594482824
-0.000752654314899
-0.000782868367443
-0.000860317433368
-0.000889325030556
-0.000900324458191
-0.000905280065907
-0.000908570867798
-0.000911611062627
-0.000914766096624
-0.000918044734049
-0.000921194601713
-0.000923575437093
-0.000925181110573
-0.000756699406592
-0.000786446723536
-0.000863342889464
-0.000891635382284
-0.000902100177235
-0.00090670142799
-0.000909710488759
-0.000912510324817
-0.000915432482424
-0.000918517910475
-0.000921706863481
-0.000925152407527
-0.000930759212957
-0.000949797568669
-0.000759407738138
-0.000789998399602
-0.000866251510049
-0.000893752551764
-0.000903624824805
-0.000907850343437
-0.000910615904807
-0.000913185825445
-0.000915894249606
-0.000918788733595
-0.000921926568667
-0.000925765310606
-0.000932832556053
-0.000955118587179
-0.000760893124621
-0.000793548809831
-0.000869084235902
-0.000895726723066
-0.000904959365708
-0.000908794801023
-0.000911320632872
-0.000913714038798
-0.000916269878987
-0.000919031850018
-0.000922165911179
-0.000926420875439
-0.000934848791917
-0.000959769892488
-0.000762287799242
-0.00079675815755
-0.00087156300821
-0.000897404225248
-0.000906063539255
-0.000909565015201
-0.000911891914928
-0.000914157615308
-0.000916604293794
-0.000919309845908
-0.00092252963062
-0.00092743050895
-0.000938260407316
-0.000970121806157
-0.000763841821654
-0.000799581078707
-0.000873659148167
-0.000898774317022
-0.000906954190997
-0.000910191680861
-0.00091237058815
-0.000914543904715
-0.000916920516286
-0.00091960896207
-0.000922967186006
-0.0009286028484
-0.000942111722261
-0.000981863147665
-0.000765425339537
-0.000801992047762
-0.000875380219155
-0.000899884628345
-0.000907668784271
-0.000910700678224
-0.000912779485138
-0.000914891263139
-0.00091723717099
-0.000919936254819
-0.000923466478866
-0.000929853756905
-0.000945637774362
-0.000992399863932
-0.000766976850791
-0.00080400605133
-0.000876777869651
-0.000900756761533
-0.000908215953182
-0.000911091386407
-0.000913104921976
-0.000915192000456
-0.000917539099125
-0.000920284263689
-0.000924017282614
-0.00093101056211
-0.000948976646619
-0.00100169304707
-0.00116038611848
-0.00169819780556
-0.000768464609613
-0.000805668591716
-0.000877855619764
-0.00090138460473
-0.000908587099443
-0.000911353915828
-0.000913335091768
-0.000915422429912
-0.00091779579735
-0.000920617960089
-0.000924597252137
-0.000932340047196
-0.000952414778519
-0.0010107394154
-0.00118725392383
-0.00182109002626
-0.000769721798028
-0.000806951773486
-0.000878603638445
-0.000901756331659
-0.000908772559396
-0.000911482407077
-0.000913473141408
-0.000915599678246
-0.000918037546459
-0.000920986725706
-0.000925271440754
-0.000933842122185
-0.000956036181909
-0.0010197136116
-0.00121503587998
-0.00195066844292
)
;
    }
    atmosphere
    {
        type            calculated;
        value           nonuniform List<scalar> 0();
    }
    floatingObject
    {
        type            calculated;
        value           nonuniform List<scalar> 0();
    }
    procBoundary7to6
    {
        type            processor;
        value           nonuniform List<scalar> 
11
(
-0.00102326518714
-0.0010404238139
-0.00105114546142
-0.00107849563961
-0.00110907319319
-0.00113534978374
-0.00113534978374
-0.00160865020476
-0.00429472627919
-0.00497798426376
-0.00560804586499
)
;
    }
    procBoundary7to8
    {
        type            processor;
        value           nonuniform List<scalar> 
17
(
-0.000739031017807
-0.000769600716299
-0.000848473467034
-0.000879680762279
-0.000892524591274
-0.00089882850345
-0.000903138695978
-0.0009070908145
-0.000912722472196
-0.000912722472196
-0.000916567384354
-0.00091990949257
-0.000922162042229
-0.000922162042229
-0.000919947179026
-0.000934811603294
-0.000934811603294
)
;
    }
    procBoundary7to9
    {
        type            processor;
        value           nonuniform List<scalar> 
16
(
-0.000770707129328
-0.000807823274818
-0.000878989035401
-0.000901848170411
-0.000908736049026
-0.000911422046424
-0.000913441214244
-0.000915622023313
-0.000918143030722
-0.000921245685
-0.000925891315511
-0.000935373357997
-0.000959754969318
-0.00102840242922
-0.00123890261653
-0.00205050409942
)
;
    }
}


// ************************************************************************* //
