/*--------------------------------*- C++ -*----------------------------------*\
| =========                 |                                                 |
| \\      /  F ield         | OpenFOAM: The Open Source CFD Toolbox           |
|  \\    /   O peration     | Version:  v2012                                 |
|   \\  /    A nd           | Website:  www.openfoam.com                      |
|    \\/     M anipulation  |                                                 |
\*---------------------------------------------------------------------------*/
FoamFile
{
    version     2.0;
    format      ascii;
    class       volScalarField;
    location    "3.9";
    object      ddt0(k);
}
// * * * * * * * * * * * * * * * * * * * * * * * * * * * * * * * * * * * * * //

dimensions      [0 2 -3 0 0 0 0];


internalField   nonuniform List<scalar> 
164
(
-0.00094451593618
-0.00117855201132
-0.00125833835593
-0.00128846970973
-0.00129995596014
-0.00130487014532
-0.00130773756383
-0.00131010659747
-0.000948556060031
-0.00118320600751
-0.00126206778147
-0.00129122125293
-0.00130199818627
-0.00130646113669
-0.00130904958335
-0.00131118295008
-0.00131319064546
-0.00131488965878
-0.00131491372223
-0.000952513925871
-0.00118745643958
-0.00126538004095
-0.00129358088049
-0.00130368641153
-0.00130771926062
-0.00131001690984
-0.00131192621758
-0.00131371319217
-0.00131520745547
-0.00131544011826
-0.00131128704786
-0.00129487182962
-0.000956394054589
-0.00119135334384
-0.00126830887624
-0.00129556808505
-0.00130505487908
-0.00130872895941
-0.00131076548036
-0.00131247060535
-0.00131407368579
-0.00131544947039
-0.00131597929976
-0.00131383778225
-0.00130492457881
-0.00128729110513
-0.000960178356069
-0.00119499240886
-0.00127091227962
-0.00129725794395
-0.00130616908258
-0.00130953029081
-0.00131139822942
-0.00131294083745
-0.0013144070274
-0.00131573768407
-0.00131670154961
-0.00131679621828
-0.00131571081917
-0.00131817570878
-0.000962222842977
-0.0011988986651
-0.00127373801317
-0.00129903225108
-0.0013072387005
-0.00131020597822
-0.00131185785443
-0.00131324879713
-0.0013145888915
-0.00131581724417
-0.0013169016206
-0.00131785333802
-0.00131967491925
-0.00132995687719
-0.000963238759723
-0.00120295247984
-0.00127660202817
-0.00130078275149
-0.00130825130132
-0.00131082729741
-0.00131227949402
-0.00131356882382
-0.00131483048663
-0.00131604400108
-0.00131731432444
-0.00131923060275
-0.00132472002637
-0.0013461640818
-0.000964566676108
-0.0012066814203
-0.00127915291643
-0.00130230818298
-0.00130914794365
-0.00131141343149
-0.00131272423529
-0.00131395409252
-0.00131518773323
-0.00131644019693
-0.00131795341398
-0.00132084342829
-0.00132997668302
-0.00136286034769
-0.000966058942191
-0.00121001905449
-0.00128138738158
-0.00130366612565
-0.00130997792799
-0.00131200313193
-0.00131323496456
-0.00131445095815
-0.00131571946223
-0.00131706761921
-0.00131888666072
-0.00132272835574
-0.00133557829404
-0.00137800675291
-0.000967640758353
-0.0012129810306
-0.00128336958972
-0.00130488476202
-0.00131075832295
-0.00131261053524
-0.00131382047606
-0.00131509085118
-0.00131646830223
-0.00131800189183
-0.0013202292835
-0.00132539349823
-0.00134136702017
-0.00139200675049
-0.00154213866966
-0.00203036221765
-0.000969283026727
-0.00121563109187
-0.00128510130665
-0.00130595676857
-0.00131148595426
-0.00131323840493
-0.00131448688431
-0.00131587293831
-0.00131742693266
-0.00131923113092
-0.00132196770649
-0.00132837713611
-0.0013475150563
-0.00140626274295
-0.00158293042791
-0.00218222716105
-0.000970801169257
-0.00121791693688
-0.00128655626626
-0.00130685440253
-0.00131213202394
-0.00131385102048
-0.00131519710402
-0.00131675318985
-0.00131854917892
-0.00132070063557
-0.00132404289656
-0.00133176779704
-0.00135401619948
-0.00142033901938
-0.00162130815119
-0.00233236947606
)
;

boundaryField
{
    back
    {
        type            calculated;
        value           nonuniform List<scalar> 
164
(
-0.00094451593618
-0.00117855201132
-0.00125833835593
-0.00128846970973
-0.00129995596014
-0.00130487014532
-0.00130773756383
-0.00131010659747
-0.000948556060031
-0.00118320600751
-0.00126206778147
-0.00129122125293
-0.00130199818627
-0.00130646113669
-0.00130904958335
-0.00131118295008
-0.00131319064546
-0.00131488965878
-0.00131491372223
-0.000952513925871
-0.00118745643958
-0.00126538004095
-0.00129358088049
-0.00130368641153
-0.00130771926062
-0.00131001690984
-0.00131192621758
-0.00131371319217
-0.00131520745547
-0.00131544011826
-0.00131128704786
-0.00129487182962
-0.000956394054589
-0.00119135334384
-0.00126830887624
-0.00129556808505
-0.00130505487908
-0.00130872895941
-0.00131076548036
-0.00131247060535
-0.00131407368579
-0.00131544947039
-0.00131597929976
-0.00131383778225
-0.00130492457881
-0.00128729110513
-0.000960178356069
-0.00119499240886
-0.00127091227962
-0.00129725794395
-0.00130616908258
-0.00130953029081
-0.00131139822942
-0.00131294083745
-0.0013144070274
-0.00131573768407
-0.00131670154961
-0.00131679621828
-0.00131571081917
-0.00131817570878
-0.000962222842977
-0.0011988986651
-0.00127373801317
-0.00129903225108
-0.0013072387005
-0.00131020597822
-0.00131185785443
-0.00131324879713
-0.0013145888915
-0.00131581724417
-0.0013169016206
-0.00131785333802
-0.00131967491925
-0.00132995687719
-0.000963238759723
-0.00120295247984
-0.00127660202817
-0.00130078275149
-0.00130825130132
-0.00131082729741
-0.00131227949402
-0.00131356882382
-0.00131483048663
-0.00131604400108
-0.00131731432444
-0.00131923060275
-0.00132472002637
-0.0013461640818
-0.000964566676108
-0.0012066814203
-0.00127915291643
-0.00130230818298
-0.00130914794365
-0.00131141343149
-0.00131272423529
-0.00131395409252
-0.00131518773323
-0.00131644019693
-0.00131795341398
-0.00132084342829
-0.00132997668302
-0.00136286034769
-0.000966058942191
-0.00121001905449
-0.00128138738158
-0.00130366612565
-0.00130997792799
-0.00131200313193
-0.00131323496456
-0.00131445095815
-0.00131571946223
-0.00131706761921
-0.00131888666072
-0.00132272835574
-0.00133557829404
-0.00137800675291
-0.000967640758353
-0.0012129810306
-0.00128336958972
-0.00130488476202
-0.00131075832295
-0.00131261053524
-0.00131382047606
-0.00131509085118
-0.00131646830223
-0.00131800189183
-0.0013202292835
-0.00132539349823
-0.00134136702017
-0.00139200675049
-0.00154213866966
-0.00203036221765
-0.000969283026727
-0.00121563109187
-0.00128510130665
-0.00130595676857
-0.00131148595426
-0.00131323840493
-0.00131448688431
-0.00131587293831
-0.00131742693266
-0.00131923113092
-0.00132196770649
-0.00132837713611
-0.0013475150563
-0.00140626274295
-0.00158293042791
-0.00218222716105
-0.000970801169257
-0.00121791693688
-0.00128655626626
-0.00130685440253
-0.00131213202394
-0.00131385102048
-0.00131519710402
-0.00131675318985
-0.00131854917892
-0.00132070063557
-0.00132404289656
-0.00133176779704
-0.00135401619948
-0.00142033901938
-0.00162130815119
-0.00233236947606
)
;
    }
    sides
    {
        type            calculated;
        value           nonuniform List<scalar> 0();
    }
    bottom
    {
        type            calculated;
        value           nonuniform List<scalar> 
12
(
-0.00094451593618
-0.000948556060031
-0.000952513925871
-0.000956394054589
-0.000960178356069
-0.000962222842977
-0.000963238759723
-0.000964566676108
-0.000966058942191
-0.000967640758353
-0.000969283026727
-0.000970801169257
)
;
    }
    front
    {
        type            calculated;
        value           nonuniform List<scalar> 
164
(
-0.00094451593618
-0.00117855201132
-0.00125833835593
-0.00128846970973
-0.00129995596014
-0.00130487014532
-0.00130773756383
-0.00131010659747
-0.000948556060031
-0.00118320600751
-0.00126206778147
-0.00129122125293
-0.00130199818627
-0.00130646113669
-0.00130904958335
-0.00131118295008
-0.00131319064546
-0.00131488965878
-0.00131491372223
-0.000952513925871
-0.00118745643958
-0.00126538004095
-0.00129358088049
-0.00130368641153
-0.00130771926062
-0.00131001690984
-0.00131192621758
-0.00131371319217
-0.00131520745547
-0.00131544011826
-0.00131128704786
-0.00129487182962
-0.000956394054589
-0.00119135334384
-0.00126830887624
-0.00129556808505
-0.00130505487908
-0.00130872895941
-0.00131076548036
-0.00131247060535
-0.00131407368579
-0.00131544947039
-0.00131597929976
-0.00131383778225
-0.00130492457881
-0.00128729110513
-0.000960178356069
-0.00119499240886
-0.00127091227962
-0.00129725794395
-0.00130616908258
-0.00130953029081
-0.00131139822942
-0.00131294083745
-0.0013144070274
-0.00131573768407
-0.00131670154961
-0.00131679621828
-0.00131571081917
-0.00131817570878
-0.000962222842977
-0.0011988986651
-0.00127373801317
-0.00129903225108
-0.0013072387005
-0.00131020597822
-0.00131185785443
-0.00131324879713
-0.0013145888915
-0.00131581724417
-0.0013169016206
-0.00131785333802
-0.00131967491925
-0.00132995687719
-0.000963238759723
-0.00120295247984
-0.00127660202817
-0.00130078275149
-0.00130825130132
-0.00131082729741
-0.00131227949402
-0.00131356882382
-0.00131483048663
-0.00131604400108
-0.00131731432444
-0.00131923060275
-0.00132472002637
-0.0013461640818
-0.000964566676108
-0.0012066814203
-0.00127915291643
-0.00130230818298
-0.00130914794365
-0.00131141343149
-0.00131272423529
-0.00131395409252
-0.00131518773323
-0.00131644019693
-0.00131795341398
-0.00132084342829
-0.00132997668302
-0.00136286034769
-0.000966058942191
-0.00121001905449
-0.00128138738158
-0.00130366612565
-0.00130997792799
-0.00131200313193
-0.00131323496456
-0.00131445095815
-0.00131571946223
-0.00131706761921
-0.00131888666072
-0.00132272835574
-0.00133557829404
-0.00137800675291
-0.000967640758353
-0.0012129810306
-0.00128336958972
-0.00130488476202
-0.00131075832295
-0.00131261053524
-0.00131382047606
-0.00131509085118
-0.00131646830223
-0.00131800189183
-0.0013202292835
-0.00132539349823
-0.00134136702017
-0.00139200675049
-0.00154213866966
-0.00203036221765
-0.000969283026727
-0.00121563109187
-0.00128510130665
-0.00130595676857
-0.00131148595426
-0.00131323840493
-0.00131448688431
-0.00131587293831
-0.00131742693266
-0.00131923113092
-0.00132196770649
-0.00132837713611
-0.0013475150563
-0.00140626274295
-0.00158293042791
-0.00218222716105
-0.000970801169257
-0.00121791693688
-0.00128655626626
-0.00130685440253
-0.00131213202394
-0.00131385102048
-0.00131519710402
-0.00131675318985
-0.00131854917892
-0.00132070063557
-0.00132404289656
-0.00133176779704
-0.00135401619948
-0.00142033901938
-0.00162130815119
-0.00233236947606
)
;
    }
    atmosphere
    {
        type            calculated;
        value           nonuniform List<scalar> 0();
    }
    floatingObject
    {
        type            calculated;
        value           nonuniform List<scalar> 0();
    }
    procBoundary7to6
    {
        type            processor;
        value           nonuniform List<scalar> 
11
(
-0.00128125691256
-0.00135412780101
-0.00138767730457
-0.00142863742102
-0.00147063733894
-0.00150733326548
-0.00150733326548
-0.00191951605048
-0.00407617228404
-0.00469932035093
-0.00525319210066
)
;
    }
    procBoundary7to8
    {
        type            processor;
        value           nonuniform List<scalar> 
17
(
-0.000940436223524
-0.00117348765717
-0.00125409635445
-0.00128518018862
-0.00129739297671
-0.00130278614242
-0.00130598160477
-0.00130862553574
-0.00131241514597
-0.00131241514597
-0.00131428428406
-0.00131435687676
-0.00130906516193
-0.00130906516193
-0.00128644006446
-0.00126119752631
-0.00126119752631
)
;
    }
    procBoundary7to9
    {
        type            processor;
        value           nonuniform List<scalar> 
16
(
-0.000972172559
-0.00121980281963
-0.00128770443429
-0.00130756611871
-0.00131267377264
-0.00131441111203
-0.00131588349179
-0.00131763708117
-0.00131968593299
-0.00132219479405
-0.00132615505353
-0.00133519910747
-0.00136043880367
-0.00143328068392
-0.00165277768484
-0.00244385145357
)
;
    }
}


// ************************************************************************* //
