/*--------------------------------*- C++ -*----------------------------------*\
| =========                 |                                                 |
| \\      /  F ield         | OpenFOAM: The Open Source CFD Toolbox           |
|  \\    /   O peration     | Version:  v2012                                 |
|   \\  /    A nd           | Website:  www.openfoam.com                      |
|    \\/     M anipulation  |                                                 |
\*---------------------------------------------------------------------------*/
FoamFile
{
    version     2.0;
    format      ascii;
    class       volScalarField;
    location    "3.9";
    object      p_rgh;
}
// * * * * * * * * * * * * * * * * * * * * * * * * * * * * * * * * * * * * * //

dimensions      [1 -1 -2 0 0 0 0];


internalField   nonuniform List<scalar> 
164
(
8718.30373581
8718.61849174
8719.26779509
8720.24921801
8721.55803434
8723.19065962
8725.14107088
8727.40149009
8714.58987276
8714.91583538
8715.58398387
8716.59477959
8717.94685441
8719.64090485
8721.67755392
8724.05526039
8726.76763943
8729.8068082
8733.15790262
8710.53988646
8710.87669498
8711.56216302
8712.6003926
8713.99335252
8715.74622831
8717.86607608
8720.35908096
8723.2296561
8726.48822885
8730.13326144
8734.12485145
8738.48146931
8706.14784549
8706.49539464
8707.19393095
8708.25342607
8709.67985036
8711.48308024
8713.67573256
8716.27263029
8719.28969167
8722.74609659
8726.6622743
8731.05969119
8735.93242313
8741.2745939
8701.40956219
8701.76942659
8702.47329843
8703.54442065
8704.99191824
8706.83036813
8709.07757243
8711.75604041
8714.89248709
8718.5184459
8722.6706148
8727.39344526
8732.72680409
8738.70145979
8696.33104199
8696.69248908
8697.39607998
8698.46700186
8699.91899586
8701.77045981
8704.04493757
8706.77208867
8709.98822368
8713.73625923
8718.06757453
8723.04188304
8728.71658651
8735.14317268
8690.91339838
8691.26682117
8691.96168589
8693.01829449
8694.45409837
8696.29100054
8698.55784018
8701.29039762
8704.53250401
8708.33747626
8712.76915387
8717.90200661
8723.82460154
8730.61818136
8685.16070317
8685.50232893
8686.17602475
8687.20088348
8688.59617932
8690.38639129
8692.60422966
8695.28994878
8698.4931509
8702.27387131
8706.70667002
8711.88349661
8717.90686571
8724.8911377
8679.08674017
8679.41079609
8680.05012004
8681.02335245
8682.35094977
8684.05899246
8686.18185337
8688.76220965
8691.85233719
8695.51652249
8699.83283268
8704.8994038
8710.82272399
8717.74412173
8672.70708902
8673.00799285
8673.59984545
8674.50110876
8675.73254728
8677.32059439
8679.29977721
8681.71288987
8684.6122648
8688.06128286
8692.13699808
8696.93289201
8702.5567054
8709.13643563
8716.82718722
8725.84468351
8666.04350908
8666.3151015
8666.84659261
8667.6559741
8668.76356387
8670.19453975
8671.98177092
8674.16634235
8676.7980612
8679.93668422
8683.65345071
8688.03441742
8693.17454103
8699.17826441
8706.16391084
8714.30640681
8659.12327626
8659.35961211
8659.81873332
8660.51797283
8661.47625814
8662.71612972
8664.26737653
8666.16737743
8668.46123717
8671.20249777
8674.45443597
8678.29125627
8682.79732402
8688.05626406
8694.19288202
8701.35062582
)
;

boundaryField
{
    back
    {
        type            fixedFluxPressure;
        gradient        uniform 0;
        value           nonuniform List<scalar> 
164
(
8718.30373581
8718.61849174
8719.26779509
8720.24921801
8721.55803434
8723.19065962
8725.14107088
8727.40149009
8714.58987276
8714.91583538
8715.58398387
8716.59477959
8717.94685441
8719.64090485
8721.67755392
8724.05526039
8726.76763943
8729.8068082
8733.15790262
8710.53988646
8710.87669498
8711.56216302
8712.6003926
8713.99335252
8715.74622831
8717.86607608
8720.35908096
8723.2296561
8726.48822885
8730.13326144
8734.12485145
8738.48146931
8706.14784549
8706.49539464
8707.19393095
8708.25342607
8709.67985036
8711.48308024
8713.67573256
8716.27263029
8719.28969167
8722.74609659
8726.6622743
8731.05969119
8735.93242313
8741.2745939
8701.40956219
8701.76942659
8702.47329843
8703.54442065
8704.99191824
8706.83036813
8709.07757243
8711.75604041
8714.89248709
8718.5184459
8722.6706148
8727.39344526
8732.72680409
8738.70145979
8696.33104199
8696.69248908
8697.39607998
8698.46700186
8699.91899586
8701.77045981
8704.04493757
8706.77208867
8709.98822368
8713.73625923
8718.06757453
8723.04188304
8728.71658651
8735.14317268
8690.91339838
8691.26682117
8691.96168589
8693.01829449
8694.45409837
8696.29100054
8698.55784018
8701.29039762
8704.53250401
8708.33747626
8712.76915387
8717.90200661
8723.82460154
8730.61818136
8685.16070317
8685.50232893
8686.17602475
8687.20088348
8688.59617932
8690.38639129
8692.60422966
8695.28994878
8698.4931509
8702.27387131
8706.70667002
8711.88349661
8717.90686571
8724.8911377
8679.08674017
8679.41079609
8680.05012004
8681.02335245
8682.35094977
8684.05899246
8686.18185337
8688.76220965
8691.85233719
8695.51652249
8699.83283268
8704.8994038
8710.82272399
8717.74412173
8672.70708902
8673.00799285
8673.59984545
8674.50110876
8675.73254728
8677.32059439
8679.29977721
8681.71288987
8684.6122648
8688.06128286
8692.13699808
8696.93289201
8702.5567054
8709.13643563
8716.82718722
8725.84468351
8666.04350908
8666.3151015
8666.84659261
8667.6559741
8668.76356387
8670.19453975
8671.98177092
8674.16634235
8676.7980612
8679.93668422
8683.65345071
8688.03441742
8693.17454103
8699.17826441
8706.16391084
8714.30640681
8659.12327626
8659.35961211
8659.81873332
8660.51797283
8661.47625814
8662.71612972
8664.26737653
8666.16737743
8668.46123717
8671.20249777
8674.45443597
8678.29125627
8682.79732402
8688.05626406
8694.19288202
8701.35062582
)
;
    }
    sides
    {
        type            fixedFluxPressure;
        gradient        nonuniform List<scalar> 0();
        value           nonuniform List<scalar> 0();
    }
    bottom
    {
        type            fixedFluxPressure;
        gradient        uniform 0;
        value           nonuniform List<scalar> 
12
(
8718.30373581
8714.58987276
8710.53988646
8706.14784549
8701.40956219
8696.33104199
8690.91339838
8685.16070317
8679.08674017
8672.70708902
8666.04350908
8659.12327626
)
;
    }
    front
    {
        type            fixedFluxPressure;
        gradient        uniform 0;
        value           nonuniform List<scalar> 
164
(
8718.30373581
8718.61849174
8719.26779509
8720.24921801
8721.55803434
8723.19065962
8725.14107088
8727.40149009
8714.58987276
8714.91583538
8715.58398387
8716.59477959
8717.94685441
8719.64090485
8721.67755392
8724.05526039
8726.76763943
8729.8068082
8733.15790262
8710.53988646
8710.87669498
8711.56216302
8712.6003926
8713.99335252
8715.74622831
8717.86607608
8720.35908096
8723.2296561
8726.48822885
8730.13326144
8734.12485145
8738.48146931
8706.14784549
8706.49539464
8707.19393095
8708.25342607
8709.67985036
8711.48308024
8713.67573256
8716.27263029
8719.28969167
8722.74609659
8726.6622743
8731.05969119
8735.93242313
8741.2745939
8701.40956219
8701.76942659
8702.47329843
8703.54442065
8704.99191824
8706.83036813
8709.07757243
8711.75604041
8714.89248709
8718.5184459
8722.6706148
8727.39344526
8732.72680409
8738.70145979
8696.33104199
8696.69248908
8697.39607998
8698.46700186
8699.91899586
8701.77045981
8704.04493757
8706.77208867
8709.98822368
8713.73625923
8718.06757453
8723.04188304
8728.71658651
8735.14317268
8690.91339838
8691.26682117
8691.96168589
8693.01829449
8694.45409837
8696.29100054
8698.55784018
8701.29039762
8704.53250401
8708.33747626
8712.76915387
8717.90200661
8723.82460154
8730.61818136
8685.16070317
8685.50232893
8686.17602475
8687.20088348
8688.59617932
8690.38639129
8692.60422966
8695.28994878
8698.4931509
8702.27387131
8706.70667002
8711.88349661
8717.90686571
8724.8911377
8679.08674017
8679.41079609
8680.05012004
8681.02335245
8682.35094977
8684.05899246
8686.18185337
8688.76220965
8691.85233719
8695.51652249
8699.83283268
8704.8994038
8710.82272399
8717.74412173
8672.70708902
8673.00799285
8673.59984545
8674.50110876
8675.73254728
8677.32059439
8679.29977721
8681.71288987
8684.6122648
8688.06128286
8692.13699808
8696.93289201
8702.5567054
8709.13643563
8716.82718722
8725.84468351
8666.04350908
8666.3151015
8666.84659261
8667.6559741
8668.76356387
8670.19453975
8671.98177092
8674.16634235
8676.7980612
8679.93668422
8683.65345071
8688.03441742
8693.17454103
8699.17826441
8706.16391084
8714.30640681
8659.12327626
8659.35961211
8659.81873332
8660.51797283
8661.47625814
8662.71612972
8664.26737653
8666.16737743
8668.46123717
8671.20249777
8674.45443597
8678.29125627
8682.79732402
8688.05626406
8694.19288202
8701.35062582
)
;
    }
    atmosphere
    {
        type            totalPressure;
        rho             rho;
        psi             none;
        gamma           1;
        p0              nonuniform List<scalar> 0();
        value           nonuniform List<scalar> 0();
    }
    floatingObject
    {
        type            fixedFluxPressure;
        gradient        nonuniform List<scalar> 0();
        value           nonuniform List<scalar> 0();
    }
    procBoundary7to6
    {
        type            processor;
        value           nonuniform List<scalar> 
11
(
8747.22185206
8745.28964143
8742.37828375
8738.4366389
8733.04346225
8725.8640578
8725.8640578
8735.54181565
8736.42129567
8723.70641858
8709.58104873
)
;
    }
    procBoundary7to8
    {
        type            processor;
        value           nonuniform List<scalar> 
17
(
8721.68734292
8721.9899441
8722.61805216
8723.56694032
8724.82981571
8726.40072714
8728.27050474
8730.42774496
8729.96681839
8729.96681839
8732.80881159
8735.90411917
8736.77727834
8736.77727834
8740.70379748
8743.24223545
8743.24223545
)
;
    }
    procBoundary7to9
    {
        type            processor;
        value           nonuniform List<scalar> 
16
(
8651.97948354
8652.17569879
8652.5524898
8653.12569719
8653.9118303
8654.93021588
8656.2065214
8657.77236726
8659.66641869
8661.93366071
8664.62565959
8667.80765383
8671.54959381
8675.93883613
8681.0869429
8687.17498335
)
;
    }
}


// ************************************************************************* //
