/*--------------------------------*- C++ -*----------------------------------*\
| =========                 |                                                 |
| \\      /  F ield         | OpenFOAM: The Open Source CFD Toolbox           |
|  \\    /   O peration     | Version:  v2012                                 |
|   \\  /    A nd           | Website:  www.openfoam.com                      |
|    \\/     M anipulation  |                                                 |
\*---------------------------------------------------------------------------*/
FoamFile
{
    version     2.0;
    format      ascii;
    class       volScalarField;
    location    "4.8";
    object      epsilon;
}
// * * * * * * * * * * * * * * * * * * * * * * * * * * * * * * * * * * * * * //

dimensions      [0 2 -3 0 0 0 0];


internalField   nonuniform List<scalar> 
167
(
0.000777676154656
0.000788035618222
0.00079298607976
0.000796406297211
0.000799696548845
0.000803439035163
0.000808184418362
0.000815110589532
0.000681111682463
0.000748587344744
0.000774707148252
0.000785139692289
0.000790153269774
0.000793626354104
0.000796966980527
0.000800765337321
0.000805592411667
0.000812672056434
0.00082507485385
0.000678015258858
0.000745379508243
0.000771546162825
0.000782060796722
0.00078715034784
0.000790689619272
0.000794093719169
0.000797962897259
0.000802887360145
0.00081012825348
0.000822788992736
0.000674740332205
0.000741985598324
0.000768204775964
0.000778811843971
0.000783990655055
0.000787610781848
0.000791092515839
0.000795047136063
0.000800085850741
0.000807510808815
0.000644384887661
0.000671290482167
0.000738412455112
0.000764695481271
0.000775409200549
0.000780692145925
0.000784408550319
0.000787981959555
0.000792035526977
0.000797198995598
0.000804838704952
0.000640814636942
0.000667687345016
0.000734685951986
0.000761038344387
0.000771871151515
0.00077727402373
0.000781103063535
0.000784783817249
0.000788940757916
0.000794262928287
0.000802108876135
0.000637046393694
0.000663941423442
0.000730823605423
0.000757255149767
0.000768219780549
0.000773759386301
0.000777717257193
0.000781514249348
0.000785814257931
0.000791276741831
0.000633108906465
0.000660091368279
0.000726846209876
0.000753364003934
0.000764476372317
0.000770171067242
0.00077427497817
0.000778216919822
0.000782654790272
0.00062901565296
0.00065611870141
0.000722758786729
0.00074937579709
0.000760655272604
0.000766526142179
0.000770798506337
0.000774904215964
0.000779493553786
0.000624758339077
0.00065203003673
0.000718553631263
0.000745279442457
0.000756744417529
0.000762814717424
0.000767279600609
0.000771560738438
0.000776323153747
0.00078229329922
0.000620291822849
0.000647762856279
0.000714137778819
0.000740969752376
0.000752636564735
0.000758927694105
0.000763604584703
0.000768079244057
0.000773021919869
0.00077918884216
0.000615441672079
0.000643045155025
0.000709163157633
0.000736067610952
0.000747939650101
0.000754466645926
0.000759370288454
0.000764046613493
0.000769168019834
0.000775515196489
0.000609584725754
0.000637004684947
0.000702564534491
0.000729422069549
0.000741465351335
0.000748224791708
0.000753354821773
0.000758224636418
0.000763493704666
0.000770027516993
0.00060083606123
0.00062707804145
0.00069130641929
0.000717780741936
0.000729865901686
0.000736807730529
0.00074213288962
0.000747150901252
0.000752583346235
0.000759175606955
0.000583708398709
0.000606108010972
0.000667044238884
0.000692299352926
0.000704081914979
0.000711046980345
0.000716470478752
0.00072158772679
0.000727039152859
0.000542621849174
0.000554805559302
0.000607694052502
0.000629767327417
0.000640411013267
0.000646998078931
0.000652272839393
0.000657279904321
0.000662591728323
0.000481181702277
0.000540424644359
0.000582977001456
0.000601442357753
0.000611255989446
0.000618117871459
0.000624077963682
0.000629965933885
0.000636152467399
)
;

boundaryField
{
    back
    {
        lowReCorrection 0;
        blending        stepwise;
        n               2;
        type            epsilonWallFunction;
        value           nonuniform List<scalar> 
167
(
0.000777676154656
0.000788035618222
0.00079298607976
0.000796406297211
0.000799696548845
0.000803439035163
0.000808184418362
0.000815110589532
0.000681111682463
0.000748587344744
0.000774707148252
0.000785139692289
0.000790153269774
0.000793626354104
0.000796966980527
0.000800765337321
0.000805592411667
0.000812672056434
0.00082507485385
0.000678015258858
0.000745379508243
0.000771546162825
0.000782060796722
0.00078715034784
0.000790689619272
0.000794093719169
0.000797962897259
0.000802887360145
0.00081012825348
0.000822788992736
0.000674740332205
0.000741985598324
0.000768204775964
0.000778811843971
0.000783990655055
0.000787610781848
0.000791092515839
0.000795047136063
0.000800085850741
0.000807510808815
0.000644384887661
0.000671290482167
0.000738412455112
0.000764695481271
0.000775409200549
0.000780692145925
0.000784408550319
0.000787981959555
0.000792035526977
0.000797198995598
0.000804838704952
0.000640814636942
0.000667687345016
0.000734685951986
0.000761038344387
0.000771871151515
0.00077727402373
0.000781103063535
0.000784783817249
0.000788940757916
0.000794262928287
0.000802108876135
0.000637046393694
0.000663941423442
0.000730823605423
0.000757255149767
0.000768219780549
0.000773759386301
0.000777717257193
0.000781514249348
0.000785814257931
0.000791276741831
0.000633108906465
0.000660091368279
0.000726846209876
0.000753364003934
0.000764476372317
0.000770171067242
0.00077427497817
0.000778216919822
0.000782654790272
0.00062901565296
0.00065611870141
0.000722758786729
0.00074937579709
0.000760655272604
0.000766526142179
0.000770798506337
0.000774904215964
0.000779493553786
0.000624758339077
0.00065203003673
0.000718553631263
0.000745279442457
0.000756744417529
0.000762814717424
0.000767279600609
0.000771560738438
0.000776323153747
0.00078229329922
0.000620291822849
0.000647762856279
0.000714137778819
0.000740969752376
0.000752636564735
0.000758927694105
0.000763604584703
0.000768079244057
0.000773021919869
0.00077918884216
0.000615441672079
0.000643045155025
0.000709163157633
0.000736067610952
0.000747939650101
0.000754466645926
0.000759370288454
0.000764046613493
0.000769168019834
0.000775515196489
0.000609584725754
0.000637004684947
0.000702564534491
0.000729422069549
0.000741465351335
0.000748224791708
0.000753354821773
0.000758224636418
0.000763493704666
0.000770027516993
0.00060083606123
0.00062707804145
0.00069130641929
0.000717780741936
0.000729865901686
0.000736807730529
0.00074213288962
0.000747150901252
0.000752583346235
0.000759175606955
0.000583708398709
0.000606108010972
0.000667044238884
0.000692299352926
0.000704081914979
0.000711046980345
0.000716470478752
0.00072158772679
0.000727039152859
0.000542621849174
0.000554805559302
0.000607694052502
0.000629767327417
0.000640411013267
0.000646998078931
0.000652272839393
0.000657279904321
0.000662591728323
0.000481181702277
0.000540424644359
0.000582977001456
0.000601442357753
0.000611255989446
0.000618117871459
0.000624077963682
0.000629965933885
0.000636152467399
)
;
    }
    sides
    {
        lowReCorrection 0;
        blending        stepwise;
        n               2;
        type            epsilonWallFunction;
        value           nonuniform List<scalar> 9(0.000481181702277 0.000540424644359 0.000582977001456 0.000601442357753 0.000611255989446 0.000618117871459 0.000624077963682 0.000629965933885 0.000636152467399);
    }
    bottom
    {
        lowReCorrection 0;
        blending        stepwise;
        n               2;
        type            epsilonWallFunction;
        value           nonuniform List<scalar> 
13
(
0.000644384887661
0.000640814636942
0.000637046393694
0.000633108906465
0.00062901565296
0.000624758339077
0.000620291822849
0.000615441672079
0.000609584725754
0.00060083606123
0.000583708398709
0.000542621849174
0.000481181702277
)
;
    }
    front
    {
        lowReCorrection 0;
        blending        stepwise;
        n               2;
        type            epsilonWallFunction;
        value           nonuniform List<scalar> 
167
(
0.000777676154656
0.000788035618222
0.00079298607976
0.000796406297211
0.000799696548845
0.000803439035163
0.000808184418362
0.000815110589532
0.000681111682463
0.000748587344744
0.000774707148252
0.000785139692289
0.000790153269774
0.000793626354104
0.000796966980527
0.000800765337321
0.000805592411667
0.000812672056434
0.00082507485385
0.000678015258858
0.000745379508243
0.000771546162825
0.000782060796722
0.00078715034784
0.000790689619272
0.000794093719169
0.000797962897259
0.000802887360145
0.00081012825348
0.000822788992736
0.000674740332205
0.000741985598324
0.000768204775964
0.000778811843971
0.000783990655055
0.000787610781848
0.000791092515839
0.000795047136063
0.000800085850741
0.000807510808815
0.000644384887661
0.000671290482167
0.000738412455112
0.000764695481271
0.000775409200549
0.000780692145925
0.000784408550319
0.000787981959555
0.000792035526977
0.000797198995598
0.000804838704952
0.000640814636942
0.000667687345016
0.000734685951986
0.000761038344387
0.000771871151515
0.00077727402373
0.000781103063535
0.000784783817249
0.000788940757916
0.000794262928287
0.000802108876135
0.000637046393694
0.000663941423442
0.000730823605423
0.000757255149767
0.000768219780549
0.000773759386301
0.000777717257193
0.000781514249348
0.000785814257931
0.000791276741831
0.000633108906465
0.000660091368279
0.000726846209876
0.000753364003934
0.000764476372317
0.000770171067242
0.00077427497817
0.000778216919822
0.000782654790272
0.00062901565296
0.00065611870141
0.000722758786729
0.00074937579709
0.000760655272604
0.000766526142179
0.000770798506337
0.000774904215964
0.000779493553786
0.000624758339077
0.00065203003673
0.000718553631263
0.000745279442457
0.000756744417529
0.000762814717424
0.000767279600609
0.000771560738438
0.000776323153747
0.00078229329922
0.000620291822849
0.000647762856279
0.000714137778819
0.000740969752376
0.000752636564735
0.000758927694105
0.000763604584703
0.000768079244057
0.000773021919869
0.00077918884216
0.000615441672079
0.000643045155025
0.000709163157633
0.000736067610952
0.000747939650101
0.000754466645926
0.000759370288454
0.000764046613493
0.000769168019834
0.000775515196489
0.000609584725754
0.000637004684947
0.000702564534491
0.000729422069549
0.000741465351335
0.000748224791708
0.000753354821773
0.000758224636418
0.000763493704666
0.000770027516993
0.00060083606123
0.00062707804145
0.00069130641929
0.000717780741936
0.000729865901686
0.000736807730529
0.00074213288962
0.000747150901252
0.000752583346235
0.000759175606955
0.000583708398709
0.000606108010972
0.000667044238884
0.000692299352926
0.000704081914979
0.000711046980345
0.000716470478752
0.00072158772679
0.000727039152859
0.000542621849174
0.000554805559302
0.000607694052502
0.000629767327417
0.000640411013267
0.000646998078931
0.000652272839393
0.000657279904321
0.000662591728323
0.000481181702277
0.000540424644359
0.000582977001456
0.000601442357753
0.000611255989446
0.000618117871459
0.000624077963682
0.000629965933885
0.000636152467399
)
;
    }
    atmosphere
    {
        type            inletOutlet;
        inletValue      nonuniform List<scalar> 0();
        value           nonuniform List<scalar> 0();
    }
    floatingObject
    {
        lowReCorrection 0;
        blending        stepwise;
        n               2;
        type            epsilonWallFunction;
        value           nonuniform List<scalar> 0();
    }
    procBoundary10to9
    {
        type            processor;
        value           nonuniform List<scalar> 
15
(
0.000780438640426
0.000790733031926
0.0007956308516
0.000799011283165
0.000802265600664
0.000805965770847
0.000810635553161
0.000817427098774
0.000684022578927
0.000751604433337
0.000751604433337
0.000653882305197
0.000650920810428
0.000647762200913
0.000647762200913
)
;
    }
    procBoundary10to11
    {
        type            processor;
        value           nonuniform List<scalar> 
23
(
0.000827272499365
0.000827272499365
0.000850737914124
0.000848749935101
0.00082048436791
0.00082048436791
0.000818172460074
0.00081580853138
0.000799346768481
0.000799346768481
0.000788280853222
0.000788280853222
0.000785296093486
0.000785296093486
0.000791011676134
0.000788121516585
0.000784668252002
0.000779337737957
0.000768577623314
0.000733557005359
0.000733557005359
0.000668796031603
0.000643123030935
)
;
    }
}


// ************************************************************************* //
