/*--------------------------------*- C++ -*----------------------------------*\
| =========                 |                                                 |
| \\      /  F ield         | OpenFOAM: The Open Source CFD Toolbox           |
|  \\    /   O peration     | Version:  v2012                                 |
|   \\  /    A nd           | Website:  www.openfoam.com                      |
|    \\/     M anipulation  |                                                 |
\*---------------------------------------------------------------------------*/
FoamFile
{
    version     2.0;
    format      ascii;
    class       surfaceScalarField;
    location    "4.8";
    object      phi;
}
// * * * * * * * * * * * * * * * * * * * * * * * * * * * * * * * * * * * * * //

dimensions      [0 3 -1 0 0 0 0];
oriented        oriented;


internalField   nonuniform List<scalar> 
304
(
-6.18580007744e-06
-8.03057479987e-05
-8.05947581617e-06
-8.34505288705e-05
-1.00024976069e-05
-8.67266357476e-05
-1.20164204032e-05
-9.05368080208e-05
-1.40753174856e-05
-9.51146704495e-05
-1.64010568132e-05
-0.000100527569179
-1.88088794669e-05
-0.000107103718764
-0.000114727974385
-3.85273353697e-06
-7.03990684516e-05
-6.12010569299e-06
-7.4456402064e-05
-8.53987317129e-06
-7.78902462415e-05
-1.10906483631e-05
-8.09047892672e-05
-1.37835879652e-05
-8.40391266444e-05
-1.66257288493e-05
-8.77001878121e-05
-1.96848703392e-05
-9.20602715145e-05
-2.29871620639e-05
-9.72293210223e-05
-2.66870219062e-05
-0.000103407482582
-3.08296478955e-05
-0.000110587335644
-0.000118869858371
-4.97183426169e-06
-6.78207876035e-05
-7.78110372614e-06
-7.16539898554e-05
-1.08002779214e-05
-7.48779264902e-05
-1.4007390083e-05
-7.77047893553e-05
-1.7390347197e-05
-8.06633587074e-05
-2.10024335803e-05
-8.40947750507e-05
-2.49424390832e-05
-8.81256763175e-05
-2.92452257655e-05
-9.29301962593e-05
-3.41036021388e-05
-9.855294375e-05
-3.96134080965e-05
-0.000105079817146
-6.02659297948e-06
-6.47141776191e-05
-9.36689553121e-06
-6.83230167261e-05
-1.29323408466e-05
-7.13215181712e-05
-1.67275640036e-05
-7.39185455238e-05
-2.07606870175e-05
-7.66387113291e-05
-2.51098609526e-05
-7.97529857761e-05
-2.98007693108e-05
-8.34401467407e-05
-3.49651348781e-05
-8.77690484056e-05
-4.08278552376e-05
-9.26927764068e-05
-9.85403914074e-05
-3.40578239815e-06
-5.91352811957e-05
-6.94464232793e-06
-6.11864455956e-05
-1.07960198401e-05
-6.44823947806e-05
-1.49026604674e-05
-6.72253778228e-05
-1.92280359209e-05
-6.96032045604e-05
-2.38261408746e-05
-7.20496212748e-05
-2.87679993084e-05
-7.48181866494e-05
-3.41691683047e-05
-7.80433319696e-05
-4.01503600492e-05
-8.1789717546e-05
-4.66963490348e-05
-8.61546998163e-05
-9.11231012295e-05
-3.81326710735e-06
-5.53330192781e-05
-7.79369197423e-06
-5.72173949148e-05
-1.20869672649e-05
-6.0200479534e-05
-1.66510999444e-05
-6.26722600103e-05
-2.14535173915e-05
-6.48109749829e-05
-2.65627418677e-05
-6.6948834485e-05
-3.20366911089e-05
-6.93499481514e-05
-3.79467474397e-05
-7.21354828049e-05
-4.44229384554e-05
-7.53250864682e-05
-5.17034996907e-05
-7.88712471061e-05
-4.16909912182e-06
-5.11744921688e-05
-8.56610785293e-06
-5.28315093095e-05
-1.32495008135e-05
-5.55282304457e-05
-1.81828978954e-05
-5.77494598459e-05
-2.33864823806e-05
-5.96166472148e-05
-2.8890692059e-05
-6.14515084746e-05
-3.47748461585e-05
-6.34691885985e-05
-4.11647430497e-05
-6.57541068733e-05
-4.81837648973e-05
-6.83042865609e-05
-4.49958589177e-06
-4.66848042636e-05
-9.28791259879e-06
-4.80533977635e-05
-1.42649988952e-05
-5.05611398533e-05
-1.95062314874e-05
-5.25172962787e-05
-2.50242848733e-05
-5.41058678988e-05
-3.08402696479e-05
-5.56399164012e-05
-3.70341306263e-05
-5.7278663941e-05
-4.36746190457e-05
-5.91166594457e-05
-6.11126055783e-05
-4.8042408499e-06
-4.18891243152e-05
-9.77671031264e-06
-4.30892570266e-05
-1.50617603994e-05
-4.52837428334e-05
-2.05957600377e-05
-4.69895903922e-05
-2.63733799861e-05
-4.83323686777e-05
-3.2439653979e-05
-4.9575174102e-05
-3.88232584131e-05
-5.08969346372e-05
-4.56399775878e-05
-5.23008504251e-05
-5.37867102333e-05
-5.05494106875e-06
-3.68403472844e-05
-1.0261217999e-05
-3.78881513832e-05
-1.57514913122e-05
-3.97974119555e-05
-2.14810950866e-05
-4.12621229802e-05
-2.7441051562e-05
-4.23724209614e-05
-3.36492339575e-05
-4.33648650952e-05
-4.01639857852e-05
-4.43800729254e-05
-4.70474712366e-05
-4.54194526165e-05
-5.43559246446e-05
-4.6487483626e-05
-4.74119209704e-05
-5.25996002723e-06
-3.15828671669e-05
-1.06634333664e-05
-3.24853032336e-05
-1.63118567734e-05
-3.41477796293e-05
-2.21830851093e-05
-3.53875195414e-05
-2.8264828726e-05
-3.62851968309e-05
-3.45579246724e-05
-3.70649930974e-05
-4.11237302882e-05
-3.78084228687e-05
-4.79817940991e-05
-3.85631285894e-05
-5.52226512837e-05
-3.92630350254e-05
-3.98204232305e-05
-5.44835062256e-06
-2.61320551233e-05
-1.09926345305e-05
-2.69358267611e-05
-1.67519264564e-05
-2.83808678353e-05
-2.2711012303e-05
-2.9418415475e-05
-2.88551586778e-05
-3.01293150307e-05
-3.52022650869e-05
-3.07062609476e-05
-4.17592387971e-05
-3.12430314071e-05
-4.85683064705e-05
-3.17581821133e-05
-5.56190602577e-05
-3.22417114251e-05
-3.25929923067e-05
-5.62167098559e-06
-2.05020478384e-05
-1.12333449357e-05
-2.13123145752e-05
-1.70406439075e-05
-2.25588809271e-05
-2.30422015386e-05
-2.33998517395e-05
-2.92092534143e-05
-2.39445115582e-05
-3.55464365821e-05
-2.4353618263e-05
-4.20698050239e-05
-2.47107769421e-05
-4.87660753897e-05
-2.50727389745e-05
-5.56783503829e-05
-2.54123969552e-05
-2.56882747404e-05
-5.73788670448e-06
-1.47495745699e-05
-1.1329861757e-05
-1.57017766182e-05
-1.70996934583e-05
-1.67675768924e-05
-2.3056858159e-05
-1.74196080014e-05
-2.92007517138e-05
-1.77785383568e-05
-3.54667368548e-05
-1.8070751593e-05
-4.19137715244e-05
-1.8257131075e-05
-4.85300787755e-05
-1.85112287238e-05
-5.52627866694e-05
-1.87534062148e-05
-5.5510985583e-06
-9.17643854679e-06
-1.10294805462e-05
-1.01986202852e-05
-1.66761380888e-05
-1.10941022518e-05
-2.25304648984e-05
-1.15383144909e-05
-2.85434401544e-05
-1.17421045034e-05
-3.47459369194e-05
-1.18533217225e-05
-4.10572612499e-05
-1.19554537476e-05
-4.74849311599e-05
-1.21426894927e-05
-1.23454706691e-05
-4.80786504683e-06
-4.34176084718e-06
-1.01532766637e-05
-4.8247532694e-06
-1.5669814247e-05
-5.54825382986e-06
-2.13647490031e-05
-5.81580385116e-06
-2.72458789993e-05
-5.8395618862e-06
-3.32667792904e-05
-5.82268895471e-06
-3.93358582582e-05
-5.90906044406e-06
-4.55403468167e-05
-6.03431030426e-06
-6.14604990315e-06
-4.32737369567e-06
-9.13721260273e-06
-1.46709602814e-05
-2.04746127989e-05
-2.6307116698e-05
-3.21308109103e-05
-3.80823581373e-05
-4.41733951569e-05
)
;

boundaryField
{
    back
    {
        type            calculated;
        value           uniform 0;
    }
    sides
    {
        type            calculated;
        value           uniform 0;
    }
    bottom
    {
        type            calculated;
        value           uniform 0;
    }
    front
    {
        type            calculated;
        value           uniform 0;
    }
    atmosphere
    {
        type            calculated;
        value           nonuniform List<scalar> 0();
    }
    floatingObject
    {
        type            calculated;
        value           nonuniform List<scalar> 0();
    }
    procBoundary10to9
    {
        type            processor;
        value           nonuniform List<scalar> 
15
(
8.21045074305e-05
8.53200039641e-05
8.86647568994e-05
9.25448016113e-05
9.7168288932e-05
0.000102847704433
0.000109510649709
0.000117471836387
7.2410250705e-05
4.38603622655e-06
7.67211429918e-05
1.84002615484e-06
2.38572073608e-06
2.90040762925e-06
6.25201960414e-05
)
;
    }
    procBoundary10to11
    {
        type            processor;
        value           nonuniform List<scalar> 
23
(
-2.15612190469e-05
0.000123770737822
-3.573749864e-05
-4.58593204767e-05
-0.000112628138688
-4.73716212857e-05
-5.41142827891e-05
-5.99359788774e-05
-8.28970865925e-05
-5.58015958735e-05
-7.12620610591e-05
-5.08713952551e-05
-5.29761118835e-05
5.53189035796e-05
-6.22877335473e-05
-6.2844900681e-05
-6.29078114465e-05
-6.26506547563e-05
-6.20454903644e-05
-1.90265849513e-05
-5.40101274039e-05
-5.18617217226e-05
-5.04023021474e-05
)
;
    }
}


// ************************************************************************* //
