/*--------------------------------*- C++ -*----------------------------------*\
| =========                 |                                                 |
| \\      /  F ield         | OpenFOAM: The Open Source CFD Toolbox           |
|  \\    /   O peration     | Version:  v2012                                 |
|   \\  /    A nd           | Website:  www.openfoam.com                      |
|    \\/     M anipulation  |                                                 |
\*---------------------------------------------------------------------------*/
FoamFile
{
    version     2.0;
    format      ascii;
    class       volScalarField;
    location    "2.2";
    object      k;
}
// * * * * * * * * * * * * * * * * * * * * * * * * * * * * * * * * * * * * * //

dimensions      [0 2 -2 0 0 0 0];


internalField   nonuniform List<scalar> 
167
(
0.00743280522605
0.00753076622942
0.00777017716081
0.00832147110107
0.00943927167609
0.0114530805178
0.0149796906139
0.0209605235837
0.0387438472236
0.00752476591172
0.00776847426145
0.00831992937548
0.00940795989843
0.0112986805559
0.0146672702976
0.0225921844451
0.0582075805637
0.00751937752405
0.00776884007436
0.008325282262
0.00940981304323
0.0113032115711
0.0149511867522
0.0253884467075
0.0646322249724
0.00740576172954
0.00751488660354
0.00777245610026
0.0083403101935
0.00943819925817
0.0113489221288
0.0150526480569
0.026148437316
0.0648255805407
0.0073967787509
0.00751085982944
0.00777776323489
0.00835956126867
0.00947387203017
0.0113905647091
0.0149895335011
0.0252811406084
0.0652177741991
0.00738770048997
0.00750686177457
0.00778328627855
0.00837889301938
0.00950724619543
0.0114193569938
0.0148686133288
0.0233399725575
0.0459995150793
0.00732161603011
0.00737852373029
0.00750270996871
0.00778824951464
0.00839642417232
0.00953592921171
0.0114353923988
0.0147568610737
0.0225493606419
0.0426259847734
0.0072761949454
0.00730988169542
0.00736930004753
0.0074983119818
0.00779238836908
0.00841184095861
0.00956028332022
0.0114459298273
0.0146933679463
0.0227541371979
0.0496414612387
0.00726306598193
0.00729821466419
0.00736007435315
0.00749368129827
0.00779568464114
0.00842520323157
0.00958076656697
0.0114523265998
0.0146424588781
0.0231952395843
0.0645204154438
0.00728658125693
0.00735078781295
0.00748872720529
0.00779804376936
0.00843653804355
0.00959771600974
0.0114530340665
0.0145269972055
0.0223142472627
0.0631553516825
0.00727447753491
0.00734091794117
0.00748290746855
0.00779895961488
0.00844552720654
0.00961121032623
0.0114509917052
0.0144128323263
0.0211616858523
0.0580410121937
0.00725988826544
0.00732838334452
0.00747409265516
0.00779633705268
0.0084503459926
0.00961979049925
0.0114451203585
0.014341337188
0.020641659489
0.0526045280286
0.00723610933832
0.00730637349339
0.00745537117862
0.0077831992947
0.00844394119412
0.00961652957606
0.011430935993
0.0143674910895
0.0218911134664
0.0590612052141
0.0071830251465
0.00725454706365
0.00740598492881
0.00773816600917
0.00840423959978
0.0095776296391
0.0113736271462
0.014258964912
0.0220078897111
0.0626387309823
0.00700174648897
0.00704332190443
0.00711499488982
0.00726656571849
0.00759906473551
0.00826440714738
0.00942921493699
0.0111963091497
0.0140433469633
0.0219553829645
0.0586729963194
0.00661572829111
0.00665668861817
0.00672549222608
0.00686950945206
0.00718637219748
0.00782442544776
0.00894648856095
0.0106608243388
0.0134336883346
0.0209382861422
0.0534646367696
0.0053605231264
0.00539858986049
0.00545542008553
0.00556524941837
0.00580429380453
0.00629656936595
0.00721360803003
0.00874473674903
0.0112878147311
0.0169076241182
0.0424239438811
)
;

boundaryField
{
    back
    {
        type            kqRWallFunction;
        value           nonuniform List<scalar> 
167
(
0.00743280522605
0.00753076622942
0.00777017716081
0.00832147110107
0.00943927167609
0.0114530805178
0.0149796906139
0.0209605235837
0.0387438472236
0.00752476591172
0.00776847426145
0.00831992937548
0.00940795989843
0.0112986805559
0.0146672702976
0.0225921844451
0.0582075805637
0.00751937752405
0.00776884007436
0.008325282262
0.00940981304323
0.0113032115711
0.0149511867522
0.0253884467075
0.0646322249724
0.00740576172954
0.00751488660354
0.00777245610026
0.0083403101935
0.00943819925817
0.0113489221288
0.0150526480569
0.026148437316
0.0648255805407
0.0073967787509
0.00751085982944
0.00777776323489
0.00835956126867
0.00947387203017
0.0113905647091
0.0149895335011
0.0252811406084
0.0652177741991
0.00738770048997
0.00750686177457
0.00778328627855
0.00837889301938
0.00950724619543
0.0114193569938
0.0148686133288
0.0233399725575
0.0459995150793
0.00732161603011
0.00737852373029
0.00750270996871
0.00778824951464
0.00839642417232
0.00953592921171
0.0114353923988
0.0147568610737
0.0225493606419
0.0426259847734
0.0072761949454
0.00730988169542
0.00736930004753
0.0074983119818
0.00779238836908
0.00841184095861
0.00956028332022
0.0114459298273
0.0146933679463
0.0227541371979
0.0496414612387
0.00726306598193
0.00729821466419
0.00736007435315
0.00749368129827
0.00779568464114
0.00842520323157
0.00958076656697
0.0114523265998
0.0146424588781
0.0231952395843
0.0645204154438
0.00728658125693
0.00735078781295
0.00748872720529
0.00779804376936
0.00843653804355
0.00959771600974
0.0114530340665
0.0145269972055
0.0223142472627
0.0631553516825
0.00727447753491
0.00734091794117
0.00748290746855
0.00779895961488
0.00844552720654
0.00961121032623
0.0114509917052
0.0144128323263
0.0211616858523
0.0580410121937
0.00725988826544
0.00732838334452
0.00747409265516
0.00779633705268
0.0084503459926
0.00961979049925
0.0114451203585
0.014341337188
0.020641659489
0.0526045280286
0.00723610933832
0.00730637349339
0.00745537117862
0.0077831992947
0.00844394119412
0.00961652957606
0.011430935993
0.0143674910895
0.0218911134664
0.0590612052141
0.0071830251465
0.00725454706365
0.00740598492881
0.00773816600917
0.00840423959978
0.0095776296391
0.0113736271462
0.014258964912
0.0220078897111
0.0626387309823
0.00700174648897
0.00704332190443
0.00711499488982
0.00726656571849
0.00759906473551
0.00826440714738
0.00942921493699
0.0111963091497
0.0140433469633
0.0219553829645
0.0586729963194
0.00661572829111
0.00665668861817
0.00672549222608
0.00686950945206
0.00718637219748
0.00782442544776
0.00894648856095
0.0106608243388
0.0134336883346
0.0209382861422
0.0534646367696
0.0053605231264
0.00539858986049
0.00545542008553
0.00556524941837
0.00580429380453
0.00629656936595
0.00721360803003
0.00874473674903
0.0112878147311
0.0169076241182
0.0424239438811
)
;
    }
    sides
    {
        type            kqRWallFunction;
        value           nonuniform List<scalar> 
11
(
0.0053605231264
0.00539858986049
0.00545542008553
0.00556524941837
0.00580429380453
0.00629656936595
0.00721360803003
0.00874473674903
0.0112878147311
0.0169076241182
0.0424239438811
)
;
    }
    bottom
    {
        type            kqRWallFunction;
        value           nonuniform List<scalar> 0();
    }
    front
    {
        type            kqRWallFunction;
        value           nonuniform List<scalar> 
167
(
0.00743280522605
0.00753076622942
0.00777017716081
0.00832147110107
0.00943927167609
0.0114530805178
0.0149796906139
0.0209605235837
0.0387438472236
0.00752476591172
0.00776847426145
0.00831992937548
0.00940795989843
0.0112986805559
0.0146672702976
0.0225921844451
0.0582075805637
0.00751937752405
0.00776884007436
0.008325282262
0.00940981304323
0.0113032115711
0.0149511867522
0.0253884467075
0.0646322249724
0.00740576172954
0.00751488660354
0.00777245610026
0.0083403101935
0.00943819925817
0.0113489221288
0.0150526480569
0.026148437316
0.0648255805407
0.0073967787509
0.00751085982944
0.00777776323489
0.00835956126867
0.00947387203017
0.0113905647091
0.0149895335011
0.0252811406084
0.0652177741991
0.00738770048997
0.00750686177457
0.00778328627855
0.00837889301938
0.00950724619543
0.0114193569938
0.0148686133288
0.0233399725575
0.0459995150793
0.00732161603011
0.00737852373029
0.00750270996871
0.00778824951464
0.00839642417232
0.00953592921171
0.0114353923988
0.0147568610737
0.0225493606419
0.0426259847734
0.0072761949454
0.00730988169542
0.00736930004753
0.0074983119818
0.00779238836908
0.00841184095861
0.00956028332022
0.0114459298273
0.0146933679463
0.0227541371979
0.0496414612387
0.00726306598193
0.00729821466419
0.00736007435315
0.00749368129827
0.00779568464114
0.00842520323157
0.00958076656697
0.0114523265998
0.0146424588781
0.0231952395843
0.0645204154438
0.00728658125693
0.00735078781295
0.00748872720529
0.00779804376936
0.00843653804355
0.00959771600974
0.0114530340665
0.0145269972055
0.0223142472627
0.0631553516825
0.00727447753491
0.00734091794117
0.00748290746855
0.00779895961488
0.00844552720654
0.00961121032623
0.0114509917052
0.0144128323263
0.0211616858523
0.0580410121937
0.00725988826544
0.00732838334452
0.00747409265516
0.00779633705268
0.0084503459926
0.00961979049925
0.0114451203585
0.014341337188
0.020641659489
0.0526045280286
0.00723610933832
0.00730637349339
0.00745537117862
0.0077831992947
0.00844394119412
0.00961652957606
0.011430935993
0.0143674910895
0.0218911134664
0.0590612052141
0.0071830251465
0.00725454706365
0.00740598492881
0.00773816600917
0.00840423959978
0.0095776296391
0.0113736271462
0.014258964912
0.0220078897111
0.0626387309823
0.00700174648897
0.00704332190443
0.00711499488982
0.00726656571849
0.00759906473551
0.00826440714738
0.00942921493699
0.0111963091497
0.0140433469633
0.0219553829645
0.0586729963194
0.00661572829111
0.00665668861817
0.00672549222608
0.00686950945206
0.00718637219748
0.00782442544776
0.00894648856095
0.0106608243388
0.0134336883346
0.0209382861422
0.0534646367696
0.0053605231264
0.00539858986049
0.00545542008553
0.00556524941837
0.00580429380453
0.00629656936595
0.00721360803003
0.00874473674903
0.0112878147311
0.0169076241182
0.0424239438811
)
;
    }
    atmosphere
    {
        type            inletOutlet;
        inletValue      uniform 0.1;
        value           nonuniform List<scalar> 
17
(
0.1
0.1
0.1
0.1
0.1
0.0459995150793
0.0426259847734
0.0496414612387
0.1
0.1
0.1
0.1
0.1
0.1
0.1
0.1
0.0424239438811
)
;
    }
    floatingObject
    {
        type            kqRWallFunction;
        value           nonuniform List<scalar> 0();
    }
    procBoundary11to9
    {
        type            processor;
        value           nonuniform List<scalar> 9(0.00744161183918 0.007536150469 0.00776915233065 0.00831464205499 0.00946796402043 0.0117516988433 0.0163274895066 0.0248244720192 0.0349393381711);
    }
    procBoundary11to10
    {
        type            processor;
        value           nonuniform List<scalar> 
23
(
0.00738923500478
0.00742376951043
0.00742376951043
0.00741473604716
0.00741473604716
0.00735631815727
0.00734491463907
0.00733332480621
0.00733332480621
0.00728938039571
0.00728938039571
0.00725163389442
0.00723737491443
0.00724997800493
0.00724997800493
0.00723646585024
0.00722056567881
0.00719565117221
0.0071417432416
0.0071417432416
0.00697036283745
0.00658407643993
0.00532877105437
)
;
    }
}


// ************************************************************************* //
