/*--------------------------------*- C++ -*----------------------------------*\
| =========                 |                                                 |
| \\      /  F ield         | OpenFOAM: The Open Source CFD Toolbox           |
|  \\    /   O peration     | Version:  v2012                                 |
|   \\  /    A nd           | Website:  www.openfoam.com                      |
|    \\/     M anipulation  |                                                 |
\*---------------------------------------------------------------------------*/
FoamFile
{
    version     2.0;
    format      ascii;
    class       volVectorField;
    location    "2.2";
    object      U;
}
// * * * * * * * * * * * * * * * * * * * * * * * * * * * * * * * * * * * * * //

dimensions      [0 1 -1 0 0 0 0];


internalField   nonuniform List<vector> 
167
(
(0.0559248616883 0.0297409225154 -3.57302816817e-23)
(0.0567613711102 0.0331188001769 4.85563740308e-23)
(0.0575430787026 0.0367060658566 -3.29325479664e-22)
(0.0585070542027 0.0405809906743 -2.59998046904e-21)
(0.0599925241471 0.0454466383396 -6.68128374151e-21)
(0.0617257634544 0.0465524278897 -1.7689143785e-20)
(0.0606887027585 0.0466978384702 -1.26610340236e-20)
(0.021554077786 0.065322736255 -1.3265887024e-20)
(-0.218952434972 0.0197519107758 -8.14374465097e-21)
(0.0534331388597 0.0337072953712 5.40141980622e-23)
(0.0540732598296 0.0370509189434 -1.56755636328e-22)
(0.0548093106239 0.0406132698611 -2.71437148015e-21)
(0.0553751276517 0.0449760626781 -8.22128095401e-21)
(0.0561911376207 0.0460132593823 -2.86786544306e-20)
(0.0523941639451 0.0446622407185 -2.63321293058e-20)
(0.0169596116427 0.0638067971923 -3.37778631232e-20)
(-0.0987989811481 0.00821844264762 2.17828936752e-20)
(0.0502798777602 0.0341877905361 3.8028105455e-23)
(0.050833472966 0.0372838522566 7.36212742112e-24)
(0.0514373193402 0.0402831552779 -1.07415360397e-21)
(0.0515240070064 0.0435740501966 -2.92799167366e-21)
(0.052175661651 0.0438885424778 -1.20675879282e-20)
(0.0495938581584 0.0421145639261 -2.08182459468e-20)
(0.00610670364853 0.0577390365635 -2.0675783534e-20)
(-0.0296327165603 0.0207278343073 -1.32411973223e-20)
(0.0466912695644 0.0317279361769 -5.98293648731e-23)
(0.047300796781 0.0346346911487 8.11905581327e-23)
(0.0478831847412 0.037538949663 -4.0669844734e-22)
(0.0486050195785 0.0400333761149 -7.27385526895e-22)
(0.0487537625463 0.0429528016604 -4.37509585449e-22)
(0.0486572895586 0.0428840053858 -7.91807492962e-21)
(0.048617728616 0.0418509095759 -1.82529804405e-20)
(-0.0045320680548 0.0531078249803 -1.82165474564e-20)
(0.0505753656322 -0.00176192629641 9.14034319856e-21)
(0.0437981176559 0.0323342438322 -7.92690026556e-24)
(0.0444705614886 0.0351477728452 8.22099255905e-23)
(0.0451785361036 0.0379765213225 -5.08575532539e-22)
(0.046172974227 0.0401356981327 -5.39426550189e-22)
(0.0465133105582 0.0432858241893 -8.41971399354e-21)
(0.0455471593672 0.0427375082577 -1.59359496056e-20)
(0.0481536150486 0.0426159144626 -1.69951492523e-20)
(-0.00887942634452 0.0502389813275 -2.32798702116e-20)
(0.132196078583 0.0104998572593 -8.99928516441e-21)
(0.0409368993955 0.033000031441 9.54201231603e-23)
(0.0417091214321 0.0357830253126 6.22546245566e-23)
(0.0425743267649 0.0386509329816 -3.04754956822e-22)
(0.0438539486117 0.0405995795142 -3.41168161999e-21)
(0.0444029328025 0.0441997236862 -7.06869939618e-21)
(0.0429883507943 0.0433122039663 -1.64897488883e-20)
(0.0481937645905 0.0442006345277 -1.66579326008e-20)
(-0.0112974044785 0.0476215949094 -1.71151680045e-20)
(0.153161852717 0.084444760464 -1.67612386619e-20)
(0.037293977267 0.0308207583609 3.3518997321e-23)
(0.0380572119597 0.0337450297999 -2.75087437448e-23)
(0.0389328334208 0.0365614078482 -2.53694811747e-22)
(0.0399355825433 0.0395269156924 -1.45872825982e-21)
(0.0414710975411 0.0413563963212 -5.30986406629e-21)
(0.0422823638113 0.0454655348223 -3.70972872568e-21)
(0.040897693287 0.0445598029264 -2.20762514443e-20)
(0.0479928267237 0.04696442515 -3.1182206929e-20)
(-0.0218919733727 0.0473809121978 -1.28288214904e-20)
(-0.010248785178 0.186929720727 -2.36231123856e-20)
(0.0335876907414 0.0285234059691 -4.46293134334e-24)
(0.0343057932803 0.0315623255542 -8.62704250937e-24)
(0.0351177132945 0.0345646561924 -5.66011722324e-23)
(0.0360764819047 0.0374621299128 -2.49719282612e-23)
(0.0371850990372 0.0405670316335 -2.05083767731e-21)
(0.0389624949174 0.0423750331333 -3.01985728031e-21)
(0.0400555011635 0.0470179337535 -4.71324914916e-21)
(0.0390214703808 0.0462728619077 -2.1155684967e-20)
(0.0476182582472 0.0506064545164 -2.67979496164e-20)
(-0.0218281440731 0.0496127968783 -4.25147281256e-20)
(-0.115924024031 0.0116586552605 -3.67388714892e-20)
(0.0305014150896 0.0292064266657 2.50534107954e-23)
(0.0312301194843 0.0323355171654 -8.52404914921e-24)
(0.0320758942718 0.0354424241316 -7.01256086988e-23)
(0.0330984821396 0.0384624582307 4.30011059212e-24)
(0.0342807213739 0.0417479062006 -7.65768962832e-22)
(0.0362623595675 0.0436380183244 -2.37656121305e-21)
(0.0375769454355 0.0488731643116 -1.48130794383e-20)
(0.0370720490307 0.0484991941022 -1.56291134829e-20)
(0.0468976001141 0.054884074632 -1.32398823124e-20)
(-0.00898862570965 0.0538638342995 -2.18329543638e-20)
(-0.0213748657577 -0.026959269167 -2.43707941222e-20)
(0.0280409862578 0.0331237981092 -1.67390242124e-23)
(0.0288994846099 0.036360662258 -8.17783883916e-23)
(0.0299604526017 0.0395363317999 -9.4262844093e-24)
(0.0311785739146 0.0430280785257 -1.45073552464e-21)
(0.0333034189315 0.0450848292594 6.1486177461e-22)
(0.0347601507995 0.0508390728347 -1.63897614519e-20)
(0.0348244874796 0.0508264185452 -2.06266402553e-20)
(0.0450203876732 0.0589320006642 -1.86616035315e-20)
(0.00242393209007 0.0576713631117 -3.16317675001e-20)
(0.0563075384241 -0.00383665896268 -2.22995644965e-20)
(0.0247237775903 0.0339076580827 5.43831965755e-24)
(0.0255664463044 0.0372935388991 3.15682313446e-23)
(0.026628848883 0.0406520136992 -1.59156601835e-22)
(0.0278427797698 0.0443680175372 -9.3240556988e-22)
(0.0300370755728 0.0466763102979 4.68350849476e-22)
(0.0316319575917 0.0529136049949 -2.69773394869e-21)
(0.0323189345774 0.0532413447714 -8.61590170227e-21)
(0.0423810658045 0.0625476222653 -9.84753097377e-21)
(0.0159051276029 0.0575060695295 -6.88317207462e-21)
(0.127609973077 0.00328375444498 -1.37202780976e-21)
(0.0212685637228 0.0346605561533 1.18390620172e-23)
(0.0220607775876 0.0382049717805 -1.29654699984e-23)
(0.0230739502301 0.0417673121256 1.45759500127e-22)
(0.0242389034009 0.0457185651139 -1.03999994165e-21)
(0.026391808453 0.0483863532272 -3.0692375317e-22)
(0.0280620569907 0.0551653994637 -1.34774087978e-21)
(0.0294022805186 0.0560011796987 -1.06252492842e-20)
(0.0392137971717 0.0670349278785 -1.04326697728e-20)
(0.0279517313467 0.060870262266 -5.69475557592e-21)
(0.166891511903 0.00424172220811 -7.27629014963e-22)
(0.0176717703501 0.0353567785842 7.1041695749e-23)
(0.0183753538308 0.0390573471301 3.55469819399e-23)
(0.0192821804619 0.0428346042249 2.99474821733e-22)
(0.0203344162772 0.0470213573488 -1.99275906863e-21)
(0.0222848389502 0.0501169043972 -1.18882579633e-21)
(0.0237932750453 0.0575673682981 -3.1147383945e-21)
(0.0253892778198 0.0594212222684 -1.65253388425e-20)
(0.0350111703302 0.0726250078112 -1.4978825408e-20)
(0.0402667941957 0.0720012398879 -5.56867098284e-20)
(0.206704336805 -0.00779007060245 -3.78627592427e-20)
(0.0139502549221 0.0360020454316 1.98610330768e-22)
(0.0145258824126 0.039847989279 2.10492642794e-22)
(0.0152709535045 0.0438282846085 2.71435288718e-22)
(0.0161335177917 0.048231810619 -3.51252069611e-22)
(0.0177188719757 0.0517164389281 -7.17174647904e-22)
(0.0187573857246 0.0597692078685 -2.04050295649e-20)
(0.0201725762569 0.0625336973518 -1.72339103284e-20)
(0.03015970051 0.0766824732638 -1.19998845758e-20)
(0.0589242366636 0.0773297913193 -3.10403564192e-20)
(0.393035671265 -0.0441580787003 -2.96053775452e-20)
(0.00967230711752 0.032882586764 -9.90995432763e-23)
(0.0100083152435 0.0367058950386 3.3971331624e-22)
(0.010416063979 0.0406846896012 9.03448762156e-22)
(0.0109394964627 0.0448457464918 6.97031077726e-22)
(0.0115397595898 0.0494321740677 -1.20781750026e-21)
(0.0125400722696 0.0532301174844 3.02242091969e-21)
(0.0127492914403 0.0617730738369 -1.55594894675e-20)
(0.0134132029721 0.0655201032647 -1.95582877381e-20)
(0.023665539626 0.0801175619342 -1.91146425832e-20)
(0.0742651237826 0.0815411122924 -5.09419811452e-20)
(0.538872381859 -0.0400893840244 -4.4767358568e-20)
(0.00604382057574 0.0338595921483 8.14701679837e-24)
(0.00623273992291 0.0377992917654 6.50866157312e-22)
(0.00645082353685 0.0418972492244 1.34780024779e-21)
(0.00673037918998 0.0461866597923 9.26424711051e-22)
(0.00703226929313 0.0508833576375 -5.05906788393e-22)
(0.00722233113757 0.0548008445372 2.81533829408e-21)
(0.00609085108432 0.0636393146746 4.72962166215e-21)
(0.0064911219225 0.0672381126333 -4.99577223697e-21)
(0.0153252553376 0.0816033722457 -7.99866189332e-21)
(0.0701156262352 0.0792970709337 -6.35915462124e-21)
(0.739363084723 -0.0628795862733 -2.74970557576e-20)
(0.00227976397507 0.0351171198569 6.60001373306e-22)
(0.0023646087984 0.0391731125536 8.5221410681e-22)
(0.00245669502498 0.0433557362375 1.41201580093e-21)
(0.002584153128 0.0476642056744 1.95184297898e-21)
(0.00288310172118 0.0524248981397 -3.19826990739e-21)
(0.00275951843454 0.0559395900722 6.07339406804e-21)
(0.000859942725128 0.0640299538939 -1.22771162027e-20)
(0.00155529443585 0.0636995813821 -2.45436019791e-20)
(0.0116494639745 0.0751275932048 -2.4416419848e-20)
(0.066169211597 0.071719240446 1.69940962385e-19)
(0.653197917055 0.625726867759 9.1066509677e-20)
)
;

boundaryField
{
    back
    {
        type            noSlip;
    }
    sides
    {
        type            noSlip;
    }
    bottom
    {
        type            noSlip;
    }
    front
    {
        type            noSlip;
    }
    atmosphere
    {
        type            pressureInletOutletVelocity;
        value           nonuniform List<vector> 
17
(
(0 0.0197519107758 0)
(0 0.00821844264762 0)
(0 0.0207278343073 0)
(0 -0.00176192629641 0)
(0 0.0104998572593 0)
(0.153161852717 0.084444760464 -1.67612386619e-20)
(-0.010248785178 0.186929720727 -2.36231123856e-20)
(-0.115924024031 0.0116586552605 -3.67388714892e-20)
(0 -0.026959269167 0)
(0 -0.00383665896268 0)
(0 0.00328375444498 0)
(0 0.00424172220811 0)
(0 -0.00779007060245 0)
(0 -0.0441580787003 0)
(0 -0.0400893840244 0)
(0 -0.0628795862733 0)
(0.653197917055 0.625726867759 9.1066509677e-20)
)
;
    }
    floatingObject
    {
        type            movingWallVelocity;
        value           nonuniform List<vector> 0();
    }
    procBoundary11to9
    {
        type            processor;
        value           nonuniform List<vector> 9((0.059225686764 0.0288101063685 -9.33197147574e-23) (0.0602980095984 0.0323641816585 -4.50111194566e-23) (0.0613148473494 0.0362567734302 -5.0993692929e-22) (0.0625546870869 0.0404839990937 -2.40535545795e-21) (0.064981516764 0.0460908752981 -7.59762552057e-21) (0.0687448783113 0.0469890891597 -1.47426686769e-20) (0.0729276245341 0.0485675510965 -9.35124473367e-21) (0.0406541409173 0.0573789315138 -4.74695855614e-21) (-0.204737521113 0.220895690407 -8.43560647582e-21));
    }
    procBoundary11to10
    {
        type            processor;
        value           nonuniform List<vector> 
23
(
(0.0550060494233 0.0265572633392 1.11038140174e-23)
(0.052744393546 0.0304940824623 -2.3742358971e-23)
(0.052744393546 0.0304940824623 -2.3742358971e-23)
(0.0496684588876 0.0311357404019 -5.49601766031e-24)
(0.0496684588876 0.0311357404019 -5.49601766031e-24)
(0.0460352850818 0.0287993652059 -4.37576975529e-24)
(0.0431284870769 0.0294511041152 5.37328178555e-24)
(0.0402255537331 0.0301205041831 2.59068580947e-23)
(0.0402255537331 0.0301205041831 2.59068580947e-23)
(0.0365975278827 0.0278540474118 2.08959548847e-23)
(0.0365975278827 0.0278540474118 2.08959548847e-23)
(0.0329488322125 0.0254808540023 -5.5880099657e-24)
(0.0298643573498 0.0260804616117 9.31832877277e-24)
(0.027316694279 0.0298863701122 7.38079987728e-24)
(0.027316694279 0.0298863701122 7.38079987728e-24)
(0.024024353398 0.0305496302591 3.15603931704e-23)
(0.0206191541412 0.0311767303191 2.83697591322e-23)
(0.0171002034042 0.0317508538616 7.52828021012e-23)
(0.013484312328 0.0322837865739 7.5369363306e-23)
(0.013484312328 0.0322837865739 7.5369363306e-23)
(0.00939256268756 0.0291823473751 7.56744546718e-22)
(0.00588214391263 0.0300459242657 1.01214977541e-21)
(0.00220315660583 0.0311725402826 1.35566450707e-21)
)
;
    }
}


// ************************************************************************* //
