/*--------------------------------*- C++ -*----------------------------------*\
| =========                 |                                                 |
| \\      /  F ield         | OpenFOAM: The Open Source CFD Toolbox           |
|  \\    /   O peration     | Version:  v2012                                 |
|   \\  /    A nd           | Website:  www.openfoam.com                      |
|    \\/     M anipulation  |                                                 |
\*---------------------------------------------------------------------------*/
FoamFile
{
    version     2.0;
    format      ascii;
    class       volScalarField;
    location    "3.6";
    object      ddt0(k);
}
// * * * * * * * * * * * * * * * * * * * * * * * * * * * * * * * * * * * * * //

dimensions      [0 2 -3 0 0 0 0];


internalField   nonuniform List<scalar> 
164
(
-0.00121297575007
-0.00147192458446
-0.00223274412813
-0.00372457636344
-0.00568796765097
-0.00572717766499
0.0147812169183
0.0831918840898
-0.00110287443959
-0.00176563914662
-0.00285751405449
-0.00463315082616
-0.0065070774698
-0.00665373283096
-0.0033242124212
-0.00652471487189
-0.00110453999651
-0.00176824803927
-0.00287480272579
-0.00464181625575
-0.00645282531618
-0.00694343792764
-0.00966296703903
-0.000205311140449
-0.00121277833296
-0.00147637206975
-0.0022358824758
-0.00375142745379
-0.00578864943939
-0.00605785744512
0.00392931711278
0.243276315594
-0.00219353871274
-0.00331022686219
-0.00503100117974
-0.00508714466151
0.0121628221497
0.0687832701167
-0.00216540462589
-0.00306760940088
-0.00451264069867
-0.003040973448
0.0253888013104
-0.0157458743767
-0.00206177824156
-0.00281204859869
-0.00356424802236
0.00290523577205
0.052035948429
3.2449912567e-05
-0.00199362066944
-0.00264746485659
-0.00369842965327
-6.61868951551e-06
0.039946853193
-0.000643631785784
-0.00195972287948
-0.00256014910942
-0.00377962427413
-0.00218554867908
0.02683425001
0.00177126701745
-0.00196873563911
-0.00254857350307
-0.00371925834672
-0.00259612601169
0.0198296350163
-0.00164334736018
-0.00202616590708
-0.00262674441554
-0.00373091698253
-0.00228133235612
0.0297060599266
0.00416478409428
-0.00211219749479
-0.0027589700226
-0.00380638589346
-0.00232741171623
0.0331554150259
0.0111012150892
-0.00217494085263
-0.00286968479137
-0.00395397283775
-0.00335014682613
0.035083478846
0.0553621484482
-0.00217753565899
-0.00291391580142
-0.00407237652185
-0.00434622349143
0.0259643475476
0.0539355411804
-0.00217397535575
-0.00295452603917
-0.00423354631927
-0.00597956718603
0.00305231019186
0.366426384961
-0.00219366826652
-0.0030022397336
-0.00435099932392
-0.00680698820795
-0.0126050317016
0.19722059983
-0.00220701833241
-0.00301445762385
-0.00436489413342
-0.00654619989219
-0.0120953438046
-0.104216063841
-0.00218101731499
-0.00296223194503
-0.0043643973663
-0.00674763455975
-0.00482988786702
-0.262256041213
-0.00211479592167
-0.00284600398251
-0.00440147104633
-0.00806249262061
-0.00534639817811
-0.337832865535
-0.00203472050342
-0.00271218281987
-0.00449599364137
-0.0105092121822
-0.0185414467061
0.00379145450119
-0.00197232165711
-0.00260752847913
-0.00455814742436
-0.0119701943994
-0.0317902393086
0.0402995099447
-0.00193980282255
-0.00254374393374
-0.00453193341997
-0.0127621936276
-0.0426974241001
0.0469639249013
-0.00192608100966
-0.00248027944743
-0.00430618149803
-0.0127026875487
-0.0432248743583
0.0896420920315
-0.00191274818498
-0.00237689032464
-0.00391612100552
-0.0125204783104
-0.0416041872831
0.103649832816
-0.00360962175996
-0.0127981533883
-0.0471115321473
-0.171659678725
-0.00356016375205
-0.0131877168379
-0.0450472784765
-0.193004428857
-0.00369913123723
-0.0133674781656
-0.0394770762489
-0.21076584682
)
;

boundaryField
{
    back
    {
        type            calculated;
        value           nonuniform List<scalar> 
164
(
-0.00121297575007
-0.00147192458446
-0.00223274412813
-0.00372457636344
-0.00568796765097
-0.00572717766499
0.0147812169183
0.0831918840898
-0.00110287443959
-0.00176563914662
-0.00285751405449
-0.00463315082616
-0.0065070774698
-0.00665373283096
-0.0033242124212
-0.00652471487189
-0.00110453999651
-0.00176824803927
-0.00287480272579
-0.00464181625575
-0.00645282531618
-0.00694343792764
-0.00966296703903
-0.000205311140449
-0.00121277833296
-0.00147637206975
-0.00223588247579
-0.00375142745379
-0.00578864943939
-0.00605785744512
0.00392931711278
0.243276315594
-0.00219353871274
-0.00331022686219
-0.00503100117974
-0.00508714466151
0.0121628221497
0.0687832701167
-0.00216540462589
-0.00306760940088
-0.00451264069867
-0.003040973448
0.0253888013104
-0.0157458743767
-0.00206177824156
-0.00281204859869
-0.00356424802236
0.00290523577205
0.052035948429
3.24499125661e-05
-0.00199362066944
-0.00264746485659
-0.00369842965327
-6.61868951559e-06
0.039946853193
-0.000643631785784
-0.00195972287948
-0.00256014910942
-0.00377962427413
-0.00218554867908
0.02683425001
0.00177126701745
-0.00196873563911
-0.00254857350307
-0.00371925834672
-0.00259612601169
0.0198296350163
-0.00164334736018
-0.00202616590708
-0.00262674441554
-0.00373091698253
-0.00228133235612
0.0297060599266
0.00416478409428
-0.00211219749479
-0.0027589700226
-0.00380638589346
-0.00232741171623
0.0331554150259
0.0111012150892
-0.00217494085263
-0.00286968479137
-0.00395397283775
-0.00335014682613
0.035083478846
0.0553621484482
-0.00217753565899
-0.00291391580142
-0.00407237652185
-0.00434622349143
0.0259643475476
0.0539355411804
-0.00217397535575
-0.00295452603917
-0.00423354631927
-0.00597956718603
0.00305231019186
0.366426384961
-0.00219366826652
-0.0030022397336
-0.00435099932392
-0.00680698820795
-0.0126050317016
0.19722059983
-0.00220701833241
-0.00301445762385
-0.00436489413342
-0.00654619989219
-0.0120953438046
-0.104216063841
-0.00218101731499
-0.00296223194503
-0.0043643973663
-0.00674763455976
-0.00482988786702
-0.262256041213
-0.00211479592167
-0.00284600398251
-0.00440147104633
-0.00806249262061
-0.00534639817811
-0.337832865535
-0.00203472050342
-0.00271218281987
-0.00449599364137
-0.0105092121822
-0.0185414467061
0.00379145450119
-0.00197232165711
-0.00260752847913
-0.00455814742436
-0.0119701943994
-0.0317902393086
0.0402995099447
-0.00193980282255
-0.00254374393374
-0.00453193341997
-0.0127621936276
-0.0426974241001
0.0469639249013
-0.00192608100966
-0.00248027944743
-0.00430618149803
-0.0127026875487
-0.0432248743583
0.0896420920315
-0.00191274818498
-0.00237689032464
-0.00391612100552
-0.0125204783104
-0.0416041872831
0.103649832816
-0.00360962175996
-0.0127981533883
-0.0471115321473
-0.171659678725
-0.00356016375205
-0.0131877168379
-0.0450472784765
-0.193004428857
-0.00369913123723
-0.0133674781656
-0.0394770762489
-0.21076584682
)
;
    }
    sides
    {
        type            calculated;
        value           nonuniform List<scalar> 0();
    }
    bottom
    {
        type            calculated;
        value           nonuniform List<scalar> 0();
    }
    front
    {
        type            calculated;
        value           nonuniform List<scalar> 
164
(
-0.00121297575007
-0.00147192458446
-0.00223274412813
-0.00372457636344
-0.00568796765097
-0.00572717766499
0.0147812169183
0.0831918840898
-0.00110287443959
-0.00176563914662
-0.00285751405449
-0.00463315082616
-0.0065070774698
-0.00665373283096
-0.0033242124212
-0.00652471487189
-0.00110453999651
-0.00176824803927
-0.00287480272579
-0.00464181625575
-0.00645282531618
-0.00694343792764
-0.00966296703903
-0.000205311140449
-0.00121277833296
-0.00147637206975
-0.00223588247579
-0.00375142745379
-0.00578864943939
-0.00605785744512
0.00392931711278
0.243276315594
-0.00219353871274
-0.00331022686219
-0.00503100117974
-0.00508714466151
0.0121628221497
0.0687832701167
-0.00216540462589
-0.00306760940088
-0.00451264069867
-0.003040973448
0.0253888013104
-0.0157458743767
-0.00206177824156
-0.00281204859869
-0.00356424802236
0.00290523577205
0.052035948429
3.24499125661e-05
-0.00199362066944
-0.00264746485659
-0.00369842965327
-6.61868951559e-06
0.039946853193
-0.000643631785784
-0.00195972287948
-0.00256014910942
-0.00377962427413
-0.00218554867908
0.02683425001
0.00177126701745
-0.00196873563911
-0.00254857350307
-0.00371925834672
-0.00259612601169
0.0198296350163
-0.00164334736018
-0.00202616590708
-0.00262674441554
-0.00373091698253
-0.00228133235612
0.0297060599266
0.00416478409428
-0.00211219749479
-0.0027589700226
-0.00380638589346
-0.00232741171623
0.0331554150259
0.0111012150892
-0.00217494085263
-0.00286968479137
-0.00395397283775
-0.00335014682613
0.035083478846
0.0553621484482
-0.00217753565899
-0.00291391580142
-0.00407237652185
-0.00434622349143
0.0259643475476
0.0539355411804
-0.00217397535575
-0.00295452603917
-0.00423354631927
-0.00597956718603
0.00305231019186
0.366426384961
-0.00219366826652
-0.0030022397336
-0.00435099932392
-0.00680698820795
-0.0126050317016
0.19722059983
-0.00220701833241
-0.00301445762385
-0.00436489413342
-0.00654619989219
-0.0120953438046
-0.104216063841
-0.00218101731499
-0.00296223194503
-0.0043643973663
-0.00674763455976
-0.00482988786702
-0.262256041213
-0.00211479592167
-0.00284600398251
-0.00440147104633
-0.00806249262061
-0.00534639817811
-0.337832865535
-0.00203472050342
-0.00271218281987
-0.00449599364137
-0.0105092121822
-0.0185414467061
0.00379145450119
-0.00197232165711
-0.00260752847913
-0.00455814742436
-0.0119701943994
-0.0317902393086
0.0402995099447
-0.00193980282255
-0.00254374393374
-0.00453193341997
-0.0127621936276
-0.0426974241001
0.0469639249013
-0.00192608100966
-0.00248027944743
-0.00430618149803
-0.0127026875487
-0.0432248743583
0.0896420920315
-0.00191274818498
-0.00237689032464
-0.00391612100552
-0.0125204783104
-0.0416041872831
0.103649832816
-0.00360962175996
-0.0127981533883
-0.0471115321473
-0.171659678725
-0.00356016375205
-0.0131877168379
-0.0450472784765
-0.193004428857
-0.00369913123723
-0.0133674781656
-0.0394770762489
-0.21076584682
)
;
    }
    atmosphere
    {
        type            calculated;
        value           nonuniform List<scalar> 
27
(
-0.360263293295
0.00983136522745
-0.00633991915931
-1.36476438202
0.646446706974
0.209849756074
-0.0918039435368
0.040162390643
-0.00568928219773
-0.00673331136824
0.00233864947661
-0.0458010134679
-0.10327617928
3.61393887939
-1.7449874782
2.83642726504
3.01052701753
-2.04286185478
-2.50260176352
0.00378662778984
0.040262048377
3.31414895464
2.89710417001
-0.896967816571
-0.559481185596
0.579836288237
-1.76616430308
)
;
    }
    floatingObject
    {
        type            calculated;
        value           nonuniform List<scalar> 4(-0.00121297575007 -0.00110287443959 -0.00110453999651 -0.00121277833296);
    }
    procBoundary6to3
    {
        type            processor;
        value           nonuniform List<scalar> 8(-0.00138700092351 -0.00156937796674 -0.0022031790049 -0.00331705294913 -0.00500933818442 -0.00521175219349 0.019379559453 0.11306875219);
    }
    procBoundary6to7
    {
        type            processor;
        value           nonuniform List<scalar> 
11
(
-0.0018112340047
-0.00178271705459
-0.00175988044024
-0.00174618252945
-0.00173896939813
-0.00173414045911
-0.0018917963849
-0.0022627226056
-0.0022627226056
-0.00218152681515
-0.00215421640394
)
;
    }
    procBoundary6to8
    {
        type            processor;
        value           nonuniform List<scalar> 
16
(
-0.0013873257914
-0.00157103290243
-0.00157103290243
-0.00179348029871
-0.00179018968547
-0.00178168791516
-0.00177884963191
-0.00178535697774
-0.00180611676092
-0.0018374367387
-0.00185910729446
-0.00185286342306
-0.0018443172592
-0.00184763505173
-0.00185016030553
-0.00183729884958
)
;
    }
    procBoundary6to9
    {
        type            processor;
        value           nonuniform List<scalar> 4(-0.00368641231355 -0.012327975782 -0.0346714203314 -0.199095920561);
    }
}


// ************************************************************************* //
