/*--------------------------------*- C++ -*----------------------------------*\
| =========                 |                                                 |
| \\      /  F ield         | OpenFOAM: The Open Source CFD Toolbox           |
|  \\    /   O peration     | Version:  v2012                                 |
|   \\  /    A nd           | Website:  www.openfoam.com                      |
|    \\/     M anipulation  |                                                 |
\*---------------------------------------------------------------------------*/
FoamFile
{
    version     2.0;
    format      ascii;
    class       volScalarField;
    location    "3.6";
    object      ddt0(epsilon);
}
// * * * * * * * * * * * * * * * * * * * * * * * * * * * * * * * * * * * * * //

dimensions      [0 2 -4 0 0 0 0];


internalField   nonuniform List<scalar> 
164
(
-0.00118757644068
-0.00124199915507
-0.00212377482575
-0.00400506653665
-0.00667826336902
-0.00868176846625
0.0236758657697
0.363855532147
-0.00110412896316
-0.00155998402572
-0.00287558390852
-0.00522651853393
-0.00803797004194
-0.00942632366778
-0.0100900085344
0.00470144308145
-0.0011066992644
-0.00156417421178
-0.00289147261069
-0.00525361281345
-0.00804821864406
-0.0097320675943
-0.0235502400577
-0.125274123742
-0.00118654487834
-0.00124425295774
-0.00213268943311
-0.00405536272684
-0.00674817904383
-0.00884643547292
-0.00477568116641
0.231058468846
-0.00187291309805
-0.00328146420235
-0.00588520563604
-0.00776550811239
0.0144480255672
0.363768208606
-0.00179049988685
-0.00292472915273
-0.00518597489156
-0.00560124707582
0.0530077691004
-0.178898270702
-0.00167631884094
-0.0026038620492
-0.00456049738443
-0.000571564440805
0.104540075561
-0.00460422558013
-0.00159658504413
-0.0023973383272
-0.00427468749652
-0.0042686145957
0.0582363523686
-0.0188093832991
-0.00155500399766
-0.00228335586181
-0.00409213087644
-0.00484930091723
0.0359665574227
0.00250498548044
-0.00155781024814
-0.00226549744153
-0.00399724849797
-0.00422912292562
0.0310635460374
-0.0106088446791
-0.00161162962502
-0.00234325742045
-0.00399505519197
-0.0039962622693
0.0509429973467
0.015338270365
-0.00169768240298
-0.0024839904452
-0.00407462069751
-0.00409900610814
0.0541265849745
0.0388514188606
-0.0017634953313
-0.00260455431971
-0.00421557237352
-0.00529228635168
0.0397966061774
0.229135049127
-0.00176933904237
-0.00265343525898
-0.00433448131892
-0.00640854701492
0.0309518120391
-0.310264126833
-0.00176197774038
-0.00268434560502
-0.00450032064199
-0.00816979803301
-0.0100908772273
0.128061397102
-0.00177489398648
-0.00271965759892
-0.00459935757642
-0.00901622854768
-0.0301294027338
-0.372143697573
-0.00178323649608
-0.00271765680899
-0.00457599608324
-0.00862458714689
-0.0122906357129
-0.670668256844
-0.00174890099044
-0.00262875484994
-0.00447029559731
-0.00881349608592
0.00273418604899
-0.0844506768485
-0.00167369875147
-0.0024743837722
-0.00441894156161
-0.0103898242696
0.000744370491969
0.1146886654
-0.00158705560996
-0.00231075202968
-0.00446292714009
-0.0135624883594
-0.0343876108919
-0.0282663291589
-0.00152080508397
-0.00218836219779
-0.00451924576232
-0.015779206851
-0.0637558787094
-0.179083018961
-0.00148614035034
-0.00211689820504
-0.00449364591406
-0.0171446110486
-0.0928804338177
-0.309514981183
-0.00147159047398
-0.00205153717026
-0.00421981782212
-0.0171492203654
-0.0948703659571
-0.365236997193
-0.00145963877805
-0.00195094027476
-0.0037351515328
-0.0168262326344
-0.0938136450431
-0.302324905143
-0.00334825600421
-0.0171805323376
-0.0944576655197
-0.592983995953
-0.00328515989276
-0.0180836654699
-0.0872060888546
-0.66938272249
-0.00347616475465
-0.0188489748397
-0.0805734267412
-0.0869678225536
)
;

boundaryField
{
    back
    {
        type            calculated;
        value           nonuniform List<scalar> 
164
(
-0.00118757644068
-0.00124199915507
-0.00212377482575
-0.00400506653665
-0.00667826336902
-0.00868176846625
0.0236758657697
0.363855532147
-0.00110412896316
-0.00155998402572
-0.00287558390852
-0.00522651853393
-0.00803797004194
-0.00942632366778
-0.0100900085344
0.00470144308145
-0.0011066992644
-0.00156417421178
-0.00289147261069
-0.00525361281345
-0.00804821864406
-0.0097320675943
-0.0235502400577
-0.125274123742
-0.00118654487834
-0.00124425295774
-0.00213268943311
-0.00405536272684
-0.00674817904383
-0.00884643547292
-0.00477568116641
0.231058468846
-0.00187291309805
-0.00328146420235
-0.00588520563604
-0.00776550811239
0.0144480255672
0.363768208606
-0.00179049988685
-0.00292472915273
-0.00518597489156
-0.00560124707582
0.0530077691004
-0.178898270702
-0.00167631884094
-0.0026038620492
-0.00456049738443
-0.000571564440805
0.104540075561
-0.00460422558013
-0.00159658504413
-0.0023973383272
-0.00427468749652
-0.0042686145957
0.0582363523686
-0.0188093832991
-0.00155500399766
-0.00228335586181
-0.00409213087644
-0.00484930091723
0.0359665574227
0.00250498548044
-0.00155781024814
-0.00226549744153
-0.00399724849797
-0.00422912292562
0.0310635460374
-0.0106088446791
-0.00161162962502
-0.00234325742045
-0.00399505519197
-0.0039962622693
0.0509429973467
0.015338270365
-0.00169768240298
-0.0024839904452
-0.00407462069751
-0.00409900610814
0.0541265849745
0.0388514188606
-0.0017634953313
-0.00260455431971
-0.00421557237352
-0.00529228635168
0.0397966061774
0.229135049127
-0.00176933904237
-0.00265343525898
-0.00433448131892
-0.00640854701492
0.0309518120391
-0.310264126833
-0.00176197774038
-0.00268434560502
-0.00450032064199
-0.00816979803301
-0.0100908772273
0.128061397102
-0.00177489398648
-0.00271965759892
-0.00459935757642
-0.00901622854768
-0.0301294027338
-0.372143697573
-0.00178323649608
-0.00271765680899
-0.00457599608324
-0.00862458714689
-0.0122906357129
-0.670668256844
-0.00174890099044
-0.00262875484994
-0.00447029559731
-0.00881349608592
0.00273418604899
-0.0844506768485
-0.00167369875147
-0.0024743837722
-0.00441894156161
-0.0103898242696
0.000744370491969
0.1146886654
-0.00158705560996
-0.00231075202968
-0.00446292714009
-0.0135624883594
-0.0343876108919
-0.0282663291589
-0.00152080508397
-0.00218836219779
-0.00451924576232
-0.015779206851
-0.0637558787094
-0.179083018961
-0.00148614035034
-0.00211689820504
-0.00449364591406
-0.0171446110486
-0.0928804338177
-0.309514981183
-0.00147159047398
-0.00205153717026
-0.00421981782212
-0.0171492203654
-0.0948703659571
-0.365236997193
-0.00145963877805
-0.00195094027476
-0.0037351515328
-0.0168262326344
-0.0938136450431
-0.302324905143
-0.00334825600421
-0.0171805323376
-0.0944576655197
-0.592983995953
-0.00328515989276
-0.0180836654699
-0.0872060888546
-0.66938272249
-0.00347616475465
-0.0188489748397
-0.0805734267412
-0.0869678225536
)
;
    }
    sides
    {
        type            calculated;
        value           nonuniform List<scalar> 0();
    }
    bottom
    {
        type            calculated;
        value           nonuniform List<scalar> 0();
    }
    front
    {
        type            calculated;
        value           nonuniform List<scalar> 
164
(
-0.00118757644068
-0.00124199915507
-0.00212377482575
-0.00400506653665
-0.00667826336902
-0.00868176846625
0.0236758657697
0.363855532147
-0.00110412896316
-0.00155998402572
-0.00287558390852
-0.00522651853393
-0.00803797004194
-0.00942632366778
-0.0100900085344
0.00470144308145
-0.0011066992644
-0.00156417421178
-0.00289147261069
-0.00525361281345
-0.00804821864406
-0.0097320675943
-0.0235502400577
-0.125274123742
-0.00118654487834
-0.00124425295774
-0.00213268943311
-0.00405536272684
-0.00674817904383
-0.00884643547292
-0.00477568116641
0.231058468846
-0.00187291309805
-0.00328146420235
-0.00588520563604
-0.00776550811239
0.0144480255672
0.363768208606
-0.00179049988685
-0.00292472915273
-0.00518597489156
-0.00560124707582
0.0530077691004
-0.178898270702
-0.00167631884094
-0.0026038620492
-0.00456049738443
-0.000571564440805
0.104540075561
-0.00460422558013
-0.00159658504413
-0.0023973383272
-0.00427468749652
-0.0042686145957
0.0582363523686
-0.0188093832991
-0.00155500399766
-0.00228335586181
-0.00409213087644
-0.00484930091723
0.0359665574227
0.00250498548044
-0.00155781024814
-0.00226549744153
-0.00399724849797
-0.00422912292562
0.0310635460374
-0.0106088446791
-0.00161162962502
-0.00234325742045
-0.00399505519197
-0.0039962622693
0.0509429973467
0.015338270365
-0.00169768240298
-0.0024839904452
-0.00407462069751
-0.00409900610814
0.0541265849745
0.0388514188606
-0.0017634953313
-0.00260455431971
-0.00421557237352
-0.00529228635168
0.0397966061774
0.229135049127
-0.00176933904237
-0.00265343525898
-0.00433448131892
-0.00640854701492
0.0309518120391
-0.310264126833
-0.00176197774038
-0.00268434560502
-0.00450032064199
-0.00816979803301
-0.0100908772273
0.128061397102
-0.00177489398648
-0.00271965759892
-0.00459935757642
-0.00901622854768
-0.0301294027338
-0.372143697573
-0.00178323649608
-0.00271765680899
-0.00457599608324
-0.00862458714689
-0.0122906357129
-0.670668256844
-0.00174890099044
-0.00262875484994
-0.00447029559731
-0.00881349608592
0.00273418604899
-0.0844506768485
-0.00167369875147
-0.0024743837722
-0.00441894156161
-0.0103898242696
0.000744370491969
0.1146886654
-0.00158705560996
-0.00231075202968
-0.00446292714009
-0.0135624883594
-0.0343876108919
-0.0282663291589
-0.00152080508397
-0.00218836219779
-0.00451924576232
-0.015779206851
-0.0637558787094
-0.179083018961
-0.00148614035034
-0.00211689820504
-0.00449364591406
-0.0171446110486
-0.0928804338177
-0.309514981183
-0.00147159047398
-0.00205153717026
-0.00421981782212
-0.0171492203654
-0.0948703659571
-0.365236997193
-0.00145963877805
-0.00195094027476
-0.0037351515328
-0.0168262326344
-0.0938136450431
-0.302324905143
-0.00334825600421
-0.0171805323376
-0.0944576655197
-0.592983995953
-0.00328515989276
-0.0180836654699
-0.0872060888546
-0.66938272249
-0.00347616475465
-0.0188489748397
-0.0805734267412
-0.0869678225536
)
;
    }
    atmosphere
    {
        type            calculated;
        value           nonuniform List<scalar> 
27
(
-0.0721624118387
-0.0198913229106
-0.106265117358
-0.00466767190947
-0.319570117921
-0.145016586677
-0.0067547933202
-0.0107873721353
0.0113394942325
-0.000402215253035
0.000903777662105
0.00393945686554
-0.0550651253371
-0.303488656891
-0.912071667123
0.106184252219
-4.21554462619
3.07461175846
1.79592615069
-0.0282569201847
-0.179002863361
0.914561554692
-0.454339816947
0.827450625789
0.365613241803
-2.59804711677
3.73962953458
)
;
    }
    floatingObject
    {
        type            calculated;
        value           nonuniform List<scalar> 4(-0.00118757644068 -0.00110412896316 -0.0011066992644 -0.00118654487834);
    }
    procBoundary6to3
    {
        type            processor;
        value           nonuniform List<scalar> 8(-0.000996357028949 -0.00122609973471 -0.00187342608386 -0.00327352060874 -0.00582433131712 -0.00796144708081 0.0211654794668 0.595349666315);
    }
    procBoundary6to7
    {
        type            processor;
        value           nonuniform List<scalar> 
11
(
-0.00136227901413
-0.00133259638021
-0.00130927580416
-0.001295554917
-0.00128868993247
-0.00128470672349
-0.0014426009485
-0.00184412277381
-0.00184412277381
-0.00177418268336
-0.00176050857829
)
;
    }
    procBoundary6to8
    {
        type            processor;
        value           nonuniform List<scalar> 
16
(
-0.000996676706964
-0.00122794988792
-0.00122794988792
-0.00136532967315
-0.00135709498667
-0.00134372688908
-0.0013369187135
-0.00134017806652
-0.00135906112367
-0.0013902802646
-0.00141377252445
-0.00140956594789
-0.00140017357505
-0.00140165445341
-0.00140335072921
-0.0013894415571
)
;
    }
    procBoundary6to9
    {
        type            processor;
        value           nonuniform List<scalar> 4(-0.00353004417116 -0.0175567353204 -0.070173387525 -0.051497736338);
    }
}


// ************************************************************************* //
