/*--------------------------------*- C++ -*----------------------------------*\
| =========                 |                                                 |
| \\      /  F ield         | OpenFOAM: The Open Source CFD Toolbox           |
|  \\    /   O peration     | Version:  v2012                                 |
|   \\  /    A nd           | Website:  www.openfoam.com                      |
|    \\/     M anipulation  |                                                 |
\*---------------------------------------------------------------------------*/
FoamFile
{
    version     2.0;
    format      ascii;
    class       volScalarField;
    location    "3.6";
    object      k;
}
// * * * * * * * * * * * * * * * * * * * * * * * * * * * * * * * * * * * * * //

dimensions      [0 2 -2 0 0 0 0];


internalField   nonuniform List<scalar> 
164
(
0.00315648580298
0.00403226821481
0.00502105952481
0.00644011761953
0.00836801515111
0.0116271371406
0.0228255734964
0.0728112261807
0.00343385042734
0.00466937622601
0.00585586621896
0.00723846632031
0.00893220617106
0.0117969366981
0.0211505920668
0.0519828768484
0.00343499664784
0.00467103224315
0.00585576436733
0.00723724070099
0.00893265247964
0.0117752470189
0.0206566330732
0.0474779786005
0.00315690812947
0.00403423985954
0.00502477394018
0.00644493791357
0.00835751493906
0.0114475140688
0.0213345607731
0.0650305900159
0.00441861967206
0.00575584661321
0.00777895088738
0.0111677262059
0.0223734119213
0.0697540634587
0.00425910728117
0.00539453403711
0.00736870584779
0.0110078384722
0.0239316752232
0.0742755639134
0.00415219651793
0.00514477532484
0.00709682548722
0.0112442624341
0.0268176085055
0.0746287566257
0.00407007564499
0.00497208375847
0.00686882892125
0.0109596499425
0.0256729832631
0.0742531246417
0.00402577590226
0.00487417586717
0.00671398329557
0.0107442059909
0.0249529182084
0.0737549936395
0.00402613705597
0.00484991005368
0.00662043065885
0.0105119291043
0.0246365138226
0.0736251815423
0.00407315852997
0.00489820670396
0.00658768018524
0.010311502268
0.0247048321209
0.0735802801686
0.0041449326367
0.0049846020486
0.00658962389456
0.0100893430081
0.0240492631881
0.0731176505513
0.0041978456073
0.005049792989
0.00657690711598
0.00970485871782
0.0216062635142
0.0701147093778
0.00420478309856
0.00506534524732
0.00656222808573
0.00945120713766
0.0191709405882
0.0591509232555
0.00419867879905
0.00507152418331
0.00660645470784
0.00960551247367
0.0179752621106
0.05697770898
0.0042004367605
0.00508071791847
0.00667564124465
0.0100569581917
0.0196365122088
0.0599714768375
0.00418857321313
0.0050519163145
0.00666659120859
0.010310434751
0.0215877249766
0.0638912449127
0.00414127283953
0.00496743563372
0.00661051656874
0.0104206008029
0.0220570217706
0.0613519255688
0.00406972346376
0.00485996460605
0.00660733322849
0.0106794486114
0.0211707055439
0.0514306909458
0.00400133479703
0.00477243062493
0.00669129172211
0.0111889289426
0.0191028426653
0.0319407574548
0.00395779199592
0.00472954097096
0.00684534376866
0.0120794236361
0.0208101242768
0.0370570140423
0.00394162836163
0.00472519869106
0.00701437706478
0.0130837255859
0.0247266146184
0.0516811412607
0.00394169814454
0.00473407844524
0.00714024865572
0.0138765132654
0.0278542804471
0.0589844782734
0.00394833932627
0.00475178458444
0.00728024147099
0.0146336562951
0.0303113290167
0.0644507490239
0.00751657169042
0.0154694813538
0.031876580621
0.0572559672458
0.00785851064106
0.0163401056155
0.0335323437162
0.0612352625296
0.00821347867344
0.0170221445593
0.0346548137639
0.0655090237658
)
;

boundaryField
{
    back
    {
        type            kqRWallFunction;
        value           nonuniform List<scalar> 
164
(
0.00315648580298
0.00403226821481
0.00502105952481
0.00644011761953
0.00836801515111
0.0116271371406
0.0228255734964
0.0728112261807
0.00343385042734
0.00466937622601
0.00585586621896
0.00723846632031
0.00893220617106
0.0117969366981
0.0211505920668
0.0519828768484
0.00343499664784
0.00467103224315
0.00585576436733
0.00723724070099
0.00893265247964
0.0117752470189
0.0206566330732
0.0474779786005
0.00315690812947
0.00403423985954
0.00502477394018
0.00644493791357
0.00835751493906
0.0114475140688
0.0213345607731
0.0650305900159
0.00441861967206
0.00575584661321
0.00777895088738
0.0111677262059
0.0223734119213
0.0697540634587
0.00425910728117
0.00539453403711
0.00736870584779
0.0110078384722
0.0239316752232
0.0742755639134
0.00415219651793
0.00514477532484
0.00709682548722
0.0112442624341
0.0268176085055
0.0746287566257
0.00407007564499
0.00497208375847
0.00686882892125
0.0109596499425
0.0256729832631
0.0742531246417
0.00402577590226
0.00487417586717
0.00671398329557
0.0107442059909
0.0249529182084
0.0737549936395
0.00402613705597
0.00484991005368
0.00662043065885
0.0105119291043
0.0246365138226
0.0736251815423
0.00407315852997
0.00489820670396
0.00658768018524
0.010311502268
0.0247048321209
0.0735802801686
0.0041449326367
0.0049846020486
0.00658962389456
0.0100893430081
0.0240492631881
0.0731176505513
0.0041978456073
0.005049792989
0.00657690711598
0.00970485871782
0.0216062635142
0.0701147093778
0.00420478309856
0.00506534524732
0.00656222808573
0.00945120713766
0.0191709405882
0.0591509232555
0.00419867879905
0.00507152418331
0.00660645470784
0.00960551247367
0.0179752621106
0.05697770898
0.0042004367605
0.00508071791847
0.00667564124465
0.0100569581917
0.0196365122088
0.0599714768375
0.00418857321313
0.0050519163145
0.00666659120859
0.010310434751
0.0215877249766
0.0638912449127
0.00414127283953
0.00496743563372
0.00661051656874
0.0104206008029
0.0220570217706
0.0613519255688
0.00406972346376
0.00485996460605
0.00660733322849
0.0106794486114
0.0211707055439
0.0514306909458
0.00400133479703
0.00477243062493
0.00669129172211
0.0111889289426
0.0191028426653
0.0319407574548
0.00395779199592
0.00472954097096
0.00684534376866
0.0120794236361
0.0208101242768
0.0370570140423
0.00394162836163
0.00472519869106
0.00701437706478
0.0130837255859
0.0247266146184
0.0516811412607
0.00394169814454
0.00473407844524
0.00714024865572
0.0138765132654
0.0278542804471
0.0589844782734
0.00394833932627
0.00475178458444
0.00728024147099
0.0146336562951
0.0303113290167
0.0644507490239
0.00751657169042
0.0154694813538
0.031876580621
0.0572559672458
0.00785851064106
0.0163401056155
0.0335323437162
0.0612352625296
0.00821347867344
0.0170221445593
0.0346548137639
0.0655090237658
)
;
    }
    sides
    {
        type            kqRWallFunction;
        value           nonuniform List<scalar> 0();
    }
    bottom
    {
        type            kqRWallFunction;
        value           nonuniform List<scalar> 0();
    }
    front
    {
        type            kqRWallFunction;
        value           nonuniform List<scalar> 
164
(
0.00315648580298
0.00403226821481
0.00502105952481
0.00644011761953
0.00836801515111
0.0116271371406
0.0228255734964
0.0728112261807
0.00343385042734
0.00466937622601
0.00585586621896
0.00723846632031
0.00893220617106
0.0117969366981
0.0211505920668
0.0519828768484
0.00343499664784
0.00467103224315
0.00585576436733
0.00723724070099
0.00893265247964
0.0117752470189
0.0206566330732
0.0474779786005
0.00315690812947
0.00403423985954
0.00502477394018
0.00644493791357
0.00835751493906
0.0114475140688
0.0213345607731
0.0650305900159
0.00441861967206
0.00575584661321
0.00777895088738
0.0111677262059
0.0223734119213
0.0697540634587
0.00425910728117
0.00539453403711
0.00736870584779
0.0110078384722
0.0239316752232
0.0742755639134
0.00415219651793
0.00514477532484
0.00709682548722
0.0112442624341
0.0268176085055
0.0746287566257
0.00407007564499
0.00497208375847
0.00686882892125
0.0109596499425
0.0256729832631
0.0742531246417
0.00402577590226
0.00487417586717
0.00671398329557
0.0107442059909
0.0249529182084
0.0737549936395
0.00402613705597
0.00484991005368
0.00662043065885
0.0105119291043
0.0246365138226
0.0736251815423
0.00407315852997
0.00489820670396
0.00658768018524
0.010311502268
0.0247048321209
0.0735802801686
0.0041449326367
0.0049846020486
0.00658962389456
0.0100893430081
0.0240492631881
0.0731176505513
0.0041978456073
0.005049792989
0.00657690711598
0.00970485871782
0.0216062635142
0.0701147093778
0.00420478309856
0.00506534524732
0.00656222808573
0.00945120713766
0.0191709405882
0.0591509232555
0.00419867879905
0.00507152418331
0.00660645470784
0.00960551247367
0.0179752621106
0.05697770898
0.0042004367605
0.00508071791847
0.00667564124465
0.0100569581917
0.0196365122088
0.0599714768375
0.00418857321313
0.0050519163145
0.00666659120859
0.010310434751
0.0215877249766
0.0638912449127
0.00414127283953
0.00496743563372
0.00661051656874
0.0104206008029
0.0220570217706
0.0613519255688
0.00406972346376
0.00485996460605
0.00660733322849
0.0106794486114
0.0211707055439
0.0514306909458
0.00400133479703
0.00477243062493
0.00669129172211
0.0111889289426
0.0191028426653
0.0319407574548
0.00395779199592
0.00472954097096
0.00684534376866
0.0120794236361
0.0208101242768
0.0370570140423
0.00394162836163
0.00472519869106
0.00701437706478
0.0130837255859
0.0247266146184
0.0516811412607
0.00394169814454
0.00473407844524
0.00714024865572
0.0138765132654
0.0278542804471
0.0589844782734
0.00394833932627
0.00475178458444
0.00728024147099
0.0146336562951
0.0303113290167
0.0644507490239
0.00751657169042
0.0154694813538
0.031876580621
0.0572559672458
0.00785851064106
0.0163401056155
0.0335323437162
0.0612352625296
0.00821347867344
0.0170221445593
0.0346548137639
0.0655090237658
)
;
    }
    atmosphere
    {
        type            inletOutlet;
        inletValue      uniform 0.1;
        value           nonuniform List<scalar> 
27
(
0.1
0.0519828768484
0.0474779786005
0.1
0.1
0.1
0.1
0.1
0.1
0.1
0.1
0.1
0.1
0.1
0.1
0.1
0.1
0.0613519255688
0.0514306909458
0.0319407574548
0.0370570140423
0.1
0.1
0.1
0.0572559672458
0.0612352625296
0.0655090237658
)
;
    }
    floatingObject
    {
        type            kqRWallFunction;
        value           nonuniform List<scalar> 4(0.00315648580298 0.00343385042734 0.00343499664784 0.00315690812947);
    }
    procBoundary6to3
    {
        type            processor;
        value           nonuniform List<scalar> 8(0.00321968228815 0.00365680201803 0.00441440779969 0.00574777576772 0.00777785661315 0.0112252444902 0.0224001638628 0.070319807704);
    }
    procBoundary6to7
    {
        type            processor;
        value           nonuniform List<scalar> 
11
(
0.00372794024021
0.00369990008787
0.00368133486085
0.00367330840612
0.00367210338264
0.00367391086197
0.00396002032578
0.00479676186261
0.00479676186261
0.00488179528096
0.00498915906839
)
;
    }
    procBoundary6to8
    {
        type            processor;
        value           nonuniform List<scalar> 
16
(
0.00322002069929
0.00365771706448
0.00365771706448
0.00370757348901
0.00372179449162
0.00370992969268
0.00370013466884
0.00370443947046
0.00372714274071
0.0037607466452
0.00378498130742
0.00378571700845
0.00378015428688
0.00378007007296
0.00377598309453
0.00375709812084
)
;
    }
    procBoundary6to9
    {
        type            processor;
        value           nonuniform List<scalar> 4(0.00847285727335 0.0173392024693 0.0348600028209 0.0661244309571);
    }
}


// ************************************************************************* //
