/*--------------------------------*- C++ -*----------------------------------*\
| =========                 |                                                 |
| \\      /  F ield         | OpenFOAM: The Open Source CFD Toolbox           |
|  \\    /   O peration     | Version:  v2012                                 |
|   \\  /    A nd           | Website:  www.openfoam.com                      |
|    \\/     M anipulation  |                                                 |
\*---------------------------------------------------------------------------*/
FoamFile
{
    version     2.0;
    format      ascii;
    class       volScalarField;
    location    "3.6";
    object      p;
}
// * * * * * * * * * * * * * * * * * * * * * * * * * * * * * * * * * * * * * //

dimensions      [1 -1 -2 0 0 0 0];


internalField   nonuniform List<scalar> 
164
(
2739.96269025
2254.9076244
1773.9132358
1295.64716084
818.677603458
361.467517986
65.0096158275
-10.166709935
2745.35579241
2259.5491312
1778.29067816
1300.22228502
825.051357074
369.711189444
71.2627736276
-11.5599794563
2745.67571718
2259.92320708
1778.77540425
1301.0249812
826.676500366
373.896088284
75.6336705299
-13.1888700766
2740.85470322
2255.97363188
1775.33337669
1297.46705903
821.535172736
370.693033885
71.7209384815
-10.3822690961
1770.02176032
1292.21364126
814.729637638
361.544022587
66.1414734878
-9.83422285278
1763.86979223
1286.57354408
808.194849041
352.012800293
59.1782708028
-9.69073916086
1758.10423433
1281.20715033
802.526715658
343.80667025
54.5534516136
-9.65237550467
1751.15981746
1273.90079078
794.80913269
339.09360844
52.8761533136
-9.66826505314
1743.39600444
1265.52644259
786.204149929
331.687092918
49.6978353525
-9.66094745358
1734.9716733
1256.41681271
776.810746923
323.067970453
46.1239061179
-9.64036518061
1726.06845641
1247.2311276
767.997198718
315.798162568
43.6260243174
-9.64690478407
1716.60602257
1237.83317517
759.151039266
310.016085077
41.8900380973
-9.65454764058
1706.26058804
1227.55305554
749.753414167
303.622257453
41.3937414312
-9.65863376543
1694.80726806
1216.11759724
738.850932476
295.675232951
39.8362121679
-9.67677525385
1681.91087576
1203.19991128
727.109788093
287.574913956
36.7652555262
-9.76780783657
1667.11183387
1187.65465019
711.275895389
274.114340676
31.352706263
-9.91971509054
1650.26317774
1169.00676466
689.882380361
253.552275288
21.9065831401
-9.75541959048
1632.04798911
1148.24497848
665.497354171
231.326071519
12.557208505
-9.60766409704
1613.10953769
1126.76495928
640.545457167
210.243970713
5.7460321396
-10.964601891
1593.91434389
1105.26298964
616.382828183
193.018650332
3.10602167591
-9.4445477825
1574.79624389
1083.97768245
592.738472794
176.607847947
-0.713917875034
-9.57646987294
1556.02093495
1063.05879656
569.331264839
160.385366993
-3.85877677345
-9.72468842862
1537.87823615
1042.81098858
546.440337865
145.214679332
-5.96561959811
-9.69895570715
1520.70557773
1023.70217613
524.841429952
131.790931829
-7.4691460661
-9.62748777407
505.131620616
120.208600261
-8.38240121202
-9.61379455985
487.825689304
110.603540018
-8.83764747369
-9.6453619973
473.685102201
103.450594107
-8.98716943046
-9.59367393811
)
;

boundaryField
{
    back
    {
        type            calculated;
        value           nonuniform List<scalar> 
164
(
2739.96269025
2254.9076244
1773.9132358
1295.64716084
818.677603458
361.467517986
65.0096158275
-10.166709935
2745.35579241
2259.5491312
1778.29067816
1300.22228502
825.051357074
369.711189444
71.2627736276
-11.5599794563
2745.67571718
2259.92320708
1778.77540425
1301.0249812
826.676500366
373.896088284
75.6336705299
-13.1888700766
2740.85470322
2255.97363188
1775.33337669
1297.46705903
821.535172736
370.693033885
71.7209384815
-10.3822690961
1770.02176032
1292.21364126
814.729637638
361.544022587
66.1414734878
-9.83422285278
1763.86979223
1286.57354408
808.194849041
352.012800293
59.1782708028
-9.69073916086
1758.10423433
1281.20715033
802.526715658
343.80667025
54.5534516136
-9.65237550467
1751.15981746
1273.90079078
794.80913269
339.09360844
52.8761533136
-9.66826505314
1743.39600444
1265.52644259
786.204149929
331.687092918
49.6978353525
-9.66094745358
1734.9716733
1256.41681271
776.810746923
323.067970453
46.1239061179
-9.64036518061
1726.06845641
1247.2311276
767.997198718
315.798162568
43.6260243174
-9.64690478407
1716.60602257
1237.83317517
759.151039266
310.016085077
41.8900380973
-9.65454764058
1706.26058804
1227.55305554
749.753414167
303.622257453
41.3937414312
-9.65863376543
1694.80726806
1216.11759724
738.850932476
295.675232951
39.8362121679
-9.67677525385
1681.91087576
1203.19991128
727.109788093
287.574913956
36.7652555262
-9.76780783657
1667.11183387
1187.65465019
711.275895389
274.114340676
31.352706263
-9.91971509054
1650.26317774
1169.00676466
689.882380361
253.552275288
21.9065831401
-9.75541959048
1632.04798911
1148.24497848
665.497354171
231.326071519
12.557208505
-9.60766409704
1613.10953769
1126.76495928
640.545457167
210.243970713
5.7460321396
-10.964601891
1593.91434389
1105.26298964
616.382828183
193.018650332
3.10602167591
-9.4445477825
1574.79624389
1083.97768245
592.738472794
176.607847947
-0.713917875034
-9.57646987294
1556.02093495
1063.05879656
569.331264839
160.385366993
-3.85877677345
-9.72468842862
1537.87823615
1042.81098858
546.440337865
145.214679332
-5.96561959811
-9.69895570715
1520.70557773
1023.70217613
524.841429952
131.790931829
-7.4691460661
-9.62748777407
505.131620616
120.208600261
-8.38240121202
-9.61379455985
487.825689304
110.603540018
-8.83764747369
-9.6453619973
473.685102201
103.450594107
-8.98716943046
-9.59367393811
)
;
    }
    sides
    {
        type            calculated;
        value           nonuniform List<scalar> 0();
    }
    bottom
    {
        type            calculated;
        value           nonuniform List<scalar> 0();
    }
    front
    {
        type            calculated;
        value           nonuniform List<scalar> 
164
(
2739.96269025
2254.9076244
1773.9132358
1295.64716084
818.677603458
361.467517986
65.0096158275
-10.166709935
2745.35579241
2259.5491312
1778.29067816
1300.22228502
825.051357074
369.711189444
71.2627736276
-11.5599794563
2745.67571718
2259.92320708
1778.77540425
1301.0249812
826.676500366
373.896088284
75.6336705299
-13.1888700766
2740.85470322
2255.97363188
1775.33337669
1297.46705903
821.535172736
370.693033885
71.7209384815
-10.3822690961
1770.02176032
1292.21364126
814.729637638
361.544022587
66.1414734878
-9.83422285278
1763.86979223
1286.57354408
808.194849041
352.012800293
59.1782708028
-9.69073916086
1758.10423433
1281.20715033
802.526715658
343.80667025
54.5534516136
-9.65237550467
1751.15981746
1273.90079078
794.80913269
339.09360844
52.8761533136
-9.66826505314
1743.39600444
1265.52644259
786.204149929
331.687092918
49.6978353525
-9.66094745358
1734.9716733
1256.41681271
776.810746923
323.067970453
46.1239061179
-9.64036518061
1726.06845641
1247.2311276
767.997198718
315.798162568
43.6260243174
-9.64690478407
1716.60602257
1237.83317517
759.151039266
310.016085077
41.8900380973
-9.65454764058
1706.26058804
1227.55305554
749.753414167
303.622257453
41.3937414312
-9.65863376543
1694.80726806
1216.11759724
738.850932476
295.675232951
39.8362121679
-9.67677525385
1681.91087576
1203.19991128
727.109788093
287.574913956
36.7652555262
-9.76780783657
1667.11183387
1187.65465019
711.275895389
274.114340676
31.352706263
-9.91971509054
1650.26317774
1169.00676466
689.882380361
253.552275288
21.9065831401
-9.75541959048
1632.04798911
1148.24497848
665.497354171
231.326071519
12.557208505
-9.60766409704
1613.10953769
1126.76495928
640.545457167
210.243970713
5.7460321396
-10.964601891
1593.91434389
1105.26298964
616.382828183
193.018650332
3.10602167591
-9.4445477825
1574.79624389
1083.97768245
592.738472794
176.607847947
-0.713917875034
-9.57646987294
1556.02093495
1063.05879656
569.331264839
160.385366993
-3.85877677345
-9.72468842862
1537.87823615
1042.81098858
546.440337865
145.214679332
-5.96561959811
-9.69895570715
1520.70557773
1023.70217613
524.841429952
131.790931829
-7.4691460661
-9.62748777407
505.131620616
120.208600261
-8.38240121202
-9.61379455985
487.825689304
110.603540018
-8.83764747369
-9.6453619973
473.685102201
103.450594107
-8.98716943046
-9.59367393811
)
;
    }
    atmosphere
    {
        type            calculated;
        value           nonuniform List<scalar> 
27
(
-9.81497230773
-12.1299250899
-16.7608309959
-9.81547738134
-9.81099631754
-9.81038725697
-9.81165025863
-9.81152094972
-9.81087595523
-9.81033919847
-9.81069424791
-9.81090019116
-9.8113392892
-9.81232015062
-9.81246975281
-9.81653050295
-9.81099722062
-9.89228120902
-14.4452713752
-9.81
-9.81000425177
-9.81146079461
-9.81113712309
-9.81000747919
-9.82230130848
-9.93568130043
-9.83561399903
)
;
    }
    floatingObject
    {
        type            calculated;
        value           nonuniform List<scalar> 4(2984.77585384 2990.16810497 2990.48909149 2985.66889746);
    }
    procBoundary6to3
    {
        type            processor;
        value           nonuniform List<scalar> 8(2727.47668901 2246.4007865 1767.85313271 1289.63880553 810.719747069 352.675629673 60.5269693246 -9.77851010661);
    }
    procBoundary6to7
    {
        type            processor;
        value           nonuniform List<scalar> 
11
(
2099.83137957
2082.59503457
2065.36663355
2048.4234067
2032.03490439
2016.4742759
1504.84937114
1006.16118731
1006.16118731
990.581845568
977.232136778
)
;
    }
    procBoundary6to8
    {
        type            processor;
        value           nonuniform List<scalar> 
16
(
2728.78458314
2247.98962758
2247.98962758
2242.22599332
2236.07366778
2229.26361063
2221.9060708
2213.96470868
2205.4164163
2196.15905776
2185.99941801
2174.8149636
2162.39564744
2148.44127121
2133.05578982
2116.77867203
)
;
    }
    procBoundary6to9
    {
        type            processor;
        value           nonuniform List<scalar> 4(463.226180838 99.0330884707 -9.02618819063 -9.56586766144);
    }
}


// ************************************************************************* //
