/*--------------------------------*- C++ -*----------------------------------*\
| =========                 |                                                 |
| \\      /  F ield         | OpenFOAM: The Open Source CFD Toolbox           |
|  \\    /   O peration     | Version:  v2012                                 |
|   \\  /    A nd           | Website:  www.openfoam.com                      |
|    \\/     M anipulation  |                                                 |
\*---------------------------------------------------------------------------*/
FoamFile
{
    version     2.0;
    format      ascii;
    class       volScalarField;
    location    "3.6";
    object      p_rgh;
}
// * * * * * * * * * * * * * * * * * * * * * * * * * * * * * * * * * * * * * //

dimensions      [1 -1 -2 0 0 0 0];


internalField   nonuniform List<scalar> 
164
(
8860.29178012
8864.82468466
8873.40840584
8884.71702571
8897.35975346
8522.77554222
2831.34656571
-0.601959935001
8865.66360631
8869.43958031
8877.76178768
8889.28733502
8903.73350707
8568.17034824
3115.92474745
0.266697506323
8866.01007502
8869.82738047
8878.26190927
8890.09038391
8905.35865037
8568.00419969
3362.98659998
3.15294014442
8861.20955936
8865.92657539
8874.88257851
8886.58020632
8900.21732274
8475.7871841
3073.00320186
-0.817519096077
8869.6091873
8881.372835
8893.41178764
8422.2003331
2864.72083827
0.190864817355
8863.38065036
8875.70139201
8886.87699904
8422.58833558
2598.7996634
-0.125989160856
8857.56167033
8870.2991739
8881.20886566
8422.95272611
2429.18238207
-0.0876255046739
8850.54445147
8862.948755
8873.48672746
8441.53020288
2368.42654772
-0.103567508314
8842.6917977
8854.54622378
8864.88180558
8410.26053181
2244.49037396
-0.0962028543093
8834.1470213
8845.40944964
8855.488432
8290.38466313
2102.57883505
-0.0756156777371
8825.18138687
8836.17397207
8846.67489129
8194.71888619
2011.55804923
-0.0821547840686
8815.70665506
8826.7640999
8837.82875279
8172.12118169
1947.05568542
-0.0897976405821
8805.36388796
8816.51634091
8828.4313184
8070.83409419
1930.67726544
-0.0938837654264
8793.94387137
8805.08980844
8817.52917354
7934.56508984
1870.85741875
-0.112025253847
8781.13127815
8792.19279156
8805.7882145
7794.18613996
1745.58634528
-0.203057836568
8766.41064904
8776.66192986
8789.95434007
7625.42861096
1521.7288158
-0.354965090538
8749.58766782
8758.03246227
8768.56082504
7373.67859506
1173.06753518
-0.19527583433
8731.37319657
8737.27738652
8744.17579885
7070.61382597
900.751630447
0.0373100817488
8712.44629482
8715.80167023
8719.22390184
6738.37873811
672.009722557
3.11953769982
8693.30170176
8694.30697463
8695.06127286
6393.03354603
472.363555774
0.120202217503
8674.20681129
8673.03453622
8671.41691388
6056.69787642
316.075993998
-0.0117198729401
8655.43648328
8652.11771537
8648.00969874
5695.92749021
195.434966304
-0.159938428621
8637.30350884
8631.87051492
8625.11876817
5308.82403856
107.24013741
-0.134205709222
8620.13247862
8612.76021886
8603.51984131
4929.36792143
54.5815289795
-0.0627498730642
8583.8099127
4576.49181061
23.3909948231
-0.0370507840873
8566.50320725
4264.76833936
7.08253671855
0.0419272706156
8539.76393652
4021.28215095
1.03136397998
-0.00395028904655
)
;

boundaryField
{
    back
    {
        type            fixedFluxPressure;
        gradient        uniform 0;
        value           nonuniform List<scalar> 
164
(
8860.29178012
8864.82468466
8873.40840584
8884.71702571
8897.35975346
8522.77554222
2831.34656571
-0.601959935001
8865.66360631
8869.43958031
8877.76178768
8889.28733502
8903.73350707
8568.17034824
3115.92474745
0.266697506323
8866.01007502
8869.82738047
8878.26190927
8890.09038391
8905.35865037
8568.00419969
3362.98659998
3.15294014442
8861.20955936
8865.92657539
8874.88257851
8886.58020632
8900.21732274
8475.7871841
3073.00320186
-0.817519096077
8869.6091873
8881.372835
8893.41178764
8422.2003331
2864.72083827
0.190864817355
8863.38065036
8875.70139201
8886.87699904
8422.58833558
2598.7996634
-0.125989160856
8857.56167033
8870.2991739
8881.20886566
8422.95272611
2429.18238207
-0.0876255046739
8850.54445147
8862.948755
8873.48672746
8441.53020288
2368.42654772
-0.103567508314
8842.6917977
8854.54622378
8864.88180558
8410.26053181
2244.49037396
-0.0962028543093
8834.1470213
8845.40944964
8855.488432
8290.38466313
2102.57883505
-0.0756156777371
8825.18138687
8836.17397207
8846.67489129
8194.71888619
2011.55804923
-0.0821547840686
8815.70665506
8826.7640999
8837.82875279
8172.12118169
1947.05568542
-0.0897976405821
8805.36388796
8816.51634091
8828.4313184
8070.83409419
1930.67726544
-0.0938837654264
8793.94387137
8805.08980844
8817.52917354
7934.56508984
1870.85741875
-0.112025253847
8781.13127815
8792.19279156
8805.7882145
7794.18613996
1745.58634528
-0.203057836568
8766.41064904
8776.66192986
8789.95434007
7625.42861096
1521.7288158
-0.354965090538
8749.58766782
8758.03246227
8768.56082504
7373.67859506
1173.06753518
-0.19527583433
8731.37319657
8737.27738652
8744.17579885
7070.61382597
900.751630447
0.0373100817488
8712.44629482
8715.80167023
8719.22390184
6738.37873811
672.009722557
3.11953769982
8693.30170176
8694.30697463
8695.06127286
6393.03354603
472.363555774
0.120202217503
8674.20681129
8673.03453622
8671.41691388
6056.69787642
316.075993998
-0.0117198729401
8655.43648328
8652.11771537
8648.00969874
5695.92749021
195.434966304
-0.159938428621
8637.30350884
8631.87051492
8625.11876817
5308.82403856
107.24013741
-0.134205709222
8620.13247862
8612.76021886
8603.51984131
4929.36792143
54.5815289795
-0.0627498730642
8583.8099127
4576.49181061
23.3909948231
-0.0370507840873
8566.50320725
4264.76833936
7.08253671855
0.0419272706156
8539.76393652
4021.28215095
1.03136397998
-0.00395028904655
)
;
    }
    sides
    {
        type            fixedFluxPressure;
        gradient        nonuniform List<scalar> 0();
        value           nonuniform List<scalar> 0();
    }
    bottom
    {
        type            fixedFluxPressure;
        gradient        nonuniform List<scalar> 0();
        value           nonuniform List<scalar> 0();
    }
    front
    {
        type            fixedFluxPressure;
        gradient        uniform 0;
        value           nonuniform List<scalar> 
164
(
8860.29178012
8864.82468466
8873.40840584
8884.71702571
8897.35975346
8522.77554222
2831.34656571
-0.601959935001
8865.66360631
8869.43958031
8877.76178768
8889.28733502
8903.73350707
8568.17034824
3115.92474745
0.266697506323
8866.01007502
8869.82738047
8878.26190927
8890.09038391
8905.35865037
8568.00419969
3362.98659998
3.15294014442
8861.20955936
8865.92657539
8874.88257851
8886.58020632
8900.21732274
8475.7871841
3073.00320186
-0.817519096077
8869.6091873
8881.372835
8893.41178764
8422.2003331
2864.72083827
0.190864817355
8863.38065036
8875.70139201
8886.87699904
8422.58833558
2598.7996634
-0.125989160856
8857.56167033
8870.2991739
8881.20886566
8422.95272611
2429.18238207
-0.0876255046739
8850.54445147
8862.948755
8873.48672746
8441.53020288
2368.42654772
-0.103567508314
8842.6917977
8854.54622378
8864.88180558
8410.26053181
2244.49037396
-0.0962028543093
8834.1470213
8845.40944964
8855.488432
8290.38466313
2102.57883505
-0.0756156777371
8825.18138687
8836.17397207
8846.67489129
8194.71888619
2011.55804923
-0.0821547840686
8815.70665506
8826.7640999
8837.82875279
8172.12118169
1947.05568542
-0.0897976405821
8805.36388796
8816.51634091
8828.4313184
8070.83409419
1930.67726544
-0.0938837654264
8793.94387137
8805.08980844
8817.52917354
7934.56508984
1870.85741875
-0.112025253847
8781.13127815
8792.19279156
8805.7882145
7794.18613996
1745.58634528
-0.203057836568
8766.41064904
8776.66192986
8789.95434007
7625.42861096
1521.7288158
-0.354965090538
8749.58766782
8758.03246227
8768.56082504
7373.67859506
1173.06753518
-0.19527583433
8731.37319657
8737.27738652
8744.17579885
7070.61382597
900.751630447
0.0373100817488
8712.44629482
8715.80167023
8719.22390184
6738.37873811
672.009722557
3.11953769982
8693.30170176
8694.30697463
8695.06127286
6393.03354603
472.363555774
0.120202217503
8674.20681129
8673.03453622
8671.41691388
6056.69787642
316.075993998
-0.0117198729401
8655.43648328
8652.11771537
8648.00969874
5695.92749021
195.434966304
-0.159938428621
8637.30350884
8631.87051492
8625.11876817
5308.82403856
107.24013741
-0.134205709222
8620.13247862
8612.76021886
8603.51984131
4929.36792143
54.5815289795
-0.0627498730642
8583.8099127
4576.49181061
23.3909948231
-0.0370507840873
8566.50320725
4264.76833936
7.08253671855
0.0419272706156
8539.76393652
4021.28215095
1.03136397998
-0.00395028904655
)
;
    }
    atmosphere
    {
        type            totalPressure;
        rho             rho;
        psi             none;
        gamma           1;
        p0              uniform 0;
        value           nonuniform List<scalar> 
27
(
-0.00497230773446
0
0
-0.00547738134121
-0.00099631753577
-0.000387256969766
-0.00165025862628
-0.00152094972257
-0.000875955225068
-0.000339198467175
-0.000694247912968
-0.00090019116366
-0.00133928920156
-0.00232015061781
-0.00246975280632
-0.00653050294918
-0.000997220620495
0
0
0
-4.25176555954e-06
-0.00146079460685
-0.00113712308908
-7.47918665498e-06
0
0
0
)
;
    }
    floatingObject
    {
        type            fixedFluxPressure;
        gradient        uniform 0;
        value           nonuniform List<scalar> 4(8860.29178012 8865.66360631 8866.01007502 8861.20955936);
    }
    procBoundary6to3
    {
        type            processor;
        value           nonuniform List<scalar> 8(8847.74461808 8856.28176035 8867.33467939 8878.71489551 8889.40189707 8471.4823266 2653.26222091 -0.213760106608);
    }
    procBoundary6to7
    {
        type            processor;
        value           nonuniform List<scalar> 
11
(
8709.54408779
8692.38611005
8675.16658911
8658.22980409
8641.85099268
8626.29471419
8604.27825653
8595.21696111
8595.21696111
8579.64017785
8566.29041651
)
;
    }
    procBoundary6to8
    {
        type            processor;
        value           nonuniform List<scalar> 
16
(
8849.11899727
8857.96763408
8857.96763408
8852.12553555
8845.92095332
8839.03651706
8831.56038681
8823.50292126
8814.93334341
8805.66654318
8795.50690343
8784.45812843
8772.10123678
8758.15566763
8742.75612123
8726.47910688
)
;
    }
    procBoundary6to9
    {
        type            processor;
        value           nonuniform List<scalar> 4(8495.39102185 3867.18010824 0.0717452629746 -0.00020574173329);
    }
}


// ************************************************************************* //
