/*--------------------------------*- C++ -*----------------------------------*\
| =========                 |                                                 |
| \\      /  F ield         | OpenFOAM: The Open Source CFD Toolbox           |
|  \\    /   O peration     | Version:  v2012                                 |
|   \\  /    A nd           | Website:  www.openfoam.com                      |
|    \\/     M anipulation  |                                                 |
\*---------------------------------------------------------------------------*/
FoamFile
{
    version     2.0;
    format      ascii;
    class       volVectorField;
    location    "3.6";
    object      U_0;
}
// * * * * * * * * * * * * * * * * * * * * * * * * * * * * * * * * * * * * * //

dimensions      [0 1 -1 0 0 0 0];


internalField   nonuniform List<vector> 
164
(
(-0.0344492165697 -0.00616518440957 6.5085063004e-18)
(-0.00716331341553 -0.013619669834 5.53273154161e-18)
(0.00618659536364 -0.0159858404768 3.4788568202e-18)
(0.0169949790376 -0.0105286517861 2.30419730899e-18)
(0.0205593086488 -0.0100654939215 1.56283211893e-18)
(0.0206521840257 0.0121808802936 1.3451415597e-18)
(0.0586623162155 0.0121189088324 1.22502725541e-18)
(0.218249954991 -0.096169380682 1.10322327611e-18)
(-0.024673364177 -0.0235427834688 4.3710656338e-18)
(-0.00678661908566 -0.0319005651832 4.11225150521e-18)
(0.00195613493296 -0.0369772348352 3.05106892769e-18)
(0.00883128501261 -0.0249533708941 2.36128122372e-18)
(0.00993893000948 -0.0163476556318 1.91549351457e-18)
(0.00997988383704 0.0151038281881 1.77111435679e-18)
(0.0517570211796 0.018878323658 1.65606646658e-18)
(0.246452153783 0.135114649162 1.61447638651e-18)
(0.0238965232131 -0.0235798774964 4.38269935273e-18)
(0.00588085597863 -0.0319205298956 4.13148398544e-18)
(-0.00304246484357 -0.0370311714292 3.08219147069e-18)
(-0.0102912157035 -0.0251314960779 2.39374264493e-18)
(-0.0116014857878 -0.0165524707276 1.95953261464e-18)
(-0.00722278720271 0.0135071799927 1.81784579223e-18)
(0.0078735272921 0.0156721890886 2.00007769857e-18)
(-0.0888760350802 0.28490625254 1.86968472531e-18)
(0.0338315950869 -0.00634779461224 6.52897073443e-18)
(0.00630405626396 -0.013971566997 5.55366123211e-18)
(-0.00741411962211 -0.0165146230207 3.5028702258e-18)
(-0.0186845806574 -0.0109163831609 2.31595726793e-18)
(-0.0221324603668 -0.00908863023435 1.57541720538e-18)
(-0.0197027790717 0.0145250499073 1.35939673246e-18)
(-0.044433054004 0.0150239915366 1.27855176922e-18)
(-0.262963407479 -0.0322753073085 1.2172010161e-18)
(-0.00424652605043 0.00576489020841 3.88666038015e-18)
(-0.0178973042329 0.00355921181603 1.9870740694e-18)
(-0.026418651363 -0.000983095631073 1.12839777104e-18)
(-0.0286607837913 0.0141350787504 8.76440058711e-19)
(-0.0632682657986 0.0164199689965 7.64418367826e-19)
(-0.0963044781867 -0.0128380591064 7.17555485015e-19)
(0.0033354597595 0.00900363421805 3.04356091529e-18)
(-0.012262362489 0.00818555600796 1.35733382913e-18)
(-0.0237563454726 -0.00201317704455 5.95519122877e-19)
(-0.0302072464229 0.00694810631516 4.07157720138e-19)
(-0.0576040737646 -0.00618359535643 3.29039438261e-19)
(-0.0497350695001 -0.0195540192631 3.10459232221e-19)
(0.00255614814983 0.010403778614 1.16323568423e-18)
(-0.00838677252154 0.0098283020619 4.53852554687e-19)
(-0.0160451444749 -0.00540500125885 1.96442513107e-19)
(-0.0240729542526 -0.00294526559913 1.28733604487e-19)
(-0.0390299624196 -0.0258795367934 1.05683380285e-19)
(-0.0334671101216 -0.0562140466681 9.78442457867e-20)
(0.00316289783861 0.011451540109 2.3573935148e-19)
(-0.00317554565727 0.0110558780874 7.28432282557e-20)
(-0.00656201953576 -0.00329782504495 1.76707318772e-20)
(-0.0143436989742 0.00427108116423 -2.05900710406e-21)
(-0.0188953726475 -0.0182848095279 -9.97039146245e-21)
(-0.0285364981354 -0.045417765968 -8.32522143736e-21)
(0.00343326345618 0.0115017406274 2.28941916919e-20)
(0.000931671580359 0.011945104932 -1.40258099353e-20)
(0.000676438185857 -0.00101306217921 -2.75339219056e-20)
(-0.0086151039841 0.010638450972 -3.33004027214e-20)
(0.000860674580029 -0.0101257373076 -4.26314828274e-20)
(-0.00925668010695 -0.0319805388158 -3.72473668825e-20)
(0.00315745956827 0.0113615643246 -4.050051305e-21)
(0.00395531409113 0.0120704012774 -2.34528406533e-20)
(0.00595380254156 0.00170421981686 -4.32097285647e-20)
(-0.00447683107224 0.0133153866003 -5.90036206818e-20)
(0.0130270508688 -0.00720643281015 -4.63127684642e-20)
(0.00770280834856 -0.0233333898698 -4.20900608514e-20)
(0.00321621455806 0.0108611900019 -1.05853125336e-20)
(0.00649703784519 0.0112941821288 -4.50980696846e-20)
(0.0103198016787 0.00383197964956 -7.98641730217e-20)
(-3.99153270525e-06 0.014411474419 -1.00959397981e-19)
(0.0264611459143 -0.0074274342955 -1.06066260433e-19)
(0.0229528628799 -0.0369878048884 -9.46419889484e-20)
(0.0034739227762 0.0104911200559 -1.9771224177e-20)
(0.00826025455792 0.0104515862264 -6.47164400703e-20)
(0.0139821885346 0.00451117509902 -1.30250775319e-19)
(0.00475179921871 0.0150586151394 -1.66976033277e-19)
(0.0498561249665 -0.00557956760986 -2.03332070077e-19)
(0.0424484444141 -0.0416723959192 -1.83218871873e-19)
(0.00413181628487 0.0110550176738 -2.59432752339e-20)
(0.00910806310166 0.0114304283747 -7.39222088371e-20)
(0.016691006174 0.00878270385596 -1.66980481798e-19)
(0.00945526493801 0.0186401087453 -2.10537138434e-19)
(0.0727204162092 0.000971621247257 -2.16632442655e-19)
(0.0604485011483 -0.039168874496 -1.85030139673e-19)
(0.00419966999956 0.0132708585077 -1.78442978935e-20)
(0.00884158561561 0.0140645307081 -7.10220828976e-20)
(0.0187583714865 0.013668797318 -1.53370836996e-19)
(0.0159185972843 0.0218292311891 -1.86281821872e-19)
(0.0921594802524 0.00762600704973 -1.43912379367e-19)
(0.0903846411599 -0.058239458804 -1.2319110749e-19)
(0.00334939670893 0.016111688007 -1.76554808659e-20)
(0.00769819303695 0.0175476667823 -4.38774242496e-20)
(0.0185304775162 0.0207487192847 -1.11503663974e-19)
(0.0186680475097 0.0306293732954 -1.35911268059e-19)
(0.1065873784 0.0248033995883 -1.3886660067e-19)
(0.174135574164 -0.0558613843135 -1.21316094627e-19)
(0.00197367191012 0.0185190268212 -1.16792818274e-20)
(0.00521957412688 0.0209375904126 -2.96309385019e-20)
(0.012998901862 0.027460703102 -5.77696738086e-20)
(0.0129826645924 0.0388488031006 -7.87049442867e-20)
(0.109754928053 0.0383287038453 -4.77905532485e-20)
(0.381820809656 -0.107570158811 -8.68774135676e-20)
(-8.3725090865e-05 0.0215092625229 -6.66189417835e-21)
(0.000617901537707 0.0253756418858 -1.21701719731e-20)
(0.00285948182894 0.0337762041653 -3.11146310518e-20)
(0.00348934533568 0.0435965118823 -4.08956274674e-20)
(0.112427527179 0.0496156895034 -5.41431467559e-20)
(0.612377558538 -0.0496712124321 -2.78566751465e-20)
(-0.00302226195349 0.0252555598555 -3.66785439966e-21)
(-0.00514598750477 0.0301720763016 -8.68754438043e-21)
(-0.00838134261418 0.0383955356334 -2.39464372058e-20)
(-0.00619070888835 0.0440180015555 -2.80734785797e-20)
(0.121725940808 0.0556513094906 -4.80667679312e-20)
(0.396289200502 0.298126475296 -4.32141015943e-20)
(-0.00669063125038 0.0290894330153 -5.79390039612e-21)
(-0.0108915924993 0.0346563134582 -1.12964672384e-20)
(-0.017805010502 0.0412032962898 -1.33823173778e-20)
(-0.0161164844649 0.0410036781231 -2.47040825845e-20)
(0.121880428059 0.056424169194 -2.59973789066e-20)
(-0.0246648187846 0.3050019996 2.55817602028e-20)
(-0.011006559127 0.0321808689998 -7.85215371859e-21)
(-0.015820372852 0.0381991646888 -8.2713217551e-21)
(-0.0238156915491 0.0418346860805 -1.58120402486e-20)
(-0.026179386571 0.0365259077413 -8.64756920586e-21)
(0.103360560958 0.0548653257334 -1.33258672883e-20)
(-0.362796670935 0.200527791755 -4.30529350335e-20)
(-0.016082776495 0.0337979367925 -2.61129720183e-21)
(-0.020621067145 0.0403216958963 -9.49974274394e-21)
(-0.0277543837101 0.0426414074986 -1.18596666188e-20)
(-0.0356561751796 0.0358031923114 -1.42448054553e-20)
(0.0698523831696 0.0527568004384 -4.39891598978e-21)
(-0.523099224981 0.0783523852835 -2.05390922487e-20)
(-0.0214522358227 0.0337379876113 -3.11484085251e-21)
(-0.0256625613137 0.0405708325534 -6.93786548995e-22)
(-0.0320449563332 0.0424060388694 -1.07515708139e-20)
(-0.0431496879509 0.0371862501609 -2.43809643895e-20)
(0.0335255106789 0.0535022734436 8.38513865441e-21)
(-0.442006987777 0.0976431770701 1.31635960933e-20)
(-0.0266185513301 0.0323071702063 -2.11923760745e-21)
(-0.0308538576094 0.0391129513057 -4.07031437675e-21)
(-0.0373522460839 0.0398491954281 -9.71545091174e-21)
(-0.0493517465236 0.0367882953534 -2.03611169529e-20)
(0.00396260853305 0.0522287250383 -1.93764798951e-20)
(-0.339674958756 -0.0148169754628 -1.04527993808e-20)
(-0.0313096274781 0.0298346999686 -2.68581339321e-21)
(-0.0359257727922 0.0364373063658 -7.12494204355e-21)
(-0.0430643268876 0.035906080299 -1.00634800335e-20)
(-0.0543229529511 0.0344794773315 -1.79674165751e-20)
(-0.0117716628383 0.0516019037829 -2.24655835977e-20)
(-0.149420742954 0.0049373427082 1.99230209695e-20)
(-0.0486083504719 0.0308640024899 -3.79284831835e-21)
(-0.05855637534 0.0303439015557 -4.39932856015e-21)
(-0.0262684060194 0.0483842166674 -8.00679045836e-21)
(-0.0758221301282 0.0387766673014 -9.12537113277e-22)
(-0.0528676890857 0.0248944915717 2.97197579362e-22)
(-0.0614579654425 0.0243349337547 2.66044315435e-21)
(-0.0423208195855 0.040966051074 1.7653387077e-22)
(-0.0350596288974 0.0366005169685 7.45166614497e-21)
(-0.0549824218524 0.0183056409316 2.23339213103e-21)
(-0.0616824845087 0.0172291277712 -1.21513417713e-20)
(-0.0500062300995 0.0280449764827 -1.31347354359e-20)
(-0.016238709868 0.0181215887916 -3.2605427972e-21)
)
;

boundaryField
{
    back
    {
        type            noSlip;
    }
    sides
    {
        type            noSlip;
    }
    bottom
    {
        type            noSlip;
    }
    front
    {
        type            noSlip;
    }
    atmosphere
    {
        type            pressureInletOutletVelocity;
        value           nonuniform List<vector> 
27
(
(0 -0.096169380682 0)
(0.246452153783 0.135114649162 1.61447638651e-18)
(-0.0888760350802 0.28490625254 1.86968472531e-18)
(0 -0.0322753073085 0)
(0 -0.0128380591064 0)
(0 -0.0195540192631 0)
(0 -0.0562140466681 0)
(0 -0.045417765968 0)
(0 -0.0319805388158 0)
(0 -0.0233333898698 0)
(0 -0.0369878048884 0)
(0 -0.0416723959192 0)
(0 -0.039168874496 0)
(0 -0.058239458804 0)
(0 -0.0558613843135 0)
(0 -0.107570158811 0)
(0 -0.0496712124321 0)
(0.396289200502 0.298126475296 -4.32141015943e-20)
(-0.0246648187846 0.3050019996 2.55817602028e-20)
(-0.362796670935 0.200527791755 -4.30529350335e-20)
(-0.523099224981 0.0783523852835 -2.05390922487e-20)
(0 0.0976431770701 0)
(0 -0.0148169754628 0)
(0 0.0049373427082 0)
(-0.0758221301282 0.0387766673014 -9.12537113277e-22)
(-0.0350596288974 0.0366005169685 7.45166614497e-21)
(-0.016238709868 0.0181215887916 -3.2605427972e-21)
)
;
    }
    floatingObject
    {
        type            movingWallVelocity;
        value           nonuniform List<vector> 4((0 0 0) (0 0 0) (-1.38777878078e-16 0 0) (0 0 0));
    }
    procBoundary6to3
    {
        type            processor;
        value           nonuniform List<vector> 8((-0.0344196623095 0.00409879979571 1.10975139522e-17) (-0.014006050743 0.0138150419751 7.84637768146e-18) (0.0031820229737 0.006750529388 3.86950062138e-18) (0.0158764968271 0.00443611930595 2.04018479643e-18) (0.0234852183585 -0.00268015587292 1.16023340289e-18) (0.0260178640454 0.0110805700464 9.32514196171e-19) (0.0501034484535 0.00425304170707 8.2380373757e-19) (0.0898790792279 -0.0390504888656 7.72111007781e-19));
    }
    procBoundary6to7
    {
        type            processor;
        value           nonuniform List<vector> 
11
(
(-0.00651647525468 0.0255887971932 -2.88675738223e-21)
(-0.0103986561345 0.0277878126528 -2.54886302317e-21)
(-0.0149957279768 0.0289500475573 -1.22215973592e-21)
(-0.019814175759 0.0289384368286 -6.48097114909e-22)
(-0.0244298662176 0.0278555998974 -7.9314819554e-22)
(-0.0285965813084 0.0259293912983 -5.04256207546e-22)
(-0.0353761641811 0.0266563590355 -1.93949368239e-21)
(-0.0404638425286 0.0328272675519 -6.88310221914e-21)
(-0.0404638425286 0.0328272675519 -6.88310221914e-21)
(-0.0441447515995 0.0284908196256 -2.11302753623e-21)
(-0.0466734336825 0.0234355079001 1.62068649969e-21)
)
;
    }
    procBoundary6to8
    {
        type            processor;
        value           nonuniform List<vector> 
16
(
(0.0340976996741 0.00348744361914 1.11071412559e-17)
(0.0133501620804 0.0130825279217 7.84613399826e-18)
(0.0133501620804 0.0130825279217 7.84613399826e-18)
(0.0148514536095 0.011627204264 5.07757435471e-18)
(0.00988232249367 0.00911298569062 2.12170540167e-18)
(0.00649074438859 0.0101991915779 4.76101327828e-19)
(0.00442317977892 0.0105334864292 5.60243151858e-20)
(0.00294161296682 0.0106951190051 4.92111420807e-21)
(0.00211466484779 0.0107482204885 -2.08574817962e-21)
(0.00165840536188 0.0109665625403 -3.60884627234e-21)
(0.00183266076137 0.0115433193459 -4.39227827834e-21)
(0.00177229913611 0.0132417153043 -4.65796860868e-21)
(0.000936059616227 0.0153868400706 -5.60785178569e-21)
(-0.000231045140122 0.0173997051649 -3.9047076711e-21)
(-0.00153794559054 0.0197707995556 -2.35672003256e-21)
(-0.00356969563744 0.0227052569525 -1.90928770805e-21)
)
;
    }
    procBoundary6to9
    {
        type            processor;
        value           nonuniform List<vector> 4((-0.0547647962769 0.0116214162917 -1.01328781173e-20) (-0.0602513264652 0.00993037960003 -2.0817365821e-20) (-0.0512213777333 0.0164341258848 -2.02612608682e-20) (-0.00707768901267 0.00887353617701 -9.07113305248e-22));
    }
}


// ************************************************************************* //
