/*--------------------------------*- C++ -*----------------------------------*\
| =========                 |                                                 |
| \\      /  F ield         | OpenFOAM: The Open Source CFD Toolbox           |
|  \\    /   O peration     | Version:  v2012                                 |
|   \\  /    A nd           | Website:  www.openfoam.com                      |
|    \\/     M anipulation  |                                                 |
\*---------------------------------------------------------------------------*/
FoamFile
{
    version     2.0;
    format      ascii;
    class       surfaceVectorField;
    location    "3.6";
    object      Uf;
}
// * * * * * * * * * * * * * * * * * * * * * * * * * * * * * * * * * * * * * //

dimensions      [0 1 -1 0 0 0 0];


internalField   nonuniform List<vector> 
293
(
(-0.0244117348776 -0.0129905717087 5.9564154984e-18)
(-0.031254481374 -0.0162164203993 5.3832323438e-18)
(-0.00335763249352 -0.019511326452 4.48142738871e-18)
(-0.00923519278352 -0.0260475249086 4.79388560574e-18)
(0.0089684928021 -0.0193569079775 2.87999151204e-18)
(0.00143295710822 -0.0312000316751 3.2552073972e-18)
(0.015724363606 -0.0156827188675 1.92761608988e-18)
(0.00967027739985 -0.0238587228722 2.32476137538e-18)
(0.0166961773996 -0.00889594846023 1.45005001946e-18)
(0.0114213883457 -0.0219370507332 1.73321817455e-18)
(0.0331903935137 -0.000337831823979 1.27965823492e-18)
(0.0102116973389 0.00349878480946 1.55159331924e-18)
(0.122665951786 -0.00622403727215 1.16148083094e-18)
(0.0494606020902 0.00398089623812 1.43076010118e-18)
(0.262698641487 -0.0121771495059 1.35898583375e-18)
(-0.0166219739647 -0.030685093228 4.22070245114e-18)
(-0.000572318715227 -0.024734953151 4.35752895478e-18)
(-0.00348435055367 -0.0392401093158 3.56766561424e-18)
(-0.000683656277778 -0.0350656078504 4.09963971557e-18)
(0.00406989191029 -0.0369274192776 2.69997726055e-18)
(-0.000882878848126 -0.0415922661661 3.06052387487e-18)
(0.00759357849264 -0.0259314176288 2.13036346005e-18)
(-0.00132838539545 -0.0314527436126 2.37020297855e-18)
(0.00722331908403 -0.0125356024293 1.83476147433e-18)
(-0.00197606773468 -0.0262747547428 1.92779348454e-18)
(0.0248621824069 -0.00178624909309 1.70269518551e-18)
(-0.000538162142095 0.00184525308541 1.78729552783e-18)
(0.157662933678 0.0275515103804 1.62826510399e-18)
(0.0201237381134 0.00292605540274 1.84404953463e-18)
(0.212199077781 0.190674535342 1.75493749259e-18)
(0.0154065539494 -0.0307647893091 4.2364662192e-18)
(0.0301876229101 -0.0163545943593 5.39905672224e-18)
(0.00199477280392 -0.0393868036313 3.59249797619e-18)
(0.00793378369831 -0.0263344030926 4.81433948913e-18)
(-0.00603895384119 -0.0372165319031 2.73074959286e-18)
(-0.00305714132156 -0.0316752368163 3.28220078288e-18)
(-0.0102544455154 -0.0266964300847 2.16763300303e-18)
(-0.0118514622998 -0.0245546806672 2.34567420408e-18)
(-0.00900094131361 -0.0152009233904 1.88032753804e-18)
(-0.0134732150749 -0.0226814934934 1.76005457382e-18)
(-0.000115094489197 -0.00575389293512 1.92864987695e-18)
(-0.00998543087722 0.00200814699141 1.58244369429e-18)
(-0.0350497536406 0.0244073044664 1.97072192322e-18)
(-0.0100581914209 0.00272123870281 1.63529797617e-18)
(-0.36399117136 0.126429860327 1.52324328415e-18)
(0.0233624550233 -0.0133569152795 5.97692999217e-18)
(0.0019163149081 -0.0201351478042 4.50404229582e-18)
(-0.0109102072155 -0.0200450597945 2.8971253941e-18)
(-0.00315141879174 -0.0109956972821 3.69089924071e-18)
(-0.0179255560762 -0.0163230940754 1.93809577487e-18)
(-0.0155761117439 -0.0101020066599 2.14517994889e-18)
(-0.0178212645811 -0.00919358030802 1.46217073007e-18)
(-0.0206040283613 -0.0139379672067 1.35003204992e-18)
(-0.0267615744427 -0.000479955880604 1.28909179351e-18)
(-0.0186994651119 0.00477291739231 1.1135093272e-18)
(-0.166769440168 0.0345796184462 1.1878193371e-18)
(-0.0451110427824 0.00658432387821 9.96217136396e-19)
(-0.139588465742 -0.0514557846775 9.38518009783e-19)
(-0.00822320093612 -0.00198100027453 2.9389537955e-18)
(0.00254716924882 0.0013068274662 3.46794722089e-18)
(-0.0190827747008 -0.00536191408841 1.55711622394e-18)
(-0.0121967461216 -0.000472390533867 1.67151246619e-18)
(-0.0234874646144 -0.00370828077361 1.00137064706e-18)
(-0.0222582859689 -0.00947652426342 8.61869930722e-19)
(-0.0383542841767 0.0029169579126 8.20634670093e-19)
(-0.0253247897066 0.002632685416 6.38176726478e-19)
(-0.0747951553826 0.00681651401659 7.46915809076e-19)
(-0.0490074870796 -0.00184157656526 5.45572793265e-19)
(-0.0615602766814 -0.0313288130434 5.16386176351e-19)
(-0.00158109025463 0.00182714617373 2.20050589159e-18)
(0.00574185184434 0.00356197344841 2.11020326923e-18)
(-0.0149137236933 -0.00224551758678 9.76266172977e-19)
(-0.00812397090796 0.00273150149908 9.08617802285e-19)
(-0.023107402145 -0.00665556524012 4.98676010142e-19)
(-0.0178479827443 -0.0111022874922 3.96009213469e-19)
(-0.0362818594031 -0.00677805964724 3.6311484965e-19)
(-0.025202164812 -0.0048629596226 2.66299882179e-19)
(-0.0452158052216 -0.0104366702509 3.1504316054e-19)
(-0.0453474333523 -0.0216605415946 2.145702201e-19)
(-0.0324753469239 -0.0414471759213 2.02686375982e-19)
(0.000337521456008 0.00342958999759 8.18315179932e-19)
(0.00654747755424 0.00476180318453 7.10775681242e-19)
(-0.00883200101006 -0.00273922613392 3.28360842777e-19)
(-0.00195328317482 0.00426270735505 2.67459245583e-19)
(-0.016582378959 -0.0134013674671 1.63633085506e-19)
(-0.00718471385425 -0.0118285945455 1.08402908371e-19)
(-0.0267144916688 -0.023466717684 1.1775525263e-19)
(-0.015136474872 -0.0066482131613 6.41631399434e-20)
(-0.0307906121178 -0.04575247388 1.02213435542e-19)
(-0.0230582200584 -0.0289981461537 4.8034807448e-20)
(-0.0239300639357 -0.0560073773442 4.4914162548e-20)
(0.00381932211639 0.00455630099863 1.59919746892e-19)
(0.0072589795483 0.00549561573205 1.34245152955e-19)
(-0.000901924068132 -0.000575583471043 4.75013111773e-20)
(0.00318204150426 0.00549599354079 3.11813948249e-20)
(-0.0066421322551 -0.00932718548086 8.93296280836e-21)
(0.00156876200243 -0.00984711835372 -3.76746431857e-21)
(-0.0122749160079 -0.0180322233974 -5.557305239e-21)
(-0.00643088242061 -0.000674647638333 -1.72629432053e-20)
(-0.0177279421275 -0.0395272962327 -9.26446554631e-21)
(-0.00156430295327 -0.0228508054028 -2.65708887661e-20)
(-0.0129500541157 -0.0484728996476 -2.37099082077e-20)
(0.00639398071561 0.00524609587579 5.50680088763e-21)
(0.00758015051911 0.00571421817576 1.02830567364e-20)
(0.00518361303287 0.00138687033941 -2.0087380671e-20)
(0.00704592290824 0.00624415055098 -1.8433360696e-20)
(0.000503397131368 -0.00509552565445 -2.99633703323e-20)
(0.00805357006704 -0.00698115773262 -3.48725570464e-20)
(0.00167995645861 -0.0097835539291 -3.82765267325e-20)
(-0.00174220454387 0.00436131968371 -4.60280037277e-20)
(0.00163602594576 -0.0256273862282 -4.10163314275e-20)
(0.0142801275653 -0.0164958697223 -4.53415044368e-20)
(0.00236016438926 -0.0338934386034 -4.10518556166e-20)
(0.00802784293956 0.005597993253 -1.36571048473e-20)
(0.00771102431733 0.00560715493187 -7.32578952755e-21)
(0.00945144528182 0.00278835100809 -3.32185370714e-20)
(0.00986098796403 0.00606031636846 -3.41972468071e-20)
(0.00520285777258 -0.00160853618673 -5.09371904418e-20)
(0.0124531625596 -0.00421837273789 -6.1099158355e-20)
(0.0095176966544 -0.00489110703784 -5.3092981432e-20)
(0.00154105123583 0.00693172112222 -7.99695835285e-20)
(0.0153662509576 -0.0133494044758 -4.53770286259e-20)
(0.0227405938952 -0.0141532555701 -7.63346510936e-20)
(0.0206798742386 -0.0315993090308 -6.87424311467e-20)
(0.00952077072981 0.00515160713657 -2.78659314874e-20)
(0.00821597396987 0.00526540407652 -1.52872306114e-20)
(0.0128786354358 0.00305900155052 -6.20778680907e-20)
(0.0119592490483 0.00518800576353 -5.49886835152e-20)
(0.00924014905283 -0.000411709408354 -9.01315514418e-20)
(0.0159265855338 -0.00316952311794 -1.04286370907e-19)
(0.0170811449787 -0.00453967314111 -1.0321125319e-19)
(0.00566967087702 0.00730379447145 -1.33654700341e-19)
(0.0287810257038 -0.0217099609158 -9.97000536143e-20)
(0.0399128873019 -0.0147624679385 -1.52473484187e-19)
(0.0364013432662 -0.0398118122703 -1.37015707629e-19)
(0.0108875615266 0.00467592638318 -4.24099826393e-20)
(0.0092444996809 0.0053914097532 -2.28948875652e-20)
(0.0158320832891 0.00280777671042 -9.71971863315e-20)
(0.013832641461 0.00507070350726 -6.93966048193e-20)
(0.0134762472527 -0.000861887829898 -1.47809519806e-19)
(0.0195986260371 -0.00131704556506 -1.46935504966e-19)
(0.0294570774393 -0.00587483093413 -1.82916931338e-19)
(0.010683150844 0.0083258539723 -1.87615473136e-19)
(0.0480292184857 -0.0242619091825 -1.89789138201e-19)
(0.0583018545812 -0.0135602314249 -2.07614825297e-19)
(0.053629044374 -0.0471165548083 -1.82456130819e-19)
(0.0121868195477 0.00549402448368 -4.98815097453e-20)
(0.010149189148 0.00681462713549 -2.2005531898e-20)
(0.0181660453841 0.00453770549896 -1.19134923454e-19)
(0.0147930305071 0.00667928436448 -7.23875375687e-20)
(0.0177984679793 0.00161395236157 -1.86741458296e-19)
(0.0225240314359 0.00297741424401 -1.58510927235e-19)
(0.0431227860568 -0.00425983696747 -2.12313367095e-19)
(0.0165572657433 0.0111360976554 -1.97115798792e-19)
(0.0680462908084 -0.0259074749745 -2.00281817915e-19)
(0.0799495850911 -0.00948882580319 -1.83916757862e-19)
(0.0749547595697 -0.0598938603124 -1.56555857774e-19)
(0.0128620116059 0.00790661604856 -4.45115597215e-20)
(0.0107002954529 0.00947675635378 -1.78417741597e-20)
(0.0198803735328 0.00747195943755 -1.11763541349e-19)
(0.0152297275502 0.00957079478187 -5.75755274395e-20)
(0.0228414024299 0.00480552501435 -1.68885267731e-19)
(0.0251910057522 0.00879010724911 -1.31436188808e-19)
(0.0579937511864 -0.00101242615008 -1.68719189559e-19)
(0.022375166893 0.0172638722561 -1.60661060719e-19)
(0.0936502832842 -0.0303052167193 -1.40190797721e-19)
(0.109245945421 0.00209650928873 -1.48738741659e-19)
(0.11260551051 -0.0692258316754 -1.2652612839e-19)
(0.0129037633678 0.0111801302142 -3.09057418777e-20)
(0.0106152879479 0.0124832172267 -1.46487055767e-20)
(0.0205633182672 0.0114088773518 -7.72481748979e-20)
(0.0150000902271 0.0131791779269 -3.6814136532e-20)
(0.0259614924671 0.0116944427115 -1.23211981795e-19)
(0.0249045425757 0.0159694703412 -8.4158141535e-20)
(0.0699679077962 0.00821007412423 -1.40680612818e-19)
(0.0258592093369 0.0265659939743 -1.07581480234e-19)
(0.131096949699 -0.00846068804863 -1.35074072328e-19)
(0.125917958285 0.0189933426734 -1.05309819698e-19)
(0.208633150393 -0.0920907058336 -8.51641416873e-20)
(0.0121603429157 0.0145118549459 -2.05571002311e-20)
(0.00981725730448 0.015915809401 -9.18727246606e-21)
(0.0185326155812 0.0165022651125 -4.37241031692e-20)
(0.0130052399989 0.0180001307393 -2.09354167053e-20)
(0.0236790818905 0.021638682094 -6.85276399735e-20)
(0.0197656254908 0.0240415589908 -4.45718687973e-20)
(0.0757484388883 0.0249238624483 -7.22106871132e-20)
(0.0225733493088 0.0352092022852 -6.00308168162e-20)
(0.215902639139 0.013585550598 -5.53998890569e-20)
(0.13725407564 0.0344379357036 -5.99741119288e-20)
(0.441903199494 -0.0776777675036 -4.87025604684e-20)
(0.00984816546375 0.0190212077696 -9.56558894033e-21)
(0.00790964242215 0.0203379406634 -5.2042044276e-21)
(0.01282285171 0.0233187640625 -2.17831823335e-20)
(0.00869938129617 0.0240849386751 -1.0590558194e-20)
(0.0163903954119 0.0329163427721 -3.60750456401e-20)
(0.0101640811528 0.0319398009788 -2.75892143463e-20)
(0.0801097991225 0.0415923406564 -4.77942416318e-20)
(0.0138964765242 0.0407104041583 -3.45880575136e-20)
(0.350022804643 0.0239408098774 -5.32767833403e-20)
(0.154902847086 0.0457327802864 -4.53576407733e-20)
(0.550981322351 0.066636741699 -4.37911757489e-20)
(0.00604090268289 0.0244721390058 -6.22917368124e-21)
(0.00487871516488 0.0252928522261 -4.68540258549e-21)
(0.00499843027595 0.0300734716688 -1.63965902068e-20)
(0.00308672817282 0.0302881100206 -9.87400843718e-21)
(0.00647302883097 0.0407292809553 -2.61022262199e-20)
(-0.000496640564421 0.0379859136016 -1.88020597066e-20)
(0.0800865796758 0.0514348628512 -3.21514566551e-20)
(0.00319002444383 0.0416889134796 -2.6568402743e-20)
(0.319363790869 0.0594151914155 -3.58720331819e-20)
(0.146923735254 0.0531784965578 -3.17905369396e-20)
(0.332240204043 0.339897550043 -4.35245100025e-20)
(0.00146742129153 0.0299327401599 -8.33023734143e-21)
(0.000791438840281 0.0298499766193 -6.72481442242e-21)
(-0.00263159769414 0.0356359065754 -1.2279477937e-20)
(-0.00262900091047 0.0356505437916 -9.65405304799e-21)
(-0.0039815471599 0.0443160126198 -1.92682362298e-20)
(-0.00918173975398 0.0413948782845 -1.49767854011e-20)
(0.0627586396267 0.0564105167599 -2.62074830275e-20)
(-0.00890539300842 0.0394348247138 -1.69780753605e-20)
(0.0529924785535 0.101823316584 -3.94430137601e-20)
(0.10151101828 0.0571282944813 -2.00331750462e-20)
(-0.425571143781 0.337285793709 -2.7729454352e-20)
(-0.00324988667589 0.0343503208584 -8.04863012898e-21)
(-0.00406730360788 0.0332048953998 -5.18478713973e-21)
(-0.00844279169932 0.0393953646971 -1.23513605121e-20)
(-0.00768601749656 0.0396002309874 -8.82397141965e-21)
(-0.0128512915542 0.0443834573605 -1.26866245318e-20)
(-0.0141741827867 0.0432231491195 -1.40564884248e-20)
(0.0362732189857 0.0542366266033 -1.08037673792e-20)
(-0.0187588680102 0.0377718413015 -1.17527594031e-20)
(-0.222783744681 0.0761386871193 -8.31961563802e-21)
(0.079592408504 0.0554318502108 -1.19909785294e-20)
(-0.555489935394 0.117667635365 -1.39779325849e-20)
(-0.00838186923862 0.0371945894271 -5.96012843041e-21)
(-0.00943692319703 0.0349399415238 -2.86337757326e-21)
(-0.0130949220516 0.0421800003086 -1.05290993323e-20)
(-0.0126812364227 0.041843167493 -5.01491549309e-21)
(-0.0196505161927 0.0459463355146 -1.3122623296e-20)
(-0.0179437168166 0.0445850356556 -1.13577550145e-20)
(0.0202331492559 0.0535001077119 -1.29399705533e-20)
(-0.0263130004994 0.038975591683 -1.90133488051e-20)
(-0.265895583642 0.0724003521937 -1.76492954762e-20)
(0.0606850901181 0.0550412544348 -6.93218033483e-21)
(-0.542190210297 0.0241052570423 -3.87742693474e-20)
(-0.0138770849506 0.0382859180686 -1.91816463593e-21)
(-0.0150102666114 0.0351348829603 -2.62281411124e-21)
(-0.0180269503837 0.0436937135183 -5.84357117527e-21)
(-0.0180956409994 0.0423474902476 -2.28521343129e-21)
(-0.0254618141604 0.0488586521604 -1.72484805235e-20)
(-0.0231106058275 0.0444609181836 -1.00949852711e-20)
(0.00654763380085 0.0561419067304 -1.30055585866e-20)
(-0.0335967071557 0.0405850849823 -2.18222903921e-20)
(-0.199768805511 0.0818587327394 -2.8057154206e-20)
(0.0349648452762 0.0579048687137 -1.45022164684e-20)
(-0.386865066542 -0.0292139820509 -3.51724062611e-20)
(-0.019505285535 0.0378308240661 -2.9898629066e-21)
(-0.0205047735152 0.0340820950916 -2.37965157757e-21)
(-0.0237292731983 0.0435864909513 -6.53662752709e-21)
(-0.0238546269506 0.0413905580882 -5.4781754277e-21)
(-0.0315177811078 0.049779790469 -1.46687951396e-20)
(-0.0293047511793 0.0424723766827 -1.00297567576e-20)
(-0.00481861974456 0.0557783733004 -2.33189482739e-20)
(-0.039595846221 0.0404690030348 -1.88647027486e-20)
(-0.148647595346 0.0646165360301 -2.16174685235e-20)
(0.026123488421 0.0591221260556 -2.64020022179e-20)
(-0.19838116904 -0.0153450577991 4.54812091789e-21)
(-0.025032461248 0.0359759088267 -4.86796409867e-21)
(-0.0298584226091 0.0417420819046 -8.97130465824e-21)
(-0.0375957836384 0.048525931047 -1.42256643666e-20)
(-0.0360885118055 0.0390286278523 -7.98991124981e-21)
(-0.0119804630238 0.0541212967846 -2.19477566926e-20)
(-0.0451918879332 0.0383572787549 -1.09137777852e-20)
(-0.0594219239888 0.0667100287078 -2.36412776516e-22)
(0.0135320329146 0.056943841355 -1.75130192281e-20)
(-0.0974025061675 0.0294860365828 1.25994890072e-20)
(-0.0436030006102 0.0451041419122 -4.67802466841e-21)
(-0.0424792396837 0.0342957431506 -2.80217076696e-21)
(-0.0224368944928 0.0505051643563 -6.47904032078e-21)
(-0.0505940410308 0.0342020134754 -7.75653991632e-22)
(-0.0365635248951 0.073928308091 -4.67711744444e-21)
(-0.00990031974355 0.0528681578026 -2.9658500089e-21)
(-0.0417824922543 0.0628576001548 5.1695558483e-21)
(-0.0488311711517 0.039454290435 1.10019990982e-21)
(-0.0475109418746 0.0284924175657 -1.49285834815e-22)
(-0.0362066677159 0.0436131787659 2.73753632024e-21)
(-0.0547564824446 0.0282340770934 -4.96726213899e-21)
(-0.0308688720531 0.0676460858548 6.88082328383e-21)
(-0.0339574042973 0.0457050632947 -5.30209940999e-21)
(-0.0444351167063 0.0575057540321 1.3614233449e-21)
(-0.0521329741418 0.0319252652078 -6.21674788363e-21)
(-0.0470359663241 0.0335640061321 -1.30068978692e-20)
(-0.0356979101494 0.0446128841426 -1.08214993489e-20)
)
;

boundaryField
{
    back
    {
        type            calculated;
        value           uniform (0 0 0);
    }
    sides
    {
        type            calculated;
        value           nonuniform List<vector> 0();
    }
    bottom
    {
        type            calculated;
        value           nonuniform List<vector> 0();
    }
    front
    {
        type            calculated;
        value           uniform (0 0 0);
    }
    atmosphere
    {
        type            calculated;
        value           nonuniform List<vector> 
27
(
(0 -0.152037085215 0)
(0.272217074675 0.0780384682112 1.61449138173e-18)
(-0.076999417086 0.600633220055 1.89538360345e-18)
(0 -0.189837718641 0)
(0 -0.0712180385884 0)
(0 -0.039522109651 0)
(0 -0.054300497908 0)
(0 -0.0505054103206 0)
(0 -0.0409370561753 0)
(0 -0.0316699232482 0)
(0 -0.0374321262585 0)
(0 -0.0414903567555 0)
(0 -0.0472327161966 0)
(0 -0.0679593401901 0)
(0 -0.104490280432 0)
(0 -0.219684226015 0)
(0 -0.0851378494325 0)
(0.487173095679 0.278152072491 -3.55882877188e-20)
(-0.022211325864 0.859619936194 -5.14607322861e-20)
(-0.531998028317 0.206101812869 -3.99817641786e-21)
(-0.595466706972 0.0590850277663 -2.39576887518e-20)
(0 -0.0734661381805 0)
(0 -0.123867300394 0)
(0 -0.0342720449315 0)
(-0.0760134096701 0.0182977064916 -6.51226400621e-22)
(-0.0418312477246 0.0702855407423 1.09903380972e-20)
(-0.0325839429003 0.0227736721456 -8.26749140742e-21)
)
;
    }
    floatingObject
    {
        type            calculated;
        value           nonuniform List<vector> 4((0 0 0) (0 0 0) (-1.38777878078e-16 0 0) (0 0 0));
    }
    procBoundary6to3
    {
        type            processor;
        value           nonuniform List<vector> 8((-0.0442455022155 -0.00581916274738 8.71632968274e-18) (-0.0157548063857 -0.0043544371232 6.65309404023e-18) (0.00158943551623 -0.00996549787388 3.67188439835e-18) (0.0133467190504 -0.00897016028476 2.16611235831e-18) (0.0182097769079 -0.0140284229868 1.35991479968e-18) (0.0187704310966 0.00331325187775 1.13422489911e-18) (0.043570715943 -0.000746196828642 1.01669306138e-18) (0.116866194477 -0.0664742395041 9.26431114136e-19));
    }
    procBoundary6to7
    {
        type            processor;
        value           nonuniform List<vector> 
11
(
(0.00249046092694 0.0258805221724 -4.24907332995e-21)
(-0.00161387086866 0.0295255221854 -5.15726588823e-21)
(-0.00658378237917 0.0318544416441 -1.89228347731e-21)
(-0.0119316264478 0.0327340921688 -1.8969588077e-21)
(-0.0172133756936 0.0323484822518 -1.43738004114e-21)
(-0.0221839381842 0.03092365321 -1.58734094196e-21)
(-0.0255612482552 0.0320642456456 -2.28858286734e-21)
(-0.029621466625 0.0392549213433 -7.03654870536e-21)
(-0.03589608629 0.0387124710057 -6.05515529692e-21)
(-0.0411401422581 0.0344191886201 -1.29771606775e-21)
(-0.0449482256856 0.0290088208149 9.41594842172e-22)
)
;
    }
    procBoundary6to8
    {
        type            processor;
        value           nonuniform List<vector> 
16
(
(0.0435396924035 -0.00627800929534 8.73169161706e-18)
(0.014706998844 -0.00507957230749 6.66306808562e-18)
(0.00774148754821 0.00372276024789 5.84992503051e-18)
(0.0120137152865 0.0050227524915 4.06880893806e-18)
(0.00946129400348 0.00423162966154 1.6647247436e-18)
(0.00846293175188 0.00526016470148 3.66630888252e-19)
(0.00788600494947 0.00555640533587 4.18737432031e-20)
(0.007321744369 0.00571579513856 6.80861210505e-22)
(0.00725896368795 0.00564243661346 -6.39384962684e-21)
(0.00757828650974 0.0056906767081 -1.17672599627e-20)
(0.00851240567826 0.00638701330414 -1.52020768028e-20)
(0.00916705892595 0.00845022596356 -1.13823440408e-20)
(0.00912614997517 0.0110942883855 -1.16022521644e-20)
(0.00869732460635 0.0137210412651 -7.79493194206e-21)
(0.00769342106891 0.0171342189565 -4.5232718412e-21)
(0.00562005415414 0.0214733804622 -2.81225047342e-21)
)
;
    }
    procBoundary6to9
    {
        type            processor;
        value           nonuniform List<vector> 4((-0.050423404314 0.0220265917253 -4.73727085156e-21) (-0.0564039151045 0.0211927763116 -1.71063571032e-20) (-0.0450319996787 0.0341957478148 -1.73398058401e-20) (-0.0226141423814 0.0294578095257 -5.08840804974e-21));
    }
}


// ************************************************************************* //
