/*--------------------------------*- C++ -*----------------------------------*\
| =========                 |                                                 |
| \\      /  F ield         | OpenFOAM: The Open Source CFD Toolbox           |
|  \\    /   O peration     | Version:  v2012                                 |
|   \\  /    A nd           | Website:  www.openfoam.com                      |
|    \\/     M anipulation  |                                                 |
\*---------------------------------------------------------------------------*/
FoamFile
{
    version     2.0;
    format      ascii;
    class       volScalarField;
    location    "0.4";
    object      epsilon_0;
}
// * * * * * * * * * * * * * * * * * * * * * * * * * * * * * * * * * * * * * //

dimensions      [0 2 -3 0 0 0 0];


internalField   nonuniform List<scalar> 
166
(
0.0792973134536
0.0793125298907
0.0793286669084
0.0793454359727
0.0793625281461
0.0793796774635
0.0793969132457
0.0794177139401
0.0794782725528
0.079877102965
0.0826304412816
0.098599570357
0.17280209584
0.0793268759116
0.0793395848948
0.0793536033451
0.0793688641912
0.0793851041429
0.0794020364967
0.0794193614188
0.0794368039987
0.0794544367292
0.0794761629363
0.0795415176309
0.0799687456468
0.0828528722784
0.0991802406335
0.173248879268
0.081706653146
0.0766356300898
0.0793722569455
0.0793859188932
0.0793987959395
0.0794130411756
0.0794285919856
0.0794451926454
0.0794625564183
0.0794803815691
0.0794983883974
0.0795166945255
0.0795397049298
0.0796108139409
0.0800704935014
0.0830998343392
0.0998143319219
0.173735129868
0.0817944463366
0.0766976529128
0.0790755477587
0.0793924831384
0.0794337573653
0.0794477292692
0.0794609966194
0.0794757175754
0.0794918323319
0.0795090857157
0.0795271871568
0.0795458269637
0.079564718484
0.0795840299258
0.079608759431
0.0796867661758
0.0801835672764
0.0833741220631
0.100506330824
0.174264152815
0.0818846085399
0.0767617301434
0.0791390879374
0.0794561671989
0.0794978303416
0.0795123252068
0.0795262337701
0.079541714313
0.0795587059069
0.0795769492334
0.0795961449103
0.0796159702464
0.0796361272358
0.0796568430989
0.0796838182615
0.0797700885162
0.0803094074278
0.0836789835711
0.101261397103
0.174839899992
0.0819767793836
0.0768277207074
0.0792047799683
0.0795221792493
0.0795644315047
0.079579692937
0.0795945292942
0.0796110954481
0.0796293256194
0.0796489517897
0.0796696607737
0.0796911111151
0.0797129887212
0.0797355903284
0.0797654511164
0.0798616212291
0.0804497157
0.0840182013738
0.102085475271
0.175467163936
0.0820704758839
0.0768954092699
0.0792724683228
0.0795903966608
0.0796334682976
0.0796497750627
0.0796658685312
0.079683897374
0.07970378745
0.079725257595
0.0797479756762
0.0797715749405
0.0797957199097
0.0798207904188
0.0798543174557
0.0799623549362
0.0806065066261
0.0843961871087
0.102985417743
0.176151845982
0.0821650643015
0.0769644946802
0.0793419264829
0.0796606305067
0.0797047869593
0.0797224600773
0.0797401914937
0.0797601214691
0.0797821654913
0.0798060230943
0.0798313382423
0.0798577121601
0.0798847826386
0.079913030712
0.0799511795928
0.0800734580215
0.0807821664983
0.0848180883316
0.103969107024
0.176901300144
0.0822597373638
0.0770345744202
0.0794128408101
0.0797326121607
0.0797781612694
0.0797975722407
0.0798173821506
0.0798397260475
0.0798645008153
0.0798913871176
0.0799199973205
0.0799498947752
0.0799806857058
0.0800129758458
0.0800569198876
0.0801963095
0.080979522978
0.0852899278994
0.105045596446
0.177724669739
)
;

boundaryField
{
    back
    {
        lowReCorrection 0;
        blending        stepwise;
        n               2;
        type            epsilonWallFunction;
        value           nonuniform List<scalar> 
166
(
0.0792973134536
0.0793125298907
0.0793286669084
0.0793454359727
0.0793625281461
0.0793796774635
0.0793969132457
0.0794177139401
0.0794782725528
0.079877102965
0.0826304412816
0.098599570357
0.17280209584
0.0793268759116
0.0793395848948
0.0793536033451
0.0793688641912
0.0793851041429
0.0794020364967
0.0794193614188
0.0794368039987
0.0794544367292
0.0794761629363
0.0795415176309
0.0799687456468
0.0828528722784
0.0991802406335
0.173248879268
0.081706653146
0.0766356300898
0.0793722569455
0.0793859188932
0.0793987959395
0.0794130411756
0.0794285919856
0.0794451926454
0.0794625564183
0.0794803815691
0.0794983883974
0.0795166945255
0.0795397049298
0.0796108139409
0.0800704935014
0.0830998343392
0.0998143319219
0.173735129868
0.0817944463366
0.0766976529128
0.0790755477587
0.0793924831384
0.0794337573653
0.0794477292692
0.0794609966194
0.0794757175754
0.0794918323319
0.0795090857157
0.0795271871568
0.0795458269637
0.079564718484
0.0795840299258
0.079608759431
0.0796867661758
0.0801835672764
0.0833741220631
0.100506330824
0.174264152815
0.0818846085399
0.0767617301434
0.0791390879374
0.0794561671989
0.0794978303416
0.0795123252068
0.0795262337701
0.079541714313
0.0795587059069
0.0795769492334
0.0795961449103
0.0796159702464
0.0796361272358
0.0796568430989
0.0796838182615
0.0797700885162
0.0803094074278
0.0836789835711
0.101261397103
0.174839899992
0.0819767793836
0.0768277207074
0.0792047799683
0.0795221792493
0.0795644315047
0.079579692937
0.0795945292942
0.0796110954481
0.0796293256194
0.0796489517897
0.0796696607737
0.0796911111151
0.0797129887212
0.0797355903284
0.0797654511164
0.0798616212291
0.0804497157
0.0840182013738
0.102085475271
0.175467163936
0.0820704758839
0.0768954092699
0.0792724683228
0.0795903966608
0.0796334682976
0.0796497750627
0.0796658685312
0.079683897374
0.07970378745
0.079725257595
0.0797479756762
0.0797715749405
0.0797957199097
0.0798207904188
0.0798543174557
0.0799623549362
0.0806065066261
0.0843961871087
0.102985417743
0.176151845982
0.0821650643015
0.0769644946802
0.0793419264829
0.0796606305067
0.0797047869593
0.0797224600773
0.0797401914937
0.0797601214691
0.0797821654913
0.0798060230943
0.0798313382423
0.0798577121601
0.0798847826386
0.079913030712
0.0799511795928
0.0800734580215
0.0807821664983
0.0848180883316
0.103969107024
0.176901300144
0.0822597373638
0.0770345744202
0.0794128408101
0.0797326121607
0.0797781612694
0.0797975722407
0.0798173821506
0.0798397260475
0.0798645008153
0.0798913871176
0.0799199973205
0.0799498947752
0.0799806857058
0.0800129758458
0.0800569198876
0.0801963095
0.080979522978
0.0852899278994
0.105045596446
0.177724669739
)
;
    }
    sides
    {
        lowReCorrection 0;
        blending        stepwise;
        n               2;
        type            epsilonWallFunction;
        value           nonuniform List<scalar> 0();
    }
    bottom
    {
        lowReCorrection 0;
        blending        stepwise;
        n               2;
        type            epsilonWallFunction;
        value           nonuniform List<scalar> 7(0.081706653146 0.0817944463366 0.0818846085399 0.0819767793836 0.0820704758839 0.0821650643015 0.0822597373638);
    }
    front
    {
        lowReCorrection 0;
        blending        stepwise;
        n               2;
        type            epsilonWallFunction;
        value           nonuniform List<scalar> 
166
(
0.0792973134536
0.0793125298907
0.0793286669084
0.0793454359727
0.0793625281461
0.0793796774635
0.0793969132457
0.0794177139401
0.0794782725528
0.079877102965
0.0826304412816
0.098599570357
0.17280209584
0.0793268759116
0.0793395848948
0.0793536033451
0.0793688641912
0.0793851041429
0.0794020364967
0.0794193614188
0.0794368039987
0.0794544367292
0.0794761629363
0.0795415176309
0.0799687456468
0.0828528722784
0.0991802406335
0.173248879268
0.081706653146
0.0766356300898
0.0793722569455
0.0793859188932
0.0793987959395
0.0794130411756
0.0794285919856
0.0794451926454
0.0794625564183
0.0794803815691
0.0794983883974
0.0795166945255
0.0795397049298
0.0796108139409
0.0800704935014
0.0830998343392
0.0998143319219
0.173735129868
0.0817944463366
0.0766976529128
0.0790755477587
0.0793924831384
0.0794337573653
0.0794477292692
0.0794609966194
0.0794757175754
0.0794918323319
0.0795090857157
0.0795271871568
0.0795458269637
0.079564718484
0.0795840299258
0.079608759431
0.0796867661758
0.0801835672764
0.0833741220631
0.100506330824
0.174264152815
0.0818846085399
0.0767617301434
0.0791390879374
0.0794561671989
0.0794978303416
0.0795123252068
0.0795262337701
0.079541714313
0.0795587059069
0.0795769492334
0.0795961449103
0.0796159702464
0.0796361272358
0.0796568430989
0.0796838182615
0.0797700885162
0.0803094074278
0.0836789835711
0.101261397103
0.174839899992
0.0819767793836
0.0768277207074
0.0792047799683
0.0795221792493
0.0795644315047
0.079579692937
0.0795945292942
0.0796110954481
0.0796293256194
0.0796489517897
0.0796696607737
0.0796911111151
0.0797129887212
0.0797355903284
0.0797654511164
0.0798616212291
0.0804497157
0.0840182013738
0.102085475271
0.175467163936
0.0820704758839
0.0768954092699
0.0792724683228
0.0795903966608
0.0796334682976
0.0796497750627
0.0796658685312
0.079683897374
0.07970378745
0.079725257595
0.0797479756762
0.0797715749405
0.0797957199097
0.0798207904188
0.0798543174557
0.0799623549362
0.0806065066261
0.0843961871087
0.102985417743
0.176151845982
0.0821650643015
0.0769644946802
0.0793419264829
0.0796606305067
0.0797047869593
0.0797224600773
0.0797401914937
0.0797601214691
0.0797821654913
0.0798060230943
0.0798313382423
0.0798577121601
0.0798847826386
0.079913030712
0.0799511795928
0.0800734580215
0.0807821664983
0.0848180883316
0.103969107024
0.176901300144
0.0822597373638
0.0770345744202
0.0794128408101
0.0797326121607
0.0797781612694
0.0797975722407
0.0798173821506
0.0798397260475
0.0798645008153
0.0798913871176
0.0799199973205
0.0799498947752
0.0799806857058
0.0800129758458
0.0800569198876
0.0801963095
0.080979522978
0.0852899278994
0.105045596446
0.177724669739
)
;
    }
    atmosphere
    {
        type            inletOutlet;
        inletValue      uniform 0.1;
        value           uniform 0.1;
    }
    floatingObject
    {
        lowReCorrection 0;
        blending        stepwise;
        n               2;
        type            epsilonWallFunction;
        value           nonuniform List<scalar> 0();
    }
    procBoundary0to1
    {
        type            processor;
        value           nonuniform List<scalar> 10(0.0792925185548 0.0793096058315 0.0793266914082 0.079343771932 0.079363954107 0.0794205433812 0.0797945249801 0.0824301493887 0.0980684330991 0.172391996814);
    }
    procBoundary0to2
    {
        type            processor;
        value           nonuniform List<scalar> 
14
(
0.0792440536332
0.0792594311879
0.0792756886138
0.0792705372895
0.0792832896371
0.0792832896371
0.0816214573658
0.0765757305538
0.0793133171199
0.0793133171199
0.0790142310528
0.0790142310528
0.0793311820141
0.0793311820141
)
;
    }
    procBoundary0to4
    {
        type            processor;
        value           nonuniform List<scalar> 8(0.082353498196 0.077105133274 0.0794847965132 0.0798059757538 0.0798532707824 0.079874846563 0.0798972478376 0.0799225991907);
    }
    procBoundary0to5
    {
        type            processor;
        value           nonuniform List<scalar> 
12
(
0.0799507806736
0.0799814568045
0.0800141949044
0.0800485158407
0.0800839903505
0.0801213789076
0.0801725602482
0.0803325379861
0.0812019291041
0.0858187770632
0.10622530437
0.178633398031
)
;
    }
}


// ************************************************************************* //
