/*--------------------------------*- C++ -*----------------------------------*\
| =========                 |                                                 |
| \\      /  F ield         | OpenFOAM: The Open Source CFD Toolbox           |
|  \\    /   O peration     | Version:  v2012                                 |
|   \\  /    A nd           | Website:  www.openfoam.com                      |
|    \\/     M anipulation  |                                                 |
\*---------------------------------------------------------------------------*/
FoamFile
{
    version     2.0;
    format      ascii;
    class       volVectorField;
    location    "0.4";
    object      U;
}
// * * * * * * * * * * * * * * * * * * * * * * * * * * * * * * * * * * * * * //

dimensions      [0 1 -1 0 0 0 0];


internalField   nonuniform List<vector> 
166
(
(0.0577232175787 -0.0320198656391 1.00917174824e-24)
(0.0568952607994 -0.036390803202 1.75385009422e-24)
(0.0558983882645 -0.0407730539824 2.07946333257e-24)
(0.0547129770374 -0.0451553243096 1.15782554068e-24)
(0.0533192576538 -0.0495223621383 7.53407725889e-24)
(0.0516980236399 -0.0538547960785 -3.13209949549e-25)
(0.0498315003567 -0.0581288716587 2.52253804488e-24)
(0.0477041607874 -0.0623156621632 -1.32592260639e-23)
(0.0453013512801 -0.06639083827 -5.40318414452e-25)
(0.0426076819631 -0.0703629402649 -4.11245433283e-23)
(0.0395887349559 -0.0739945832132 -9.37254570676e-23)
(0.0351609570637 -0.0755874312478 -3.66923018505e-23)
(0.0241166872931 -0.0816615074072 -1.64625656003e-22)
(0.0633185512562 -0.0238139599377 -3.81403419808e-25)
(0.0628053166175 -0.0282681312029 2.2247179213e-25)
(0.0621576638221 -0.0327636354429 -1.01880121407e-25)
(0.0613547514164 -0.0372978658185 1.76987773899e-24)
(0.0603739923818 -0.0418644510722 2.18847128913e-24)
(0.0591916475879 -0.0464527109238 3.50973881398e-24)
(0.0577835423273 -0.051047281245 1.12166307246e-23)
(0.0561258893958 -0.0556278466841 3.027255143e-24)
(0.0541963058757 -0.0601687325175 1.1194648797e-23)
(0.0519747856242 -0.0646378583358 8.31468063503e-24)
(0.049442243281 -0.0690080911391 1.27221126141e-23)
(0.0465796821278 -0.0732893280444 8.30738455571e-23)
(0.0433518347851 -0.0772115673881 1.94045230033e-22)
(0.0385836622412 -0.0789012345007 4.64560362351e-24)
(0.0268002896284 -0.0856349419979 -4.34910067407e-22)
(0.0674682128761 -0.00257201415932 3.26034950754e-23)
(0.0685618147548 -0.00631160234633 5.48259059226e-22)
(0.0681574575313 -0.0197306081581 -3.75839201452e-24)
(0.0678069777814 -0.0242493831321 6.96607899333e-25)
(0.0673442383905 -0.0288283194924 9.00620752238e-25)
(0.0667474126116 -0.033469964502 1.62016546258e-24)
(0.0659918595338 -0.0381739395348 6.67300908544e-25)
(0.0650506625253 -0.0429355539764 2.44670338524e-24)
(0.0638952605502 -0.0477451198271 3.52480291906e-24)
(0.0624962401182 -0.0525874394084 6.49388087593e-24)
(0.0608242862644 -0.0574414060498 -2.5019262131e-24)
(0.0588513513656 -0.0622793977417 4.0357898791e-24)
(0.0565518233614 -0.0670658526036 -1.28018717872e-23)
(0.0539009492228 -0.071770581175 1.9103990114e-23)
(0.0508750769581 -0.0764055652731 1.61736656754e-22)
(0.04743899555 -0.0806612610847 5.12913007677e-22)
(0.042321847344 -0.0824654655311 -2.32613311757e-22)
(0.0298274480704 -0.0899812336391 -1.0637012005e-21)
(0.0717704785593 -0.00260785568533 -2.92003842196e-22)
(0.0729591692519 -0.00637838256126 7.36892746347e-22)
(0.0730160362423 -0.010919794783 -8.39445497494e-23)
(0.0728938396253 -0.0154618216225 -6.70653949225e-23)
(0.0726933813226 -0.0200084399059 -6.89050792206e-24)
(0.072408305163 -0.0246268412108 -2.84216745405e-24)
(0.0720176693427 -0.0293272690442 -4.24243644841e-24)
(0.071496024985 -0.0341155165427 6.25967279851e-24)
(0.0708144321429 -0.0389940452361 -3.69273411271e-25)
(0.0699410052201 -0.043960415637 4.3365981056e-25)
(0.0688415790905 -0.0490064475581 8.16301817307e-25)
(0.0674805641827 -0.0541175336288 6.56631917217e-24)
(0.065822010092 -0.0592720630782 -9.53774508245e-24)
(0.0638309468488 -0.0644405462894 4.59897383919e-24)
(0.0614747629761 -0.06958365293 -1.81076958681e-23)
(0.0587214870322 -0.0746679573738 4.81824406679e-23)
(0.055541457539 -0.0797085611498 6.68056083499e-23)
(0.0519006361537 -0.0843477770542 -1.37148590915e-21)
(0.0464286027549 -0.0862887160589 -2.90734773947e-22)
(0.0332786462588 -0.0947392603794 -1.33308860142e-21)
(0.0761122708397 -0.00263427786805 -4.78039495874e-22)
(0.0774021601142 -0.00641961870787 -3.9948835792e-22)
(0.0775062028022 -0.0110061957002 -1.52428911341e-22)
(0.0774415839733 -0.0156015759293 -7.46038019682e-23)
(0.0773142729625 -0.0202166974862 -5.9168206036e-24)
(0.0771160286729 -0.0249247465666 2.48643733504e-24)
(0.0768227146378 -0.0297401482628 -4.55562373018e-24)
(0.0764048711081 -0.0346726743826 8.79218150157e-25)
(0.0758287496973 -0.0397283564355 -4.58928247602e-25)
(0.0750568337126 -0.0449077336014 -1.36057859901e-25)
(0.0740485081173 -0.0502048240599 -6.4991818485e-25)
(0.0727609575965 -0.0556062189424 -1.756998974e-25)
(0.0711503264873 -0.0610902789931 -1.64809381446e-23)
(0.0691732313199 -0.066625894813 -9.57433835765e-24)
(0.0667883560842 -0.072169771916 -2.07773228765e-23)
(0.0639545533541 -0.0776852188733 9.3036646112e-24)
(0.0606343817498 -0.083191934123 -4.06065119316e-23)
(0.056796260396 -0.0882732479755 -7.8693601293e-22)
(0.0509678120285 -0.0903787900422 -3.92455239769e-22)
(0.0372607332306 -0.0999572931931 -7.73512571107e-22)
(0.0804743760842 -0.00264852417512 -4.75038166473e-22)
(0.0818718442004 -0.0064284316589 -1.05878094196e-22)
(0.0820330028773 -0.0110391554065 -3.36515072211e-23)
(0.0820409442766 -0.0156682250018 -5.45320131114e-23)
(0.082006678442 -0.020334607725 -9.27902959897e-24)
(0.0819199359295 -0.025118063485 -9.14057378259e-24)
(0.0817531371571 -0.0300379786576 -1.56891877242e-25)
(0.0814724763921 -0.0351089472653 5.07256338574e-24)
(0.0810389093286 -0.0403414598041 -4.23301929435e-24)
(0.0804086178936 -0.0457399471593 9.29684780318e-25)
(0.0795336464038 -0.0513015301797 1.49204066353e-24)
(0.0783628078102 -0.0570148456306 9.90562760324e-26)
(0.0768429098071 -0.0628589589108 -1.69156025504e-23)
(0.0749204160952 -0.0688016407931 -2.83175439796e-24)
(0.0725432454319 -0.0747956133141 -3.05230074316e-23)
(0.0696586206616 -0.0808011853116 3.923770415e-24)
(0.0662189472641 -0.0868448002539 -1.36730221152e-22)
(0.0621962658366 -0.0924369177567 -1.38458804207e-21)
(0.0560160809376 -0.0947419587402 1.50900803485e-22)
(0.0419176215505 -0.105695504769 -2.91328078288e-22)
(0.0848326796189 -0.00264746232384 -3.88427852234e-22)
(0.0863443002793 -0.00639705792895 2.72884946713e-22)
(0.0865736847929 -0.0110054716802 1.92716834991e-22)
(0.0866710940518 -0.0156432012836 8.71469716548e-24)
(0.0867524455497 -0.0203384033015 -1.02218322071e-23)
(0.0868053309876 -0.0251779964065 -6.15387498913e-24)
(0.086798573276 -0.0301871909163 -6.5865305614e-24)
(0.0866937362127 -0.0353863798331 -9.82908457226e-24)
(0.086446045412 -0.040791582393 -3.66498703293e-24)
(0.0860047465728 -0.0464122536133 -2.65435745814e-24)
(0.0853136424637 -0.0522497818909 3.0348361013e-24)
(0.0843119604762 -0.0582959976309 4.64068669098e-24)
(0.082935597722 -0.0645317441148 3.49081617909e-25)
(0.0811188844377 -0.0709245294219 1.79399089779e-23)
(0.0787965451391 -0.0774233719999 1.03437932017e-23)
(0.0759011869941 -0.0839864125008 1.37049341428e-23)
(0.0723719238594 -0.0906501902689 9.55635710973e-23)
(0.0681847069858 -0.0968345487875 6.19431688307e-23)
(0.0616633815652 -0.0993825103693 -5.75114669912e-22)
(0.0474428712481 -0.112026684229 -5.32310971307e-22)
(0.0891575478598 -0.00262756132405 -2.74988576172e-22)
(0.0907899755358 -0.00631681775886 4.94969016413e-23)
(0.0910998813832 -0.010890329223 3.51923545224e-23)
(0.0913056382609 -0.0155056026371 -5.04414814401e-23)
(0.0915279331033 -0.0202011872278 -1.27059418659e-23)
(0.0917522020747 -0.0250717196362 -1.17899098278e-24)
(0.0919436161718 -0.0301492145749 -1.85381303311e-25)
(0.0920589419697 -0.0354609868138 -4.56183572969e-25)
(0.0920473409542 -0.0410298216316 -9.93173600135e-24)
(0.0918505503711 -0.0468715816098 2.28488250488e-24)
(0.0914032831128 -0.0529934058596 1.67059615824e-24)
(0.0906339477074 -0.0593918364727 3.09368276594e-24)
(0.0894658545453 -0.0660509993139 4.52592447847e-24)
(0.0878190111279 -0.0729394685844 1.54716948168e-23)
(0.0856121933175 -0.0800032682265 -2.49401194726e-23)
(0.082760004765 -0.0872001306194 4.14234336398e-23)
(0.0791846928242 -0.094582397344 1.35782040999e-22)
(0.0748661785643 -0.101459627447 1.26818116049e-21)
(0.0680096151629 -0.104305862244 -4.59209577129e-22)
(0.0540838951356 -0.119032678575 -2.28774300328e-21)
(0.0934132161205 -0.00258488681557 -3.80555816404e-22)
(0.0951730337337 -0.0061781329045 5.16290566887e-22)
(0.0955768931747 -0.0106773005703 -4.19546906477e-23)
(0.0959118253003 -0.0152321434104 -5.47754789283e-23)
(0.0963031556331 -0.0198928317789 -1.40048220315e-23)
(0.0967342641615 -0.0247622296058 -1.5702447675e-24)
(0.0971667602872 -0.0298801953615 -9.25394913502e-24)
(0.0975526185537 -0.0352822335537 8.38453707302e-24)
(0.0978347712148 -0.0409993752992 8.07635218417e-25)
(0.0979470287628 -0.047055529758 -4.58411985416e-24)
(0.0978142438335 -0.0534654130073 8.989620965e-24)
(0.0973528394948 -0.0602322565763 -8.54738898126e-25)
(0.0964718229516 -0.0673455040632 7.24683499482e-24)
(0.0950745270319 -0.074776696439 1.85811450047e-23)
(0.0930607499724 -0.0824700433061 -2.27181212123e-23)
(0.090323450328 -0.0903856158297 3.20285458473e-23)
(0.0867643586001 -0.0985991488674 2.80290083459e-23)
(0.0823672534312 -0.106284842943 -1.12508989508e-21)
(0.0751749134292 -0.109508436226 -2.30722831502e-21)
(0.0622058404638 -0.126839541805 -3.15296374957e-21)
)
;

boundaryField
{
    back
    {
        type            noSlip;
    }
    sides
    {
        type            noSlip;
    }
    bottom
    {
        type            noSlip;
    }
    front
    {
        type            noSlip;
    }
    atmosphere
    {
        type            pressureInletOutletVelocity;
        value           nonuniform List<vector> 9((0 -0.0816615074072 0) (0 -0.0856349419979 0) (0 -0.0899812336391 0) (0 -0.0947392603794 0) (0 -0.0999572931931 0) (0 -0.105695504769 0) (0 -0.112026684229 0) (0 -0.119032678575 0) (0 -0.126839541805 0));
    }
    floatingObject
    {
        type            movingWallVelocity;
        value           nonuniform List<vector> 0();
    }
    procBoundary0to1
    {
        type            processor;
        value           nonuniform List<vector> 10((0.0504418810366 -0.0438741732453 -4.20355316159e-24) (0.0490814918766 -0.0480329267675 -3.12288822013e-25) (0.0475142376515 -0.0521406350183 -8.86584313826e-24) (0.0457260814202 -0.056175365029 -4.49774830914e-24) (0.0437050538835 -0.0601110016201 -1.19221898845e-23) (0.0414399593972 -0.0639257239823 4.0987841451e-24) (0.0389181803205 -0.0676272123769 -1.50223431676e-23) (0.0361068723248 -0.0710050575006 -1.99019987954e-22) (0.0320094808515 -0.0725153113607 1.19608125594e-24) (0.0217149351383 -0.0780292782852 3.0133628415e-23));
    }
    procBoundary0to2
    {
        type            processor;
        value           nonuniform List<vector> 
14
(
(0.0534388213811 -0.0312582666443 1.01129445255e-24)
(0.0526044304894 -0.0354735590492 1.86314477623e-24)
(0.0516108321835 -0.0396827337704 2.18167419939e-24)
(0.058946432238 -0.0233390869569 -1.05893019656e-24)
(0.058401104757 -0.0276678457552 -4.69189823214e-25)
(0.058401104757 -0.0276678457552 -4.69189823214e-25)
(0.0632203560661 -0.00252913087189 -1.5806634844e-22)
(0.0642246416364 -0.00622528101846 1.95387657112e-22)
(0.0637159459037 -0.0194012238937 -9.74623664476e-25)
(0.0637159459037 -0.0194012238937 -9.74623664476e-25)
(0.0685803048646 -0.0107915942361 4.63038374344e-23)
(0.0685803048646 -0.0107915942361 4.63038374344e-23)
(0.0684136767424 -0.0152652595271 -3.94611070911e-23)
(0.0684136767424 -0.0152652595271 -3.94611070911e-23)
)
;
    }
    procBoundary0to4
    {
        type            processor;
        value           nonuniform List<vector> 8((0.097557199348 -0.00251511884815 -8.64277403747e-23) (0.0994507124419 -0.00597059279361 -1.51305120371e-22) (0.0999629827114 -0.0103484263389 -1.40105242368e-22) (0.100449737686 -0.0147972269355 -8.16040261669e-23) (0.101040835093 -0.0193799904993 -1.03535096163e-23) (0.101717863395 -0.0242082306221 6.35923993964e-24) (0.102439169536 -0.0293307560776 -8.17225748166e-25) (0.103152156453 -0.0347926413758 1.6593917049e-25));
    }
    procBoundary0to5
    {
        type            processor;
        value           nonuniform List<vector> 
12
(
(0.103793596175 -0.0406348384083 -1.34529316307e-23)
(0.104289209823 -0.0468913009147 4.18138401907e-25)
(0.104553423905 -0.053586537406 1.14215471921e-23)
(0.104489617456 -0.0607329325792 -4.34489374613e-24)
(0.103990845332 -0.0683279456065 2.72060534615e-24)
(0.102941301204 -0.0763486763641 -4.72079920531e-24)
(0.101218514204 -0.0847392351067 -2.59648223872e-23)
(0.0986899090015 -0.0934659535219 5.5762754637e-23)
(0.0952327498231 -0.102636972719 -1.23103971922e-22)
(0.0908340285633 -0.111259819573 -1.71406995575e-21)
(0.0833190273997 -0.114989979332 -8.06999991217e-22)
(0.0723313016487 -0.135638651574 -3.20735517565e-21)
)
;
    }
}


// ************************************************************************* //
