/*--------------------------------*- C++ -*----------------------------------*\
| =========                 |                                                 |
| \\      /  F ield         | OpenFOAM: The Open Source CFD Toolbox           |
|  \\    /   O peration     | Version:  v2012                                 |
|   \\  /    A nd           | Website:  www.openfoam.com                      |
|    \\/     M anipulation  |                                                 |
\*---------------------------------------------------------------------------*/
FoamFile
{
    version     2.0;
    format      ascii;
    class       volVectorField;
    location    "3.5";
    object      ddtCorrDdt0(U);
}
// * * * * * * * * * * * * * * * * * * * * * * * * * * * * * * * * * * * * * //

dimensions      [0 1 -2 0 0 0 0];


internalField   nonuniform List<vector> 
167
(
(-0.00187765649514 0.0300298898478 -2.64598602759e-22)
(-0.00212078518268 0.0346591289107 -7.15705984543e-23)
(-0.00246395556714 0.0399301777797 -1.91267757411e-22)
(-0.00297490503355 0.0461286489081 -1.56381701732e-22)
(-0.00368370180096 0.0535153587312 -5.48397168679e-22)
(-0.0046143248522 0.0629175204652 -7.49044660385e-22)
(-0.00601526418633 0.075280451993 -1.0200650366e-21)
(-0.00738578780342 0.0849326533578 5.757467775e-21)
(-0.00597230517078 0.0825115283231 1.25310206901e-20)
(0.0261727878732 0.0590685039397 2.94521166518e-21)
(0.12379586245 0.215700271124 -1.04113182484e-19)
(0.00438377651824 0.122880152903 -1.22787695377e-20)
(-0.00642865627065 0.0292414421865 2.09905055265e-22)
(-0.00718394756273 0.0336428866806 -6.70540890105e-22)
(-0.00823461159277 0.0386165584996 -3.23712345621e-23)
(-0.00969046440841 0.0443950161643 -2.36533127249e-22)
(-0.0116629406249 0.0512233424513 -1.03928664972e-21)
(-0.0141800453965 0.0599390731262 -1.56842515032e-21)
(-0.0167835031834 0.0706208975661 -2.52129596019e-21)
(-0.0192926894796 0.0787394855371 7.19490791381e-22)
(-0.0250721604565 0.0718514734306 8.97012165739e-21)
(-0.0401839691079 0.0406395307055 1.64470072201e-20)
(-0.109026737147 0.22609137595 4.40432437488e-20)
(0.042011624472 0.276504732282 3.85136649222e-20)
(-0.0104039598465 0.0283763150835 -5.93897534845e-23)
(-0.0115877705542 0.0324176367631 6.81294121777e-23)
(-0.0132592442069 0.0369199531604 1.72431417999e-23)
(-0.0155821870552 0.0420591473129 -2.99575339196e-22)
(-0.0187538633408 0.0480605496442 -5.23019296263e-22)
(-0.0229529326717 0.0556459734682 -6.06422161662e-22)
(-0.0279216181442 0.065248634787 -5.8736387546e-21)
(-0.0318472644696 0.0743306972807 2.67223219011e-21)
(-0.0318580867449 0.0722082543715 -1.13990147262e-20)
(-0.0649442116897 0.0427571629837 3.93665748859e-21)
(-0.294312095997 0.17346279501 -4.1754613677e-20)
(-0.0293769495308 0.204060912744 2.37161101509e-20)
(-0.0154283248702 0.0307089281157 8.67794533059e-24)
(-0.0175269019639 0.0345310613023 -6.07780317799e-23)
(-0.0204738020445 0.0387869392322 -1.17558541478e-22)
(-0.0245344080321 0.0436569301739 -3.16883073137e-22)
(-0.0301081447267 0.0498212406965 -3.81226159377e-22)
(-0.037276178169 0.0576365718113 -2.39522043019e-21)
(-0.044332672656 0.0657694242353 -2.81999395692e-21)
(-0.043823822834 0.0666316261455 -4.17438318314e-21)
(-0.0845536565889 0.0425486560059 4.79712385452e-21)
(-0.396104520475 0.0858654200336 8.66220035756e-21)
(-0.0811804587419 0.0276781626572 2.73360643092e-20)
(-0.0209934661434 0.0317373489601 -5.75869022882e-23)
(-0.0243078935037 0.0349029153868 -2.11185190747e-22)
(-0.0289803652845 0.0383140945023 -4.69755991554e-22)
(-0.0355500119015 0.0424918646238 6.57849254452e-22)
(-0.0445428122124 0.0478574314901 1.91049601019e-22)
(-0.0546620289881 0.0537934468282 4.28928339754e-22)
(-0.0587219263593 0.0565134744552 -9.92659474378e-21)
(-0.0971002790762 0.0401197533074 9.86827241254e-21)
(0.0855895468588 0.0349285641002 6.92620270576e-21)
(-0.150991166866 -0.00856831701695 2.19157717781e-20)
(-0.0234753176768 0.028807486797 -5.66537738529e-23)
(-0.0268112390148 0.0307225827796 -1.79522609688e-22)
(-0.0316475937788 0.0324457737865 -8.3809799546e-22)
(-0.0385501717696 0.0342574663943 7.00493588461e-23)
(-0.0484946955905 0.0365271578614 2.57082989035e-22)
(-0.0613678904183 0.0387192927465 4.02466999557e-21)
(-0.0715794713445 0.0407778971607 -1.19670233127e-20)
(-0.10716118207 0.0296786613902 1.22235552386e-20)
(-0.0953044917851 0.0575595627934 1.11506938743e-20)
(-0.131953342969 0.0732234588495 2.17739954427e-20)
(-0.0248942857467 0.0260916240474 -7.88431137385e-23)
(-0.0278391208011 0.0267321880073 -2.64634285725e-22)
(-0.0322846290978 0.0266862648381 -1.0072548816e-21)
(-0.0387742500297 0.0258860008862 -8.4582445246e-22)
(-0.0483970586265 0.0243239110936 -2.20086531178e-21)
(-0.0621431059909 0.0212920201157 2.65108030316e-21)
(-0.0776138130047 0.0195658980706 -3.48198397263e-21)
(-0.10662348326 0.012244134684 1.3136902322e-20)
(-0.142425969229 0.0143500379494 1.83322384765e-20)
(-0.0948107862499 -0.00540780478239 4.99085552902e-20)
(-0.025310097206 0.0239250825225 -6.25423163787e-23)
(-0.0274498250568 0.0233714962479 -2.05128124114e-22)
(-0.0308796806725 0.0216520953043 -6.0406207075e-22)
(-0.036120559936 0.0183953933832 -6.15858879588e-22)
(-0.044001980668 0.0129829323722 -4.10338077226e-21)
(-0.0558006597253 0.00449737706003 -2.61036064702e-21)
(-0.0712087356849 -0.00166921343851 -1.62922548248e-20)
(-0.0919355573797 -0.0062470468816 2.16498726672e-20)
(-0.0324770587864 -0.0301951638272 1.8713435621e-20)
(-0.0853759349467 -0.0828849840743 4.39893488084e-20)
(-0.0248700339278 0.0226724495912 -9.20452015201e-23)
(-0.025824921053 0.0212151020959 -1.46971965263e-22)
(-0.0276862004093 0.0181457992645 -4.01345890241e-22)
(-0.0308099878425 0.012917518066 -6.95523556085e-22)
(-0.0357037748932 0.0046209737951 -2.22039038914e-21)
(-0.043420628923 -0.00748916648044 -5.5162621984e-21)
(-0.0546694893728 -0.0167265065953 -5.03794527031e-21)
(-0.0672150238074 -0.0187311772444 2.39248790552e-21)
(-0.0664857404444 -0.0547943959898 2.62028649536e-21)
(-0.0668358323722 -0.129084334751 2.81961170509e-20)
(-0.0238447475685 0.0226128024986 -6.22991437439e-23)
(-0.0233385453113 0.0206195682493 -6.67047984352e-23)
(-0.0232602685225 0.0167897482889 -1.74070227648e-22)
(-0.0237080173208 0.0104335898561 4.62317283433e-22)
(-0.0247781336346 0.000490651272833 -7.64281670083e-22)
(-0.0274895538243 -0.0134133789021 -5.01767912245e-21)
(-0.0333681384384 -0.0239593198914 -4.58411042446e-21)
(-0.0374081042428 -0.0247234978278 2.27779970266e-21)
(-0.0258640751421 -0.0715912636527 -3.75090774752e-21)
(-0.0322223562475 -0.160157745229 3.14793033697e-20)
(-0.0225947368708 0.0239440715723 -5.92851966156e-23)
(-0.0204789170124 0.0218640096261 -8.9359844355e-23)
(-0.0182816087982 0.017880644922 -3.90578237313e-22)
(-0.0158995347962 0.0112841636754 -2.3337826969e-22)
(-0.0129881226082 0.0011459310345 -1.49405742452e-22)
(-0.0104796581313 -0.012376120438 -3.86054482154e-21)
(-0.0103317822436 -0.0225445821867 -5.27999044331e-22)
(-0.00657615325346 -0.0224925655811 5.69514655623e-21)
(-0.00782586676862 -0.0751841123315 -9.29413902851e-22)
(0.00481630973956 -0.151232933764 1.62045078813e-20)
(-0.021487936339 0.0267157548692 -6.29942956227e-23)
(-0.0177565867654 0.024993703873 1.05540312641e-23)
(-0.013453438172 0.0214427059736 -2.58382710107e-22)
(-0.00833834454542 0.0153952403666 1.09079319989e-22)
(-0.0018393190834 0.00615761338816 -5.58757455908e-23)
(0.00519424937475 -0.00539476452729 -2.5690466146e-21)
(0.0114579274571 -0.0142071260337 -5.31170090055e-21)
(0.0230430535041 -0.0138412676874 4.36885583714e-21)
(0.0151897663786 -0.0654885580226 -1.43959948353e-20)
(0.0167242543237 -0.113042476517 3.94043235181e-22)
(-0.0208928183524 0.0308994413641 -3.79875680618e-23)
(-0.0156465531156 0.0299410501489 2.22673076313e-24)
(-0.00938979153641 0.0273310898013 -1.1565611865e-22)
(-0.00182407499707 0.0224854924235 4.48305669735e-22)
(0.0077044425785 0.0149228834827 -1.86811490751e-21)
(0.0187131602016 0.00536868507804 -9.69744524019e-22)
(0.0314474093968 -0.00211175389881 -8.80555509559e-21)
(0.0478841441439 -0.00212082541716 4.60347304518e-21)
(0.031930034962 -0.0462861252765 4.84499266446e-21)
(0.0089242164728 -0.0743752393301 4.26824007094e-21)
(-0.0211418478614 0.0363682567708 -4.79811066329e-23)
(-0.0145631236932 0.036528016774 -1.09159338197e-22)
(-0.0066226075735 0.0352939561293 -2.10457218242e-22)
(0.00300495612239 0.0322326971625 -4.1757365487e-22)
(0.0148381014572 0.0272473208092 -2.18506602546e-21)
(0.0294981298926 0.0208552405338 -2.1435631503e-21)
(0.0474083472959 0.0156584832191 3.10465697357e-21)
(0.0670292068866 0.0155756681493 -4.24346200506e-21)
(0.0415796112 -0.0126904662587 -1.28591008398e-21)
(-0.00241410526303 -0.0316335090446 -1.43516999757e-21)
(-0.0225028838746 0.0429271083491 -3.22119021496e-23)
(-0.0148442959002 0.0444912589421 -4.25482822606e-23)
(-0.00557257947548 0.0449675811489 -2.19937388354e-22)
(0.00561070932604 0.0441390333854 3.55231849494e-22)
(0.019425705027 0.0417850651106 5.62442849994e-22)
(0.0366874297561 0.038974188192 7.6785430573e-22)
(0.0576118251331 0.0356173677357 -8.59135707524e-21)
(0.0748313648882 0.0368283930142 -2.60686380929e-20)
(0.0481752828333 0.0244001374762 -1.72286940369e-20)
(-0.00520653645167 0.00754319689158 -8.29998431398e-21)
(-0.0252044148952 0.0503318578781 -5.37897466148e-23)
(-0.0167639387815 0.0535070062091 -5.18527716634e-23)
(-0.00654617277224 0.0559543444344 -2.69461136146e-22)
(0.00583515841856 0.0575877249737 5.50568736878e-23)
(0.021084743265 0.0582530797858 1.28537922136e-21)
(0.0399245717716 0.0599124354461 4.10022966208e-21)
(0.0611343478188 0.0580541172417 4.5758241011e-21)
(0.0759345805747 0.0570942898862 1.66050662073e-21)
(0.0555844422457 0.0579833573215 -3.41584744195e-21)
(-0.00293556212255 0.0450822308295 -7.00980412401e-21)
)
;

boundaryField
{
    back
    {
        type            calculated;
        value           uniform (0 0 0);
    }
    sides
    {
        type            calculated;
        value           uniform (0 0 0);
    }
    bottom
    {
        type            calculated;
        value           nonuniform List<vector> 0();
    }
    front
    {
        type            calculated;
        value           uniform (0 0 0);
    }
    atmosphere
    {
        type            calculated;
        value           nonuniform List<vector> 
16
(
(-1.08339655433e-10 0.122880152903 1.48054469085e-28)
(1.51768428298e-06 0.276504732282 -4.72712816393e-24)
(-1.97433004414e-06 0.204060912744 1.71941475518e-23)
(-5.45880730728e-06 0.0276781626572 -1.06457439499e-23)
(5.90964521166e-06 -0.00856831701695 5.38213572499e-24)
(-3.4571754357e-13 0.0732234588495 1.39366644163e-32)
(-3.15175332493e-13 -0.00540780478239 -3.71770146044e-32)
(-0.0355128165053 -0.0828849840743 8.47697160939e-21)
(-0.0311178406615 -0.129084334751 8.23947739226e-21)
(-0.0144633132134 -0.160157745229 1.03073893355e-20)
(-0.00208370420383 -0.151232933764 3.51096479763e-21)
(-2.72195019452e-08 -0.113042476517 -6.13724698834e-27)
(1.12335241648e-08 -0.0743752393301 6.13969445346e-27)
(4.09263073693e-08 -0.0316335090446 2.55400176042e-27)
(3.35156788643e-08 0.00754319689158 8.54387631468e-27)
(2.47003487623e-09 0.0450822308295 1.20166765968e-28)
)
;
    }
    floatingObject
    {
        type            calculated;
        value           nonuniform List<vector> 0();
    }
    procBoundary1to0
    {
        type            processor;
        value           nonuniform List<vector> 10((-0.0293973708779 0.0583030233026 -1.97230681366e-23) (-0.0204813009831 0.0632082343873 -6.09181052236e-23) (-0.00969693750863 0.0677435364223 -1.27489903868e-22) (0.00328620400347 0.0718829854056 4.21034808283e-23) (0.0190654439249 0.0756772924534 1.54958069754e-21) (0.0388953485875 0.0817322019508 5.6694043588e-21) (0.0605701636688 0.0791007562151 6.64350496728e-21) (0.0742432889701 0.0736817909904 -7.34666780404e-22) (0.060903631014 0.0870862386687 1.27882926524e-21) (0.00437672716483 0.0808489157083 6.36315609562e-21));
    }
    procBoundary1to2
    {
        type            processor;
        value           nonuniform List<vector> 
18
(
(-0.00170847974975 0.0258459000832 2.83619231634e-22)
(-0.005900065623 0.0252469324217 -2.33893266201e-24)
(-0.00957913704481 0.024646595147 -5.11487450048e-24)
(-0.0139557204295 0.0271669199085 -6.61987257494e-23)
(-0.0139557204295 0.0271669199085 -6.61987257494e-23)
(-0.0186771742191 0.028728687611 -3.70485185444e-23)
(-0.0186771742191 0.028728687611 -3.70485185444e-23)
(-0.0212010280434 0.0267161090887 -3.06282802483e-23)
(-0.0229763313464 0.0249006312082 -8.05151868989e-24)
(-0.0240347510173 0.0235621754247 6.98510620126e-24)
(-0.0245099983347 0.0229218556695 -3.42781549147e-23)
(-0.0246097506808 0.0232163535317 -7.33848238498e-25)
(-0.0245856429209 0.0245569313723 -1.49997938729e-23)
(-0.0247177437799 0.0270142726179 4.34854054706e-23)
(-0.0253016650294 0.0305604689858 5.14083570217e-25)
(-0.0265905678401 0.0351108637001 1.63250406333e-23)
(-0.0288052101353 0.0405139145732 -1.70993165173e-24)
(-0.0321363420406 0.0465842470595 4.38068133886e-23)
)
;
    }
}


// ************************************************************************* //
