/*--------------------------------*- C++ -*----------------------------------*\
| =========                 |                                                 |
| \\      /  F ield         | OpenFOAM: The Open Source CFD Toolbox           |
|  \\    /   O peration     | Version:  v2012                                 |
|   \\  /    A nd           | Website:  www.openfoam.com                      |
|    \\/     M anipulation  |                                                 |
\*---------------------------------------------------------------------------*/
FoamFile
{
    version     2.0;
    format      ascii;
    class       volScalarField;
    location    "3.5";
    object      p;
}
// * * * * * * * * * * * * * * * * * * * * * * * * * * * * * * * * * * * * * //

dimensions      [1 -1 -2 0 0 0 0];


internalField   nonuniform List<scalar> 
167
(
4383.35273502
3891.71483957
3399.75327113
2907.41436017
2414.62517934
1921.28983132
1427.24222577
932.114679207
438.7473568
92.0501066233
-9.10642928534
-9.53913730258
4383.65384287
3892.05343285
3400.14326935
2907.8741853
2415.17851259
1921.9680139
1428.09336826
933.273472721
440.443613644
93.1736490645
-9.05224147001
-9.55176855385
4384.19331618
3892.66326274
3400.85049615
2908.71488245
2416.19987448
1923.22913284
1429.67638952
935.302037488
442.794618518
94.2369089272
-9.06996521953
-9.55112626944
3893.52786043
3401.84870845
2909.89699906
2417.63204034
1924.99625874
1431.89198147
938.125429616
446.156987292
95.9764556423
-9.06388165742
-9.55330671795
3403.09817247
2911.36623649
2419.4034588
1927.17926035
1434.63327863
941.623589757
450.359810719
98.1999854941
-9.06521234837
-9.55771493571
3404.54014736
2913.0430783
2421.40846862
1929.63926579
1437.72249764
945.5891621
455.202823498
100.87260983
-9.07125762516
-9.56267108788
3406.10893729
2914.83790629
2423.52437803
1932.20930189
1440.93539183
949.719678099
460.30454083
103.801292728
-9.07615528324
-9.56548183796
3407.73858653
2916.66006414
2425.62549722
1934.71230088
1444.01554002
953.637683104
465.122978474
106.574349374
-9.08134227781
-9.56712546088
3409.36937488
2918.42598568
2427.59535704
1936.98216668
1446.72057537
956.974454808
469.151872268
108.860722691
-9.08559900881
-9.56842488517
3410.95501568
2920.06948966
2429.34037648
1938.89010949
1448.8748298
959.488751263
472.080742976
110.502012951
-9.08755212724
-9.56923405109
3412.46708631
2921.55003564
2430.80361022
1940.35701704
1450.3741733
961.056200293
473.735157752
111.363068247
-9.08627860309
-9.56974913746
3413.89834732
2922.85560408
2431.96814019
1941.36139276
1451.19313447
961.651685322
474.06494403
111.38734943
-9.08297592604
-9.56950938885
3415.26304802
2924.00257533
2432.85460034
1941.93300481
1451.37826147
961.344302758
473.166995474
110.660398255
-9.08070254689
-9.56830281049
3416.59628426
2925.0343774
2433.51854318
1942.14442622
1451.02746201
960.274267965
471.20875861
109.251564265
-9.07776833756
-9.56664408993
3417.95155528
2926.01753187
2434.04484862
1942.10811694
1450.29517296
958.661542379
468.509314526
107.416025279
-9.07452216832
-9.56514016787
3419.397667
2927.03709548
2434.54052873
1941.96109672
1449.35769854
956.733878041
465.439349626
105.442779319
-9.07052000207
-9.56417185741
)
;

boundaryField
{
    back
    {
        type            calculated;
        value           nonuniform List<scalar> 
167
(
4383.35273502
3891.71483957
3399.75327113
2907.41436017
2414.62517934
1921.28983132
1427.24222577
932.114679207
438.7473568
92.0501066233
-9.10642928534
-9.53913730258
4383.65384287
3892.05343285
3400.14326935
2907.8741853
2415.17851259
1921.9680139
1428.09336826
933.273472721
440.443613644
93.1736490645
-9.05224147001
-9.55176855385
4384.19331618
3892.66326274
3400.85049615
2908.71488245
2416.19987448
1923.22913284
1429.67638952
935.302037488
442.794618518
94.2369089272
-9.06996521953
-9.55112626944
3893.52786043
3401.84870845
2909.89699906
2417.63204034
1924.99625874
1431.89198147
938.125429616
446.156987292
95.9764556423
-9.06388165742
-9.55330671795
3403.09817247
2911.36623649
2419.4034588
1927.17926035
1434.63327863
941.623589757
450.359810719
98.1999854941
-9.06521234837
-9.55771493571
3404.54014736
2913.0430783
2421.40846862
1929.63926579
1437.72249764
945.5891621
455.202823498
100.87260983
-9.07125762516
-9.56267108788
3406.10893729
2914.83790629
2423.52437803
1932.20930189
1440.93539183
949.719678099
460.30454083
103.801292728
-9.07615528324
-9.56548183796
3407.73858653
2916.66006414
2425.62549722
1934.71230088
1444.01554002
953.637683104
465.122978474
106.574349374
-9.08134227781
-9.56712546088
3409.36937488
2918.42598568
2427.59535704
1936.98216668
1446.72057537
956.974454808
469.151872268
108.860722691
-9.08559900881
-9.56842488517
3410.95501568
2920.06948966
2429.34037648
1938.89010949
1448.8748298
959.488751263
472.080742976
110.502012951
-9.08755212724
-9.56923405109
3412.46708631
2921.55003564
2430.80361022
1940.35701704
1450.3741733
961.056200293
473.735157752
111.363068247
-9.08627860309
-9.56974913746
3413.89834732
2922.85560408
2431.96814019
1941.36139276
1451.19313447
961.651685322
474.06494403
111.38734943
-9.08297592604
-9.56950938885
3415.26304802
2924.00257533
2432.85460034
1941.93300481
1451.37826147
961.344302758
473.166995474
110.660398255
-9.08070254689
-9.56830281049
3416.59628426
2925.0343774
2433.51854318
1942.14442622
1451.02746201
960.274267965
471.20875861
109.251564265
-9.07776833756
-9.56664408993
3417.95155528
2926.01753187
2434.04484862
1942.10811694
1450.29517296
958.661542379
468.509314526
107.416025279
-9.07452216832
-9.56514016787
3419.397667
2927.03709548
2434.54052873
1941.96109672
1449.35769854
956.733878041
465.439349626
105.442779319
-9.07052000207
-9.56417185741
)
;
    }
    sides
    {
        type            calculated;
        value           nonuniform List<scalar> 
12
(
4383.35273502
3891.71483957
3399.75327113
2907.41436017
2414.62517934
1921.28983132
1427.24222577
932.114679207
438.7473568
92.0501066233
-9.10642928534
-9.53913730258
)
;
    }
    bottom
    {
        type            calculated;
        value           nonuniform List<scalar> 0();
    }
    front
    {
        type            calculated;
        value           nonuniform List<scalar> 
167
(
4383.35273502
3891.71483957
3399.75327113
2907.41436017
2414.62517934
1921.28983132
1427.24222577
932.114679207
438.7473568
92.0501066233
-9.10642928534
-9.53913730258
4383.65384287
3892.05343285
3400.14326935
2907.8741853
2415.17851259
1921.9680139
1428.09336826
933.273472721
440.443613644
93.1736490645
-9.05224147001
-9.55176855385
4384.19331618
3892.66326274
3400.85049615
2908.71488245
2416.19987448
1923.22913284
1429.67638952
935.302037488
442.794618518
94.2369089272
-9.06996521953
-9.55112626944
3893.52786043
3401.84870845
2909.89699906
2417.63204034
1924.99625874
1431.89198147
938.125429616
446.156987292
95.9764556423
-9.06388165742
-9.55330671795
3403.09817247
2911.36623649
2419.4034588
1927.17926035
1434.63327863
941.623589757
450.359810719
98.1999854941
-9.06521234837
-9.55771493571
3404.54014736
2913.0430783
2421.40846862
1929.63926579
1437.72249764
945.5891621
455.202823498
100.87260983
-9.07125762516
-9.56267108788
3406.10893729
2914.83790629
2423.52437803
1932.20930189
1440.93539183
949.719678099
460.30454083
103.801292728
-9.07615528324
-9.56548183796
3407.73858653
2916.66006414
2425.62549722
1934.71230088
1444.01554002
953.637683104
465.122978474
106.574349374
-9.08134227781
-9.56712546088
3409.36937488
2918.42598568
2427.59535704
1936.98216668
1446.72057537
956.974454808
469.151872268
108.860722691
-9.08559900881
-9.56842488517
3410.95501568
2920.06948966
2429.34037648
1938.89010949
1448.8748298
959.488751263
472.080742976
110.502012951
-9.08755212724
-9.56923405109
3412.46708631
2921.55003564
2430.80361022
1940.35701704
1450.3741733
961.056200293
473.735157752
111.363068247
-9.08627860309
-9.56974913746
3413.89834732
2922.85560408
2431.96814019
1941.36139276
1451.19313447
961.651685322
474.06494403
111.38734943
-9.08297592604
-9.56950938885
3415.26304802
2924.00257533
2432.85460034
1941.93300481
1451.37826147
961.344302758
473.166995474
110.660398255
-9.08070254689
-9.56830281049
3416.59628426
2925.0343774
2433.51854318
1942.14442622
1451.02746201
960.274267965
471.20875861
109.251564265
-9.07776833756
-9.56664408993
3417.95155528
2926.01753187
2434.04484862
1942.10811694
1450.29517296
958.661542379
468.509314526
107.416025279
-9.07452216832
-9.56514016787
3419.397667
2927.03709548
2434.54052873
1941.96109672
1449.35769854
956.733878041
465.439349626
105.442779319
-9.07052000207
-9.56417185741
)
;
    }
    atmosphere
    {
        type            calculated;
        value           nonuniform List<scalar> 
16
(
-9.81827446986
-9.81227656812
-9.81323137678
-9.81259462686
-9.81145506728
-9.81087389403
-9.81055413658
-9.81043067656
-9.8103160087
-9.81019932508
-9.81011658533
-9.81010557163
-9.8101551644
-9.81022270255
-9.81026175356
-9.81023123093
)
;
    }
    floatingObject
    {
        type            calculated;
        value           nonuniform List<scalar> 0();
    }
    procBoundary1to0
    {
        type            processor;
        value           nonuniform List<scalar> 10(3421.01409041 2928.19062332 2435.12585401 1941.85153122 1448.39789445 954.727899682 462.301498659 103.514860083 -9.06695873362 -9.56336138287);
    }
    procBoundary1to2
    {
        type            processor;
        value           nonuniform List<scalar> 
18
(
4874.70685341
4874.98061029
4875.46951544
4384.96176684
4384.96176684
3894.61928359
3894.61928359
3895.89454273
3897.30528961
3898.80407199
3900.34859017
3901.90648234
3903.45879168
3905.00235046
3906.5502286
3908.13175233
3909.79098739
3911.58392754
)
;
    }
}


// ************************************************************************* //
