/*--------------------------------*- C++ -*----------------------------------*\
| =========                 |                                                 |
| \\      /  F ield         | OpenFOAM: The Open Source CFD Toolbox           |
|  \\    /   O peration     | Version:  v2012                                 |
|   \\  /    A nd           | Website:  www.openfoam.com                      |
|    \\/     M anipulation  |                                                 |
\*---------------------------------------------------------------------------*/
FoamFile
{
    version     2.0;
    format      ascii;
    class       volVectorField;
    location    "3.5";
    object      U_0;
}
// * * * * * * * * * * * * * * * * * * * * * * * * * * * * * * * * * * * * * //

dimensions      [0 1 -1 0 0 0 0];


internalField   nonuniform List<vector> 
164
(
(0.0325000454294 0.000108566255316 -2.78063964038e-22)
(0.0344161098051 0.00040088356631 -6.08369081043e-23)
(0.035803205615 0.000567202633909 -4.02597542314e-23)
(0.0368370768746 0.000733435740824 6.49730644217e-23)
(0.0377068180002 0.000866275774398 1.99160494249e-23)
(0.0386305206487 0.000978038589334 7.54766037644e-24)
(0.0397167120081 0.00106346215727 -8.08365141103e-24)
(0.0410082640373 0.00111036978606 -8.23703887804e-24)
(0.0321499207573 0.000207485685892 -2.32153260603e-22)
(0.0341177043174 0.000655786886836 -3.60465128113e-23)
(0.0355427239609 0.000997716135073 -9.26065087092e-23)
(0.0366017169694 0.00134473346347 4.92649358118e-24)
(0.03748835373 0.00166577421214 -1.06618382044e-23)
(0.0384291986811 0.00197722779795 -1.81585790448e-23)
(0.0395381546311 0.00227662034041 -3.08541030044e-23)
(0.0408651838163 0.00255723445635 -3.67719819308e-24)
(0.0316288662806 0.000295759355531 -2.37936222525e-22)
(0.0336457632174 0.000905211413388 8.79527084075e-24)
(0.0351042312257 0.00142689761989 1.4715916585e-23)
(0.03618166673 0.00195767259996 8.66380512339e-24)
(0.0370756760969 0.00247073097541 -3.15569596476e-24)
(0.0380201192083 0.00298749874292 -6.8261260224e-24)
(0.0391343553114 0.00350981804883 -4.82458679491e-24)
(0.0404722938492 0.00403620135445 2.85731696905e-24)
(0.0420678201763 0.00456542966478 1.22832896953e-23)
(0.0439588701302 0.00509116688525 1.17506788808e-23)
(0.0309448176238 0.000383159343563 -2.12515410231e-22)
(0.0330029171716 0.00114815101882 6.43565140547e-23)
(0.0344856685233 0.00184801442224 7.36800235428e-23)
(0.0355738359689 0.00256230424206 6.47529720791e-23)
(0.0364650196393 0.00326756519725 2.09820124561e-23)
(0.0373986005853 0.00399103554203 8.33322840468e-24)
(0.0384970778144 0.0047385741979 -1.78834692788e-24)
(0.0398187304693 0.00551404804144 5.28494518588e-25)
(0.0413946774281 0.00632599336585 9.22862851365e-24)
(0.0432691230632 0.0071811141422 1.35563966256e-23)
(0.0301118000329 0.000483178438605 2.22208670699e-23)
(0.0321971369859 0.00138793498051 2.51774804721e-22)
(0.0336941506833 0.00225719804635 1.67442451685e-22)
(0.0347810055777 0.00314987450517 1.16677290769e-22)
(0.03565828434 0.00404227753603 5.28209169997e-23)
(0.0365658643315 0.00496683100464 2.58929542221e-23)
(0.0376257698916 0.00593584988595 2.8373479798e-25)
(0.0389013276157 0.00695585861035 1.25149392845e-23)
(0.0404186008547 0.00804361598634 4.52162324788e-24)
(0.0422201372667 0.00922303007367 6.54914601598e-25)
(0.0291175504561 0.000568947329673 1.13120351772e-22)
(0.0312305090891 0.00161278419884 2.6285185342e-22)
(0.0327382454243 0.002645439795 1.95097379648e-22)
(0.0338116531558 0.00370885593068 1.61471462603e-22)
(0.0346624320855 0.0047820046421 7.83722616569e-23)
(0.0355292095536 0.00589726852396 4.06352571898e-23)
(0.0365344649189 0.00707507431539 1.06907994009e-23)
(0.037732248857 0.00832576296371 4.15384146897e-24)
(0.039156004171 0.00966969394709 1.15493017758e-23)
(0.0408271017276 0.0111464648855 2.05453238967e-23)
(0.0279897824367 0.000637369415484 1.65916246481e-22)
(0.0301116367969 0.00181670550774 3.1796290936e-22)
(0.031618646317 0.00300292304687 2.17920035872e-22)
(0.0326737418591 0.00422825006193 1.63545866959e-22)
(0.0334881476512 0.0054738726887 9.82198124807e-23)
(0.0343014301362 0.00676839334891 7.33509475371e-23)
(0.0352378174177 0.00813561507741 4.89675917058e-23)
(0.0363409263165 0.00959417810771 1.88506711835e-23)
(0.0376413736423 0.0111628907296 1.67323548135e-23)
(0.0391442758214 0.0128900554811 2.61535627958e-23)
(0.0267256824979 0.0007139643002 1.6186493239e-22)
(0.0288501898215 0.00200828358003 2.49294257675e-22)
(0.0303441154006 0.00333286226751 1.81751267079e-22)
(0.0313760045468 0.00470646414405 1.6197463847e-22)
(0.0321489790195 0.00611118796939 1.3926239364e-22)
(0.0329013678789 0.00757033865304 1.15888504649e-22)
(0.0337553805228 0.00910607567322 9.28957659427e-23)
(0.034753297006 0.0107418597648 5.35699871891e-23)
(0.0359125573826 0.0124964003673 2.25589250748e-23)
(0.0372391322553 0.0144175393749 5.26608811235e-23)
(0.0253358163194 0.000787487382589 1.59566392104e-22)
(0.0274570554271 0.00218431492504 1.90877501768e-22)
(0.0289312307382 0.00363650270846 1.6866195699e-22)
(0.0299334373114 0.00514622784882 1.60628541603e-22)
(0.0306596281549 0.00669286440715 1.42630057222e-22)
(0.0313447199342 0.00829584764638 1.15895992618e-22)
(0.0321118358905 0.00997800320927 9.92996451031e-23)
(0.033001645629 0.0117623921902 1.16681987688e-22)
(0.034020936364 0.0136675742482 1.26746745865e-22)
(0.0351714905425 0.0157299940384 6.93579064595e-23)
(0.0238388519956 0.000849533645064 2.46688147171e-22)
(0.0259454542795 0.0023398585833 1.84438272431e-22)
(0.0273940926468 0.00390881253107 1.65518461904e-22)
(0.028359335312 0.00554122171276 1.64752132216e-22)
(0.0290338187481 0.00721368565145 1.4424629862e-22)
(0.0296506435375 0.00894376875422 1.11127351242e-22)
(0.0303337857747 0.0107546335422 1.03648595423e-22)
(0.0311208200274 0.0126628235432 9.65935182077e-23)
(0.0320138170143 0.014684943827 1.36810439892e-22)
(0.0330046912217 0.0168466638443 9.4504058918e-23)
(0.0222469223049 0.000899863873952 2.60910191754e-22)
(0.0243271172964 0.00247170737432 3.33950420533e-23)
(0.0257428262161 0.00414485134147 8.15440985013e-23)
(0.0266669212226 0.00588709533514 1.2352717292e-22)
(0.027286766103 0.00767149031228 1.30996896925e-22)
(0.0278378370126 0.00951504439285 9.83102118302e-23)
(0.0284389761396 0.0114395466364 8.29289983226e-23)
(0.0291267122067 0.0134551390221 7.4331843972e-23)
(0.0299081639276 0.0155738922409 7.13608122427e-23)
(0.030772899519 0.0178176049507 6.53226739605e-23)
(0.0205800608827 0.000947870321961 1.13974483494e-22)
(0.0226181505604 0.00258329452584 -2.48708774825e-22)
(0.0239910076308 0.00434416233497 -1.59669822285e-22)
(0.0248694112028 0.0061813697506 1.80638019343e-23)
(0.0254342285442 0.00806808764548 1.39623556725e-22)
(0.0259199284404 0.0100142468945 1.49674777381e-22)
(0.0264397148057 0.0120371719303 1.12753829221e-22)
(0.0270330289788 0.0141493488563 1.05088709111e-22)
(0.0277102583388 0.0163596500393 1.02017891271e-22)
(0.0284659840853 0.0186874972212 8.94202370862e-23)
(0.018855472653 0.000978304504354 1.11947477665e-22)
(0.020834364607 0.00266858254996 -5.11525277959e-22)
(0.0221532513835 0.00450551687125 -4.26873305262e-22)
(0.0229801990083 0.00642615056185 -1.09540915021e-22)
(0.0234877708691 0.00840245530091 1.4514331648e-22)
(0.0239039679613 0.0104391028735 1.49939022658e-22)
(0.0243428958362 0.0125498660539 1.33077800264e-22)
(0.0248469936813 0.0147464109925 6.71620479501e-23)
(0.025421596684 0.0170342607688 1.4560499876e-22)
(0.0260570107327 0.0194254421501 1.80616864668e-22)
(0.0170811177336 0.000999374604745 2.39805577606e-22)
(0.0189860394494 0.0027271677423 -7.05765948214e-22)
(0.0202394907857 0.0046237523765 -6.29354434447e-22)
(0.0210072752371 0.00661685293766 -2.20501109046e-22)
(0.0214541123878 0.00867207659181 1.12779602382e-22)
(0.0217998410397 0.0107911146023 1.81371612185e-22)
(0.0221613305828 0.0129848825267 2.18821442256e-22)
(0.0225836520259 0.0152590558139 1.90030779556e-22)
(0.0230734379617 0.017611738852 2.52587675534e-22)
(0.0236121660511 0.0200412202939 1.39809268676e-22)
(0.0152734666253 0.00101316268163 4.68392382133e-22)
(0.0170832650287 0.00275916123745 -6.12053445823e-22)
(0.0182631084535 0.00469967914394 -6.04474109834e-22)
(0.0189611993986 0.0067545154896 -2.33417942107e-22)
(0.0193413389955 0.00887966741961 9.61268318881e-23)
(0.0196138709245 0.0110754321585 1.63066661174e-22)
(0.019898424084 0.0133500521917 1.82101489113e-22)
(0.0202464610504 0.0157055402014 1.60942243305e-22)
(0.0206743122843 0.0181272582168 2.11929634469e-22)
(0.0211609325679 0.0205936683139 2.04903206591e-22)
(0.0134634206092 0.00102151064297 1.49250130137e-21)
(0.0151489793084 0.00277231410743 -7.67009664465e-23)
(0.0162410094547 0.00473878908052 -2.67814976137e-22)
(0.0168574943613 0.00683568741212 -6.91859623582e-23)
(0.0171579134796 0.00902072551837 1.46800675789e-22)
(0.0173461348403 0.0112884038649 1.81146990749e-22)
(0.0175452486651 0.0136483054264 1.83181836073e-22)
(0.0178173270521 0.0160999666304 2.25183892405e-22)
(0.0181994682926 0.0186118509967 2.7819373984e-22)
(0.0186730183636 0.0211341858204 2.35847827006e-22)
(0.0116647137963 0.00100950119431 1.89403534695e-21)
(0.0132044184551 0.00275310229264 2.96937794242e-22)
(0.0141891992414 0.00473361189138 -1.28380782117e-23)
(0.0147106256282 0.00685573971525 6.09464927022e-23)
(0.0149123449026 0.00908523533139 2.05374695138e-22)
(0.0149952815829 0.0114222353973 2.64599335334e-22)
(0.0150934523751 0.0138767926296 4.77311971694e-22)
(0.0126108010692 0.00905927575091 4.18028431932e-22)
)
;

boundaryField
{
    back
    {
        type            noSlip;
    }
    sides
    {
        type            noSlip;
    }
    bottom
    {
        type            noSlip;
    }
    front
    {
        type            noSlip;
    }
    atmosphere
    {
        type            pressureInletOutletVelocity;
        value           nonuniform List<vector> 0();
    }
    floatingObject
    {
        type            movingWallVelocity;
        value           nonuniform List<vector> 0();
    }
    procBoundary4to0
    {
        type            processor;
        value           nonuniform List<vector> 8((0.0326782176401 1.43520651853e-05 -3.47740604325e-22) (0.0345419034288 0.000152546687979 -2.84837352311e-23) (0.0358884755592 0.000147765719534 2.8183272469e-23) (0.0368915344982 0.000138065347598 9.49823338442e-23) (0.0377355305144 8.8482687629e-05 2.68849685006e-23) (0.0386299217367 8.35892912885e-06 2.07347743569e-24) (0.0396786611138 -0.000108740502953 -1.55697535584e-23) (0.0409173847728 -0.000279160322362 2.29301149801e-24));
    }
    procBoundary4to3
    {
        type            processor;
        value           nonuniform List<vector> 
13
(
(0.0152776186368 0.0164504609992 8.27713047192e-22)
(0.0156322201688 0.0190778890178 1.19071228946e-21)
(0.0161341082562 0.0216395172539 1.31751616104e-21)
(0.00988240579849 0.000988163401422 1.61662652377e-21)
(0.0112654599085 0.00270278043386 3.15599985644e-22)
(0.0121282373871 0.00467611041794 3.41149638025e-23)
(0.0125328664478 0.00680138306502 1.39105857348e-22)
(0.0125533091938 0.0114638488734 9.53998653507e-22)
(0.0152776186368 0.0164504609992 8.27713047192e-22)
(0.0125152059973 0.0140305221689 2.58600119774e-21)
(0.0125328664478 0.00680138306502 1.39105857348e-22)
(0.0125533091938 0.0114638488734 9.53998653507e-22)
(0.010267575761 0.00891768622185 1.76742360362e-21)
)
;
    }
    procBoundary4to5
    {
        type            processor;
        value           nonuniform List<vector> 
18
(
(0.0425334847504 0.00110586890845 -1.25656329105e-23)
(0.0424418007939 0.00281133715709 -3.74847339645e-24)
(0.0424418007939 0.00281133715709 -3.74847339645e-24)
(0.0442985182963 0.00302129162112 -7.29801493351e-24)
(0.0461947432822 0.00560306705325 2.72351182154e-23)
(0.0454943709664 0.0080854550109 4.81006681661e-23)
(0.0443546175303 0.0105158085524 5.7745891348e-23)
(0.0427926600125 0.0127934958794 5.81131248069e-23)
(0.040881331981 0.0148275809205 7.44327308936e-23)
(0.0387304853352 0.0165625546333 -1.48757656138e-23)
(0.0364310995009 0.0179946600836 -4.81476057511e-23)
(0.0340774083222 0.0191723457046 -4.93145339463e-23)
(0.0317088223556 0.0201963931164 4.45139900133e-23)
(0.0292899132144 0.0211525712213 4.02346846846e-22)
(0.0267306359764 0.0219468634905 1.06457703184e-22)
(0.0241604856525 0.0225584381141 3.96961581679e-22)
(0.0216552078759 0.0230949178017 1.81718206433e-22)
(0.0191579687051 0.0236565596391 4.28623867654e-22)
)
;
    }
}


// ************************************************************************* //
