/*--------------------------------*- C++ -*----------------------------------*\
| =========                 |                                                 |
| \\      /  F ield         | OpenFOAM: The Open Source CFD Toolbox           |
|  \\    /   O peration     | Version:  v2012                                 |
|   \\  /    A nd           | Website:  www.openfoam.com                      |
|    \\/     M anipulation  |                                                 |
\*---------------------------------------------------------------------------*/
FoamFile
{
    version     2.0;
    format      ascii;
    class       volScalarField;
    location    "1.7";
    object      epsilon;
}
// * * * * * * * * * * * * * * * * * * * * * * * * * * * * * * * * * * * * * //

dimensions      [0 2 -3 0 0 0 0];


internalField   nonuniform List<scalar> 
167
(
0.0089511602514
0.00911917783886
0.00956604016076
0.0106928876586
0.0132176812157
0.0181231326333
0.0265203137211
0.0410962714836
0.057527639702
0.00911512640939
0.00959462700883
0.0107915835221
0.0134365001158
0.0185239210485
0.0274333376624
0.0427372261414
0.071237955411
0.00911224175232
0.00962583594623
0.0108983826273
0.0136943491308
0.0191495562337
0.0294181186225
0.053657924288
0.152431262736
0.00890233484128
0.00911137494507
0.00966272109817
0.0110197994656
0.0139829988665
0.0197603026506
0.0307713433818
0.0564304977799
0.13016258301
0.00888772904137
0.00911246848937
0.00970352349526
0.0111482068074
0.014280656549
0.0203532356966
0.0318154259208
0.0573035269778
0.120128370622
0.00887401435873
0.00911502841208
0.00974666076499
0.0112802210753
0.0145803524354
0.0209283762545
0.0327567924289
0.058313027197
0.118958249818
0.00875837303396
0.00886122258329
0.00911870471137
0.00979113556844
0.011411669002
0.0148750427878
0.0214826933508
0.0336254732642
0.0590075337915
0.115136951673
0.00868481771962
0.00874009852907
0.00884931968254
0.00912325009948
0.00983574106417
0.0115410276878
0.0151610158099
0.0220141123476
0.0344622526868
0.0599280508866
0.114939282886
0.00866453964229
0.00872269391463
0.0088382400373
0.00912833821833
0.0098796802442
0.0116662846463
0.0154337966457
0.0225104012425
0.0352307404056
0.0608072276748
0.11512336918
0.00870589772181
0.00882760533956
0.00913326400066
0.00992164638008
0.01178467404
0.0156880252486
0.0229653029974
0.0359142777345
0.0615712468134
0.115296485533
0.00868849412754
0.00881605003503
0.00913639345518
0.00995955739402
0.0118933534076
0.0159193019474
0.0233734497665
0.0365106351743
0.0622297722353
0.115488714458
0.00866627571181
0.0087990903422
0.00913282442729
0.00998790574271
0.011986452484
0.0161211611734
0.0237212848389
0.0370061646519
0.0627698614834
0.115708955565
0.00862609598106
0.00876307891553
0.00910817374739
0.00999094079719
0.01204555834
0.0162713817939
0.0239804943742
0.0373487220184
0.0631034223229
0.115804988706
0.00852993895105
0.00866898654018
0.00902143110478
0.00992435179877
0.0120214780981
0.0163101448146
0.0240681471142
0.0373864085481
0.0629502652019
0.115083723191
0.00820778375592
0.00827431571623
0.00841124819699
0.00876228454845
0.00966833938008
0.0117774551953
0.0160657699755
0.023733840904
0.0367362750204
0.0609070899026
0.108255462792
0.00753004800854
0.00759146371497
0.0077171950003
0.00804308627471
0.00889786478595
0.0109152341522
0.015027343719
0.0223796580023
0.0346716165394
0.0568138444229
0.0961842344602
0.00735529630991
0.00742070629004
0.00753724290873
0.00782076748033
0.00857155561464
0.0104347476537
0.0146767625329
0.0236592667016
0.0418042726007
0.078975858152
0.179986116065
)
;

boundaryField
{
    back
    {
        lowReCorrection 0;
        blending        stepwise;
        n               2;
        type            epsilonWallFunction;
        value           nonuniform List<scalar> 
167
(
0.0089511602514
0.00911917783886
0.00956604016076
0.0106928876586
0.0132176812157
0.0181231326333
0.0265203137211
0.0410962714836
0.057527639702
0.00911512640939
0.00959462700883
0.0107915835221
0.0134365001158
0.0185239210485
0.0274333376624
0.0427372261414
0.071237955411
0.00911224175232
0.00962583594623
0.0108983826273
0.0136943491308
0.0191495562337
0.0294181186225
0.053657924288
0.152431262736
0.00890233484128
0.00911137494507
0.00966272109817
0.0110197994656
0.0139829988665
0.0197603026506
0.0307713433818
0.0564304977799
0.13016258301
0.00888772904137
0.00911246848937
0.00970352349526
0.0111482068074
0.014280656549
0.0203532356966
0.0318154259208
0.0573035269778
0.120128370622
0.00887401435873
0.00911502841208
0.00974666076499
0.0112802210753
0.0145803524354
0.0209283762545
0.0327567924289
0.058313027197
0.118958249818
0.00875837303396
0.00886122258329
0.00911870471137
0.00979113556844
0.011411669002
0.0148750427878
0.0214826933508
0.0336254732642
0.0590075337915
0.115136951673
0.00868481771962
0.00874009852907
0.00884931968254
0.00912325009948
0.00983574106417
0.0115410276878
0.0151610158099
0.0220141123476
0.0344622526868
0.0599280508866
0.114939282886
0.00866453964229
0.00872269391463
0.0088382400373
0.00912833821833
0.0098796802442
0.0116662846463
0.0154337966457
0.0225104012425
0.0352307404056
0.0608072276748
0.11512336918
0.00870589772181
0.00882760533956
0.00913326400066
0.00992164638008
0.01178467404
0.0156880252486
0.0229653029974
0.0359142777345
0.0615712468134
0.115296485533
0.00868849412754
0.00881605003503
0.00913639345518
0.00995955739402
0.0118933534076
0.0159193019474
0.0233734497665
0.0365106351743
0.0622297722353
0.115488714458
0.00866627571181
0.0087990903422
0.00913282442729
0.00998790574271
0.011986452484
0.0161211611734
0.0237212848389
0.0370061646519
0.0627698614834
0.115708955565
0.00862609598106
0.00876307891553
0.00910817374739
0.00999094079719
0.01204555834
0.0162713817939
0.0239804943742
0.0373487220184
0.0631034223229
0.115804988706
0.00852993895105
0.00866898654018
0.00902143110478
0.00992435179877
0.0120214780981
0.0163101448146
0.0240681471142
0.0373864085481
0.0629502652019
0.115083723191
0.00820778375592
0.00827431571623
0.00841124819699
0.00876228454845
0.00966833938008
0.0117774551953
0.0160657699755
0.023733840904
0.0367362750204
0.0609070899026
0.108255462792
0.00753004800854
0.00759146371497
0.0077171950003
0.00804308627471
0.00889786478595
0.0109152341522
0.015027343719
0.0223796580023
0.0346716165394
0.0568138444229
0.0961842344602
0.00735529630991
0.00742070629004
0.00753724290873
0.00782076748033
0.00857155561464
0.0104347476537
0.0146767625329
0.0236592667016
0.0418042726007
0.078975858152
0.179986116065
)
;
    }
    sides
    {
        lowReCorrection 0;
        blending        stepwise;
        n               2;
        type            epsilonWallFunction;
        value           nonuniform List<scalar> 
11
(
0.00735529630991
0.00742070629004
0.00753724290873
0.00782076748033
0.00857155561464
0.0104347476537
0.0146767625329
0.0236592667016
0.0418042726007
0.078975858152
0.179986116065
)
;
    }
    bottom
    {
        lowReCorrection 0;
        blending        stepwise;
        n               2;
        type            epsilonWallFunction;
        value           nonuniform List<scalar> 0();
    }
    front
    {
        lowReCorrection 0;
        blending        stepwise;
        n               2;
        type            epsilonWallFunction;
        value           nonuniform List<scalar> 
167
(
0.0089511602514
0.00911917783886
0.00956604016076
0.0106928876586
0.0132176812157
0.0181231326333
0.0265203137211
0.0410962714836
0.057527639702
0.00911512640939
0.00959462700883
0.0107915835221
0.0134365001158
0.0185239210485
0.0274333376624
0.0427372261414
0.071237955411
0.00911224175232
0.00962583594623
0.0108983826273
0.0136943491308
0.0191495562337
0.0294181186225
0.053657924288
0.152431262736
0.00890233484128
0.00911137494507
0.00966272109817
0.0110197994656
0.0139829988665
0.0197603026506
0.0307713433818
0.0564304977799
0.13016258301
0.00888772904137
0.00911246848937
0.00970352349526
0.0111482068074
0.014280656549
0.0203532356966
0.0318154259208
0.0573035269778
0.120128370622
0.00887401435873
0.00911502841208
0.00974666076499
0.0112802210753
0.0145803524354
0.0209283762545
0.0327567924289
0.058313027197
0.118958249818
0.00875837303396
0.00886122258329
0.00911870471137
0.00979113556844
0.011411669002
0.0148750427878
0.0214826933508
0.0336254732642
0.0590075337915
0.115136951673
0.00868481771962
0.00874009852907
0.00884931968254
0.00912325009948
0.00983574106417
0.0115410276878
0.0151610158099
0.0220141123476
0.0344622526868
0.0599280508866
0.114939282886
0.00866453964229
0.00872269391463
0.0088382400373
0.00912833821833
0.0098796802442
0.0116662846463
0.0154337966457
0.0225104012425
0.0352307404056
0.0608072276748
0.11512336918
0.00870589772181
0.00882760533956
0.00913326400066
0.00992164638008
0.01178467404
0.0156880252486
0.0229653029974
0.0359142777345
0.0615712468134
0.115296485533
0.00868849412754
0.00881605003503
0.00913639345518
0.00995955739402
0.0118933534076
0.0159193019474
0.0233734497665
0.0365106351743
0.0622297722353
0.115488714458
0.00866627571181
0.0087990903422
0.00913282442729
0.00998790574271
0.011986452484
0.0161211611734
0.0237212848389
0.0370061646519
0.0627698614834
0.115708955565
0.00862609598106
0.00876307891553
0.00910817374739
0.00999094079719
0.01204555834
0.0162713817939
0.0239804943742
0.0373487220184
0.0631034223229
0.115804988706
0.00852993895105
0.00866898654018
0.00902143110478
0.00992435179877
0.0120214780981
0.0163101448146
0.0240681471142
0.0373864085481
0.0629502652019
0.115083723191
0.00820778375592
0.00827431571623
0.00841124819699
0.00876228454845
0.00966833938008
0.0117774551953
0.0160657699755
0.023733840904
0.0367362750204
0.0609070899026
0.108255462792
0.00753004800854
0.00759146371497
0.0077171950003
0.00804308627471
0.00889786478595
0.0109152341522
0.015027343719
0.0223796580023
0.0346716165394
0.0568138444229
0.0961842344602
0.00735529630991
0.00742070629004
0.00753724290873
0.00782076748033
0.00857155561464
0.0104347476537
0.0146767625329
0.0236592667016
0.0418042726007
0.078975858152
0.179986116065
)
;
    }
    atmosphere
    {
        type            inletOutlet;
        inletValue      uniform 0.1;
        value           nonuniform List<scalar> 
17
(
0.057527639702
0.1
0.1
0.13016258301
0.120128370622
0.118958249818
0.115136951673
0.114939282886
0.11512336918
0.115296485533
0.115488714458
0.115708955565
0.115804988706
0.115083723191
0.108255462792
0.0961842344602
0.179986116065
)
;
    }
    floatingObject
    {
        lowReCorrection 0;
        blending        stepwise;
        n               2;
        type            epsilonWallFunction;
        value           nonuniform List<scalar> 0();
    }
    procBoundary11to9
    {
        type            processor;
        value           nonuniform List<scalar> 9(0.0089684354789 0.00912403959185 0.00953847415689 0.0105931641305 0.0129953474424 0.0178290670173 0.0269185108046 0.0487132235943 0.0779638428104);
    }
    procBoundary11to10
    {
        type            processor;
        value           nonuniform List<scalar> 
23
(
0.00888144522919
0.00893425806016
0.00893425806016
0.00891789735839
0.00891789735839
0.00881766771682
0.00879725904596
0.00877746261624
0.00877746261624
0.00870590895356
0.00870590895356
0.00864600748999
0.00862383998356
0.00864489854452
0.00864489854452
0.00862478503572
0.00860018399892
0.00855829240025
0.00846168438653
0.00846168438653
0.00816149156182
0.00748658929095
0.00730388979988
)
;
    }
}


// ************************************************************************* //
