/*--------------------------------*- C++ -*----------------------------------*\
| =========                 |                                                 |
| \\      /  F ield         | OpenFOAM: The Open Source CFD Toolbox           |
|  \\    /   O peration     | Version:  v2012                                 |
|   \\  /    A nd           | Website:  www.openfoam.com                      |
|    \\/     M anipulation  |                                                 |
\*---------------------------------------------------------------------------*/
FoamFile
{
    version     2.0;
    format      ascii;
    class       volVectorField;
    location    "5.7";
    object      ddtCorrDdt0(U);
}
// * * * * * * * * * * * * * * * * * * * * * * * * * * * * * * * * * * * * * //

dimensions      [0 1 -2 0 0 0 0];


internalField   nonuniform List<vector> 
164
(
(-0.145552650875 -0.000668843447067 2.20886451866e-23)
(-0.146233430517 -0.00178063358949 6.24882992569e-25)
(-0.147372998384 -0.00302611896372 1.34752807203e-24)
(-0.149016068688 -0.00434687984062 -3.70379825065e-23)
(-0.151156594844 -0.00575786353979 -2.20461819489e-24)
(-0.153814997176 -0.00730684525973 2.18076775633e-24)
(-0.156985513147 -0.00903869886936 8.01114313791e-25)
(-0.160651572054 -0.0110075576419 1.61399560127e-24)
(-0.144074749622 -0.000930477804278 -6.77234893518e-24)
(-0.144729292173 -0.00257351625244 -7.70666420233e-24)
(-0.145820962475 -0.0043434513575 -1.64909140233e-24)
(-0.147386828329 -0.00618326141388 -6.97112677487e-24)
(-0.149417606137 -0.00810468052785 5.03586803409e-24)
(-0.151932028217 -0.0101512174977 -2.31951145655e-23)
(-0.154914567418 -0.0123601309055 -1.61350477767e-23)
(-0.158336780522 -0.0147743037383 3.45529879282e-25)
(-0.142088483785 -0.00117940230742 1.66988808486e-23)
(-0.142716190952 -0.0033312794102 -5.3557773068e-23)
(-0.143766561509 -0.00559741055446 -5.00233438739e-24)
(-0.145263726027 -0.00792915372055 -2.46748036525e-24)
(-0.147197523752 -0.0103290944019 -3.76198281468e-26)
(-0.149583763039 -0.0128346554969 -2.66964824498e-23)
(-0.152405930298 -0.0154751205924 3.85242323626e-25)
(-0.155629261709 -0.0182817240915 1.96750287764e-24)
(-0.159211788058 -0.02129450312 -6.26226090489e-24)
(-0.163118917354 -0.0245679324833 -7.67807601731e-24)
(-0.139613133055 -0.00141722478773 1.56372008885e-23)
(-0.140216113903 -0.00405719340722 -1.78893131147e-23)
(-0.141233048724 -0.00679898369797 -1.7415850971e-23)
(-0.142672459235 -0.0095976442643 -2.36091766737e-23)
(-0.14452665715 -0.0124492511854 -2.46582983581e-23)
(-0.146809208063 -0.0153843400485 -2.38697024671e-24)
(-0.149502327701 -0.0184241410851 1.04975721195e-24)
(-0.152568257658 -0.0215911172587 1.75646927299e-24)
(-0.155959317345 -0.024908541408 -3.21455501911e-23)
(-0.159608137325 -0.0284135017758 -8.0684250775e-24)
(-0.136666284155 -0.00164905399961 -2.00767364279e-23)
(-0.137256000352 -0.00476005774433 -1.1676634351e-22)
(-0.138246205031 -0.00795730754586 -3.31080109516e-23)
(-0.139640225538 -0.0112038448433 -2.40526550638e-23)
(-0.141433247644 -0.0144879113236 -1.42225914076e-23)
(-0.14363858153 -0.0178304563577 -3.70105297076e-23)
(-0.146237431261 -0.0212442765392 1.66869593323e-25)
(-0.149190720274 -0.0247479836543 1.86922902607e-23)
(-0.15244680833 -0.0283475946255 -6.32715860242e-24)
(-0.155930178304 -0.0320511550337 -3.55726500938e-23)
(-0.133260480386 -0.0018772767406 -1.7238356274e-23)
(-0.133859362693 -0.00544879004138 -3.74504415889e-23)
(-0.134830255079 -0.00908322714716 -1.72183604975e-23)
(-0.136187783881 -0.0127641484513 -3.22520999361e-23)
(-0.137938141548 -0.0164677004705 -1.64567027782e-24)
(-0.140094263572 -0.0202052729776 -5.68413044846e-24)
(-0.142636085264 -0.0239808453197 -3.63401921242e-24)
(-0.145524836703 -0.0277969029284 1.86462892813e-24)
(-0.148701765956 -0.0316477098783 1.42184542276e-23)
(-0.152107997916 -0.0355336080284 -1.27738084945e-23)
(-0.129396952944 -0.00211810837806 2.20326133063e-24)
(-0.130057223351 -0.0061425781437 -9.40404916532e-23)
(-0.131005783639 -0.0101811521328 -1.59121467355e-23)
(-0.132322770396 -0.0142895022077 -1.06903056708e-23)
(-0.134052149189 -0.0184133939631 -2.34160300342e-24)
(-0.136188164357 -0.0225435937832 -2.64141956432e-23)
(-0.138708962982 -0.026678456752 -1.22669758003e-23)
(-0.141581745726 -0.0308059067814 -1.51849258008e-23)
(-0.144746499004 -0.0349091320744 -7.78870744419e-24)
(-0.148145062819 -0.038977336782 2.0323618552e-24)
(-0.125056100106 -0.00241143396572 2.21806919163e-23)
(-0.125898751888 -0.00687355784371 -8.15532118442e-23)
(-0.126788384476 -0.0112405274272 -3.08847910801e-24)
(-0.128031107769 -0.0157864607692 -9.99189046803e-24)
(-0.129775947582 -0.0203510232519 -1.82531425017e-23)
(-0.131920174372 -0.0248772541135 -2.02360676204e-23)
(-0.134454398815 -0.0293799330105 -4.46220540988e-24)
(-0.13734948598 -0.033834749243 -5.89025684155e-24)
(-0.140565466286 -0.0382152213415 -3.75911023298e-23)
(-0.144034336517 -0.042498843353 -3.17406538387e-23)
(-0.120510573949 -0.00284045175498 -7.50275768667e-24)
(-0.121105321387 -0.00769386009332 -8.43729128653e-23)
(-0.122059104011 -0.0122036231187 -7.68137744981e-24)
(-0.123397404108 -0.0172527769456 -1.14439235221e-23)
(-0.125131117423 -0.0223201993126 9.78667616208e-24)
(-0.127284423905 -0.0272375725638 -3.9633087889e-24)
(-0.129852487856 -0.032114535665 -4.18332094835e-24)
(-0.132805884201 -0.0369251009056 -2.46864251076e-23)
(-0.136122258062 -0.0416286162075 -3.39145973039e-23)
(-0.139762723882 -0.0461459532722 -8.41730640728e-24)
(-0.115573490002 -0.00288335719864 7.39342703333e-23)
(-0.115877615691 -0.0082407225276 -2.56241205991e-23)
(-0.116904074914 -0.0134199135144 -2.86524552488e-24)
(-0.118345492849 -0.0188342802075 -1.64040590745e-24)
(-0.120075150574 -0.0242557515105 -6.44694928895e-24)
(-0.122249107206 -0.029614371281 -8.98895302734e-24)
(-0.124867574621 -0.034910230069 -2.61411432356e-23)
(-0.127907853191 -0.0401179324752 8.65020079031e-24)
(-0.131340596137 -0.0452062314606 -1.02111604065e-23)
(-0.135135230456 -0.0499133595289 1.43093680652e-23)
(-0.110015876019 -0.00301529502823 1.07183773834e-23)
(-0.110442751008 -0.00884187472753 3.26047431803e-23)
(-0.111416897196 -0.0145584247931 1.71580147625e-23)
(-0.112796577047 -0.0204011481894 1.42617189966e-23)
(-0.114561147994 -0.0262425255266 -6.93027868591e-24)
(-0.116778239625 -0.0320468156668 3.9762343292e-24)
(-0.119463414745 -0.0377843301704 -2.50570969528e-25)
(-0.122608871714 -0.0434130389227 4.68108861168e-24)
(-0.126192640997 -0.0488751320026 2.24073357693e-24)
(-0.130175497186 -0.0540718237521 3.52175132158e-23)
(-0.104044490215 -0.0031970127429 7.38715150631e-25)
(-0.104521942187 -0.00947155600014 -8.6139177896e-23)
(-0.105471017887 -0.0156671420901 4.87557909547e-23)
(-0.10681970194 -0.0219619692409 1.14843635338e-23)
(-0.108589556275 -0.0282605471376 -1.58606282621e-23)
(-0.110839187279 -0.0345366299416 -2.96780270416e-23)
(-0.113594011512 -0.0407538251343 -1.31921558495e-23)
(-0.116861064745 -0.0468624542114 -1.35001746321e-23)
(-0.120635815669 -0.052800072634 -4.96168149204e-24)
(-0.124911999712 -0.0584975130904 1.91758292686e-23)
(-0.0976561984027 -0.00338230748581 3.95662716256e-23)
(-0.0981355732662 -0.0101008042829 1.04194126679e-23)
(-0.09905568696 -0.0167540883876 7.99613455596e-23)
(-0.100368839681 -0.0235097026757 4.14780373168e-23)
(-0.10212164188 -0.0302904270778 -1.75445885877e-23)
(-0.104385363861 -0.0370747215268 -1.20154967225e-23)
(-0.107200807796 -0.0438220330897 -1.26145989778e-23)
(-0.110589502436 -0.0504747602521 1.2091382894e-23)
(-0.114562522482 -0.05696882818 -2.31671623574e-23)
(-0.119122858982 -0.0632258183542 -2.58515909749e-23)
(-0.0908377888112 -0.00356733905668 1.53121487349e-22)
(-0.0912933044987 -0.0107098894263 -5.43208353031e-23)
(-0.0921633547106 -0.0178028743254 9.21056035124e-23)
(-0.0934158828698 -0.0250242210271 4.31441635861e-23)
(-0.095121995055 -0.0323106201578 -1.581795918e-23)
(-0.0973711387654 -0.0396440862392 -2.34079971024e-23)
(-0.100225186485 -0.0469789975369 -2.55159127529e-23)
(-0.103738860162 -0.0542503693734 -8.79898632105e-24)
(-0.107921552124 -0.0613802112197 -3.92722158132e-23)
(-0.112791144741 -0.068266908908 6.20012090249e-24)
(-0.0835923141312 -0.00374088080177 -1.72011861667e-23)
(-0.0840039599895 -0.0112764270445 -9.86911751666e-23)
(-0.0847950451173 -0.0187868831654 6.58383253712e-23)
(-0.0859492684249 -0.0264725383902 3.68056227808e-23)
(-0.0875646042928 -0.0342859963138 -1.71512873538e-23)
(-0.089763561054 -0.0422129817778 -1.01190496003e-23)
(-0.0926545169752 -0.0502180522816 -1.22622598522e-23)
(-0.0962728144888 -0.0582040310921 1.18165448352e-25)
(-0.100688854806 -0.0660686010793 -3.8286488228e-23)
(-0.105862174898 -0.073664494014 -4.79610914357e-23)
(-0.0759422163993 -0.00389285955256 -5.5034213448e-23)
(-0.0762943978387 -0.0117771857036 -3.51320652992e-23)
(-0.0769738416898 -0.0196693434624 3.41695030594e-23)
(-0.0779898579481 -0.0278058911672 2.89726056846e-24)
(-0.0794725019983 -0.0361712328359 1.03086654906e-24)
(-0.0815885158035 -0.0447738185885 3.98121931707e-23)
(-0.0844516764164 -0.0535198590857 4.78535092611e-23)
(-0.0881397406727 -0.0623166390463 -1.67361762912e-23)
(-0.0927667957904 -0.0710089673035 -1.38584784926e-22)
(-0.0982876000391 -0.0794172088818 -2.90033444158e-22)
(-0.0679517047782 -0.00401658530484 3.99273375716e-23)
(-0.0682276534786 -0.0121857664983 -3.66134781097e-23)
(-0.0687730117081 -0.0204132207355 3.80362194515e-23)
(-0.0696024684859 -0.0289896381127 7.00182314432e-23)
(-0.0708798164676 -0.0379316822183 1.31780385539e-22)
(-0.0727826003646 -0.0472315868067 2.69258000566e-22)
(-0.0755339718242 -0.0567995917976 3.09190618094e-22)
(-0.0617772281634 -0.0393996044164 6.94777757751e-22)
)
;

boundaryField
{
    back
    {
        type            calculated;
        value           uniform (0 0 0);
    }
    sides
    {
        type            calculated;
        value           nonuniform List<vector> 0();
    }
    bottom
    {
        type            calculated;
        value           uniform (0 0 0);
    }
    front
    {
        type            calculated;
        value           uniform (0 0 0);
    }
    atmosphere
    {
        type            calculated;
        value           nonuniform List<vector> 0();
    }
    floatingObject
    {
        type            calculated;
        value           nonuniform List<vector> 0();
    }
    procBoundary4to0
    {
        type            processor;
        value           nonuniform List<vector> 8((-0.146487726412 -0.000394014672868 9.84601181095e-25) (-0.147200288517 -0.0009500775404 -1.53550720344e-23) (-0.148389806256 -0.00164119183752 -1.92416191998e-23) (-0.150115218687 -0.00241218698274 -1.8382200393e-23) (-0.152373274519 -0.00328012877488 -1.90439938882e-23) (-0.155187559094 -0.00429290950146 4.13827750462e-25) (-0.158568034131 -0.00550185135876 -5.84841671335e-24) (-0.162510050066 -0.00697129109385 1.79217656376e-23));
    }
    procBoundary4to3
    {
        type            processor;
        value           nonuniform List<vector> 
13
(
(-0.0792830678954 -0.0665446349275 1.79927173606e-23)
(-0.084105501777 -0.0762421278077 -6.62062211384e-22)
(-0.0900226828222 -0.0855696329049 -1.44488799035e-21)
(-0.0596941931877 -0.00410145536528 -1.1082146291e-22)
(-0.0598798846916 -0.012488737882 5.19443154383e-24)
(-0.0602546077599 -0.0209830797503 1.22915183722e-22)
(-0.0608340197554 -0.02993327835 2.6108235592e-22)
(-0.0633405025984 -0.0494677872386 1.32622617618e-21)
(-0.0792830678954 -0.0665446349275 1.79927173606e-23)
(-0.0657898367638 -0.0600475869202 1.54112767737e-21)
(-0.0608340197554 -0.02993327835 2.6108235592e-22)
(-0.0633405025984 -0.0494677872386 1.32622617618e-21)
(-0.0521418196466 -0.0404935565938 2.91332332012e-21)
)
;
    }
    procBoundary4to5
    {
        type            processor;
        value           nonuniform List<vector> 
18
(
(-0.164800144612 -0.0132813506552 5.02592147379e-25)
(-0.162173596633 -0.0174527276482 -1.02695307106e-23)
(-0.162173596633 -0.0174527276482 -1.02695307106e-23)
(-0.166399011487 -0.0204567694752 -6.96721303299e-24)
(-0.167282076362 -0.0281644481749 2.11549191262e-24)
(-0.163458291643 -0.0321596553028 1.3882439769e-23)
(-0.15957307395 -0.035885157985 3.82983688974e-23)
(-0.155653355433 -0.0394618905074 -1.14230125157e-23)
(-0.15168636233 -0.0430067743042 -2.76637954397e-23)
(-0.147646834785 -0.0466716475439 3.4935931319e-23)
(-0.143476765963 -0.0504934772706 6.42893968437e-23)
(-0.139247907927 -0.0545177861707 1.21522183128e-22)
(-0.134721742372 -0.0590314671303 1.36421908524e-22)
(-0.129701574446 -0.0639027744505 5.3490300451e-23)
(-0.124255127241 -0.0691539403121 9.91419927313e-23)
(-0.118291300513 -0.0748054077724 -3.54595658047e-23)
(-0.111779893325 -0.0809069228755 -5.73749242645e-23)
(-0.104643310059 -0.0874237477865 -5.15155011183e-22)
)
;
    }
}


// ************************************************************************* //
