/*--------------------------------*- C++ -*----------------------------------*\
| =========                 |                                                 |
| \\      /  F ield         | OpenFOAM: The Open Source CFD Toolbox           |
|  \\    /   O peration     | Version:  v2012                                 |
|   \\  /    A nd           | Website:  www.openfoam.com                      |
|    \\/     M anipulation  |                                                 |
\*---------------------------------------------------------------------------*/
FoamFile
{
    version     2.0;
    format      ascii;
    class       volScalarField;
    location    "5.7";
    object      p_rgh;
}
// * * * * * * * * * * * * * * * * * * * * * * * * * * * * * * * * * * * * * //

dimensions      [1 -1 -2 0 0 0 0];


internalField   nonuniform List<scalar> 
164
(
8645.05221569
8645.07382696
8645.12423461
8645.20418354
8645.31561664
8645.46097015
8645.64169179
8645.86216133
8652.38200155
8652.43110911
8652.53604548
8652.69734635
8652.91641628
8653.19588304
8653.54132749
8653.95286007
8659.65827823
8659.73412079
8659.8918324
8660.13166998
8660.45437318
8660.86197653
8661.35842149
8661.94630167
8662.6098279
8663.34369419
8666.85464021
8666.95657105
8667.16559894
8667.48166514
8667.90477549
8668.43590973
8669.07726561
8669.82926617
8670.68913919
8671.6270241
8673.94516298
8674.07275411
8674.33202789
8674.72264688
8675.24387014
8675.89549872
8676.67792728
8677.59035572
8678.62914176
8679.79047185
8680.90429101
8681.05735348
8681.36628857
8681.83052499
8682.44858519
8683.21919856
8684.14104064
8685.21355183
8686.42213918
8687.75930894
8687.70654674
8687.88535749
8688.24383939
8688.78142978
8689.49611003
8690.38567071
8691.44744258
8692.68029825
8694.06625276
8695.59377901
8694.32633353
8694.53182478
8694.94015382
8695.55148157
8696.36353681
8697.37337521
8698.57735454
8699.97334751
8701.54227275
8703.29103696
8700.7379026
8700.97159995
8701.43062787
8702.11654931
8703.02755306
8704.16023931
8705.51032884
8707.07441845
8708.8354623
8710.80808644
8706.9112075
8707.18325246
8707.69089892
8708.45183581
8709.46417914
8710.72337532
8712.22497744
8713.96401152
8715.92725141
8718.09959753
8712.8272231
8713.13673468
8713.69376638
8714.53200571
8715.6487809
8717.03916688
8718.69830459
8720.62130261
8722.79240884
8725.19320804
8718.4727456
8718.79666213
8719.41099333
8720.33089103
8721.55576248
8723.08222261
8724.90587934
8727.02099899
8729.41382842
8732.07282573
8723.80484831
8724.15028812
8724.81971073
8725.82245938
8727.15861548
8728.82602404
8730.82114514
8733.13934708
8735.77027696
8738.69920547
8728.79898033
8729.16920321
8729.89338166
8730.97962606
8732.42915075
8734.24145848
8736.4145408
8738.94537882
8741.82390869
8745.03288554
8733.43023415
8733.82622328
8734.60449524
8735.77380817
8737.33704739
8739.29650337
8741.65360856
8744.40574569
8747.54729692
8751.04612656
8737.67453285
8738.09553792
8738.92570002
8740.17449638
8741.84985826
8743.9547096
8746.49485952
8749.47507929
8752.87880727
8756.7031269
8741.5090412
8741.95257823
8742.82873949
8744.1519879
8745.92692861
8748.17178844
8750.89203206
8749.53458061
)
;

boundaryField
{
    back
    {
        type            fixedFluxPressure;
        gradient        uniform 0;
        value           nonuniform List<scalar> 
164
(
8645.05221569
8645.07382696
8645.12423461
8645.20418354
8645.31561664
8645.46097015
8645.64169179
8645.86216133
8652.38200155
8652.43110911
8652.53604548
8652.69734635
8652.91641628
8653.19588304
8653.54132749
8653.95286007
8659.65827823
8659.73412079
8659.8918324
8660.13166998
8660.45437318
8660.86197653
8661.35842149
8661.94630167
8662.6098279
8663.34369419
8666.85464021
8666.95657105
8667.16559894
8667.48166514
8667.90477549
8668.43590973
8669.07726561
8669.82926617
8670.68913919
8671.6270241
8673.94516298
8674.07275411
8674.33202789
8674.72264688
8675.24387014
8675.89549872
8676.67792728
8677.59035572
8678.62914176
8679.79047185
8680.90429101
8681.05735348
8681.36628857
8681.83052499
8682.44858519
8683.21919856
8684.14104064
8685.21355183
8686.42213918
8687.75930894
8687.70654674
8687.88535749
8688.24383939
8688.78142978
8689.49611003
8690.38567071
8691.44744258
8692.68029825
8694.06625276
8695.59377901
8694.32633353
8694.53182478
8694.94015382
8695.55148157
8696.36353681
8697.37337521
8698.57735454
8699.97334751
8701.54227275
8703.29103696
8700.7379026
8700.97159995
8701.43062787
8702.11654931
8703.02755306
8704.16023931
8705.51032884
8707.07441845
8708.8354623
8710.80808644
8706.9112075
8707.18325246
8707.69089892
8708.45183581
8709.46417914
8710.72337532
8712.22497744
8713.96401152
8715.92725141
8718.09959753
8712.8272231
8713.13673468
8713.69376638
8714.53200571
8715.6487809
8717.03916688
8718.69830459
8720.62130261
8722.79240884
8725.19320804
8718.4727456
8718.79666213
8719.41099333
8720.33089103
8721.55576248
8723.08222261
8724.90587934
8727.02099899
8729.41382842
8732.07282573
8723.80484831
8724.15028812
8724.81971073
8725.82245938
8727.15861548
8728.82602404
8730.82114514
8733.13934708
8735.77027696
8738.69920547
8728.79898033
8729.16920321
8729.89338166
8730.97962606
8732.42915075
8734.24145848
8736.4145408
8738.94537882
8741.82390869
8745.03288554
8733.43023415
8733.82622328
8734.60449524
8735.77380817
8737.33704739
8739.29650337
8741.65360856
8744.40574569
8747.54729692
8751.04612656
8737.67453285
8738.09553792
8738.92570002
8740.17449638
8741.84985826
8743.9547096
8746.49485952
8749.47507929
8752.87880727
8756.7031269
8741.5090412
8741.95257823
8742.82873949
8744.1519879
8745.92692861
8748.17178844
8750.89203206
8749.53458061
)
;
    }
    sides
    {
        type            fixedFluxPressure;
        gradient        nonuniform List<scalar> 0();
        value           nonuniform List<scalar> 0();
    }
    bottom
    {
        type            fixedFluxPressure;
        gradient        uniform 0;
        value           nonuniform List<scalar> 
17
(
8645.05221569
8652.38200155
8659.65827823
8666.85464021
8673.94516298
8680.90429101
8687.70654674
8694.32633353
8700.7379026
8706.9112075
8712.8272231
8718.4727456
8723.80484831
8728.79898033
8733.43023415
8737.67453285
8741.5090412
)
;
    }
    front
    {
        type            fixedFluxPressure;
        gradient        uniform 0;
        value           nonuniform List<scalar> 
164
(
8645.05221569
8645.07382696
8645.12423461
8645.20418354
8645.31561664
8645.46097015
8645.64169179
8645.86216133
8652.38200155
8652.43110911
8652.53604548
8652.69734635
8652.91641628
8653.19588304
8653.54132749
8653.95286007
8659.65827823
8659.73412079
8659.8918324
8660.13166998
8660.45437318
8660.86197653
8661.35842149
8661.94630167
8662.6098279
8663.34369419
8666.85464021
8666.95657105
8667.16559894
8667.48166514
8667.90477549
8668.43590973
8669.07726561
8669.82926617
8670.68913919
8671.6270241
8673.94516298
8674.07275411
8674.33202789
8674.72264688
8675.24387014
8675.89549872
8676.67792728
8677.59035572
8678.62914176
8679.79047185
8680.90429101
8681.05735348
8681.36628857
8681.83052499
8682.44858519
8683.21919856
8684.14104064
8685.21355183
8686.42213918
8687.75930894
8687.70654674
8687.88535749
8688.24383939
8688.78142978
8689.49611003
8690.38567071
8691.44744258
8692.68029825
8694.06625276
8695.59377901
8694.32633353
8694.53182478
8694.94015382
8695.55148157
8696.36353681
8697.37337521
8698.57735454
8699.97334751
8701.54227275
8703.29103696
8700.7379026
8700.97159995
8701.43062787
8702.11654931
8703.02755306
8704.16023931
8705.51032884
8707.07441845
8708.8354623
8710.80808644
8706.9112075
8707.18325246
8707.69089892
8708.45183581
8709.46417914
8710.72337532
8712.22497744
8713.96401152
8715.92725141
8718.09959753
8712.8272231
8713.13673468
8713.69376638
8714.53200571
8715.6487809
8717.03916688
8718.69830459
8720.62130261
8722.79240884
8725.19320804
8718.4727456
8718.79666213
8719.41099333
8720.33089103
8721.55576248
8723.08222261
8724.90587934
8727.02099899
8729.41382842
8732.07282573
8723.80484831
8724.15028812
8724.81971073
8725.82245938
8727.15861548
8728.82602404
8730.82114514
8733.13934708
8735.77027696
8738.69920547
8728.79898033
8729.16920321
8729.89338166
8730.97962606
8732.42915075
8734.24145848
8736.4145408
8738.94537882
8741.82390869
8745.03288554
8733.43023415
8733.82622328
8734.60449524
8735.77380817
8737.33704739
8739.29650337
8741.65360856
8744.40574569
8747.54729692
8751.04612656
8737.67453285
8738.09553792
8738.92570002
8740.17449638
8741.84985826
8743.9547096
8746.49485952
8749.47507929
8752.87880727
8756.7031269
8741.5090412
8741.95257823
8742.82873949
8744.1519879
8745.92692861
8748.17178844
8750.89203206
8749.53458061
)
;
    }
    atmosphere
    {
        type            totalPressure;
        rho             rho;
        psi             none;
        gamma           1;
        p0              nonuniform List<scalar> 0();
        value           nonuniform List<scalar> 0();
    }
    floatingObject
    {
        type            fixedFluxPressure;
        gradient        nonuniform List<scalar> 0();
        value           nonuniform List<scalar> 0();
    }
    procBoundary4to0
    {
        type            processor;
        value           nonuniform List<scalar> 8(8637.69692635 8637.69007766 8637.68394976 8637.67926328 8637.67827359 8637.68356424 8637.69315071 8637.73036809);
    }
    procBoundary4to3
    {
        type            processor;
        value           nonuniform List<scalar> 
13
(
8754.09891903
8757.79198924
8761.94283583
8744.91233551
8745.37361216
8746.287698
8747.66757423
8751.89920531
8754.09891903
8754.79042796
8747.66757423
8751.89920531
8752.62782426
)
;
    }
    procBoundary4to5
    {
        type            processor;
        value           nonuniform List<scalar> 
18
(
8646.14639348
8654.42041611
8654.42041611
8655.01259305
8664.26294405
8672.71420314
8681.05295075
8689.24446858
8697.28236481
8705.20101742
8712.96327312
8720.45865113
8727.80092974
8734.97458368
8741.89828534
8748.53667268
8754.90292971
8760.91135502
)
;
    }
}


// ************************************************************************* //
