/*--------------------------------*- C++ -*----------------------------------*\
| =========                 |                                                 |
| \\      /  F ield         | OpenFOAM: The Open Source CFD Toolbox           |
|  \\    /   O peration     | Version:  v2012                                 |
|   \\  /    A nd           | Website:  www.openfoam.com                      |
|    \\/     M anipulation  |                                                 |
\*---------------------------------------------------------------------------*/
FoamFile
{
    version     2.0;
    format      ascii;
    class       volVectorField;
    location    "4.2";
    object      ddt0(rho,U);
}
// * * * * * * * * * * * * * * * * * * * * * * * * * * * * * * * * * * * * * //

dimensions      [1 -2 -2 0 0 0 0];


internalField   nonuniform List<vector> 
167
(
(126.645354831 -36.367719221 2.97630713723e-20)
(144.263637885 -42.0166276494 2.79926526625e-20)
(165.666465042 -48.639001077 4.81198857126e-19)
(192.104443335 -56.5828033662 -1.23272956302e-18)
(225.305896734 -66.8535853177 -1.58885600974e-18)
(269.302233254 -59.2627339502 4.34186044234e-18)
(290.501669317 2.5886258056 6.20614495832e-19)
(72.6514369342 9.21402055824 4.36311965531e-17)
(2.94432345219 -1.48287967731 -2.08165164719e-19)
(148.549039717 -22.1083246066 1.46603179941e-19)
(170.363947644 -24.3855087175 4.03880724231e-19)
(197.340798344 -26.8974928067 -2.6489694742e-18)
(230.044970437 -29.7740120224 3.01933518125e-18)
(273.424776717 -9.0429838119 -1.39406224821e-17)
(299.756955873 49.1800952687 -7.22179347839e-18)
(64.8331351877 15.4407833207 -1.95278586141e-17)
(3.38921703662 3.49691450418 -6.81433421689e-19)
(148.903222729 -2.21428911018 8.39036210845e-20)
(170.176410683 -0.144538425855 5.29590120253e-19)
(196.201725077 2.76695621267 -2.74220435511e-18)
(226.411524105 7.38138580456 1.27829064481e-17)
(267.467930396 37.6892770635 -1.70241083626e-19)
(287.424319108 89.0740119473 -1.40624422911e-17)
(48.3049306386 19.0725810609 -3.02993623705e-18)
(-0.0641099144105 -0.212086138353 1.89324900416e-19)
(128.935609772 12.4468148461 1.5303284972e-19)
(145.510389394 16.8268192379 1.17109671315e-19)
(165.233607823 22.8312098312 7.3157366824e-19)
(188.944392414 30.6389039323 4.61562369107e-19)
(215.621627301 41.9019637997 1.28356188973e-17)
(252.731120244 79.1615060503 4.74799340093e-18)
(267.414754368 122.5216052 -1.16353807279e-17)
(38.3636245062 18.1172268779 -3.0746686554e-18)
(-0.22766904938 0.38218718671 -1.73487443853e-19)
(123.9678659 27.1480448843 2.34984778687e-19)
(138.896097385 34.1708608649 5.28785298986e-19)
(156.326521621 43.3306147052 1.81738161185e-18)
(176.965346573 54.8537165455 6.8760925342e-18)
(199.646952893 70.9291116107 1.30785084721e-18)
(233.521950721 111.860584283 -4.4807313056e-17)
(240.283293851 143.791786159 -1.55239448318e-17)
(30.578481538 16.2585325386 5.32361031224e-19)
(0.74256175924 -0.0460891941254 1.10981080043e-19)
(116.867128825 40.2099374598 8.72206274089e-20)
(129.757546546 49.2830730443 8.22715261959e-19)
(144.432025484 60.7710335672 1.80946216357e-18)
(161.433161105 74.7677096227 -4.54418306678e-19)
(180.998051421 95.3091500109 3.95174056218e-18)
(206.798231505 139.787811152 1.82255172297e-17)
(206.993058834 166.839007099 -1.44660983853e-17)
(18.7569577283 15.2035754017 -1.49524310595e-18)
(-0.462799813452 0.717303670714 -4.39285249309e-20)
(98.4834188629 42.8240118752 -8.84540792724e-20)
(108.121335556 51.4036645467 4.84809070783e-19)
(118.808307564 61.8287563239 4.30099947223e-19)
(130.512431398 74.7504552244 2.12387443546e-18)
(143.477086829 90.2655438786 -2.05727426295e-18)
(157.364436445 113.732120542 6.72406684245e-19)
(176.508074011 161.03293335 -2.92270575236e-17)
(168.837290704 178.846147613 -6.7415189976e-17)
(12.4358502033 13.9069171827 -1.10826336753e-17)
(-0.702815148052 1.19175174707 -1.4130162318e-18)
(83.0013147278 43.2115103685 -8.03453651906e-20)
(90.2809706272 51.1990399173 9.06168428514e-20)
(98.2158878486 60.6145290359 4.00414210239e-19)
(106.736293116 71.7938349935 4.99601346105e-19)
(115.650692077 85.2740735386 1.94542825162e-18)
(124.746768375 100.985387989 3.19594629565e-18)
(132.863116794 123.827436311 3.63350109405e-18)
(144.107816058 170.934137103 -4.2102859914e-17)
(133.224604739 176.410169215 -4.34384841074e-17)
(8.53944888265 11.2507762766 -9.51149831996e-18)
(-2.09207304617 2.03690601125 -2.42811349481e-19)
(75.2698433474 49.5319971496 9.35199932849e-20)
(81.2611642667 58.0811020476 3.38938527685e-20)
(87.6145757664 67.9545784935 2.00828990629e-19)
(94.1806283061 79.41516704 5.52672513126e-19)
(100.695640759 92.7878201214 2.0811534758e-18)
(106.762214341 107.671340065 9.07993578765e-18)
(111.146264961 127.08197436 -1.22284851625e-18)
(119.470946298 167.832696954 -1.0406278696e-17)
(104.366735735 162.605486767 -2.75824866362e-17)
(7.00097659458 9.54902628153 -2.89603699639e-18)
(0.00179644516524 -4.80723914641 -8.4904161084e-20)
(71.732642633 63.604180136 9.56745601271e-20)
(76.6784386047 73.6364554692 2.59357400018e-19)
(81.5780134448 85.0638083354 4.92651447765e-19)
(86.1077766566 98.1060156832 8.46210423882e-19)
(89.9461744759 112.43863977 8.75308874076e-18)
(92.1413547149 130.712996182 -1.6729409394e-17)
(99.9043427945 170.824396555 -2.19890707964e-17)
(79.7310681502 161.775679348 -2.16225879587e-17)
(4.79663937376 8.66578180729 -3.76824175519e-18)
(2.64635631479 2.27041475139 7.60067809055e-20)
(61.9257072956 67.9119567475 7.08277998512e-20)
(65.6726195338 77.8976770112 9.51815815268e-20)
(69.1715297796 89.0509379748 4.23577854966e-19)
(72.1121584416 101.522663892 4.50034075761e-19)
(74.0818229944 115.180547051 3.22080306016e-19)
(74.1919167902 131.956681496 -6.40817903199e-18)
(78.3668718609 167.554598432 -2.30223145144e-19)
(59.3083140804 157.427581042 -1.16132224186e-17)
(3.15290912441 7.90488669218 -2.32649142195e-18)
(0.588578639203 1.23590843664 9.38544481556e-19)
(52.0417341922 71.1744468806 2.2191714282e-20)
(54.7855194712 80.9653905344 2.5554317021e-19)
(57.2245687702 91.7014130419 7.2065650408e-19)
(59.0149055671 103.422537515 5.87012287394e-19)
(59.632351744 116.213307225 -1.67282061167e-19)
(58.343757675 130.036131719 -2.12113731533e-18)
(59.1965702185 159.703672877 -1.83288733415e-17)
(44.4445943925 144.750077338 -1.10411176131e-17)
(2.46395144803 6.07112802251 -1.81153039753e-18)
(-0.901127051965 1.7736298169 5.57930621743e-21)
(42.1971845131 73.5592783431 5.65911701561e-21)
(44.1778532189 83.1369554177 1.92776865683e-19)
(45.8374870131 93.4471952526 9.64348573288e-19)
(46.9108215535 104.34677898 7.2859364797e-19)
(46.9100813073 116.184948765 9.92718940167e-19)
(45.5776925736 126.756181091 -2.3815702084e-18)
(45.9886416883 151.086488911 -2.7394180052e-17)
(30.0588614157 130.170926553 -1.08014669328e-17)
(1.45459444648 4.37813756126 1.72167014863e-18)
(0.0318751435148 -2.98812858097 8.30134863444e-20)
(32.4809082801 75.2401088224 -2.90604949359e-20)
(33.8850549952 84.6111569873 8.76110082252e-20)
(34.9793594777 94.5264322895 6.98100801716e-19)
(35.6685268045 104.852343165 2.17771593734e-18)
(35.5879827156 116.116590789 3.39285575939e-18)
(34.9981002035 125.03901678 3.32302404112e-18)
(36.344934153 146.539982875 -8.62197144417e-18)
(18.9982709521 120.86529078 -1.17686465625e-17)
(0.629274983909 4.34656463694 -2.54390010656e-19)
(0.486076474896 1.49401540162 1.9935683938e-19)
(21.9415040715 67.6104767903 2.11982384699e-20)
(22.905834151 76.3208706893 -9.62707651877e-20)
(23.8153469311 85.5619600223 1.50764054181e-20)
(24.5301124074 95.1713632184 5.79813063707e-19)
(25.0444947001 105.125529099 7.03379025867e-19)
(25.0871187487 116.095591755 7.01212718846e-18)
(24.9812666281 124.13040072 1.19669486742e-18)
(26.8542369233 143.140560676 -2.79532591295e-17)
(13.2153448365 115.264782965 -3.00569705751e-17)
(0.728397131519 3.98911578741 -1.12442499353e-18)
(0.135375185827 0.730947362384 1.0601387808e-21)
(12.958216175 68.2692717682 8.47594778009e-20)
(13.5291788383 76.933145025 -2.39178354518e-19)
(14.0372706868 86.0566211768 -6.9802889577e-20)
(14.4421534681 95.4945176111 3.05476291076e-19)
(14.8556480849 105.236363793 -7.42785134424e-19)
(15.2325036959 115.852128306 -2.74502998228e-18)
(16.8037101703 122.580529356 2.86514315898e-18)
(15.98604939 138.413957783 -5.15166240705e-19)
(7.39791291173 108.036657791 1.03622325104e-18)
(0.505017126618 3.37504895338 1.43004694798e-19)
(-0.386318548164 0.558695422843 1.79337226821e-19)
(4.73801511642 67.6606851439 -1.20309796819e-19)
(4.89695502713 76.2286041895 -1.2616095989e-19)
(5.01181244674 85.2020820395 -2.27742609296e-19)
(5.01093211415 94.4205044717 1.06556274489e-18)
(5.00050411664 104.161627576 -3.19929668719e-18)
(4.52998319452 115.681217031 1.45756169788e-18)
(4.92015445434 123.722683884 -1.20743158594e-17)
(6.61209919905 137.860899857 -3.96430479324e-17)
(10.7357690249 102.379838171 -1.3476331196e-19)
(1.50712098616 2.99076144632 1.44036149096e-18)
(-0.443898697895 -0.258375543301 2.212139138e-20)
)
;

boundaryField
{
    back
    {
        type            calculated;
        value           uniform (0 0 0);
    }
    sides
    {
        type            calculated;
        value           uniform (0 0 0);
    }
    bottom
    {
        type            calculated;
        value           nonuniform List<vector> 0();
    }
    front
    {
        type            calculated;
        value           uniform (0 0 0);
    }
    atmosphere
    {
        type            calculated;
        value           nonuniform List<vector> 
17
(
(2.94461018389 -1.48287967732 -2.0809673445e-19)
(1.65075332711 3.49691437812 -6.48049365403e-19)
(-0.00582090208793 -0.212086204664 -1.01762773081e-21)
(0.310885684763 0.382187186849 -1.96979795427e-19)
(0.78678102903 -0.0460883627688 1.07161290144e-19)
(-9.12252724634 0.717218402572 -2.93536695162e-19)
(0.123300417155 1.19219537302 5.36563659779e-21)
(9.97319215821 2.03690601125 -1.24947123357e-18)
(0.00198440571537 -4.80723914641 -8.49609315562e-20)
(-11.513780842 2.27041475139 -5.98141978407e-21)
(0.0116424985201 1.23597205733 2.29161016403e-21)
(3.617378478 1.77360757429 -1.02989124301e-19)
(0.0284813026895 -2.98813154603 8.64509736019e-20)
(-5.32516277042 1.49401416703 -1.62094174002e-20)
(-0.00438353193759 0.730869004012 4.66584428134e-22)
(-0.121357067698 0.558902405662 -3.74528405399e-21)
(-0.444129687304 -0.258375543298 2.22739948982e-20)
)
;
    }
    floatingObject
    {
        type            calculated;
        value           nonuniform List<vector> 0();
    }
    procBoundary11to9
    {
        type            processor;
        value           nonuniform List<vector> 9((119.666970957 -52.1685603565 9.99652309375e-20) (136.182851253 -61.1712223703 8.57986542028e-20) (156.198265721 -71.9435989478 5.0221734855e-19) (180.871509129 -85.4101887397 2.96059979998e-18) (212.135400035 -103.122471991 9.72272099638e-18) (255.211920575 -106.8362224 1.43141144743e-17) (272.608743852 -37.700303219 -2.01702182695e-18) (66.7929498328 3.77309126007 -4.60841921836e-18) (-0.566702458562 -1.50055063035 3.90539102677e-20));
    }
    procBoundary11to10
    {
        type            processor;
        value           nonuniform List<vector> 
23
(
(112.080310115 -31.4872148782 6.93694377119e-21)
(130.557341822 -19.9430299879 1.23889365217e-19)
(130.557341822 -19.9430299879 1.23889365217e-19)
(131.255224179 -3.44708720496 3.13392432435e-20)
(131.255224179 -3.44708720496 3.13392432435e-20)
(114.942388665 9.23661103963 -9.63152443774e-21)
(111.191537126 21.6987542831 9.32656061943e-21)
(105.564063491 32.9609231692 2.80249297177e-20)
(105.564063491 32.9609231692 2.80249297177e-20)
(89.91094122 35.7205729451 1.62037709035e-19)
(89.91094122 35.7205729451 1.62037709035e-19)
(76.4900975682 36.3553490551 9.07345459305e-21)
(69.7468298716 42.0484340916 2.66124503182e-20)
(66.897647453 54.7620314673 1.25722842943e-20)
(66.897647453 54.7620314673 1.25722842943e-20)
(58.132342244 58.9415446904 4.89557212017e-20)
(49.1504255711 62.211241334 -3.92223880663e-21)
(40.0820131544 64.6707626453 2.72298920018e-20)
(31.0363768358 66.4432457105 -2.19885172946e-20)
(31.0363768358 66.4432457105 -2.19885172946e-20)
(20.9047567296 59.3275366525 -6.96621797653e-21)
(12.3945106532 59.9812769596 -2.68382388197e-20)
(4.56701831787 59.4802395288 -1.85998916498e-19)
)
;
    }
}


// ************************************************************************* //
