/*--------------------------------*- C++ -*----------------------------------*\
| =========                 |                                                 |
| \\      /  F ield         | OpenFOAM: The Open Source CFD Toolbox           |
|  \\    /   O peration     | Version:  v2012                                 |
|   \\  /    A nd           | Website:  www.openfoam.com                      |
|    \\/     M anipulation  |                                                 |
\*---------------------------------------------------------------------------*/
FoamFile
{
    version     2.0;
    format      ascii;
    class       volScalarField;
    location    "4.2";
    object      k_0;
}
// * * * * * * * * * * * * * * * * * * * * * * * * * * * * * * * * * * * * * //

dimensions      [0 2 -2 0 0 0 0];


internalField   nonuniform List<scalar> 
167
(
0.00274088233212
0.00279458135431
0.0029205318837
0.00325125422962
0.00417132181882
0.00647245985844
0.0111984752002
0.0198883422144
0.0357948817385
0.00279107329047
0.00291889616689
0.00325291056799
0.00418948181339
0.00657361626618
0.0116562629095
0.0219622655644
0.0464986891945
0.00278823247532
0.00291948007406
0.00326091322451
0.0042211497971
0.00669407545938
0.0121406623918
0.0244835427339
0.0656432466202
0.00272682698038
0.00278660528266
0.00292442514449
0.00328207675194
0.0042771882402
0.00681503836603
0.0124073097058
0.0246668593711
0.0625022837792
0.00272263743726
0.00278554913102
0.0029311266435
0.00330838239069
0.00434060920842
0.00691190423718
0.0125325666748
0.0242096379274
0.0471663825426
0.0027185315667
0.00278417372101
0.00293569731219
0.0033274917813
0.00438496731188
0.00696685891277
0.0125845986129
0.0248792210494
0.0579857700378
0.00268183092203
0.00271443725249
0.00278220316659
0.00293738747848
0.00333662674284
0.00440934224743
0.00700479749385
0.012614088898
0.0254561610593
0.0681874572429
0.00265832364382
0.0026766344317
0.00271042774782
0.00277999948909
0.00293766196598
0.00334125635502
0.00442895129043
0.00705551505318
0.0126218092396
0.0245468251039
0.0592857773228
0.00265255772313
0.00267160877604
0.00270664446863
0.00277827905697
0.00293957511974
0.00335215273914
0.00446686858308
0.007145327436
0.0126884839689
0.0232490915565
0.0448080978413
0.00266663988667
0.00270303368726
0.00277715716804
0.00294374841184
0.00337001135637
0.00451930412695
0.00725436336222
0.0128556039933
0.0244508101315
0.0593057813893
0.00266140098617
0.00269916843823
0.00277599061689
0.00294840140012
0.00338833881338
0.00456556983792
0.00733689993182
0.0130039451884
0.0257259838013
0.0692808758348
0.00265466632929
0.00269377251189
0.00277331972966
0.00295122373237
0.00340054462831
0.00458857945593
0.00736567430053
0.0129959675519
0.0253191673909
0.0631513855386
0.00264314165764
0.00268335048283
0.00276526902322
0.0029474867901
0.00340090811817
0.00458514940164
0.00735463339804
0.0128808505858
0.0232884538061
0.0440066541296
0.00261806675314
0.0026587073758
0.00274170682768
0.00292572350271
0.00337983547453
0.00456523736593
0.00735882312134
0.0129613481416
0.0242938773557
0.0562903516907
0.00253513157423
0.00255667895813
0.00259631772842
0.00267742733911
0.00285743704978
0.00330352186987
0.0044840996717
0.00729781116723
0.012922795823
0.0254139473327
0.0686150761157
0.00237920904637
0.00239913818512
0.0024352947819
0.00250896460213
0.0026724696716
0.00308426647027
0.00421268561608
0.00695531238999
0.0123611589474
0.0242094223621
0.0681268660126
0.00190738101669
0.00192359076667
0.00195116311656
0.0020048413741
0.00212009864703
0.00240901680567
0.00326080554538
0.00557025265876
0.0102962380948
0.0187179822329
0.0365069702629
)
;

boundaryField
{
    back
    {
        type            kqRWallFunction;
        value           nonuniform List<scalar> 
167
(
0.00274088233212
0.00279458135431
0.0029205318837
0.00325125422962
0.00417132181882
0.00647245985844
0.0111984752002
0.0198883422144
0.0357948817385
0.00279107329047
0.00291889616689
0.00325291056799
0.00418948181339
0.00657361626618
0.0116562629095
0.0219622655644
0.0464986891945
0.00278823247532
0.00291948007406
0.00326091322451
0.0042211497971
0.00669407545938
0.0121406623918
0.0244835427339
0.0656432466202
0.00272682698038
0.00278660528266
0.00292442514449
0.00328207675194
0.0042771882402
0.00681503836603
0.0124073097058
0.0246668593711
0.0625022837792
0.00272263743726
0.00278554913102
0.0029311266435
0.00330838239069
0.00434060920842
0.00691190423718
0.0125325666748
0.0242096379274
0.0471663825426
0.0027185315667
0.00278417372101
0.00293569731219
0.0033274917813
0.00438496731188
0.00696685891277
0.0125845986129
0.0248792210494
0.0579857700378
0.00268183092203
0.00271443725249
0.00278220316659
0.00293738747848
0.00333662674284
0.00440934224743
0.00700479749385
0.012614088898
0.0254561610593
0.0681874572429
0.00265832364382
0.0026766344317
0.00271042774782
0.00277999948909
0.00293766196598
0.00334125635502
0.00442895129043
0.00705551505318
0.0126218092396
0.0245468251039
0.0592857773228
0.00265255772313
0.00267160877604
0.00270664446863
0.00277827905697
0.00293957511974
0.00335215273914
0.00446686858308
0.007145327436
0.0126884839689
0.0232490915565
0.0448080978413
0.00266663988667
0.00270303368726
0.00277715716804
0.00294374841184
0.00337001135637
0.00451930412695
0.00725436336222
0.0128556039933
0.0244508101315
0.0593057813893
0.00266140098617
0.00269916843823
0.00277599061689
0.00294840140012
0.00338833881338
0.00456556983792
0.00733689993182
0.0130039451884
0.0257259838013
0.0692808758348
0.00265466632929
0.00269377251189
0.00277331972966
0.00295122373237
0.00340054462831
0.00458857945593
0.00736567430053
0.0129959675519
0.0253191673909
0.0631513855386
0.00264314165764
0.00268335048283
0.00276526902322
0.0029474867901
0.00340090811817
0.00458514940164
0.00735463339804
0.0128808505858
0.0232884538061
0.0440066541296
0.00261806675314
0.0026587073758
0.00274170682768
0.00292572350271
0.00337983547453
0.00456523736593
0.00735882312134
0.0129613481416
0.0242938773557
0.0562903516907
0.00253513157423
0.00255667895813
0.00259631772842
0.00267742733911
0.00285743704978
0.00330352186987
0.0044840996717
0.00729781116723
0.012922795823
0.0254139473327
0.0686150761157
0.00237920904637
0.00239913818512
0.0024352947819
0.00250896460213
0.0026724696716
0.00308426647027
0.00421268561608
0.00695531238999
0.0123611589474
0.0242094223621
0.0681268660126
0.00190738101669
0.00192359076667
0.00195116311656
0.0020048413741
0.00212009864703
0.00240901680567
0.00326080554538
0.00557025265876
0.0102962380948
0.0187179822329
0.0365069702629
)
;
    }
    sides
    {
        type            kqRWallFunction;
        value           nonuniform List<scalar> 
11
(
0.00190738101669
0.00192359076667
0.00195116311656
0.0020048413741
0.00212009864703
0.00240901680567
0.00326080554538
0.00557025265876
0.0102962380948
0.0187179822329
0.0365069702629
)
;
    }
    bottom
    {
        type            kqRWallFunction;
        value           nonuniform List<scalar> 0();
    }
    front
    {
        type            kqRWallFunction;
        value           nonuniform List<scalar> 
167
(
0.00274088233212
0.00279458135431
0.0029205318837
0.00325125422962
0.00417132181882
0.00647245985844
0.0111984752002
0.0198883422144
0.0357948817385
0.00279107329047
0.00291889616689
0.00325291056799
0.00418948181339
0.00657361626618
0.0116562629095
0.0219622655644
0.0464986891945
0.00278823247532
0.00291948007406
0.00326091322451
0.0042211497971
0.00669407545938
0.0121406623918
0.0244835427339
0.0656432466202
0.00272682698038
0.00278660528266
0.00292442514449
0.00328207675194
0.0042771882402
0.00681503836603
0.0124073097058
0.0246668593711
0.0625022837792
0.00272263743726
0.00278554913102
0.0029311266435
0.00330838239069
0.00434060920842
0.00691190423718
0.0125325666748
0.0242096379274
0.0471663825426
0.0027185315667
0.00278417372101
0.00293569731219
0.0033274917813
0.00438496731188
0.00696685891277
0.0125845986129
0.0248792210494
0.0579857700378
0.00268183092203
0.00271443725249
0.00278220316659
0.00293738747848
0.00333662674284
0.00440934224743
0.00700479749385
0.012614088898
0.0254561610593
0.0681874572429
0.00265832364382
0.0026766344317
0.00271042774782
0.00277999948909
0.00293766196598
0.00334125635502
0.00442895129043
0.00705551505318
0.0126218092396
0.0245468251039
0.0592857773228
0.00265255772313
0.00267160877604
0.00270664446863
0.00277827905697
0.00293957511974
0.00335215273914
0.00446686858308
0.007145327436
0.0126884839689
0.0232490915565
0.0448080978413
0.00266663988667
0.00270303368726
0.00277715716804
0.00294374841184
0.00337001135637
0.00451930412695
0.00725436336222
0.0128556039933
0.0244508101315
0.0593057813893
0.00266140098617
0.00269916843823
0.00277599061689
0.00294840140012
0.00338833881338
0.00456556983792
0.00733689993182
0.0130039451884
0.0257259838013
0.0692808758348
0.00265466632929
0.00269377251189
0.00277331972966
0.00295122373237
0.00340054462831
0.00458857945593
0.00736567430053
0.0129959675519
0.0253191673909
0.0631513855386
0.00264314165764
0.00268335048283
0.00276526902322
0.0029474867901
0.00340090811817
0.00458514940164
0.00735463339804
0.0128808505858
0.0232884538061
0.0440066541296
0.00261806675314
0.0026587073758
0.00274170682768
0.00292572350271
0.00337983547453
0.00456523736593
0.00735882312134
0.0129613481416
0.0242938773557
0.0562903516907
0.00253513157423
0.00255667895813
0.00259631772842
0.00267742733911
0.00285743704978
0.00330352186987
0.0044840996717
0.00729781116723
0.012922795823
0.0254139473327
0.0686150761157
0.00237920904637
0.00239913818512
0.0024352947819
0.00250896460213
0.0026724696716
0.00308426647027
0.00421268561608
0.00695531238999
0.0123611589474
0.0242094223621
0.0681268660126
0.00190738101669
0.00192359076667
0.00195116311656
0.0020048413741
0.00212009864703
0.00240901680567
0.00326080554538
0.00557025265876
0.0102962380948
0.0187179822329
0.0365069702629
)
;
    }
    atmosphere
    {
        type            inletOutlet;
        inletValue      uniform 0.1;
        value           nonuniform List<scalar> 
17
(
0.0357948817385
0.0464986891945
0.1
0.1
0.0471663825426
0.0579857700378
0.1
0.0592857773228
0.0448080978413
0.0593057813893
0.1
0.0631513855386
0.0440066541296
0.0562903516907
0.1
0.1
0.0365069702629
)
;
    }
    floatingObject
    {
        type            kqRWallFunction;
        value           nonuniform List<scalar> 0();
    }
    procBoundary11to9
    {
        type            processor;
        value           nonuniform List<scalar> 9(0.00274569213584 0.0027977780657 0.00292100008766 0.00324632856502 0.00414963406017 0.00638846166749 0.0109421622619 0.0200775165814 0.0397875613492);
    }
    procBoundary11to10
    {
        type            processor;
        value           nonuniform List<scalar> 
23
(
0.00271530880694
0.00273592984669
0.00273592984669
0.00273117567499
0.00273117567499
0.00269816598846
0.00269261945763
0.00268717094923
0.00268717094923
0.00266424694232
0.00266424694232
0.00264663522286
0.00264038917362
0.00264684981853
0.00264684981853
0.00264087308826
0.00263342770348
0.00262135079122
0.00259607021906
0.00259607021906
0.00252116327945
0.00236593516151
0.00189562186791
)
;
    }
}


// ************************************************************************* //
