/*--------------------------------*- C++ -*----------------------------------*\
| =========                 |                                                 |
| \\      /  F ield         | OpenFOAM: The Open Source CFD Toolbox           |
|  \\    /   O peration     | Version:  v2012                                 |
|   \\  /    A nd           | Website:  www.openfoam.com                      |
|    \\/     M anipulation  |                                                 |
\*---------------------------------------------------------------------------*/
FoamFile
{
    version     2.0;
    format      ascii;
    class       volScalarField;
    location    "4.2";
    object      p_rgh;
}
// * * * * * * * * * * * * * * * * * * * * * * * * * * * * * * * * * * * * * //

dimensions      [1 -1 -2 0 0 0 0];


internalField   nonuniform List<scalar> 
167
(
8660.42277353
8662.40029063
8664.70131465
8667.41682819
8670.61986376
8674.50599181
6201.72085352
455.545999515
-0.466935180412
8656.080177
8657.21340173
8658.43153722
8659.69833992
8661.00551022
6045.69294965
363.149273099
1.07803385823
8649.56732896
8649.54138883
8649.26707819
8648.57447315
8647.13895801
5871.26972342
271.65535779
1.23146210725
8643.82647252
8643.09809161
8642.02222858
8640.40345225
8638.00874868
8634.31613185
5689.61940144
203.241500306
0.88655942072
8638.39350595
8636.92746755
8634.94694549
8632.23147229
8628.53517303
8623.34083285
5517.88776401
169.094160715
1.30438280493
8633.28299339
8631.20415356
8628.51585961
8624.98384802
8620.32814242
8613.82209369
5351.23376516
118.484147719
1.32485868691
8630.63366008
8628.57544386
8626.02609653
8622.84514958
8618.82721127
8613.75748706
8606.72393604
5202.73740223
89.4839477868
1.98610032202
8628.71324882
8626.71259567
8624.30766142
8621.41628477
8617.93637042
8613.73690308
8608.73569945
8602.1882495
5085.50196026
81.223549749
1.32270692927
8625.43108354
8623.15578591
8620.47692491
8617.33618188
8613.68000699
8609.4655183
8604.77621296
8599.26129625
4996.98737765
88.9033857983
-0.549072831992
8619.94986029
8617.05908499
8613.71940347
8609.92225766
8605.68321419
8601.15788729
8596.0753394
4912.55188442
75.2437711244
-1.15844255003
8617.12714585
8614.03469174
8610.50783361
8606.55204507
8602.20512219
8597.61856204
8592.48388368
4842.958452
65.1229799056
-0.820165344225
8614.67298767
8611.39431161
8607.67737243
8603.52599578
8598.98319678
8594.14524623
8588.6856388
4786.03780845
58.4711959294
-0.674726594509
8612.59236657
8609.14083425
8605.23214848
8600.85957316
8596.04839903
8590.82520216
8584.84208038
4742.40617059
54.8170140866
0.130203704685
8610.90464286
8607.29339162
8603.20188008
8598.60694082
8593.49994362
8587.82281307
8581.11238855
4698.03315654
40.1554391633
0.700719212648
8612.90687863
8609.62511601
8605.87775516
8601.6313839
8596.84401963
8591.48126333
8585.44257756
8578.26691426
4665.20222654
33.3977150025
0.333030702666
8612.13014189
8608.76429537
8604.92618041
8600.56937427
8595.64026597
8590.09061892
8583.80822333
8576.39403573
4643.51904694
30.2316120187
0.100533308154
8611.75921861
8608.35311422
8604.46695858
8600.05283367
8595.05512584
8589.40002863
8582.93468166
8575.39489087
4621.49303526
30.6151522921
0.0630824958272
)
;

boundaryField
{
    back
    {
        type            fixedFluxPressure;
        gradient        uniform 0;
        value           nonuniform List<scalar> 
167
(
8660.42277353
8662.40029063
8664.70131465
8667.41682819
8670.61986376
8674.50599181
6201.72085352
455.545999515
-0.466935180412
8656.080177
8657.21340173
8658.43153722
8659.69833992
8661.00551022
6045.69294965
363.149273099
1.07803385823
8649.56732896
8649.54138883
8649.26707819
8648.57447315
8647.13895801
5871.26972342
271.65535779
1.23146210725
8643.82647252
8643.09809161
8642.02222858
8640.40345225
8638.00874868
8634.31613185
5689.61940144
203.241500306
0.88655942072
8638.39350595
8636.92746755
8634.94694549
8632.23147229
8628.53517303
8623.34083285
5517.88776401
169.094160715
1.30438280493
8633.28299339
8631.20415356
8628.51585961
8624.98384802
8620.32814242
8613.82209369
5351.23376516
118.484147719
1.32485868691
8630.63366008
8628.57544386
8626.02609653
8622.84514958
8618.82721127
8613.75748706
8606.72393604
5202.73740223
89.4839477868
1.98610032202
8628.71324882
8626.71259567
8624.30766142
8621.41628477
8617.93637042
8613.73690308
8608.73569945
8602.1882495
5085.50196026
81.223549749
1.32270692927
8625.43108354
8623.15578591
8620.47692491
8617.33618188
8613.68000699
8609.4655183
8604.77621296
8599.26129625
4996.98737765
88.9033857983
-0.549072831992
8619.94986029
8617.05908499
8613.71940347
8609.92225766
8605.68321419
8601.15788729
8596.0753394
4912.55188442
75.2437711244
-1.15844255003
8617.12714585
8614.03469174
8610.50783361
8606.55204507
8602.20512219
8597.61856204
8592.48388368
4842.958452
65.1229799056
-0.820165344225
8614.67298767
8611.39431161
8607.67737243
8603.52599578
8598.98319678
8594.14524623
8588.6856388
4786.03780845
58.4711959294
-0.674726594509
8612.59236657
8609.14083425
8605.23214848
8600.85957316
8596.04839903
8590.82520216
8584.84208038
4742.40617059
54.8170140866
0.130203704685
8610.90464286
8607.29339162
8603.20188008
8598.60694082
8593.49994362
8587.82281307
8581.11238855
4698.03315654
40.1554391633
0.700719212648
8612.90687863
8609.62511601
8605.87775516
8601.6313839
8596.84401963
8591.48126333
8585.44257756
8578.26691426
4665.20222654
33.3977150025
0.333030702666
8612.13014189
8608.76429537
8604.92618041
8600.56937427
8595.64026597
8590.09061892
8583.80822333
8576.39403573
4643.51904694
30.2316120187
0.100533308154
8611.75921861
8608.35311422
8604.46695858
8600.05283367
8595.05512584
8589.40002863
8582.93468166
8575.39489087
4621.49303526
30.6151522921
0.0630824958272
)
;
    }
    sides
    {
        type            fixedFluxPressure;
        gradient        uniform 0;
        value           nonuniform List<scalar> 
11
(
8611.75921861
8608.35311422
8604.46695858
8600.05283367
8595.05512584
8589.40002863
8582.93468166
8575.39489087
4621.49303526
30.6151522921
0.0630824958272
)
;
    }
    bottom
    {
        type            fixedFluxPressure;
        gradient        nonuniform List<scalar> 0();
        value           nonuniform List<scalar> 0();
    }
    front
    {
        type            fixedFluxPressure;
        gradient        uniform 0;
        value           nonuniform List<scalar> 
167
(
8660.42277353
8662.40029063
8664.70131465
8667.41682819
8670.61986376
8674.50599181
6201.72085352
455.545999515
-0.466935180412
8656.080177
8657.21340173
8658.43153722
8659.69833992
8661.00551022
6045.69294965
363.149273099
1.07803385823
8649.56732896
8649.54138883
8649.26707819
8648.57447315
8647.13895801
5871.26972342
271.65535779
1.23146210725
8643.82647252
8643.09809161
8642.02222858
8640.40345225
8638.00874868
8634.31613185
5689.61940144
203.241500306
0.88655942072
8638.39350595
8636.92746755
8634.94694549
8632.23147229
8628.53517303
8623.34083285
5517.88776401
169.094160715
1.30438280493
8633.28299339
8631.20415356
8628.51585961
8624.98384802
8620.32814242
8613.82209369
5351.23376516
118.484147719
1.32485868691
8630.63366008
8628.57544386
8626.02609653
8622.84514958
8618.82721127
8613.75748706
8606.72393604
5202.73740223
89.4839477868
1.98610032202
8628.71324882
8626.71259567
8624.30766142
8621.41628477
8617.93637042
8613.73690308
8608.73569945
8602.1882495
5085.50196026
81.223549749
1.32270692927
8625.43108354
8623.15578591
8620.47692491
8617.33618188
8613.68000699
8609.4655183
8604.77621296
8599.26129625
4996.98737765
88.9033857983
-0.549072831992
8619.94986029
8617.05908499
8613.71940347
8609.92225766
8605.68321419
8601.15788729
8596.0753394
4912.55188442
75.2437711244
-1.15844255003
8617.12714585
8614.03469174
8610.50783361
8606.55204507
8602.20512219
8597.61856204
8592.48388368
4842.958452
65.1229799056
-0.820165344225
8614.67298767
8611.39431161
8607.67737243
8603.52599578
8598.98319678
8594.14524623
8588.6856388
4786.03780845
58.4711959294
-0.674726594509
8612.59236657
8609.14083425
8605.23214848
8600.85957316
8596.04839903
8590.82520216
8584.84208038
4742.40617059
54.8170140866
0.130203704685
8610.90464286
8607.29339162
8603.20188008
8598.60694082
8593.49994362
8587.82281307
8581.11238855
4698.03315654
40.1554391633
0.700719212648
8612.90687863
8609.62511601
8605.87775516
8601.6313839
8596.84401963
8591.48126333
8585.44257756
8578.26691426
4665.20222654
33.3977150025
0.333030702666
8612.13014189
8608.76429537
8604.92618041
8600.56937427
8595.64026597
8590.09061892
8583.80822333
8576.39403573
4643.51904694
30.2316120187
0.100533308154
8611.75921861
8608.35311422
8604.46695858
8600.05283367
8595.05512584
8589.40002863
8582.93468166
8575.39489087
4621.49303526
30.6151522921
0.0630824958272
)
;
    }
    atmosphere
    {
        type            totalPressure;
        rho             rho;
        psi             none;
        gamma           1;
        p0              uniform 0;
        value           nonuniform List<scalar> 
17
(
0
0
0
0
0
0
0
0
0
0
-2.76665898874e-05
0
0
0
0
0
0
)
;
    }
    floatingObject
    {
        type            fixedFluxPressure;
        gradient        nonuniform List<scalar> 0();
        value           nonuniform List<scalar> 0();
    }
    procBoundary11to9
    {
        type            processor;
        value           nonuniform List<scalar> 9(8665.50428902 8668.3244219 8671.67522542 8675.7252007 8680.65569335 8686.89204205 6375.87121634 540.247677479 -0.930120764227);
    }
    procBoundary11to10
    {
        type            processor;
        value           nonuniform List<scalar> 
23
(
8658.67265073
8654.99748499
8654.99748499
8649.39360434
8649.39360434
8644.23374577
8639.45626895
8634.89894978
8634.89894978
8632.30621716
8632.30621716
8630.39676756
8627.38138412
8622.47193788
8622.47193788
8619.86120273
8617.5837421
8615.66154837
8614.09934919
8614.09934919
8615.79050039
8615.06694802
8614.72604311
)
;
    }
}


// ************************************************************************* //
