/*--------------------------------*- C++ -*----------------------------------*\
| =========                 |                                                 |
| \\      /  F ield         | OpenFOAM: The Open Source CFD Toolbox           |
|  \\    /   O peration     | Version:  v2012                                 |
|   \\  /    A nd           | Website:  www.openfoam.com                      |
|    \\/     M anipulation  |                                                 |
\*---------------------------------------------------------------------------*/
FoamFile
{
    version     2.0;
    format      ascii;
    class       surfaceScalarField;
    location    "1";
    object      alphaPhi0.water;
}
// * * * * * * * * * * * * * * * * * * * * * * * * * * * * * * * * * * * * * //

dimensions      [0 3 -1 0 0 0 0];
oriented        oriented;


internalField   nonuniform List<scalar> 
300
(
-6.45636905505e-06
-0.00071485887218
-1.36863736479e-05
-0.000738410880095
-2.11694572462e-05
-0.000747060047077
-2.89281767276e-05
-0.000755751302805
-3.70111441295e-05
-0.000766770424336
-4.5484425213e-05
-0.000780525897734
-5.44172783035e-05
-0.000797107007341
-6.38723469377e-05
-0.000816569052921
-7.39105976977e-05
-0.000838978256849
-8.45817016072e-05
-0.000864419614525
-9.59373138872e-05
-0.000893007789177
-0.000108024060336
-0.0009248881638
-0.000120902091945
-0.000960237751581
-0.000134658633497
-0.000999265628803
-0.000149415258659
-0.00104192321021
-0.000165173144637
-0.00108706131248
-0.000181212755745
-0.00113113246869
-0.000124086188003
-0.00106963866377
1.01349285516e-12
-0.000251812840817
-7.07924703104e-14
-9.14525837998e-06
-0.000705713714969
-1.90875710901e-05
-0.000728468671092
-2.93336527367e-05
-0.000736814064603
-3.98672429758e-05
-0.000745217804099
-5.07468466156e-05
-0.000755890903034
-6.20513456451e-05
-0.000769221460307
-7.38626272158e-05
-0.000785295791484
-8.62611366063e-05
-0.000804170601253
-9.93266283537e-05
-0.000825912812921
-0.000113138343332
-0.00085060793201
-0.000127778971707
-0.000878367167701
-0.000143337484703
-0.000909329615759
-0.000159920329594
-0.00094365480287
-0.000177660419827
-0.000981525321382
-0.000196710335044
-0.00102287329514
-0.000217213535263
-0.00106655814225
-0.000239333464389
-0.00110901242334
-0.00016249422316
-0.00104354810102
1.2834615236e-12
-0.000241007350604
-3.63973735492e-13
-1.1753220375e-05
-0.000693960584753
-2.43299776977e-05
-0.000715892006892
-3.7239821112e-05
-0.000723904311194
-5.04572441168e-05
-0.000732000465298
-6.40482913323e-05
-0.000742299932859
-7.81019811488e-05
-0.000755167842144
-9.27123880286e-05
-0.000770685453867
-0.000107975550487
-0.000788907508252
-0.000123990274934
-0.000809898158662
-0.000140860183859
-0.000833738091576
-0.000158697027469
-0.000860530382786
-0.000177625125726
-0.000890401546614
-0.000197792139625
-0.000923487751854
-0.000219379926511
-0.000959937374761
-0.000242594968191
-0.000999658253458
-0.000267691076762
-0.00104146202402
-0.000295146892512
-0.00108155659064
-0.000199395313961
-0.00101589573342
-5.57115952503e-12
-0.000234626095173
3.06228826818e-13
-1.42717137324e-05
-0.000679688955268
-2.93965018629e-05
-0.000700767306209
-4.48729396878e-05
-0.0007084279588
-6.06769533831e-05
-0.000716196533049
-7.68833486841e-05
-0.000726093613161
-9.35906464717e-05
-0.000738460617227
-0.000110904050234
-0.000753372125137
-0.000128933315399
-0.000770878324655
-0.000147794060836
-0.000791037505396
-0.000167610445825
-0.000813921810288
-0.000188518726874
-0.000839622211832
-0.000210672106702
-0.000868248256359
-0.000234252214091
-0.000899907662705
-0.000259481902896
-0.000934707551021
-0.000286611377693
-0.000972528778617
-0.000315964179269
-0.00101210924303
-0.000348118342736
-0.00104940239504
-0.000235354037758
-0.000984703576024
-9.02536203411e-12
-0.00022837528051
2.72472466965e-12
-1.66941599416e-05
-0.000662994876381
-3.42710781432e-05
-0.000683190473901
-5.22128110593e-05
-0.000690486311065
-7.05003379016e-05
-0.000697909089173
-8.92173283496e-05
-0.000707376700551
-0.000108471242008
-0.000719206781568
-0.000128377230949
-0.000733466221594
-0.000149056787834
-0.000750198866593
-0.000170639502331
-0.000769454911941
-0.000193266058247
-0.000791295403955
-0.000217091960202
-0.000815796487338
-0.00024229239859
-0.000843047979386
-0.000269073684141
-0.000873126452219
-0.000297685365195
-0.000906095738638
-0.000328398488979
-0.000941815655315
-0.000361558479164
-0.000978949398146
-0.000397704854845
-0.0010132559993
-0.00027044536098
-0.000951277719982
5.69665261236e-11
-0.000223534914812
-7.20513222669e-12
-1.90144332847e-05
-0.000643980525332
-3.89396315342e-05
-0.000663265366383
-5.92394579276e-05
-0.000670186571629
-7.99010191968e-05
-0.000677247618119
-0.000101016055933
-0.000686261747623
-0.000122699945024
-0.000697522979285
-0.000145076317643
-0.000711089948013
-0.000168276234597
-0.000726999070701
-0.000192440225609
-0.000745291079376
-0.000217721378385
-0.000766014465961
-0.000244289187091
-0.000789228944351
-0.000272334157212
-0.000815003260482
-0.000302078468009
-0.000843382277092
-0.00033378670388
-0.0008743873603
-0.00036774028474
-0.000907862074529
-0.000404284981649
-0.000942404665973
-0.000443911919958
-0.000973628990974
-0.000304880960415
-0.000915612681497
-6.61454034767e-11
-0.000219379527802
5.80254605349e-12
-2.1226977932e-05
-0.000622753635636
-4.33900203997e-05
-0.000641102425449
-6.59348585503e-05
-0.000647641826954
-8.88547142651e-05
-0.000654327863761
-0.000112248306037
-0.000662868244486
-0.00013623749541
-0.000673533887365
-0.000160952634337
-0.000686374921408
-0.000186532046347
-0.000701419806726
-0.000213124101143
-0.000718699226747
-0.000240890441039
-0.000738248418683
-0.000270009161704
-0.000760110578908
-0.00030067957007
-0.000784333217495
-0.000333131736919
-0.000810930310444
-0.000367635516164
-0.00083988341125
-0.000404474153043
-0.000871023437822
-0.000443975102152
-0.000902903682542
-0.000486518694733
-0.000931085243452
-0.000338560803909
-0.000877866691205
-1.76565066262e-11
-0.000215600871104
5.26220388128e-12
-2.33268547402e-05
-0.000599426880428
-4.76117412806e-05
-0.000616817661554
-7.22833574492e-05
-0.000622970303516
-9.73405707417e-05
-0.000122887479668
-0.00014905090587
-0.000175966074168
-0.000203776228316
-0.000232634812468
-0.000262707693292
-0.000294177456524
-0.000327246621849
-0.000362145092905
-0.000399139170693
-0.000438501777495
-0.00048053418577
-0.000525531990722
-0.000371582191493
2.23719613491e-10
-2.5309730551e-05
-0.000574117256718
-5.1596384617e-05
-0.000546944552853
-0.000518031630961
)
;

boundaryField
{
    back
    {
        type            calculated;
        value           uniform 0;
    }
    sides
    {
        type            calculated;
        value           nonuniform List<scalar> 0();
    }
    bottom
    {
        type            calculated;
        value           uniform 0;
    }
    front
    {
        type            calculated;
        value           uniform 0;
    }
    atmosphere
    {
        type            calculated;
        value           uniform 0;
    }
    floatingObject
    {
        type            calculated;
        value           nonuniform List<scalar> 0();
    }
    procBoundary9to6
    {
        type            processor;
        value           nonuniform List<scalar> 4(0.00114717233905 0.00109164128758 0.000263918718992 -3.10591669336e-14);
    }
    procBoundary9to7
    {
        type            processor;
        value           nonuniform List<scalar> 
16
(
0.000721315047924
0.000745640689879
0.000754542935997
0.000763509829596
0.00077485320274
0.000788999010254
0.000806039732183
0.000826024052837
0.00084901650946
0.000875090795981
0.000904363575906
0.000936975203391
0.000973116221503
0.00101302283779
0.00105667983356
0.00110281919231
)
;
    }
    procBoundary9to10
    {
        type            processor;
        value           nonuniform List<scalar> 
15
(
-0.000629270751756
-0.000637321429872
-0.000647370559579
-0.000659459876972
-0.000673609809411
-0.000689840878
-0.000708175862061
-0.000728641283525
-0.000590531161387
-7.82726413573e-05
-0.000596294148847
-2.7172839178e-05
-2.89131433115e-05
-3.05302488702e-05
-0.00048750156691
)
;
    }
    procBoundary9to11
    {
        type            processor;
        value           nonuniform List<scalar> 9(-0.000751264466963 -0.000776032087877 -0.000802889087622 -0.000831660831 -0.000860871227458 -0.000886087155167 -0.000838099836278 -0.000211854058934 -2.6066852587e-11);
    }
}


// ************************************************************************* //
