/*--------------------------------*- C++ -*----------------------------------*\
| =========                 |                                                 |
| \\      /  F ield         | OpenFOAM: The Open Source CFD Toolbox           |
|  \\    /   O peration     | Version:  v2012                                 |
|   \\  /    A nd           | Website:  www.openfoam.com                      |
|    \\/     M anipulation  |                                                 |
\*---------------------------------------------------------------------------*/
FoamFile
{
    version     2.0;
    format      ascii;
    class       volScalarField;
    location    "1";
    object      epsilon_0;
}
// * * * * * * * * * * * * * * * * * * * * * * * * * * * * * * * * * * * * * //

dimensions      [0 2 -3 0 0 0 0];


internalField   nonuniform List<scalar> 
166
(
0.0222764394668
0.0222661809439
0.0236719242934
0.0240065950056
0.0240889330913
0.0241271020709
0.0241630088335
0.0242036028348
0.024249871956
0.0243020219202
0.0243607220587
0.0244301206549
0.0245323014556
0.0247658998919
0.0254950518898
0.0278145925364
0.0343889405394
0.0506078848674
0.0871961779126
0.175266626996
0.0222413972436
0.0222272189191
0.0236252419467
0.0239565304843
0.0240372995396
0.0240742468631
0.024108811233
0.0241478270908
0.024192251411
0.024242282803
0.0242986451376
0.024365864752
0.0244678125782
0.0247098917176
0.0254769654469
0.0279152700742
0.0347961248728
0.0516862640825
0.0893748731155
0.176653948263
0.0222005387528
0.02218466422
0.0235755418689
0.0239038117998
0.0239832658701
0.0240192379834
0.0240527358183
0.0240904856748
0.0241334121021
0.0241817019984
0.0242361217858
0.0243015213301
0.0244033082354
0.0246526806406
0.0254522473702
0.0279925775925
0.0351382259207
0.0526110441992
0.0912315297783
0.177853500907
0.0221544765424
0.0221389245246
0.0235231971305
0.0238487872103
0.023927164607
0.023962393739
0.0239950841193
0.024031859577
0.0240736104788
0.0241205075965
0.0241733470917
0.0242372440573
0.0243388804461
0.024594257428
0.0254207363003
0.0280461960719
0.0354155136907
0.053387618367
0.0928064626568
0.178885478868
0.0221038091744
0.0220904164506
0.023468591998
0.0237918217695
0.0238693492831
0.0239040586732
0.0239361903682
0.0239722703906
0.0240131530795
0.0240589887719
0.024110590397
0.0241732786392
0.0242747452928
0.0245348219985
0.0253827188142
0.0280768736401
0.0356302285384
0.0540231968209
0.0941167178198
0.179761429935
0.0220490879661
0.0220395220792
0.023412077217
0.0237332537428
0.0238101473669
0.023844554324
0.0238763693014
0.0239120239031
0.0239523345231
0.0239974269986
0.0240481191897
0.0241098794975
0.0242111482009
0.0244746888931
0.0253389038058
0.0280867971215
0.0357887624484
0.0545321353643
0.0952003766483
0.180503130645
0.0219908184045
0.0219865915392
0.0233539737229
0.0236734129748
0.02374987097
0.0237841901062
0.0238159267352
0.02385142044
0.0238914469415
0.0239361049227
0.0239862082431
0.0240473273857
0.0241483621621
0.0244142367887
0.02529014926
0.0280784097698
0.0358982120141
0.0549343255789
0.0960923558346
0.181128689918
0.0219294627189
0.0219319590144
0.0232945892822
0.0236125127127
0.0236887607342
0.0237232089936
0.0237551056416
0.0237906994166
0.023830723659
0.0238752472366
0.0239250877998
0.0239858213337
0.0240866298219
0.024353827063
0.0252373253914
0.0280539152235
0.0359632045628
0.0552372400069
0.0968084139929
0.181647629688
0.0218654454744
0.0218758666758
0.0232340916454
0.0217991148291
0.0217308204525
0.0216608923825
)
;

boundaryField
{
    back
    {
        lowReCorrection 0;
        blending        stepwise;
        n               2;
        type            epsilonWallFunction;
        value           nonuniform List<scalar> 
166
(
0.0222764394668
0.0222661809439
0.0236719242934
0.0240065950056
0.0240889330913
0.0241271020709
0.0241630088335
0.0242036028348
0.024249871956
0.0243020219202
0.0243607220587
0.0244301206549
0.0245323014556
0.0247658998919
0.0254950518898
0.0278145925364
0.0343889405394
0.0506078848674
0.0871961779126
0.175266626996
0.0222413972436
0.0222272189191
0.0236252419467
0.0239565304843
0.0240372995396
0.0240742468631
0.024108811233
0.0241478270908
0.024192251411
0.024242282803
0.0242986451376
0.024365864752
0.0244678125782
0.0247098917176
0.0254769654469
0.0279152700742
0.0347961248728
0.0516862640825
0.0893748731155
0.176653948263
0.0222005387528
0.02218466422
0.0235755418689
0.0239038117998
0.0239832658701
0.0240192379834
0.0240527358183
0.0240904856748
0.0241334121021
0.0241817019984
0.0242361217858
0.0243015213301
0.0244033082354
0.0246526806406
0.0254522473702
0.0279925775925
0.0351382259207
0.0526110441992
0.0912315297783
0.177853500907
0.0221544765424
0.0221389245246
0.0235231971305
0.0238487872103
0.023927164607
0.023962393739
0.0239950841193
0.024031859577
0.0240736104788
0.0241205075965
0.0241733470917
0.0242372440573
0.0243388804461
0.024594257428
0.0254207363003
0.0280461960719
0.0354155136907
0.053387618367
0.0928064626568
0.178885478868
0.0221038091744
0.0220904164506
0.023468591998
0.0237918217695
0.0238693492831
0.0239040586732
0.0239361903682
0.0239722703906
0.0240131530795
0.0240589887719
0.024110590397
0.0241732786392
0.0242747452928
0.0245348219985
0.0253827188142
0.0280768736401
0.0356302285384
0.0540231968209
0.0941167178198
0.179761429935
0.0220490879661
0.0220395220792
0.023412077217
0.0237332537428
0.0238101473669
0.023844554324
0.0238763693014
0.0239120239031
0.0239523345231
0.0239974269986
0.0240481191897
0.0241098794975
0.0242111482009
0.0244746888931
0.0253389038058
0.0280867971215
0.0357887624484
0.0545321353643
0.0952003766483
0.180503130645
0.0219908184045
0.0219865915392
0.0233539737229
0.0236734129748
0.02374987097
0.0237841901062
0.0238159267352
0.02385142044
0.0238914469415
0.0239361049227
0.0239862082431
0.0240473273857
0.0241483621621
0.0244142367887
0.02529014926
0.0280784097698
0.0358982120141
0.0549343255789
0.0960923558346
0.181128689918
0.0219294627189
0.0219319590144
0.0232945892822
0.0236125127127
0.0236887607342
0.0237232089936
0.0237551056416
0.0237906994166
0.023830723659
0.0238752472366
0.0239250877998
0.0239858213337
0.0240866298219
0.024353827063
0.0252373253914
0.0280539152235
0.0359632045628
0.0552372400069
0.0968084139929
0.181647629688
0.0218654454744
0.0218758666758
0.0232340916454
0.0217991148291
0.0217308204525
0.0216608923825
)
;
    }
    sides
    {
        lowReCorrection 0;
        blending        stepwise;
        n               2;
        type            epsilonWallFunction;
        value           nonuniform List<scalar> 0();
    }
    bottom
    {
        lowReCorrection 0;
        blending        stepwise;
        n               2;
        type            epsilonWallFunction;
        value           nonuniform List<scalar> 
12
(
0.0222764394668
0.0222413972436
0.0222005387528
0.0221544765424
0.0221038091744
0.0220490879661
0.0219908184045
0.0219294627189
0.0218654454744
0.0217991148291
0.0217308204525
0.0216608923825
)
;
    }
    front
    {
        lowReCorrection 0;
        blending        stepwise;
        n               2;
        type            epsilonWallFunction;
        value           nonuniform List<scalar> 
166
(
0.0222764394668
0.0222661809439
0.0236719242934
0.0240065950056
0.0240889330913
0.0241271020709
0.0241630088335
0.0242036028348
0.024249871956
0.0243020219202
0.0243607220587
0.0244301206549
0.0245323014556
0.0247658998919
0.0254950518898
0.0278145925364
0.0343889405394
0.0506078848674
0.0871961779126
0.175266626996
0.0222413972436
0.0222272189191
0.0236252419467
0.0239565304843
0.0240372995396
0.0240742468631
0.024108811233
0.0241478270908
0.024192251411
0.024242282803
0.0242986451376
0.024365864752
0.0244678125782
0.0247098917176
0.0254769654469
0.0279152700742
0.0347961248728
0.0516862640825
0.0893748731155
0.176653948263
0.0222005387528
0.02218466422
0.0235755418689
0.0239038117998
0.0239832658701
0.0240192379834
0.0240527358183
0.0240904856748
0.0241334121021
0.0241817019984
0.0242361217858
0.0243015213301
0.0244033082354
0.0246526806406
0.0254522473702
0.0279925775925
0.0351382259207
0.0526110441992
0.0912315297783
0.177853500907
0.0221544765424
0.0221389245246
0.0235231971305
0.0238487872103
0.023927164607
0.023962393739
0.0239950841193
0.024031859577
0.0240736104788
0.0241205075965
0.0241733470917
0.0242372440573
0.0243388804461
0.024594257428
0.0254207363003
0.0280461960719
0.0354155136907
0.053387618367
0.0928064626568
0.178885478868
0.0221038091744
0.0220904164506
0.023468591998
0.0237918217695
0.0238693492831
0.0239040586732
0.0239361903682
0.0239722703906
0.0240131530795
0.0240589887719
0.024110590397
0.0241732786392
0.0242747452928
0.0245348219985
0.0253827188142
0.0280768736401
0.0356302285384
0.0540231968209
0.0941167178198
0.179761429935
0.0220490879661
0.0220395220792
0.023412077217
0.0237332537428
0.0238101473669
0.023844554324
0.0238763693014
0.0239120239031
0.0239523345231
0.0239974269986
0.0240481191897
0.0241098794975
0.0242111482009
0.0244746888931
0.0253389038058
0.0280867971215
0.0357887624484
0.0545321353643
0.0952003766483
0.180503130645
0.0219908184045
0.0219865915392
0.0233539737229
0.0236734129748
0.02374987097
0.0237841901062
0.0238159267352
0.02385142044
0.0238914469415
0.0239361049227
0.0239862082431
0.0240473273857
0.0241483621621
0.0244142367887
0.02529014926
0.0280784097698
0.0358982120141
0.0549343255789
0.0960923558346
0.181128689918
0.0219294627189
0.0219319590144
0.0232945892822
0.0236125127127
0.0236887607342
0.0237232089936
0.0237551056416
0.0237906994166
0.023830723659
0.0238752472366
0.0239250877998
0.0239858213337
0.0240866298219
0.024353827063
0.0252373253914
0.0280539152235
0.0359632045628
0.0552372400069
0.0968084139929
0.181647629688
0.0218654454744
0.0218758666758
0.0232340916454
0.0217991148291
0.0217308204525
0.0216608923825
)
;
    }
    atmosphere
    {
        type            inletOutlet;
        inletValue      uniform 0.1;
        value           uniform 0.1;
    }
    floatingObject
    {
        lowReCorrection 0;
        blending        stepwise;
        n               2;
        type            epsilonWallFunction;
        value           nonuniform List<scalar> 0();
    }
    procBoundary9to6
    {
        type            processor;
        value           nonuniform List<scalar> 4(0.0339167578804 0.0493722531518 0.084671721215 0.173686857696);
    }
    procBoundary9to7
    {
        type            processor;
        value           nonuniform List<scalar> 
16
(
0.0223048912592
0.0223009377059
0.0237149931637
0.024053436781
0.0241376138065
0.0241772624903
0.0242147977959
0.0242572912559
0.0243057596818
0.0243604110124
0.0244218513262
0.0244938044491
0.0245963416715
0.0248204157634
0.0255065156241
0.0276909901991
)
;
    }
    procBoundary9to10
    {
        type            processor;
        value           nonuniform List<scalar> 
15
(
0.0235507901873
0.023627039086
0.0236618323418
0.0236941240909
0.0237300732986
0.0237703668876
0.0238150437354
0.0238648967831
0.0218185406414
0.0235507901873
0.0231727395414
0.0218185406414
0.0217601529611
0.0217010359406
0.0215896035503
)
;
    }
    procBoundary9to11
    {
        type            processor;
        value           nonuniform List<scalar> 9(0.0239255261322 0.0240261229234 0.0242937959078 0.0251813377279 0.0280157607026 0.0359891756359 0.0554504850818 0.0973661402931 0.182069867095);
    }
}


// ************************************************************************* //
