/*--------------------------------*- C++ -*----------------------------------*\
| =========                 |                                                 |
| \\      /  F ield         | OpenFOAM: The Open Source CFD Toolbox           |
|  \\    /   O peration     | Version:  v2012                                 |
|   \\  /    A nd           | Website:  www.openfoam.com                      |
|    \\/     M anipulation  |                                                 |
\*---------------------------------------------------------------------------*/
FoamFile
{
    version     2.0;
    format      ascii;
    class       volScalarField;
    location    "1";
    object      p;
}
// * * * * * * * * * * * * * * * * * * * * * * * * * * * * * * * * * * * * * //

dimensions      [1 -1 -2 0 0 0 0];


internalField   nonuniform List<scalar> 
166
(
8734.21680132
8244.11813836
7753.8032494
7263.06332034
6771.91200627
6280.32432429
5788.26164914
5295.67471663
4802.50308644
4308.67259142
3814.09279713
3318.6507807
2822.2070799
2324.60058124
1825.65821617
1325.19137274
822.485895678
333.05936916
44.2858077163
-9.56773602239
8730.93236525
8240.80566509
7750.44939791
7259.66343166
6768.45053566
6276.78490194
5784.62784967
5291.92990338
4798.63026191
4304.65467646
3809.91291395
3314.29486688
2817.6680543
2319.87931696
1820.75981947
1320.08672808
817.052591166
328.975102288
42.9425310755
-9.57592050027
8728.01877728
8237.86908942
7747.48627362
7256.6716811
6765.42141312
6273.70982767
5781.49906215
5288.74068135
4795.37530067
4301.330874
3806.52048945
3310.83950419
2814.16377305
2316.3506928
1817.23948343
1316.59543954
813.640678976
326.749313051
42.3391017615
-9.58479325505
8725.48023707
8235.3132127
7744.91700622
7254.09154144
6762.82817295
6271.10223115
5778.87757677
5286.1079841
4792.73700237
4298.69661681
3803.90542569
3308.26635732
2811.66575067
2313.97478562
1815.04579689
1314.64922536
812.080194468
326.225722559
42.4011737995
-9.59423836948
8723.31455027
8233.13606429
7742.73840144
7251.91913789
6760.66602003
6268.95594588
5776.75524983
5284.0208893
4790.70055377
4296.73166955
3802.0399356
3306.53750206
2810.12311662
2312.68448635
1814.09042519
1314.12600747
812.174781532
327.193206373
43.0440112338
-9.60419062618
8721.5133894
8231.32919282
7740.9409402
7250.14376072
6758.92260458
6267.2564049
5775.11454504
5282.45790974
4789.23922257
4295.4023666
3800.88123622
3305.59830405
2809.46598076
2312.39014129
1814.2567009
1314.86766084
813.707042777
329.420603806
44.1699107174
-9.61431452931
8720.06274868
8229.87823714
7739.50915984
7248.74840793
6757.57878357
6265.98159981
5773.92971438
5281.38845248
4788.31618382
4294.66389845
3800.37435568
3305.38083978
2809.61001779
2312.98640513
1815.41137867
1316.70213547
816.452471111
332.694354784
45.7029567281
-9.62429747445
8718.94352413
8228.76358174
7738.42221724
7247.71047741
6756.60946106
6265.10312401
5773.1680587
5280.77437165
4787.88641582
4294.46266716
3800.45490544
3305.80752123
2810.4612725
2314.35908054
1817.41525447
1319.45837583
820.190056225
336.857206225
47.5835529383
-9.63465088128
8718.13215217
8227.96106872
7737.65471466
8717.60145417
8717.32129815
8717.2593294
)
;

boundaryField
{
    back
    {
        type            calculated;
        value           nonuniform List<scalar> 
166
(
8734.21680132
8244.11813836
7753.8032494
7263.06332034
6771.91200627
6280.32432429
5788.26164914
5295.67471663
4802.50308644
4308.67259142
3814.09279713
3318.6507807
2822.2070799
2324.60058124
1825.65821617
1325.19137274
822.485895678
333.05936916
44.2858077163
-9.56773602239
8730.93236525
8240.80566509
7750.44939791
7259.66343166
6768.45053566
6276.78490194
5784.62784967
5291.92990338
4798.63026191
4304.65467646
3809.91291395
3314.29486688
2817.6680543
2319.87931696
1820.75981947
1320.08672808
817.052591166
328.975102288
42.9425310755
-9.57592050027
8728.01877728
8237.86908942
7747.48627362
7256.6716811
6765.42141312
6273.70982767
5781.49906215
5288.74068135
4795.37530067
4301.330874
3806.52048945
3310.83950419
2814.16377305
2316.3506928
1817.23948343
1316.59543954
813.640678976
326.749313051
42.3391017615
-9.58479325505
8725.48023707
8235.3132127
7744.91700622
7254.09154144
6762.82817295
6271.10223115
5778.87757677
5286.1079841
4792.73700237
4298.69661681
3803.90542569
3308.26635732
2811.66575067
2313.97478562
1815.04579689
1314.64922536
812.080194468
326.225722559
42.4011737995
-9.59423836948
8723.31455027
8233.13606429
7742.73840144
7251.91913789
6760.66602003
6268.95594588
5776.75524983
5284.0208893
4790.70055377
4296.73166955
3802.0399356
3306.53750206
2810.12311662
2312.68448635
1814.09042519
1314.12600747
812.174781532
327.193206373
43.0440112338
-9.60419062618
8721.5133894
8231.32919282
7740.9409402
7250.14376072
6758.92260458
6267.2564049
5775.11454504
5282.45790974
4789.23922257
4295.4023666
3800.88123622
3305.59830405
2809.46598076
2312.39014129
1814.2567009
1314.86766084
813.707042777
329.420603806
44.1699107174
-9.61431452931
8720.06274868
8229.87823714
7739.50915984
7248.74840793
6757.57878357
6265.98159981
5773.92971438
5281.38845248
4788.31618382
4294.66389845
3800.37435568
3305.38083978
2809.61001779
2312.98640513
1815.41137867
1316.70213547
816.452471111
332.694354784
45.7029567281
-9.62429747445
8718.94352413
8228.76358174
7738.42221724
7247.71047741
6756.60946106
6265.10312401
5773.1680587
5280.77437165
4787.88641582
4294.46266716
3800.45490544
3305.80752123
2810.4612725
2314.35908054
1817.41525447
1319.45837583
820.190056225
336.857206225
47.5835529383
-9.63465088128
8718.13215217
8227.96106872
7737.65471466
8717.60145417
8717.32129815
8717.2593294
)
;
    }
    sides
    {
        type            calculated;
        value           nonuniform List<scalar> 0();
    }
    bottom
    {
        type            calculated;
        value           nonuniform List<scalar> 
12
(
8979.02536018
8975.74093015
8972.8273463
8970.28881004
8968.12312706
8966.32197067
8964.87133788
8963.75212918
8962.94076947
8962.4100895
8962.12994586
8962.06798504
)
;
    }
    front
    {
        type            calculated;
        value           nonuniform List<scalar> 
166
(
8734.21680132
8244.11813836
7753.8032494
7263.06332034
6771.91200627
6280.32432429
5788.26164914
5295.67471663
4802.50308644
4308.67259142
3814.09279713
3318.6507807
2822.2070799
2324.60058124
1825.65821617
1325.19137274
822.485895678
333.05936916
44.2858077163
-9.56773602239
8730.93236525
8240.80566509
7750.44939791
7259.66343166
6768.45053566
6276.78490194
5784.62784967
5291.92990338
4798.63026191
4304.65467646
3809.91291395
3314.29486688
2817.6680543
2319.87931696
1820.75981947
1320.08672808
817.052591166
328.975102288
42.9425310755
-9.57592050027
8728.01877728
8237.86908942
7747.48627362
7256.6716811
6765.42141312
6273.70982767
5781.49906215
5288.74068135
4795.37530067
4301.330874
3806.52048945
3310.83950419
2814.16377305
2316.3506928
1817.23948343
1316.59543954
813.640678976
326.749313051
42.3391017615
-9.58479325505
8725.48023707
8235.3132127
7744.91700622
7254.09154144
6762.82817295
6271.10223115
5778.87757677
5286.1079841
4792.73700237
4298.69661681
3803.90542569
3308.26635732
2811.66575067
2313.97478562
1815.04579689
1314.64922536
812.080194468
326.225722559
42.4011737995
-9.59423836948
8723.31455027
8233.13606429
7742.73840144
7251.91913789
6760.66602003
6268.95594588
5776.75524983
5284.0208893
4790.70055377
4296.73166955
3802.0399356
3306.53750206
2810.12311662
2312.68448635
1814.09042519
1314.12600747
812.174781532
327.193206373
43.0440112338
-9.60419062618
8721.5133894
8231.32919282
7740.9409402
7250.14376072
6758.92260458
6267.2564049
5775.11454504
5282.45790974
4789.23922257
4295.4023666
3800.88123622
3305.59830405
2809.46598076
2312.39014129
1814.2567009
1314.86766084
813.707042777
329.420603806
44.1699107174
-9.61431452931
8720.06274868
8229.87823714
7739.50915984
7248.74840793
6757.57878357
6265.98159981
5773.92971438
5281.38845248
4788.31618382
4294.66389845
3800.37435568
3305.38083978
2809.61001779
2312.98640513
1815.41137867
1316.70213547
816.452471111
332.694354784
45.7029567281
-9.62429747445
8718.94352413
8228.76358174
7738.42221724
7247.71047741
6756.60946106
6265.10312401
5773.1680587
5280.77437165
4787.88641582
4294.46266716
3800.45490544
3305.80752123
2810.4612725
2314.35908054
1817.41525447
1319.45837583
820.190056225
336.857206225
47.5835529383
-9.63465088128
8718.13215217
8227.96106872
7737.65471466
8717.60145417
8717.32129815
8717.2593294
)
;
    }
    atmosphere
    {
        type            calculated;
        value           nonuniform List<scalar> 8(-9.81085838195 -9.81161063745 -9.81254132626 -9.81362289252 -9.81479802357 -9.81602636896 -9.81724835493 -9.81845143313);
    }
    floatingObject
    {
        type            calculated;
        value           nonuniform List<scalar> 0();
    }
    procBoundary9to6
    {
        type            processor;
        value           nonuniform List<scalar> 4(830.159564258 339.355935602 46.5050624375 -9.5621752251);
    }
    procBoundary9to7
    {
        type            processor;
        value           nonuniform List<scalar> 
16
(
8737.86098963
8247.79589543
7757.53817933
7266.85924733
6775.79287295
6284.31479994
5792.38683347
5299.96139411
4806.97986847
4313.37136204
3819.04983935
3323.90415957
2827.78561609
2330.52721337
1831.94929963
1331.92494732
)
;
    }
    procBoundary9to10
    {
        type            processor;
        value           nonuniform List<scalar> 
15
(
7247.00259551
6755.9845535
6264.58729763
5772.7913114
5280.57160994
4787.89868387
4294.73850153
3801.05209557
8227.44286559
7247.00259551
7737.1774156
8227.44286559
8227.17812457
8227.13394895
8717.38205122
)
;
    }
    procBoundary9to11
    {
        type            processor;
        value           nonuniform List<scalar> 9(3306.79444214 2811.92016448 2316.3899952 1820.12980254 1322.9781459 824.746276167 341.756516428 49.7590839186 -9.64569561175);
    }
}


// ************************************************************************* //
