/*--------------------------------*- C++ -*----------------------------------*\
| =========                 |                                                 |
| \\      /  F ield         | OpenFOAM: The Open Source CFD Toolbox           |
|  \\    /   O peration     | Version:  v2012                                 |
|   \\  /    A nd           | Website:  www.openfoam.com                      |
|    \\/     M anipulation  |                                                 |
\*---------------------------------------------------------------------------*/
FoamFile
{
    version     2.0;
    format      ascii;
    class       volScalarField;
    location    "1";
    object      rAU;
}
// * * * * * * * * * * * * * * * * * * * * * * * * * * * * * * * * * * * * * //

dimensions      [-1 3 1 0 0 0 0];


internalField   nonuniform List<scalar> 
166
(
8.27915423222e-06
8.20695654086e-06
8.1907999394e-06
8.18425573682e-06
8.18067069936e-06
8.17841327023e-06
8.17690727959e-06
8.17586426077e-06
8.17511763459e-06
8.17457630973e-06
8.17415698715e-06
8.17380454931e-06
8.17333172759e-06
8.17211783658e-06
8.16917343795e-06
8.16413336613e-06
8.12486636804e-06
8.77162599493e-06
3.64170610718e-05
0.00411424820289
8.27065232364e-06
8.20244498509e-06
8.18966352656e-06
8.18500226833e-06
8.18198666373e-06
8.17985569879e-06
8.17830976761e-06
8.17717121528e-06
8.1763157058e-06
8.17566307778e-06
8.17514410999e-06
8.17468295331e-06
8.17408247096e-06
8.17267135517e-06
8.16962891673e-06
8.1646922143e-06
8.11798454906e-06
8.7582016889e-06
3.66721258254e-05
0.00413523650755
8.2653009717e-06
8.19879142626e-06
8.18775138048e-06
8.18449004923e-06
8.18223988743e-06
8.18048740633e-06
8.17910958335e-06
8.17802795293e-06
8.17717317372e-06
8.17649260368e-06
8.17593204158e-06
8.1754043709e-06
8.17470438993e-06
8.17315877089e-06
8.17009742816e-06
8.16541588308e-06
8.11968463612e-06
8.76371512086e-06
3.68709918344e-05
0.00413490399442
8.26169630948e-06
8.1960152994e-06
8.18588398501e-06
8.18350898477e-06
8.18190109264e-06
8.18056184365e-06
8.17943418446e-06
8.17849536554e-06
8.17771581988e-06
8.17707048273e-06
8.17651871802e-06
8.17596015096e-06
8.17519916873e-06
8.17363357279e-06
8.17067345804e-06
8.16603425739e-06
8.12201499833e-06
8.75564667702e-06
3.66109331238e-05
0.00411386998651
8.25913216027e-06
8.1939071788e-06
8.18424820236e-06
8.18242266077e-06
8.18128688907e-06
8.18030335335e-06
8.17942878379e-06
8.17866227072e-06
8.17799567929e-06
8.17742407744e-06
8.1769160439e-06
8.17635167161e-06
8.17556494974e-06
8.17409282363e-06
8.1712761067e-06
8.16619816951e-06
8.12443577244e-06
8.73597408149e-06
3.59787054137e-05
0.00407525035583
8.25723079228e-06
8.19228625495e-06
8.18286130854e-06
8.18137912792e-06
8.18057543873e-06
8.17986995453e-06
8.17921599456e-06
8.17861706641e-06
8.17807367626e-06
8.17759334776e-06
8.17714912989e-06
8.17659396168e-06
8.17580656484e-06
8.17453934824e-06
8.17185092377e-06
8.16562625682e-06
8.1264334246e-06
8.70652349589e-06
3.50637953924e-05
0.00402282596818
8.25577552976e-06
8.19102130909e-06
8.1816974128e-06
8.18043254483e-06
8.17985936683e-06
8.17936166104e-06
8.17888621111e-06
8.17843418997e-06
8.17800748975e-06
8.17762172497e-06
8.17724994513e-06
8.17670966903e-06
8.17593894785e-06
8.17498109151e-06
8.17237551789e-06
8.16433999564e-06
8.12825735719e-06
8.67073983685e-06
3.39603410343e-05
0.00396013306721
8.25463442436e-06
8.19002070357e-06
8.18072377537e-06
8.17959814748e-06
8.17918464661e-06
8.1788384605e-06
8.17850164179e-06
8.17817090271e-06
8.17784693142e-06
8.17754944914e-06
8.17725110107e-06
8.17672427488e-06
8.17598264445e-06
8.17540905634e-06
8.17283520913e-06
8.16244671349e-06
8.1296357731e-06
8.65531715829e-06
3.31045348065e-05
0.00388913656574
8.25372375745e-06
8.18922144861e-06
8.17991095989e-06
8.25298713124e-06
8.25238681542e-06
8.25189624877e-06
)
;

boundaryField
{
    back
    {
        type            calculated;
        value           nonuniform List<scalar> 
166
(
8.27915423222e-06
8.20695654086e-06
8.1907999394e-06
8.18425573682e-06
8.18067069936e-06
8.17841327023e-06
8.17690727959e-06
8.17586426077e-06
8.17511763459e-06
8.17457630973e-06
8.17415698715e-06
8.17380454931e-06
8.17333172759e-06
8.17211783658e-06
8.16917343795e-06
8.16413336613e-06
8.12486636804e-06
8.77162599493e-06
3.64170610718e-05
0.00411424820289
8.27065232364e-06
8.20244498509e-06
8.18966352656e-06
8.18500226833e-06
8.18198666373e-06
8.17985569879e-06
8.17830976761e-06
8.17717121528e-06
8.1763157058e-06
8.17566307778e-06
8.17514410999e-06
8.17468295331e-06
8.17408247096e-06
8.17267135517e-06
8.16962891673e-06
8.1646922143e-06
8.11798454906e-06
8.7582016889e-06
3.66721258254e-05
0.00413523650755
8.2653009717e-06
8.19879142626e-06
8.18775138048e-06
8.18449004923e-06
8.18223988743e-06
8.18048740633e-06
8.17910958335e-06
8.17802795293e-06
8.17717317372e-06
8.17649260368e-06
8.17593204158e-06
8.1754043709e-06
8.17470438993e-06
8.17315877089e-06
8.17009742816e-06
8.16541588308e-06
8.11968463612e-06
8.76371512086e-06
3.68709918344e-05
0.00413490399442
8.26169630948e-06
8.1960152994e-06
8.18588398501e-06
8.18350898477e-06
8.18190109264e-06
8.18056184365e-06
8.17943418446e-06
8.17849536554e-06
8.17771581988e-06
8.17707048273e-06
8.17651871802e-06
8.17596015096e-06
8.17519916873e-06
8.17363357279e-06
8.17067345804e-06
8.16603425739e-06
8.12201499833e-06
8.75564667702e-06
3.66109331238e-05
0.00411386998651
8.25913216027e-06
8.1939071788e-06
8.18424820236e-06
8.18242266077e-06
8.18128688907e-06
8.18030335335e-06
8.17942878379e-06
8.17866227072e-06
8.17799567929e-06
8.17742407744e-06
8.1769160439e-06
8.17635167161e-06
8.17556494974e-06
8.17409282363e-06
8.1712761067e-06
8.16619816951e-06
8.12443577244e-06
8.73597408149e-06
3.59787054137e-05
0.00407525035583
8.25723079228e-06
8.19228625495e-06
8.18286130854e-06
8.18137912792e-06
8.18057543873e-06
8.17986995453e-06
8.17921599456e-06
8.17861706641e-06
8.17807367626e-06
8.17759334776e-06
8.17714912989e-06
8.17659396168e-06
8.17580656484e-06
8.17453934824e-06
8.17185092377e-06
8.16562625682e-06
8.1264334246e-06
8.70652349589e-06
3.50637953924e-05
0.00402282596818
8.25577552976e-06
8.19102130909e-06
8.1816974128e-06
8.18043254483e-06
8.17985936683e-06
8.17936166104e-06
8.17888621111e-06
8.17843418997e-06
8.17800748975e-06
8.17762172497e-06
8.17724994513e-06
8.17670966903e-06
8.17593894785e-06
8.17498109151e-06
8.17237551789e-06
8.16433999564e-06
8.12825735719e-06
8.67073983685e-06
3.39603410343e-05
0.00396013306721
8.25463442436e-06
8.19002070357e-06
8.18072377537e-06
8.17959814748e-06
8.17918464661e-06
8.1788384605e-06
8.17850164179e-06
8.17817090271e-06
8.17784693142e-06
8.17754944914e-06
8.17725110107e-06
8.17672427488e-06
8.17598264445e-06
8.17540905634e-06
8.17283520913e-06
8.16244671349e-06
8.1296357731e-06
8.65531715829e-06
3.31045348065e-05
0.00388913656574
8.25372375745e-06
8.18922144861e-06
8.17991095989e-06
8.25298713124e-06
8.25238681542e-06
8.25189624877e-06
)
;
    }
    sides
    {
        type            calculated;
        value           nonuniform List<scalar> 0();
    }
    bottom
    {
        type            calculated;
        value           nonuniform List<scalar> 
12
(
8.27915423222e-06
8.27065232364e-06
8.2653009717e-06
8.26169630948e-06
8.25913216027e-06
8.25723079228e-06
8.25577552976e-06
8.25463442436e-06
8.25372375745e-06
8.25298713124e-06
8.25238681542e-06
8.25189624877e-06
)
;
    }
    front
    {
        type            calculated;
        value           nonuniform List<scalar> 
166
(
8.27915423222e-06
8.20695654086e-06
8.1907999394e-06
8.18425573682e-06
8.18067069936e-06
8.17841327023e-06
8.17690727959e-06
8.17586426077e-06
8.17511763459e-06
8.17457630973e-06
8.17415698715e-06
8.17380454931e-06
8.17333172759e-06
8.17211783658e-06
8.16917343795e-06
8.16413336613e-06
8.12486636804e-06
8.77162599493e-06
3.64170610718e-05
0.00411424820289
8.27065232364e-06
8.20244498509e-06
8.18966352656e-06
8.18500226833e-06
8.18198666373e-06
8.17985569879e-06
8.17830976761e-06
8.17717121528e-06
8.1763157058e-06
8.17566307778e-06
8.17514410999e-06
8.17468295331e-06
8.17408247096e-06
8.17267135517e-06
8.16962891673e-06
8.1646922143e-06
8.11798454906e-06
8.7582016889e-06
3.66721258254e-05
0.00413523650755
8.2653009717e-06
8.19879142626e-06
8.18775138048e-06
8.18449004923e-06
8.18223988743e-06
8.18048740633e-06
8.17910958335e-06
8.17802795293e-06
8.17717317372e-06
8.17649260368e-06
8.17593204158e-06
8.1754043709e-06
8.17470438993e-06
8.17315877089e-06
8.17009742816e-06
8.16541588308e-06
8.11968463612e-06
8.76371512086e-06
3.68709918344e-05
0.00413490399442
8.26169630948e-06
8.1960152994e-06
8.18588398501e-06
8.18350898477e-06
8.18190109264e-06
8.18056184365e-06
8.17943418446e-06
8.17849536554e-06
8.17771581988e-06
8.17707048273e-06
8.17651871802e-06
8.17596015096e-06
8.17519916873e-06
8.17363357279e-06
8.17067345804e-06
8.16603425739e-06
8.12201499833e-06
8.75564667702e-06
3.66109331238e-05
0.00411386998651
8.25913216027e-06
8.1939071788e-06
8.18424820236e-06
8.18242266077e-06
8.18128688907e-06
8.18030335335e-06
8.17942878379e-06
8.17866227072e-06
8.17799567929e-06
8.17742407744e-06
8.1769160439e-06
8.17635167161e-06
8.17556494974e-06
8.17409282363e-06
8.1712761067e-06
8.16619816951e-06
8.12443577244e-06
8.73597408149e-06
3.59787054137e-05
0.00407525035583
8.25723079228e-06
8.19228625495e-06
8.18286130854e-06
8.18137912792e-06
8.18057543873e-06
8.17986995453e-06
8.17921599456e-06
8.17861706641e-06
8.17807367626e-06
8.17759334776e-06
8.17714912989e-06
8.17659396168e-06
8.17580656484e-06
8.17453934824e-06
8.17185092377e-06
8.16562625682e-06
8.1264334246e-06
8.70652349589e-06
3.50637953924e-05
0.00402282596818
8.25577552976e-06
8.19102130909e-06
8.1816974128e-06
8.18043254483e-06
8.17985936683e-06
8.17936166104e-06
8.17888621111e-06
8.17843418997e-06
8.17800748975e-06
8.17762172497e-06
8.17724994513e-06
8.17670966903e-06
8.17593894785e-06
8.17498109151e-06
8.17237551789e-06
8.16433999564e-06
8.12825735719e-06
8.67073983685e-06
3.39603410343e-05
0.00396013306721
8.25463442436e-06
8.19002070357e-06
8.18072377537e-06
8.17959814748e-06
8.17918464661e-06
8.1788384605e-06
8.17850164179e-06
8.17817090271e-06
8.17784693142e-06
8.17754944914e-06
8.17725110107e-06
8.17672427488e-06
8.17598264445e-06
8.17540905634e-06
8.17283520913e-06
8.16244671349e-06
8.1296357731e-06
8.65531715829e-06
3.31045348065e-05
0.00388913656574
8.25372375745e-06
8.18922144861e-06
8.17991095989e-06
8.25298713124e-06
8.25238681542e-06
8.25189624877e-06
)
;
    }
    atmosphere
    {
        type            calculated;
        value           nonuniform List<scalar> 8(0.00411424820289 0.00413523650755 0.00413490399442 0.00411386998651 0.00407525035583 0.00402282596818 0.00396013306721 0.00388913656574);
    }
    floatingObject
    {
        type            calculated;
        value           nonuniform List<scalar> 0();
    }
    procBoundary9to6
    {
        type            processor;
        value           nonuniform List<scalar> 4(8.1333968698e-06 8.73975496825e-06 3.51272964823e-05 0.00406958406843);
    }
    procBoundary9to7
    {
        type            processor;
        value           nonuniform List<scalar> 
16
(
8.29052095997e-06
8.20953820046e-06
8.18850739608e-06
8.18104318613e-06
8.1778517974e-06
8.17600020825e-06
8.17486325781e-06
8.17410734292e-06
8.17360289067e-06
8.17326421362e-06
8.17299780133e-06
8.17281444459e-06
8.17248983701e-06
8.17146615286e-06
8.16850423831e-06
8.16422198188e-06
)
;
    }
    procBoundary9to10
    {
        type            processor;
        value           nonuniform List<scalar> 
15
(
8.17887611797e-06
8.17857306282e-06
8.17833607086e-06
8.17810412004e-06
8.17787048275e-06
8.17763268365e-06
8.17741413093e-06
8.17718140987e-06
8.18857876584e-06
8.17887611797e-06
8.17923469995e-06
8.18857876584e-06
8.1880618274e-06
8.18764620404e-06
8.25149623787e-06
)
;
    }
    procBoundary9to11
    {
        type            processor;
        value           nonuniform List<scalar> 9(8.17666645918e-06 8.17595600112e-06 8.17580589013e-06 8.17322141643e-06 8.1600732211e-06 8.12968574281e-06 8.63769581105e-06 3.21694527385e-05 0.00381222009357);
    }
}


// ************************************************************************* //
