/*--------------------------------*- C++ -*----------------------------------*\
| =========                 |                                                 |
| \\      /  F ield         | OpenFOAM: The Open Source CFD Toolbox           |
|  \\    /   O peration     | Version:  v2012                                 |
|   \\  /    A nd           | Website:  www.openfoam.com                      |
|    \\/     M anipulation  |                                                 |
\*---------------------------------------------------------------------------*/
FoamFile
{
    version     2.0;
    format      ascii;
    class       volScalarField;
    location    "1.9";
    object      rAU;
}
// * * * * * * * * * * * * * * * * * * * * * * * * * * * * * * * * * * * * * //

dimensions      [-1 3 1 0 0 0 0];


internalField   nonuniform List<scalar> 
164
(
9.37882381738e-06
9.3888430725e-06
9.35688556492e-06
9.30590023745e-06
9.23467548927e-06
9.13835230315e-06
4.89207688434e-05
0.00272146576642
9.40315225006e-06
9.37737862665e-06
9.36480769432e-06
9.3380945996e-06
9.2673144032e-06
9.15274512217e-06
1.03546124935e-05
5.44705755796e-05
9.40314828354e-06
9.37737075735e-06
9.36479569106e-06
9.33808184558e-06
9.26730924742e-06
9.1527422672e-06
1.03544086894e-05
5.44664589291e-05
9.37881808573e-06
9.38882662627e-06
9.35687114521e-06
9.30588143072e-06
9.23467715688e-06
9.13835086263e-06
4.89197170118e-05
0.00272138984274
9.34542652588e-06
9.29934264373e-06
9.23731501278e-06
9.46555153875e-06
3.98910937204e-05
0.00282820140586
9.35714101179e-06
9.3179139402e-06
9.22735766282e-06
9.21486434353e-06
1.13027096522e-05
7.8197343065e-05
9.38115768273e-06
9.36477504041e-06
9.29220237263e-06
9.28325461422e-06
4.69315783642e-05
0.00247250701832
9.3807164384e-06
9.3713838516e-06
9.36111650007e-06
9.34067752004e-06
5.92659482059e-05
0.00237303652325
9.38054634852e-06
9.3751471771e-06
9.36707566072e-06
9.74698652991e-06
6.23317026779e-05
0.00438408380077
9.36887557177e-06
9.3527221402e-06
9.36769667532e-06
9.79060090984e-06
6.44221453044e-05
0.00488907955907
9.36108814835e-06
9.34133746804e-06
9.34618917642e-06
9.58536191168e-06
6.62792793511e-05
0.00477095095404
9.37118378892e-06
9.30072444683e-06
9.21117214383e-06
9.85111518249e-06
6.38482982246e-05
0.00464104051312
9.4014841452e-06
9.36230783865e-06
9.33638935525e-06
9.17457688549e-06
1.909266833e-05
0.000749191527857
9.38058885548e-06
9.34580463288e-06
9.2196597638e-06
9.65160302037e-06
6.59406189334e-05
0.0046340074295
9.39254871179e-06
9.35208593095e-06
9.21451309465e-06
9.56391927626e-06
8.71211361168e-05
0.00500899934205
9.36997236663e-06
9.33182313126e-06
9.34759608757e-06
1.11359055693e-05
0.000116244000831
0.00591460510154
9.35840652547e-06
9.32254876365e-06
9.21518718162e-06
1.36606553352e-05
0.000253804165942
0.00727957267945
9.3802169655e-06
9.32995760878e-06
9.21110037462e-06
1.11079208822e-05
0.000335835843307
0.00843280414662
9.38393435541e-06
9.33173916252e-06
9.24939808733e-06
1.0995314958e-05
0.000274172897357
0.00721495628397
9.34675038264e-06
9.28652366453e-06
9.27007101157e-06
1.16213761966e-05
0.000267289730559
0.00720907103031
9.37727413888e-06
9.36417889267e-06
9.36407657243e-06
1.22775020259e-05
0.000303276995815
0.00737208284765
9.38444554473e-06
9.36275434668e-06
9.35694777234e-06
1.30062849294e-05
0.000414226515342
0.0076134086904
9.38848628822e-06
9.36669226307e-06
9.34843503514e-06
1.37917689645e-05
0.000658507252142
0.00784701617744
9.39280712465e-06
9.37197284037e-06
9.35700357999e-06
1.45392763947e-05
0.00169432415329
0.00902442452018
9.33277126774e-06
1.54658146965e-05
0.00318635174336
0.00909300949862
9.3383181017e-06
1.67509278284e-05
0.00340640805101
0.00920276974944
9.33673234997e-06
1.78702748017e-05
0.00349949163714
0.00823687626292
)
;

boundaryField
{
    back
    {
        type            calculated;
        value           nonuniform List<scalar> 
164
(
9.37882381738e-06
9.3888430725e-06
9.35688556492e-06
9.30590023745e-06
9.23467548927e-06
9.13835230315e-06
4.89207688434e-05
0.00272146576642
9.40315225006e-06
9.37737862665e-06
9.36480769432e-06
9.3380945996e-06
9.2673144032e-06
9.15274512217e-06
1.03546124935e-05
5.44705755796e-05
9.40314828354e-06
9.37737075735e-06
9.36479569106e-06
9.33808184558e-06
9.26730924742e-06
9.1527422672e-06
1.03544086894e-05
5.44664589291e-05
9.37881808573e-06
9.38882662627e-06
9.35687114521e-06
9.30588143072e-06
9.23467715688e-06
9.13835086263e-06
4.89197170118e-05
0.00272138984274
9.34542652588e-06
9.29934264373e-06
9.23731501278e-06
9.46555153875e-06
3.98910937204e-05
0.00282820140586
9.35714101179e-06
9.3179139402e-06
9.22735766282e-06
9.21486434353e-06
1.13027096522e-05
7.8197343065e-05
9.38115768273e-06
9.36477504041e-06
9.29220237263e-06
9.28325461422e-06
4.69315783642e-05
0.00247250701832
9.3807164384e-06
9.3713838516e-06
9.36111650007e-06
9.34067752004e-06
5.92659482059e-05
0.00237303652325
9.38054634852e-06
9.3751471771e-06
9.36707566072e-06
9.74698652991e-06
6.23317026779e-05
0.00438408380077
9.36887557177e-06
9.3527221402e-06
9.36769667532e-06
9.79060090984e-06
6.44221453044e-05
0.00488907955907
9.36108814835e-06
9.34133746804e-06
9.34618917642e-06
9.58536191168e-06
6.62792793511e-05
0.00477095095404
9.37118378892e-06
9.30072444683e-06
9.21117214383e-06
9.85111518249e-06
6.38482982246e-05
0.00464104051312
9.4014841452e-06
9.36230783865e-06
9.33638935525e-06
9.17457688549e-06
1.909266833e-05
0.000749191527857
9.38058885548e-06
9.34580463288e-06
9.2196597638e-06
9.65160302037e-06
6.59406189334e-05
0.0046340074295
9.39254871179e-06
9.35208593095e-06
9.21451309465e-06
9.56391927626e-06
8.71211361168e-05
0.00500899934205
9.36997236663e-06
9.33182313126e-06
9.34759608757e-06
1.11359055693e-05
0.000116244000831
0.00591460510154
9.35840652547e-06
9.32254876365e-06
9.21518718162e-06
1.36606553352e-05
0.000253804165942
0.00727957267945
9.3802169655e-06
9.32995760878e-06
9.21110037462e-06
1.11079208822e-05
0.000335835843307
0.00843280414662
9.38393435541e-06
9.33173916252e-06
9.24939808733e-06
1.0995314958e-05
0.000274172897357
0.00721495628397
9.34675038264e-06
9.28652366453e-06
9.27007101157e-06
1.16213761966e-05
0.000267289730559
0.00720907103031
9.37727413888e-06
9.36417889267e-06
9.36407657243e-06
1.22775020259e-05
0.000303276995815
0.00737208284765
9.38444554473e-06
9.36275434668e-06
9.35694777234e-06
1.30062849294e-05
0.000414226515342
0.0076134086904
9.38848628822e-06
9.36669226307e-06
9.34843503514e-06
1.37917689645e-05
0.000658507252142
0.00784701617744
9.39280712465e-06
9.37197284037e-06
9.35700357999e-06
1.45392763947e-05
0.00169432415329
0.00902442452018
9.33277126774e-06
1.54658146965e-05
0.00318635174336
0.00909300949862
9.3383181017e-06
1.67509278284e-05
0.00340640805101
0.00920276974944
9.33673234997e-06
1.78702748017e-05
0.00349949163714
0.00823687626292
)
;
    }
    sides
    {
        type            calculated;
        value           nonuniform List<scalar> 0();
    }
    bottom
    {
        type            calculated;
        value           nonuniform List<scalar> 0();
    }
    front
    {
        type            calculated;
        value           nonuniform List<scalar> 
164
(
9.37882381738e-06
9.3888430725e-06
9.35688556492e-06
9.30590023745e-06
9.23467548927e-06
9.13835230315e-06
4.89207688434e-05
0.00272146576642
9.40315225006e-06
9.37737862665e-06
9.36480769432e-06
9.3380945996e-06
9.2673144032e-06
9.15274512217e-06
1.03546124935e-05
5.44705755796e-05
9.40314828354e-06
9.37737075735e-06
9.36479569106e-06
9.33808184558e-06
9.26730924742e-06
9.1527422672e-06
1.03544086894e-05
5.44664589291e-05
9.37881808573e-06
9.38882662627e-06
9.35687114521e-06
9.30588143072e-06
9.23467715688e-06
9.13835086263e-06
4.89197170118e-05
0.00272138984274
9.34542652588e-06
9.29934264373e-06
9.23731501278e-06
9.46555153875e-06
3.98910937204e-05
0.00282820140586
9.35714101179e-06
9.3179139402e-06
9.22735766282e-06
9.21486434353e-06
1.13027096522e-05
7.8197343065e-05
9.38115768273e-06
9.36477504041e-06
9.29220237263e-06
9.28325461422e-06
4.69315783642e-05
0.00247250701832
9.3807164384e-06
9.3713838516e-06
9.36111650007e-06
9.34067752004e-06
5.92659482059e-05
0.00237303652325
9.38054634852e-06
9.3751471771e-06
9.36707566072e-06
9.74698652991e-06
6.23317026779e-05
0.00438408380077
9.36887557177e-06
9.3527221402e-06
9.36769667532e-06
9.79060090984e-06
6.44221453044e-05
0.00488907955907
9.36108814835e-06
9.34133746804e-06
9.34618917642e-06
9.58536191168e-06
6.62792793511e-05
0.00477095095404
9.37118378892e-06
9.30072444683e-06
9.21117214383e-06
9.85111518249e-06
6.38482982246e-05
0.00464104051312
9.4014841452e-06
9.36230783865e-06
9.33638935525e-06
9.17457688549e-06
1.909266833e-05
0.000749191527857
9.38058885548e-06
9.34580463288e-06
9.2196597638e-06
9.65160302037e-06
6.59406189334e-05
0.0046340074295
9.39254871179e-06
9.35208593095e-06
9.21451309465e-06
9.56391927626e-06
8.71211361168e-05
0.00500899934205
9.36997236663e-06
9.33182313126e-06
9.34759608757e-06
1.11359055693e-05
0.000116244000831
0.00591460510154
9.35840652547e-06
9.32254876365e-06
9.21518718162e-06
1.36606553352e-05
0.000253804165942
0.00727957267945
9.3802169655e-06
9.32995760878e-06
9.21110037462e-06
1.11079208822e-05
0.000335835843307
0.00843280414662
9.38393435541e-06
9.33173916252e-06
9.24939808733e-06
1.0995314958e-05
0.000274172897357
0.00721495628397
9.34675038264e-06
9.28652366453e-06
9.27007101157e-06
1.16213761966e-05
0.000267289730559
0.00720907103031
9.37727413888e-06
9.36417889267e-06
9.36407657243e-06
1.22775020259e-05
0.000303276995815
0.00737208284765
9.38444554473e-06
9.36275434668e-06
9.35694777234e-06
1.30062849294e-05
0.000414226515342
0.0076134086904
9.38848628822e-06
9.36669226307e-06
9.34843503514e-06
1.37917689645e-05
0.000658507252142
0.00784701617744
9.39280712465e-06
9.37197284037e-06
9.35700357999e-06
1.45392763947e-05
0.00169432415329
0.00902442452018
9.33277126774e-06
1.54658146965e-05
0.00318635174336
0.00909300949862
9.3383181017e-06
1.67509278284e-05
0.00340640805101
0.00920276974944
9.33673234997e-06
1.78702748017e-05
0.00349949163714
0.00823687626292
)
;
    }
    atmosphere
    {
        type            calculated;
        value           nonuniform List<scalar> 
27
(
0.00272146576642
5.44705755796e-05
5.44664589291e-05
0.00272138984274
0.00282820140586
7.8197343065e-05
0.00247250701832
0.00237303652325
0.00438408380077
0.00488907955907
0.00477095095404
0.00464104051312
0.000749191527857
0.0046340074295
0.00500899934205
0.00591460510154
0.00727957267945
0.00843280414662
0.00721495628397
0.00720907103031
0.00737208284765
0.0076134086904
0.00784701617744
0.00902442452018
0.00909300949862
0.00920276974944
0.00823687626292
)
;
    }
    floatingObject
    {
        type            calculated;
        value           nonuniform List<scalar> 4(9.37882381738e-06 9.40315225006e-06 9.40314828354e-06 9.37881808573e-06);
    }
    procBoundary6to3
    {
        type            processor;
        value           nonuniform List<scalar> 8(9.33915618999e-06 9.3776624881e-06 9.34543859524e-06 9.29936372482e-06 9.23731633776e-06 9.46560269229e-06 3.98884051392e-05 0.00282820138717);
    }
    procBoundary6to7
    {
        type            processor;
        value           nonuniform List<scalar> 
11
(
9.39525870286e-06
9.38696948514e-06
9.39699023521e-06
9.39533448259e-06
9.39630683685e-06
9.39690436365e-06
9.39122281335e-06
9.36975588143e-06
9.36975588143e-06
9.34096734486e-06
9.31246292906e-06
)
;
    }
    procBoundary6to8
    {
        type            processor;
        value           nonuniform List<scalar> 
16
(
9.33914597776e-06
9.37765120006e-06
9.37765120006e-06
9.37201231133e-06
9.37591294576e-06
9.38062454375e-06
9.38370119046e-06
9.38661522294e-06
9.38795749049e-06
9.38746079202e-06
9.3946884808e-06
9.36463493929e-06
9.35986886738e-06
9.37998923764e-06
9.37129899117e-06
9.39541327947e-06
)
;
    }
    procBoundary6to9
    {
        type            processor;
        value           nonuniform List<scalar> 4(9.35994649993e-06 1.88377188684e-05 0.00358404368674 0.00820240352794);
    }
}


// ************************************************************************* //
