/*--------------------------------*- C++ -*----------------------------------*\
| =========                 |                                                 |
| \\      /  F ield         | OpenFOAM: The Open Source CFD Toolbox           |
|  \\    /   O peration     | Version:  v2012                                 |
|   \\  /    A nd           | Website:  www.openfoam.com                      |
|    \\/     M anipulation  |                                                 |
\*---------------------------------------------------------------------------*/
FoamFile
{
    version     2.0;
    format      ascii;
    class       volScalarField;
    location    "2.6";
    object      ddt0(k);
}
// * * * * * * * * * * * * * * * * * * * * * * * * * * * * * * * * * * * * * //

dimensions      [0 2 -3 0 0 0 0];


internalField   nonuniform List<scalar> 
164
(
-0.00273181583894
-0.00334908960169
-0.00351442620064
-0.00355593630304
-0.0035655769192
-0.00357031110305
-0.00357581763083
-0.00358265422281
-0.00272903396878
-0.00334812759862
-0.00351368928895
-0.00355558219279
-0.00356541979277
-0.00357024172002
-0.00357580071161
-0.00358269831824
-0.00272610139726
-0.00334585236788
-0.00351185668363
-0.00355448217758
-0.00356476271275
-0.0035697895758
-0.00357548954743
-0.00358249385132
-0.00359080908558
-0.00360003775359
-0.00272293507385
-0.00334222410611
-0.00350880640171
-0.00355245813853
-0.00356338442686
-0.00356873177273
-0.00357461827636
-0.00358176332428
-0.00359004019023
-0.00359948589948
-0.00271923195176
-0.00333713692708
-0.00350451831594
-0.00354949102149
-0.00356126723054
-0.0035670525297
-0.00357319871751
-0.00358054733814
-0.0035890194154
-0.00359863919861
-0.00271535944249
-0.00333036570849
-0.0034989715938
-0.00354556550087
-0.00355838672918
-0.00356473791407
-0.00357121374206
-0.00357883538224
-0.00358759340269
-0.00359746185898
-0.00271094377622
-0.00332217162265
-0.00349204101623
-0.00354060721394
-0.00355469716459
-0.00356173799616
-0.00356862683769
-0.00357660179049
-0.00358575979106
-0.00359598025156
-0.00270605036536
-0.00331212402872
-0.00348384957941
-0.00353466397683
-0.00355022902426
-0.00355804968285
-0.00356541765465
-0.00357381853052
-0.00358342774776
-0.00359417293366
-0.0027007302974
-0.0033003175764
-0.00347417622798
-0.00352753254263
-0.00354482028897
-0.00355358375674
-0.00356156499598
-0.00357048244656
-0.00358056474058
-0.00359190371194
-0.00269319043998
-0.00328782652177
-0.00346360850564
-0.00351953048929
-0.00353856217519
-0.00354832211929
-0.00355694441135
-0.00356641978524
-0.00357714605438
-0.00358917003701
-0.00268113190509
-0.00327501946201
-0.00345258256025
-0.00351084153112
-0.00353146377782
-0.00354218742574
-0.0035514890196
-0.00356158742023
-0.00357301220338
-0.00358586890123
-0.00266772090667
-0.00326068054088
-0.00344013236574
-0.00350087462682
-0.00352321857478
-0.0035349686763
-0.0035449398356
-0.00355558296808
-0.00356748903101
-0.00358067187518
-0.00265320276634
-0.00324477016205
-0.00342614830003
-0.00348949463257
-0.00351370765391
-0.00352659462137
-0.0035373057713
-0.0035485215793
-0.00356095243224
-0.00357450755052
-0.00263735178492
-0.00322734515501
-0.00341058915915
-0.00347660587805
-0.00350279507653
-0.00351691933688
-0.00352842238009
-0.00354028095637
-0.00355330580961
-0.00356734548529
-0.0026203255873
-0.00320843778013
-0.00339345188288
-0.00346211283353
-0.00349033684145
-0.00350576252089
-0.00351813718686
-0.00353065031183
-0.00354429234952
-0.00355904296369
-0.00260207791633
-0.00318811872334
-0.00337473408257
-0.00344596289064
-0.00347625036032
-0.00349300780128
-0.00350625648563
-0.00351945191164
-0.0035336800205
-0.00354888257703
-0.00258289672884
-0.00316663957417
-0.00335459318884
-0.00342825039421
-0.00346039390658
-0.00347854597234
-0.00349275185302
-0.00344304715754
)
;

boundaryField
{
    back
    {
        type            calculated;
        value           nonuniform List<scalar> 
164
(
-0.00273181583894
-0.00334908960169
-0.00351442620064
-0.00355593630304
-0.0035655769192
-0.00357031110305
-0.00357581763083
-0.00358265422281
-0.00272903396878
-0.00334812759862
-0.00351368928895
-0.00355558219279
-0.00356541979277
-0.00357024172002
-0.00357580071161
-0.00358269831824
-0.00272610139726
-0.00334585236788
-0.00351185668363
-0.00355448217758
-0.00356476271275
-0.0035697895758
-0.00357548954743
-0.00358249385132
-0.00359080908558
-0.00360003775359
-0.00272293507385
-0.00334222410611
-0.00350880640171
-0.00355245813853
-0.00356338442686
-0.00356873177273
-0.00357461827636
-0.00358176332428
-0.00359004019023
-0.00359948589948
-0.00271923195176
-0.00333713692708
-0.00350451831594
-0.00354949102149
-0.00356126723054
-0.0035670525297
-0.00357319871751
-0.00358054733814
-0.0035890194154
-0.00359863919861
-0.00271535944249
-0.00333036570849
-0.0034989715938
-0.00354556550087
-0.00355838672918
-0.00356473791407
-0.00357121374206
-0.00357883538224
-0.00358759340269
-0.00359746185898
-0.00271094377622
-0.00332217162265
-0.00349204101623
-0.00354060721394
-0.00355469716459
-0.00356173799616
-0.00356862683769
-0.00357660179049
-0.00358575979106
-0.00359598025156
-0.00270605036536
-0.00331212402872
-0.00348384957941
-0.00353466397683
-0.00355022902426
-0.00355804968285
-0.00356541765465
-0.00357381853052
-0.00358342774776
-0.00359417293366
-0.0027007302974
-0.0033003175764
-0.00347417622798
-0.00352753254263
-0.00354482028897
-0.00355358375674
-0.00356156499598
-0.00357048244656
-0.00358056474058
-0.00359190371194
-0.00269319043998
-0.00328782652177
-0.00346360850564
-0.00351953048929
-0.00353856217519
-0.00354832211929
-0.00355694441135
-0.00356641978524
-0.00357714605438
-0.00358917003701
-0.00268113190509
-0.00327501946201
-0.00345258256025
-0.00351084153112
-0.00353146377782
-0.00354218742574
-0.0035514890196
-0.00356158742023
-0.00357301220338
-0.00358586890123
-0.00266772090667
-0.00326068054088
-0.00344013236574
-0.00350087462682
-0.00352321857478
-0.0035349686763
-0.0035449398356
-0.00355558296808
-0.00356748903101
-0.00358067187518
-0.00265320276634
-0.00324477016205
-0.00342614830003
-0.00348949463257
-0.00351370765391
-0.00352659462137
-0.0035373057713
-0.0035485215793
-0.00356095243224
-0.00357450755052
-0.00263735178492
-0.00322734515501
-0.00341058915915
-0.00347660587805
-0.00350279507653
-0.00351691933688
-0.00352842238009
-0.00354028095637
-0.00355330580961
-0.00356734548529
-0.0026203255873
-0.00320843778013
-0.00339345188288
-0.00346211283353
-0.00349033684145
-0.00350576252089
-0.00351813718686
-0.00353065031183
-0.00354429234952
-0.00355904296369
-0.00260207791633
-0.00318811872334
-0.00337473408257
-0.00344596289064
-0.00347625036032
-0.00349300780128
-0.00350625648563
-0.00351945191164
-0.0035336800205
-0.00354888257703
-0.00258289672884
-0.00316663957417
-0.00335459318884
-0.00342825039421
-0.00346039390658
-0.00347854597234
-0.00349275185302
-0.00344304715754
)
;
    }
    sides
    {
        type            calculated;
        value           nonuniform List<scalar> 0();
    }
    bottom
    {
        type            calculated;
        value           nonuniform List<scalar> 
17
(
-0.00273181583894
-0.00272903396878
-0.00272610139726
-0.00272293507385
-0.00271923195176
-0.00271535944249
-0.00271094377622
-0.00270605036536
-0.0027007302974
-0.00269319043998
-0.00268113190509
-0.00266772090667
-0.00265320276634
-0.00263735178492
-0.0026203255873
-0.00260207791633
-0.00258289672884
)
;
    }
    front
    {
        type            calculated;
        value           nonuniform List<scalar> 
164
(
-0.00273181583894
-0.00334908960169
-0.00351442620064
-0.00355593630304
-0.0035655769192
-0.00357031110305
-0.00357581763083
-0.00358265422281
-0.00272903396878
-0.00334812759862
-0.00351368928895
-0.00355558219279
-0.00356541979277
-0.00357024172002
-0.00357580071161
-0.00358269831824
-0.00272610139726
-0.00334585236788
-0.00351185668363
-0.00355448217758
-0.00356476271275
-0.0035697895758
-0.00357548954743
-0.00358249385132
-0.00359080908558
-0.00360003775359
-0.00272293507385
-0.00334222410611
-0.00350880640171
-0.00355245813853
-0.00356338442686
-0.00356873177273
-0.00357461827636
-0.00358176332428
-0.00359004019023
-0.00359948589948
-0.00271923195176
-0.00333713692708
-0.00350451831594
-0.00354949102149
-0.00356126723054
-0.0035670525297
-0.00357319871751
-0.00358054733814
-0.0035890194154
-0.00359863919861
-0.00271535944249
-0.00333036570849
-0.0034989715938
-0.00354556550087
-0.00355838672918
-0.00356473791407
-0.00357121374206
-0.00357883538224
-0.00358759340269
-0.00359746185898
-0.00271094377622
-0.00332217162265
-0.00349204101623
-0.00354060721394
-0.00355469716459
-0.00356173799616
-0.00356862683769
-0.00357660179049
-0.00358575979106
-0.00359598025156
-0.00270605036536
-0.00331212402872
-0.00348384957941
-0.00353466397683
-0.00355022902426
-0.00355804968285
-0.00356541765465
-0.00357381853052
-0.00358342774776
-0.00359417293366
-0.0027007302974
-0.0033003175764
-0.00347417622798
-0.00352753254263
-0.00354482028897
-0.00355358375674
-0.00356156499598
-0.00357048244656
-0.00358056474058
-0.00359190371194
-0.00269319043998
-0.00328782652177
-0.00346360850564
-0.00351953048929
-0.00353856217519
-0.00354832211929
-0.00355694441135
-0.00356641978524
-0.00357714605438
-0.00358917003701
-0.00268113190509
-0.00327501946201
-0.00345258256025
-0.00351084153112
-0.00353146377782
-0.00354218742574
-0.0035514890196
-0.00356158742023
-0.00357301220338
-0.00358586890123
-0.00266772090667
-0.00326068054088
-0.00344013236574
-0.00350087462682
-0.00352321857478
-0.0035349686763
-0.0035449398356
-0.00355558296808
-0.00356748903101
-0.00358067187518
-0.00265320276634
-0.00324477016205
-0.00342614830003
-0.00348949463257
-0.00351370765391
-0.00352659462137
-0.0035373057713
-0.0035485215793
-0.00356095243224
-0.00357450755052
-0.00263735178492
-0.00322734515501
-0.00341058915915
-0.00347660587805
-0.00350279507653
-0.00351691933688
-0.00352842238009
-0.00354028095637
-0.00355330580961
-0.00356734548529
-0.0026203255873
-0.00320843778013
-0.00339345188288
-0.00346211283353
-0.00349033684145
-0.00350576252089
-0.00351813718686
-0.00353065031183
-0.00354429234952
-0.00355904296369
-0.00260207791633
-0.00318811872334
-0.00337473408257
-0.00344596289064
-0.00347625036032
-0.00349300780128
-0.00350625648563
-0.00351945191164
-0.0035336800205
-0.00354888257703
-0.00258289672884
-0.00316663957417
-0.00335459318884
-0.00342825039421
-0.00346039390658
-0.00347854597234
-0.00349275185302
-0.00344304715754
)
;
    }
    atmosphere
    {
        type            calculated;
        value           nonuniform List<scalar> 0();
    }
    floatingObject
    {
        type            calculated;
        value           nonuniform List<scalar> 0();
    }
    procBoundary4to0
    {
        type            processor;
        value           nonuniform List<scalar> 8(-0.00273397288794 -0.00334865373323 -0.0035138991434 -0.00355518196852 -0.00356465541271 -0.00356923826572 -0.00357465903021 -0.00358134032103);
    }
    procBoundary4to3
    {
        type            processor;
        value           nonuniform List<scalar> 
13
(
-0.00350669150348
-0.00352142208627
-0.0035369364312
-0.00256294531548
-0.00314432327798
-0.00333339889748
-0.00340899117217
-0.00346248854158
-0.00350669150348
-0.00347784062201
-0.00340899117217
-0.00346248854158
-0.00342436163832
)
;
    }
    procBoundary4to5
    {
        type            processor;
        value           nonuniform List<scalar> 
18
(
-0.00359079508119
-0.00359093109568
-0.00359093109568
-0.00359991643897
-0.00361109081823
-0.0036105812507
-0.00360973849163
-0.00360863635971
-0.00360730310628
-0.00360571100617
-0.00360391010108
-0.00360204723554
-0.00360018538858
-0.00359436115919
-0.00358750958426
-0.00358004718108
-0.00357288720868
-0.00356336456774
)
;
    }
}


// ************************************************************************* //
