/*--------------------------------*- C++ -*----------------------------------*\
| =========                 |                                                 |
| \\      /  F ield         | OpenFOAM: The Open Source CFD Toolbox           |
|  \\    /   O peration     | Version:  v2012                                 |
|   \\  /    A nd           | Website:  www.openfoam.com                      |
|    \\/     M anipulation  |                                                 |
\*---------------------------------------------------------------------------*/
FoamFile
{
    version     2.0;
    format      ascii;
    class       volScalarField;
    location    "4.9";
    object      ddt0(epsilon);
}
// * * * * * * * * * * * * * * * * * * * * * * * * * * * * * * * * * * * * * //

dimensions      [0 2 -4 0 0 0 0];


internalField   nonuniform List<scalar> 
164
(
-0.000414986084422
-0.000417514767119
-0.000420929607761
-0.000426634315687
-0.000439270794241
-0.00047465533643
-0.000594827956946
-0.00110187427627
-0.00373184702465
-0.0159350279894
-0.0388189767537
0.132205002506
-0.000416138883999
-0.000418773099571
-0.000422288727556
-0.000428082678944
-0.000440792496571
-0.000476469960464
-0.00059803096999
-0.00112055970523
-0.0038370827008
-0.0167844930876
-0.0685268347902
-0.234724466455
-0.000423560120148
-0.000429460266011
-0.000442379922055
-0.000478588004026
-0.000601949450905
-0.00113687046575
-0.00394036520178
-0.0171726912498
-0.0722515393234
-0.0741142224278
-0.000424773403863
-0.000430848641903
-0.000444180471345
-0.000481721271184
-0.000609813733886
-0.00116488415567
-0.00405738700168
-0.0173876473078
-0.0761660103497
-0.372884458228
-0.000425942510139
-0.000432358667752
-0.000446508828242
-0.000485850003694
-0.000615134183334
-0.00116666986106
-0.00410425841804
-0.017931410181
-0.0781407521554
-0.463582193024
-0.000427099359658
-0.000434145630312
-0.000449945550402
-0.000492964520251
-0.000625638398262
-0.00116286632439
-0.004192798575
-0.0189822543042
-0.076530080382
-0.548656837707
-0.000428247080195
-0.000436324032525
-0.000455065629641
-0.000505350220053
-0.000650784626637
-0.00119587114928
-0.0042405023492
-0.0192246540936
-0.0770808233863
-0.534012620207
-0.000429320833269
-0.000438816934057
-0.000461770117618
-0.000523102799155
-0.000693624178695
-0.00129049837783
-0.00439192274851
-0.019392350471
-0.0817985599227
-0.438787775883
-0.00043019435869
-0.000441248711324
-0.000468907575563
-0.000542435841206
-0.000740555349155
-0.00139693447189
-0.00459747705115
-0.0193477253118
-0.0822365405338
-0.446154059638
-0.000430700889338
-0.000443083137357
-0.000474730303029
-0.000558248578651
-0.000779539193822
-0.0014992341045
-0.0048174274958
-0.0192830263165
-0.0817456599683
-0.45008084404
-0.000430747639685
-0.000443814235358
-0.000477430603876
-0.000565701514914
-0.000798197293196
-0.00155615468071
-0.00494044721604
-0.0191892055435
-0.0803376094307
-0.378826480943
-0.000430409771232
-0.000443625180963
-0.00047741554886
-0.000565806239812
-0.000801175270215
-0.0015833198493
-0.00505854944966
-0.0190978204182
-0.0793637245717
-0.376091788259
-0.000429986357062
-0.000443388094699
-0.000476988111578
-0.000563982540264
-0.000797352263251
-0.0015970654887
-0.00515931874591
-0.0191318806653
-0.0779310020328
-0.371085677106
-0.0004295038455
-0.000443101910439
-0.000476606019348
-0.000562417998743
-0.000792489497394
-0.00160123613744
-0.00524576669408
-0.0191661988277
-0.0764218506702
-0.364265043461
-0.000428729551744
-0.000441875985675
-0.000473593864075
-0.00055606070827
-0.000785004927001
-0.00161885200959
-0.00532888214851
-0.018878004946
-0.0738316923033
-0.362383156324
-0.000427771351746
-0.000439771885619
-0.000467888600134
-0.000544271578458
-0.000773179383897
-0.00164968816284
-0.00538341834383
-0.0181305699812
-0.0704849010445
-0.361844346001
)
;

boundaryField
{
    back
    {
        type            calculated;
        value           nonuniform List<scalar> 
164
(
-0.000414986084422
-0.000417514767119
-0.000420929607761
-0.000426634315687
-0.000439270794241
-0.00047465533643
-0.000594827956946
-0.00110187427627
-0.00373184702465
-0.0159350279894
-0.0388189767537
0.132205002506
-0.000416138883999
-0.000418773099571
-0.000422288727556
-0.000428082678944
-0.000440792496571
-0.000476469960464
-0.00059803096999
-0.00112055970523
-0.0038370827008
-0.0167844930876
-0.0685268347902
-0.234724466455
-0.000423560120148
-0.000429460266011
-0.000442379922055
-0.000478588004026
-0.000601949450905
-0.00113687046575
-0.00394036520178
-0.0171726912498
-0.0722515393234
-0.0741142224278
-0.000424773403863
-0.000430848641903
-0.000444180471345
-0.000481721271184
-0.000609813733886
-0.00116488415567
-0.00405738700168
-0.0173876473078
-0.0761660103497
-0.372884458228
-0.000425942510139
-0.000432358667752
-0.000446508828242
-0.000485850003694
-0.000615134183334
-0.00116666986106
-0.00410425841804
-0.017931410181
-0.0781407521554
-0.463582193024
-0.000427099359658
-0.000434145630312
-0.000449945550402
-0.000492964520251
-0.000625638398262
-0.00116286632439
-0.004192798575
-0.0189822543042
-0.076530080382
-0.548656837707
-0.000428247080195
-0.000436324032525
-0.000455065629641
-0.000505350220053
-0.000650784626637
-0.00119587114928
-0.0042405023492
-0.0192246540936
-0.0770808233863
-0.534012620207
-0.000429320833269
-0.000438816934057
-0.000461770117618
-0.000523102799155
-0.000693624178695
-0.00129049837783
-0.00439192274851
-0.019392350471
-0.0817985599227
-0.438787775883
-0.00043019435869
-0.000441248711324
-0.000468907575563
-0.000542435841206
-0.000740555349155
-0.00139693447189
-0.00459747705115
-0.0193477253118
-0.0822365405338
-0.446154059638
-0.000430700889338
-0.000443083137357
-0.000474730303029
-0.000558248578651
-0.000779539193822
-0.0014992341045
-0.0048174274958
-0.0192830263165
-0.0817456599683
-0.45008084404
-0.000430747639685
-0.000443814235358
-0.000477430603876
-0.000565701514914
-0.000798197293196
-0.00155615468071
-0.00494044721604
-0.0191892055435
-0.0803376094307
-0.378826480943
-0.000430409771232
-0.000443625180963
-0.00047741554886
-0.000565806239812
-0.000801175270215
-0.0015833198493
-0.00505854944966
-0.0190978204182
-0.0793637245717
-0.376091788259
-0.000429986357062
-0.000443388094699
-0.000476988111578
-0.000563982540264
-0.000797352263251
-0.0015970654887
-0.00515931874591
-0.0191318806653
-0.0779310020328
-0.371085677106
-0.0004295038455
-0.000443101910439
-0.000476606019348
-0.000562417998743
-0.000792489497394
-0.00160123613744
-0.00524576669408
-0.0191661988277
-0.0764218506702
-0.364265043461
-0.000428729551744
-0.000441875985675
-0.000473593864075
-0.00055606070827
-0.000785004927001
-0.00161885200959
-0.00532888214851
-0.018878004946
-0.0738316923033
-0.362383156324
-0.000427771351746
-0.000439771885619
-0.000467888600134
-0.000544271578458
-0.000773179383897
-0.00164968816284
-0.00538341834383
-0.0181305699812
-0.0704849010445
-0.361844346001
)
;
    }
    sides
    {
        type            calculated;
        value           nonuniform List<scalar> 0();
    }
    bottom
    {
        type            calculated;
        value           nonuniform List<scalar> 0();
    }
    front
    {
        type            calculated;
        value           nonuniform List<scalar> 
164
(
-0.000414986084422
-0.000417514767119
-0.000420929607761
-0.000426634315687
-0.000439270794241
-0.00047465533643
-0.000594827956946
-0.00110187427627
-0.00373184702465
-0.0159350279894
-0.0388189767537
0.132205002506
-0.000416138883999
-0.000418773099571
-0.000422288727556
-0.000428082678944
-0.000440792496571
-0.000476469960464
-0.00059803096999
-0.00112055970523
-0.0038370827008
-0.0167844930876
-0.0685268347902
-0.234724466455
-0.000423560120148
-0.000429460266011
-0.000442379922055
-0.000478588004026
-0.000601949450905
-0.00113687046575
-0.00394036520178
-0.0171726912498
-0.0722515393234
-0.0741142224278
-0.000424773403863
-0.000430848641903
-0.000444180471345
-0.000481721271184
-0.000609813733886
-0.00116488415567
-0.00405738700168
-0.0173876473078
-0.0761660103497
-0.372884458228
-0.000425942510139
-0.000432358667752
-0.000446508828242
-0.000485850003694
-0.000615134183334
-0.00116666986106
-0.00410425841804
-0.017931410181
-0.0781407521554
-0.463582193024
-0.000427099359658
-0.000434145630312
-0.000449945550402
-0.000492964520251
-0.000625638398262
-0.00116286632439
-0.004192798575
-0.0189822543042
-0.076530080382
-0.548656837707
-0.000428247080195
-0.000436324032525
-0.000455065629641
-0.000505350220053
-0.000650784626637
-0.00119587114928
-0.0042405023492
-0.0192246540936
-0.0770808233863
-0.534012620207
-0.000429320833269
-0.000438816934057
-0.000461770117618
-0.000523102799155
-0.000693624178695
-0.00129049837783
-0.00439192274851
-0.019392350471
-0.0817985599227
-0.438787775883
-0.00043019435869
-0.000441248711324
-0.000468907575563
-0.000542435841206
-0.000740555349155
-0.00139693447189
-0.00459747705115
-0.0193477253118
-0.0822365405338
-0.446154059638
-0.000430700889338
-0.000443083137357
-0.000474730303029
-0.000558248578651
-0.000779539193822
-0.0014992341045
-0.0048174274958
-0.0192830263165
-0.0817456599683
-0.45008084404
-0.000430747639685
-0.000443814235358
-0.000477430603876
-0.000565701514914
-0.000798197293196
-0.00155615468071
-0.00494044721604
-0.0191892055435
-0.0803376094307
-0.378826480943
-0.000430409771232
-0.000443625180963
-0.00047741554886
-0.000565806239812
-0.000801175270215
-0.0015833198493
-0.00505854944966
-0.0190978204182
-0.0793637245717
-0.376091788259
-0.000429986357062
-0.000443388094699
-0.000476988111578
-0.000563982540264
-0.000797352263251
-0.0015970654887
-0.00515931874591
-0.0191318806653
-0.0779310020328
-0.371085677106
-0.0004295038455
-0.000443101910439
-0.000476606019348
-0.000562417998743
-0.000792489497394
-0.00160123613744
-0.00524576669408
-0.0191661988277
-0.0764218506702
-0.364265043461
-0.000428729551744
-0.000441875985675
-0.000473593864075
-0.00055606070827
-0.000785004927001
-0.00161885200959
-0.00532888214851
-0.018878004946
-0.0738316923033
-0.362383156324
-0.000427771351746
-0.000439771885619
-0.000467888600134
-0.000544271578458
-0.000773179383897
-0.00164968816284
-0.00538341834383
-0.0181305699812
-0.0704849010445
-0.361844346001
)
;
    }
    atmosphere
    {
        type            calculated;
        value           nonuniform List<scalar> 
16
(
1.32986384256
-0.178113164889
0.116730912925
-0.172794379413
-0.805214590365
0.136492719472
0.1539956902
-0.788600008891
-0.794027221004
-0.795683180558
-0.205816523249
-0.204586593149
-0.200354474935
-0.194006417467
-0.183584427121
-0.123508274848
)
;
    }
    floatingObject
    {
        type            calculated;
        value           nonuniform List<scalar> 0();
    }
    procBoundary5to0
    {
        type            processor;
        value           nonuniform List<scalar> 
12
(
-0.000413735858093
-0.000416158356207
-0.000419471027968
-0.000425107261018
-0.000437649451041
-0.000472679284678
-0.000590014388359
-0.00107236339336
-0.00361823488222
-0.0162104934919
-0.0402505788949
-0.345660503556
)
;
    }
    procBoundary5to3
    {
        type            processor;
        value           nonuniform List<scalar> 10(-0.000427199060967 -0.000438343879451 -0.000463399933589 -0.00053543505745 -0.000773287080259 -0.00172035531145 -0.00553062691573 -0.0179030716713 -0.0675452267777 -0.296805644961);
    }
    procBoundary5to4
    {
        type            processor;
        value           nonuniform List<scalar> 
18
(
-0.00041291979867
-0.000413965693322
-0.000417174952039
-0.000419929496111
-0.000419929496111
-0.000420992989931
-0.000421945839154
-0.000422791543081
-0.000423523440944
-0.000424084023248
-0.000424413219186
-0.000424465146119
-0.000424242044494
-0.000423787458225
-0.000423170969098
-0.000422457846016
-0.000421617949843
-0.000420737346119
)
;
    }
}


// ************************************************************************* //
