/*--------------------------------*- C++ -*----------------------------------*\
| =========                 |                                                 |
| \\      /  F ield         | OpenFOAM: The Open Source CFD Toolbox           |
|  \\    /   O peration     | Version:  v2012                                 |
|   \\  /    A nd           | Website:  www.openfoam.com                      |
|    \\/     M anipulation  |                                                 |
\*---------------------------------------------------------------------------*/
FoamFile
{
    version     2.0;
    format      ascii;
    class       volScalarField;
    location    "4.9";
    object      ddt0(k);
}
// * * * * * * * * * * * * * * * * * * * * * * * * * * * * * * * * * * * * * //

dimensions      [0 2 -3 0 0 0 0];


internalField   nonuniform List<scalar> 
164
(
-0.00074448217797
-0.00074730935132
-0.000751197698802
-0.000757905785881
-0.000773310123738
-0.000816884790976
-0.00096149066991
-0.00152101879449
-0.00381617685811
-0.0110858396054
-0.0229334628239
-0.199318560844
-0.000746456234891
-0.000749495822722
-0.000753605394198
-0.000760551634779
-0.000776239564728
-0.000820640765887
-0.000968488798755
-0.00155182702368
-0.00394172322525
-0.0118709424167
-0.0326053009662
-0.0767926812208
-0.000755829837795
-0.000763001117172
-0.000779149141566
-0.000824821971867
-0.00097688403977
-0.00158155409049
-0.00406469217729
-0.0121651943983
-0.029531477541
0.188588646687
-0.00075806638413
-0.000765529601017
-0.000782452000325
-0.000830640832696
-0.00099120435798
-0.00162574723328
-0.00419445262123
-0.0124521797973
-0.0350983274323
0.0310855258025
-0.000760304957619
-0.000768309754586
-0.000786613328814
-0.000837855980053
-0.0010007853838
-0.00163280686909
-0.00425547798572
-0.0128592105269
-0.0389231395521
-0.127299759984
-0.000762580846152
-0.00077156386429
-0.000792508653109
-0.000849551163409
-0.00101725760719
-0.00163375260285
-0.00434413458238
-0.0134221693124
-0.0398307281736
-0.161552845239
-0.0007648753737
-0.000775422330392
-0.000800891247243
-0.000868824460474
-0.0010536562197
-0.00167543257871
-0.0043935101129
-0.0135404357582
-0.0393864673866
-0.156962191565
-0.000767061387194
-0.000779704667633
-0.000811404551425
-0.000895100547082
-0.00111192053682
-0.0017819877407
-0.00451538902274
-0.013659683574
-0.0397761213598
-0.134981352256
-0.000768924195858
-0.000783784979979
-0.000822126232077
-0.000922138490933
-0.00117138244412
-0.00189467016757
-0.00466921813086
-0.0136640276458
-0.0407668778871
-0.143620078914
-0.000770205856798
-0.000786859462588
-0.000830498879886
-0.000942848684858
-0.00121695792846
-0.00199469702759
-0.00482121809623
-0.0136154275728
-0.040935957668
-0.143250419052
-0.000770785148871
-0.000788238175333
-0.000834118705218
-0.000951363817832
-0.00123543598967
-0.00204437050326
-0.00489609594384
-0.0135019222229
-0.03981005581
-0.120052255065
-0.000770804679173
-0.000788313489823
-0.000833979355683
-0.000950202397547
-0.00123550062799
-0.00206528287227
-0.0049655914015
-0.0133936655976
-0.0389417910398
-0.114527717597
-0.0007707394632
-0.00078846463517
-0.00083363993359
-0.000947315769131
-0.00122859574119
-0.002071846521
-0.00501533295699
-0.0133176730525
-0.0380848129106
-0.113171720986
-0.000770607498401
-0.000788619641808
-0.000833604692405
-0.000945373231171
-0.00122141031208
-0.00207032460195
-0.00504780613749
-0.0132208644332
-0.0371211771671
-0.106086755464
-0.000770036590965
-0.00078734769052
-0.000829677082528
-0.000936778629625
-0.00121138971074
-0.00208333161907
-0.00508455675979
-0.0129433456937
-0.0342544818697
-0.00103054173074
-0.000769174673529
-0.000784743098157
-0.0008216732713
-0.000920244072084
-0.00119570666275
-0.00211120428893
-0.00510073653023
-0.0124706066785
-0.0331864124332
-0.0205528151732
)
;

boundaryField
{
    back
    {
        type            calculated;
        value           nonuniform List<scalar> 
164
(
-0.00074448217797
-0.00074730935132
-0.000751197698802
-0.000757905785881
-0.000773310123737
-0.000816884790976
-0.00096149066991
-0.00152101879449
-0.00381617685811
-0.0110858396054
-0.0229334628239
-0.199318560844
-0.000746456234891
-0.000749495822722
-0.000753605394198
-0.000760551634779
-0.000776239564728
-0.000820640765887
-0.000968488798755
-0.00155182702368
-0.00394172322525
-0.0118709424167
-0.0326053009662
-0.0767926812208
-0.000755829837795
-0.000763001117172
-0.000779149141566
-0.000824821971867
-0.00097688403977
-0.00158155409049
-0.00406469217729
-0.0121651943983
-0.029531477541
0.188588646687
-0.00075806638413
-0.000765529601017
-0.000782452000325
-0.000830640832696
-0.00099120435798
-0.00162574723328
-0.00419445262123
-0.0124521797973
-0.0350983274323
0.0310855258025
-0.000760304957619
-0.000768309754586
-0.000786613328814
-0.000837855980053
-0.0010007853838
-0.00163280686909
-0.00425547798572
-0.0128592105269
-0.0389231395521
-0.127299759984
-0.000762580846152
-0.00077156386429
-0.000792508653109
-0.000849551163409
-0.00101725760719
-0.00163375260285
-0.00434413458238
-0.0134221693124
-0.0398307281736
-0.161552845239
-0.0007648753737
-0.000775422330392
-0.000800891247243
-0.000868824460474
-0.0010536562197
-0.00167543257871
-0.0043935101129
-0.0135404357582
-0.0393864673866
-0.156962191565
-0.000767061387194
-0.000779704667633
-0.000811404551425
-0.000895100547082
-0.00111192053682
-0.0017819877407
-0.00451538902274
-0.013659683574
-0.0397761213598
-0.134981352256
-0.000768924195858
-0.000783784979979
-0.000822126232077
-0.000922138490933
-0.00117138244412
-0.00189467016757
-0.00466921813086
-0.0136640276458
-0.0407668778871
-0.143620078914
-0.000770205856798
-0.000786859462588
-0.000830498879886
-0.000942848684858
-0.00121695792846
-0.00199469702759
-0.00482121809623
-0.0136154275728
-0.040935957668
-0.143250419052
-0.000770785148871
-0.000788238175333
-0.000834118705218
-0.000951363817832
-0.00123543598967
-0.00204437050326
-0.00489609594384
-0.0135019222229
-0.03981005581
-0.120052255065
-0.000770804679173
-0.000788313489823
-0.000833979355683
-0.000950202397547
-0.00123550062799
-0.00206528287227
-0.0049655914015
-0.0133936655976
-0.0389417910398
-0.114527717597
-0.0007707394632
-0.00078846463517
-0.00083363993359
-0.00094731576913
-0.00122859574119
-0.002071846521
-0.00501533295699
-0.0133176730525
-0.0380848129106
-0.113171720986
-0.000770607498401
-0.000788619641808
-0.000833604692405
-0.000945373231171
-0.00122141031208
-0.00207032460195
-0.00504780613749
-0.0132208644332
-0.0371211771671
-0.106086755464
-0.000770036590965
-0.00078734769052
-0.000829677082528
-0.000936778629625
-0.00121138971074
-0.00208333161907
-0.00508455675979
-0.0129433456937
-0.0342544818697
-0.00103054173074
-0.000769174673529
-0.000784743098157
-0.0008216732713
-0.000920244072084
-0.00119570666275
-0.00211120428893
-0.00510073653023
-0.0124706066785
-0.0331864124332
-0.0205528151732
)
;
    }
    sides
    {
        type            calculated;
        value           nonuniform List<scalar> 0();
    }
    bottom
    {
        type            calculated;
        value           nonuniform List<scalar> 0();
    }
    front
    {
        type            calculated;
        value           nonuniform List<scalar> 
164
(
-0.00074448217797
-0.00074730935132
-0.000751197698802
-0.000757905785881
-0.000773310123737
-0.000816884790976
-0.00096149066991
-0.00152101879449
-0.00381617685811
-0.0110858396054
-0.0229334628239
-0.199318560844
-0.000746456234891
-0.000749495822722
-0.000753605394198
-0.000760551634779
-0.000776239564728
-0.000820640765887
-0.000968488798755
-0.00155182702368
-0.00394172322525
-0.0118709424167
-0.0326053009662
-0.0767926812208
-0.000755829837795
-0.000763001117172
-0.000779149141566
-0.000824821971867
-0.00097688403977
-0.00158155409049
-0.00406469217729
-0.0121651943983
-0.029531477541
0.188588646687
-0.00075806638413
-0.000765529601017
-0.000782452000325
-0.000830640832696
-0.00099120435798
-0.00162574723328
-0.00419445262123
-0.0124521797973
-0.0350983274323
0.0310855258025
-0.000760304957619
-0.000768309754586
-0.000786613328814
-0.000837855980053
-0.0010007853838
-0.00163280686909
-0.00425547798572
-0.0128592105269
-0.0389231395521
-0.127299759984
-0.000762580846152
-0.00077156386429
-0.000792508653109
-0.000849551163409
-0.00101725760719
-0.00163375260285
-0.00434413458238
-0.0134221693124
-0.0398307281736
-0.161552845239
-0.0007648753737
-0.000775422330392
-0.000800891247243
-0.000868824460474
-0.0010536562197
-0.00167543257871
-0.0043935101129
-0.0135404357582
-0.0393864673866
-0.156962191565
-0.000767061387194
-0.000779704667633
-0.000811404551425
-0.000895100547082
-0.00111192053682
-0.0017819877407
-0.00451538902274
-0.013659683574
-0.0397761213598
-0.134981352256
-0.000768924195858
-0.000783784979979
-0.000822126232077
-0.000922138490933
-0.00117138244412
-0.00189467016757
-0.00466921813086
-0.0136640276458
-0.0407668778871
-0.143620078914
-0.000770205856798
-0.000786859462588
-0.000830498879886
-0.000942848684858
-0.00121695792846
-0.00199469702759
-0.00482121809623
-0.0136154275728
-0.040935957668
-0.143250419052
-0.000770785148871
-0.000788238175333
-0.000834118705218
-0.000951363817832
-0.00123543598967
-0.00204437050326
-0.00489609594384
-0.0135019222229
-0.03981005581
-0.120052255065
-0.000770804679173
-0.000788313489823
-0.000833979355683
-0.000950202397547
-0.00123550062799
-0.00206528287227
-0.0049655914015
-0.0133936655976
-0.0389417910398
-0.114527717597
-0.0007707394632
-0.00078846463517
-0.00083363993359
-0.00094731576913
-0.00122859574119
-0.002071846521
-0.00501533295699
-0.0133176730525
-0.0380848129106
-0.113171720986
-0.000770607498401
-0.000788619641808
-0.000833604692405
-0.000945373231171
-0.00122141031208
-0.00207032460195
-0.00504780613749
-0.0132208644332
-0.0371211771671
-0.106086755464
-0.000770036590965
-0.00078734769052
-0.000829677082528
-0.000936778629625
-0.00121138971074
-0.00208333161907
-0.00508455675979
-0.0129433456937
-0.0342544818697
-0.00103054173074
-0.000769174673529
-0.000784743098157
-0.0008216732713
-0.000920244072084
-0.00119570666275
-0.00211120428893
-0.00510073653023
-0.0124706066785
-0.0331864124332
-0.0205528151732
)
;
    }
    atmosphere
    {
        type            calculated;
        value           nonuniform List<scalar> 
16
(
-1.64106353739
-0.101739687896
-1.01564524276
2.08244236016
0.0223677980606
-0.460740916185
-0.455417526556
0.0119561425814
0.00399655352457
0.00572798228764
-0.193681898256
-0.188608512038
-0.187480269312
-0.180528781649
2.07299142425
2.09457611613
)
;
    }
    floatingObject
    {
        type            calculated;
        value           nonuniform List<scalar> 0();
    }
    procBoundary5to0
    {
        type            processor;
        value           nonuniform List<scalar> 
12
(
-0.000742442960859
-0.000745141925919
-0.000748895943229
-0.000755510793245
-0.000770731945446
-0.000813590563648
-0.000953299340543
-0.00147977695877
-0.00370456973759
-0.0113024500005
-0.0256540146786
-0.119330597134
)
;
    }
    procBoundary5to3
    {
        type            processor;
        value           nonuniform List<scalar> 10(-0.000768954231802 -0.000783241564004 -0.000815549813129 -0.000907847998469 -0.00119530265523 -0.00218097304171 -0.00519606588345 -0.0122953291223 -0.0316195221202 -0.00301068120904);
    }
    procBoundary5to4
    {
        type            processor;
        value           nonuniform List<scalar> 
18
(
-0.000742158847131
-0.000743942021955
-0.000748287918638
-0.000751510850056
-0.000751510850056
-0.000753516013073
-0.000755390286594
-0.000757160342747
-0.000758803018672
-0.000760214476085
-0.00076128940924
-0.000761952111663
-0.00076220879332
-0.00076212973081
-0.000761819953156
-0.000761374914985
-0.000760732934718
-0.00076004151121
)
;
    }
}


// ************************************************************************* //
