/*--------------------------------*- C++ -*----------------------------------*\
| =========                 |                                                 |
| \\      /  F ield         | OpenFOAM: The Open Source CFD Toolbox           |
|  \\    /   O peration     | Version:  v2012                                 |
|   \\  /    A nd           | Website:  www.openfoam.com                      |
|    \\/     M anipulation  |                                                 |
\*---------------------------------------------------------------------------*/
FoamFile
{
    version     2.0;
    format      ascii;
    class       surfaceVectorField;
    location    "1";
    object      Uf;
}
// * * * * * * * * * * * * * * * * * * * * * * * * * * * * * * * * * * * * * //

dimensions      [0 1 -1 0 0 0 0];


internalField   nonuniform List<vector> 
300
(
(-0.119122089288 0.00615531224725 -8.33190241861e-22)
(-0.119168331041 0.00346277049763 -4.97761915016e-23)
(-0.122891735354 0.0124150001294 -8.07546206012e-22)
(-0.124586334363 0.00866465601525 -7.98768858136e-22)
(-0.125180106675 0.0186944746344 -1.55500843433e-23)
(-0.126852174406 0.0145910012848 2.64417779991e-23)
(-0.127810890465 0.0249566717253 1.02564538563e-22)
(-0.129156308469 0.0206040014528 1.93246204927e-22)
(-0.131131223802 0.0311793968734 6.58105509436e-23)
(-0.132066909354 0.0264943598366 1.01218793505e-22)
(-0.135236907439 0.0373274727614 5.56350300964e-23)
(-0.135719654405 0.0323064603987 3.89000219135e-23)
(-0.140160701097 0.0433472965916 7.03528510835e-23)
(-0.140156771037 0.0380195295348 4.03395681312e-23)
(-0.145385796082 0.0435745171214 -2.379866984e-23)
(-0.124963176622 0.00547777326899 -1.53548077758e-23)
(-0.124646142423 0.00300863018623 2.73871865538e-22)
(-0.128780912203 0.011017682059 3.52191258755e-23)
(-0.130126289603 0.00768302358227 1.27478476444e-22)
(-0.131059992375 0.0165578934857 2.3523806727e-22)
(-0.132392434803 0.0128614792678 2.1949633788e-22)
(-0.133650942978 0.0220647339578 1.91900459869e-22)
(-0.134663196455 0.0181167672859 2.28093886234e-22)
(-0.136902720516 0.0275146263246 7.43082644747e-23)
(-0.137516845178 0.0232547199765 6.62847897842e-23)
(-0.140898171949 0.0328759087988 2.36045599483e-23)
(-0.14108097473 0.0283068336958 -7.63795082757e-24)
(-0.145656486208 0.0381038386405 -5.38119527924e-23)
(-0.145384730629 0.0332540025067 1.75232130433e-23)
(-0.151171337557 0.0431467916179 -1.88881950885e-23)
(-0.150428770623 0.0380500568091 -8.67792903047e-23)
(-0.157417610319 0.0479431402445 3.94644954562e-23)
(-0.156192716445 0.0426417988062 1.241729826e-23)
(-0.164351365293 0.0524276021705 -1.20972933808e-22)
(-0.162643127993 0.0469748292504 -2.18941142907e-23)
(-0.169727354102 0.0509968542736 -1.44441711208e-22)
(-0.130109581824 0.00480603516575 4.16705149758e-22)
(-0.129452230529 0.00256213589882 2.59564210902e-22)
(-0.133947512532 0.00963803448222 3.11755688449e-22)
(-0.134958345925 0.00671058402042 2.94738470814e-22)
(-0.136202671984 0.0144579009924 2.12352156845e-22)
(-0.137212354505 0.0111555745216 1.99091494827e-22)
(-0.138741621755 0.0192330184956 1.0247821615e-22)
(-0.139438358182 0.0156789675316 1.53289517586e-22)
(-0.141915795792 0.0239445329787 -1.56614255181e-23)
(-0.142228392219 0.0200930710099 1.5978891412e-23)
(-0.145798694841 0.0285648439742 -1.37192977326e-23)
(-0.145701305706 0.0244210588681 -4.21605699069e-24)
(-0.150400548294 0.0330585824345 -1.54441244691e-23)
(-0.149878476777 0.0286461597678 5.55953460775e-23)
(-0.155709121203 0.0373830399386 -5.54737969561e-23)
(-0.154753225511 0.0327331751519 1.55656715333e-23)
(-0.161696145999 0.0414958377786 -4.89413114869e-23)
(-0.160305504044 0.0366436384077 -3.84457274452e-23)
(-0.168317832506 0.0453507768371 -4.53628916908e-23)
(-0.166498052021 0.0403386929761 2.31427473479e-23)
(-0.17551238025 0.0489049239687 5.0686168571e-23)
(-0.173281485018 0.0437847161618 1.7737222585e-23)
(-0.183198429861 0.0521178167095 -5.3946187104e-23)
(-0.180586325719 0.0469487597299 7.67576572618e-23)
(-0.188322216708 0.0498002371378 -1.99560209043e-23)
(-0.134571960096 0.00414285793691 1.37597531958e-22)
(-0.133595150006 0.00212551914661 -4.15150116627e-23)
(-0.138407738108 0.00828207236164 1.82074277192e-22)
(-0.139097622583 0.0057501898145 1.83402948632e-22)
(-0.140630081124 0.0123989130454 1.40028855568e-22)
(-0.141329248974 0.00947795500348 1.00691801997e-22)
(-0.143111734955 0.0164676128507 6.6790192848e-23)
(-0.143507097442 0.0132955619637 8.40215872335e-23)
(-0.146206550869 0.0204705798161 2.74242599394e-23)
(-0.146231381594 0.0170108975641 3.64948159637e-23)
(-0.149981725193 0.0243850294771 6.50985868193e-23)
(-0.149615760545 0.0206439203455 1.23800610341e-23)
(-0.154442044246 0.0281832443323 8.66051420799e-23)
(-0.153676681575 0.0241806471466 5.25908889225e-23)
(-0.159572245459 0.0318349358127 3.25937410442e-23)
(-0.158404895283 0.0275953358454 3.06696619245e-23)
(-0.165344356065 0.0353077154495 3.36383313896e-23)
(-0.163778255202 0.0308611886014 1.8185537748e-23)
(-0.171716744014 0.0385745221295 8.62428616237e-23)
(-0.169764828325 0.0339532319932 3.79116872259e-23)
(-0.178631072201 0.0416120112937 4.38087112757e-23)
(-0.176318946852 0.0368548483799 -5.19118603591e-24)
(-0.18600918649 0.044398033738 1.10747823462e-22)
(-0.183372329553 0.0395525141393 -2.07212158369e-23)
(-0.193751030467 0.0469170561172 1.56380275791e-22)
(-0.190841230432 0.0420395393941 -1.79973085717e-23)
(-0.198610481811 0.0443096703991 7.52046035071e-23)
(-0.138363326631 0.00349103328617 4.29040501178e-24)
(-0.137086248233 0.00170119055216 -3.02119508407e-22)
(-0.142178651401 0.00695232938981 1.02020473437e-22)
(-0.142558981687 0.00480401981087 2.72938307588e-23)
(-0.144363030785 0.0103854224039 4.4684533662e-23)
(-0.144762393301 0.00783102624901 -7.60142045517e-23)
(-0.146786429 0.0137691061181 5.37262103492e-23)
(-0.146890814613 0.0109676503082 9.39584189208e-24)
(-0.149804303212 0.0170884701276 2.14506170584e-23)
(-0.149550758568 0.0140055489098 9.35612433388e-24)
(-0.153479843791 0.0203248277047 -1.27636862687e-25)
(-0.15285211101 0.0169667418073 4.83127265382e-24)
(-0.157815695758 0.0234570210464 -3.34459123285e-24)
(-0.156808850674 0.0198397439434 1.67414165289e-23)
(-0.162796210409 0.0264640242613 1.62614586283e-23)
(-0.161411862043 0.0226074032786 1.92637893925e-23)
(-0.168396267167 0.0293268048759 2.24588935843e-23)
(-0.166640993104 0.0252515140338 2.22738149877e-23)
(-0.174578228584 0.0320325347442 -5.35223604337e-23)
(-0.172470515305 0.0277592104577 3.36564415244e-23)
(-0.181289939999 0.0345684602223 -6.97211131486e-23)
(-0.178854834759 0.0301290452835 -3.98110265716e-23)
(-0.188461978119 0.036942084056 -1.4946634787e-22)
(-0.185745926737 0.0323647243388 -3.17644386525e-23)
(-0.196000498121 0.0391646967909 -9.91729808554e-23)
(-0.193063827759 0.0344851913028 -6.16397569439e-23)
(-0.200707814548 0.0365255439095 1.19402105486e-22)
(-0.141497458229 0.00285296702205 -2.7911608266e-22)
(-0.139939279719 0.00129123509281 -5.14823834366e-22)
(-0.145277266087 0.00565368671868 -1.50740847229e-22)
(-0.145359761849 0.00387389324772 -2.46857636319e-22)
(-0.147420550744 0.0084196401807 -1.11302896322e-22)
(-0.147528393494 0.00621610303636 -2.85326043359e-22)
(-0.149786753894 0.0111359239065 -3.49742441233e-23)
(-0.149607125275 0.00869417910201 -3.04089235086e-23)
(-0.152732285265 0.0137914180869 -7.2632200707e-24)
(-0.152206257455 0.0110718723843 -1.11760470079e-23)
(-0.156317716612 0.0163700855399 2.17003260454e-23)
(-0.155430761762 0.0133793164074 5.20109775923e-24)
(-0.160546166812 0.0188570075377 3.93497971542e-23)
(-0.159295738077 0.015605808842 2.81381634346e-23)
(-0.16540340296 0.0212385662185 2.52761457519e-23)
(-0.163793373751 0.017742598806 1.4636605992e-23)
(-0.170868955991 0.0235034388631 3.34713629278e-23)
(-0.168905813022 0.0197766615048 2.16885463281e-24)
(-0.176912615144 0.0256513932587 4.73677753866e-23)
(-0.174618417754 0.0217044978664 5.86195361328e-23)
(-0.183491606539 0.0276897887858 -1.85435207549e-24)
(-0.180893184779 0.0235373338849 1.06414755672e-24)
(-0.190552858038 0.0296343755822 5.60621522737e-23)
(-0.18769047921 0.0252891516001 3.32927814328e-23)
(-0.198022228541 0.031536272506 1.56935329398e-22)
(-0.194965701244 0.0270025607045 1.19317755168e-22)
(-0.202641225546 0.028751500531 1.03572271463e-22)
(-0.143989309504 0.00222769482973 -4.82565388025e-22)
(-0.142167035621 0.000898568344761 -5.53670734227e-22)
(-0.147720156111 0.00438112054994 -3.81442832448e-22)
(-0.147513243135 0.00296244307944 -1.67344319942e-22)
(-0.14981968098 0.00649763391127 -2.04432070546e-22)
(-0.149644947761 0.00463364787828 -2.32786421825e-22)
(-0.152130413292 0.00856421483695 -6.61072639329e-24)
(-0.151673726847 0.00647195131736 -1.42076961906e-24)
(-0.155008948257 0.0105721295456 1.28827082199e-24)
(-0.154214170426 0.00820299572355 -5.01810730097e-24)
(-0.158513553912 0.0125101700502 1.16389351485e-23)
(-0.157368779196 0.00987102519494 -2.09940581763e-23)
(-0.16264908991 0.0143651059236 3.42497227243e-24)
(-0.161150633249 0.0114641343728 9.05726011376e-24)
(-0.167404592963 0.0161329294393 -8.47068512708e-24)
(-0.165561144554 0.0129794253793 -1.32109693006e-23)
(-0.172766087979 0.017807520021 2.73170278378e-23)
(-0.170580345549 0.014404730809 8.9968722739e-24)
(-0.178711555996 0.0193910969748 1.23159083029e-23)
(-0.176201937823 0.0157478059319 2.8597016086e-23)
(-0.185211778738 0.0208992184396 3.6211281065e-23)
(-0.182401256059 0.0170260044279 -2.6963241382e-23)
(-0.192239528894 0.0223719063075 9.65483843269e-23)
(-0.189163127193 0.0182477979598 2.80607176701e-23)
(-0.199747876882 0.0238741533414 6.5954697233e-23)
(-0.196467917711 0.0194821729143 -1.65118713857e-25)
(-0.20427378007 0.0208178087809 -3.40156006452e-24)
(-0.145853759892 0.00161474118962 -2.38449666143e-22)
(-0.143781832138 0.00052570490902 -5.35504364845e-22)
(-0.149522826063 0.00314224578447 -1.86879093182e-23)
(-0.149040796718 0.00207158975184 3.6180536336e-22)
(-0.151575371363 0.00462305481719 -2.97751208979e-23)
(-0.151125791315 0.00308183089562 -2.33603608523e-24)
(-0.153832055145 0.0060488158599 1.71849473263e-25)
(-0.153099503055 0.00429635216806 -1.19189391858e-24)
(-0.156648733573 0.00742146084943 -2.73004362993e-23)
(-0.155586809473 0.00539232173987 -1.69929857699e-23)
(-0.160080640067 0.00873085094064 -2.35757332111e-23)
(-0.158678143376 0.00643332511189 -1.08179833912e-23)
(-0.164133208209 0.0099687078854 -7.57868145923e-24)
(-0.162388447855 0.00740325103479 -1.04657467548e-23)
(-0.168800697531 0.011118609745 4.25658810041e-24)
(-0.166710992932 0.0083025695889 -1.05262736209e-23)
(-0.174081172627 0.0121851525981 1.02768605221e-23)
(-0.171646829981 0.00911468437741 1.1414195556e-23)
(-0.179956863081 0.0131967801512 -1.06821335989e-23)
(-0.177213508078 0.00986136356198 1.30382644486e-24)
(-0.186410365216 0.0141492731248 -3.51138047769e-23)
(-0.183353698003 0.010560116729 -3.7875847278e-23)
(-0.193449376465 0.0150797118638 -6.86527853706e-23)
(-0.19009352355 0.0111976088125 -5.46946389288e-23)
(-0.201053637748 0.0160851509744 -6.95213760113e-23)
(-0.197473321514 0.0118684197405 -5.17392999905e-23)
(-0.205427757696 0.0126492806362 2.29586678313e-23)
(-0.147106093286 0.00100993208175 6.47506646581e-23)
(-0.144791812097 0.000176043292864 -5.36446228005e-22)
(-0.150701635922 0.00192458313315 3.78157236593e-22)
(-0.149955489235 0.00120108548721 4.21233664105e-22)
(-0.152701625673 0.00277512287236 2.62471908941e-23)
(-0.151976359264 0.00155749756288 8.34954457257e-23)
(-0.154906612362 0.00358334888373 -1.83567291618e-23)
(-0.153907739958 0.00216123039873 -6.78653172108e-23)
(-0.157663817032 0.0043363626887 -5.10532861807e-25)
(-0.156339815478 0.00263618580803 -3.42107456251e-23)
(-0.161026103215 0.00502690418556 2.29200306509e-24)
(-0.159368659451 0.00306275579902 2.9324304514e-24)
(-0.165005143556 0.00563893773039 -1.34133389164e-23)
(-0.163000441475 0.0034145141587 -1.32661722551e-23)
(-0.169596383025 0.00619480649443 -3.36866616525e-24)
(-0.167266811871 0.00370103549317 -1.62105181899e-23)
(-0.174800580158 0.00667286575356 2.44116147875e-24)
(-0.172124834919 0.00390052747819 -2.01894325825e-23)
(-0.180617656268 0.00706542302529 -2.58898872342e-23)
(-0.177606011848 0.00403406477521 -2.49851747186e-23)
(-0.18704716544 0.00742411924581 -5.74566814299e-23)
(-0.18371234613 0.00411908931106 -4.30329412107e-23)
(-0.19409729174 0.00779886825425 -3.77811535486e-23)
(-0.190468231116 0.0041363158988 -6.35817500945e-23)
(-0.201786587196 0.00815159716786 4.07407438521e-23)
(-0.197826016537 0.00416928477263 1.90891647732e-23)
(-0.205923341962 0.00426837831064 8.75054814467e-23)
(-0.147763848591 0.000410580790787 -1.79963228559e-22)
(-0.14520243689 -0.000190635445789 -4.7869195078e-22)
(-0.15127116372 0.000756338321533 1.26571873238e-22)
(-0.150301283983 0.000343813014058 6.01231937627e-23)
(-0.153205944463 0.000968371902116 -1.06170623791e-23)
(-0.152188418008 6.65904816429e-05 -1.29076715442e-22)
(-0.155368371684 0.00116828876333 -8.37193336741e-23)
(-0.154107666581 5.8813093201e-05 -1.70426460455e-22)
(-0.158066696586 0.00131508999605 -3.07677823119e-23)
(-0.156486609819 -6.50339716672e-05 -6.10835485411e-23)
(-0.161363047302 0.00139826298253 -1.26257448688e-23)
(-0.159451809688 -0.000243802156374 -2.10218943817e-23)
(-0.165267145954 0.00142336510798 -1.60633515286e-23)
(-0.163025507514 -0.000499565016407 -2.17202643737e-23)
(-0.169783783459 0.00134363551255 -3.30312846071e-23)
(-0.167187036818 -0.000825221655265 -1.80597609906e-23)
(-0.174910554427 0.00120685456663 -4.76157687798e-23)
(-0.171988003859 -0.00123710286053 -4.74324099819e-23)
(-0.180661848092 0.000977699677947 -4.2128228695e-23)
(-0.177376807066 -0.00172775501003 -4.4069571409e-23)
(-0.187057454593 0.000696458306082 -4.91580098753e-23)
(-0.183431059372 -0.00228587543325 -2.03468009179e-23)
(-0.194098861969 0.000355431704281 -6.71143177275e-24)
(-0.190127166243 -0.00291678539849 -4.13987562209e-23)
(-0.201836942507 4.15359933452e-05 6.58539023677e-23)
(-0.19751209008 -0.00358033366718 6.07642168926e-23)
(-0.210333836972 -0.000226161751519 4.0482390166e-23)
(-0.205655619431 -0.0042512725451 1.00220392534e-22)
(-0.219585136041 -0.000351752310229 -4.72662936502e-22)
(-0.214617189671 -0.00492069253793 -1.34353117232e-22)
(-0.224286153792 -0.00588161098934 -1.39891996877e-21)
(-0.14783246739 -0.000184877906337 -2.38605528459e-22)
(-0.1450176011 -0.000575558133264 -5.71473473797e-22)
(-0.151241534971 -0.000460147775115 -1.95525394917e-22)
(-0.150026049847 -0.000499743097029 9.14522739637e-23)
(-0.153106147362 -0.000804418349614 -2.88886113518e-22)
(-0.151844171985 -0.00137705861222 -3.99321401643e-22)
(-0.155222774641 -0.00121467516332 -1.47790675322e-22)
(-0.153697420019 -0.00200180498318 -2.07425696303e-22)
(-0.157863322591 -0.00167418532218 -5.13376606109e-23)
(-0.156027094184 -0.0027085187952 -5.66761591826e-23)
(-0.161092578334 -0.00219826344241 -3.01164138866e-23)
(-0.158927710872 -0.00348258047125 -2.42988172266e-23)
(-0.164917030867 -0.0028038700559 -2.37166738357e-23)
(-0.162419867185 -0.00433396527456 -1.82125630363e-23)
(-0.169349681681 -0.0034830871287 -3.24608863653e-23)
(-0.166507776651 -0.00526768700589 -1.78685044327e-23)
(-0.174396076885 -0.00426247683838 -4.38862126111e-23)
(-0.171208566284 -0.00629294617646 -3.54000575899e-23)
(-0.180070646081 -0.00511336293589 -2.22881436319e-23)
(-0.176525873054 -0.00741199641068 -2.38167638366e-23)
(-0.186398778482 -0.00605517903539 -1.25875472635e-23)
(-0.182489199751 -0.00862397212199 1.60465670186e-23)
(-0.193402408826 -0.00706436252029 2.60768924444e-23)
(-0.18911794668 -0.00993046257231 -1.72878258007e-23)
(-0.20113435437 -0.00812340580014 9.51307070584e-23)
(-0.196453019492 -0.0113234164727 6.95677700063e-23)
(-0.209645120447 -0.00922888645209 -7.46151148648e-23)
(-0.204550119298 -0.0127919953336 1.33851640985e-22)
(-0.218859370964 -0.0104170335558 -1.0606101495e-21)
(-0.213429030976 -0.0143281695474 -2.20573122005e-22)
(-0.222818164515 -0.0156806448289 -1.64895451674e-21)
(-0.147281408305 -0.000741878640559 -2.41415671374e-22)
(-0.150615096436 -0.00162743701352 -1.12343732762e-22)
(-0.152424999649 -0.00255077141413 -3.17860984428e-22)
(-0.154484181697 -0.00353401661636 -1.16311180164e-22)
(-0.157063183422 -0.00457831122172 -2.96373157984e-23)
(-0.160217027405 -0.00569414982636 -1.23949663764e-23)
(-0.163958947099 -0.00689413942775 -1.23643936333e-23)
(-0.168299896517 -0.00818539131133 -2.08076756572e-23)
(-0.173251780255 -0.00957925292226 -1.53306088154e-23)
(-0.178832547932 -0.0110759969169 1.45179468138e-23)
(-0.185067404849 -0.012682098953 1.13462884814e-23)
(-0.191987568965 -0.0143953986372 2.62030517612e-23)
(-0.199638847088 -0.0162165648327 1.08288703933e-22)
(-0.208051518303 -0.0181547439905 -1.21063661549e-23)
(-0.21710195612 -0.0202418639051 -8.08917489243e-22)
)
;

boundaryField
{
    back
    {
        type            calculated;
        value           uniform (0 0 0);
    }
    sides
    {
        type            calculated;
        value           nonuniform List<vector> 0();
    }
    bottom
    {
        type            calculated;
        value           uniform (0 0 0);
    }
    front
    {
        type            calculated;
        value           uniform (0 0 0);
    }
    atmosphere
    {
        type            calculated;
        value           nonuniform List<vector> 0();
    }
    floatingObject
    {
        type            calculated;
        value           nonuniform List<vector> 0();
    }
    procBoundary7to6
    {
        type            processor;
        value           nonuniform List<vector> 
11
(
(-0.201726357198 0.0491493665823 -2.07450964812e-22)
(-0.203769246589 0.0412620360624 5.72737688383e-22)
(-0.205782876073 0.0334696978242 -6.10846954218e-23)
(-0.207667353675 0.025506729851 3.88942477084e-22)
(-0.209205559237 0.0172391566491 -2.22131959801e-22)
(-0.210148033869 0.00864720850863 1.87673588037e-23)
(-0.214742810168 0.00449457066023 -2.8255732477e-23)
(-0.224364909446 0.00393157326089 -1.57062409518e-21)
(-0.228478384369 -0.000430490125089 -1.02914407021e-20)
(-0.227708854588 -0.0118850184973 -8.90167911489e-21)
(-0.226134876472 -0.0224916866943 -8.21134851404e-21)
)
;
    }
    procBoundary7to8
    {
        type            processor;
        value           nonuniform List<vector> 
17
(
(-0.113013020787 0.00392119915207 1.03947191955e-22)
(-0.118326627246 0.00964969301254 -6.15676403828e-22)
(-0.120572659179 0.0163346714907 2.907142139e-23)
(-0.122894049927 0.0231292291382 3.40602453083e-22)
(-0.125844103941 0.0298031548083 1.63114908214e-22)
(-0.129571481824 0.0364179990888 1.05340167691e-22)
(-0.13413684606 0.0429523519653 1.16262695751e-22)
(-0.139565175531 0.0493323414528 3.02485320476e-23)
(-0.145906725077 0.0491678237306 9.92498429484e-23)
(-0.151396325859 0.0489008203723 1.041603177e-22)
(-0.158158646749 0.0539248749968 7.5721694034e-23)
(-0.165616743923 0.0585736142621 -2.46088515547e-23)
(-0.171908349857 0.0565382057776 -1.04589693304e-22)
(-0.177373449456 0.0546555745585 9.05381864755e-23)
(-0.185491195112 0.0579007822162 -2.13873064534e-22)
(-0.191276735725 0.0549488458224 -9.78915190819e-23)
(-0.196378171203 0.0523029100327 7.84447776131e-23)
)
;
    }
    procBoundary7to9
    {
        type            processor;
        value           nonuniform List<vector> 
16
(
(-0.144275760669 -0.000935524389709 -8.14477014297e-22)
(-0.14914052454 -0.00132140413759 4.4864745003e-23)
(-0.15092086106 -0.00277415958071 -2.88605196476e-22)
(-0.152714185408 -0.00400418052847 -1.32565006372e-22)
(-0.154982795948 -0.00528771990693 -3.37607806508e-23)
(-0.157811854586 -0.00664393210583 -1.79963685349e-23)
(-0.161219847792 -0.00808408026753 -1.44322198592e-23)
(-0.165216486248 -0.00961702838346 -1.48712029835e-23)
(-0.169814661609 -0.0112533841835 -2.79871778708e-23)
(-0.175029086134 -0.0130014562865 -7.8443100489e-24)
(-0.180883058962 -0.0148676258101 2.08290425384e-23)
(-0.187404615729 -0.0168602767692 -2.09356395334e-23)
(-0.19463183112 -0.0189868669456 6.05960928171e-23)
(-0.202611926646 -0.0212421240024 1.16851805612e-22)
(-0.211341906321 -0.0235936233852 -3.04194134462e-23)
(-0.220568340221 -0.0256944346141 -2.27448954197e-22)
)
;
    }
}


// ************************************************************************* //
