/*--------------------------------*- C++ -*----------------------------------*\
| =========                 |                                                 |
| \\      /  F ield         | OpenFOAM: The Open Source CFD Toolbox           |
|  \\    /   O peration     | Version:  v2012                                 |
|   \\  /    A nd           | Website:  www.openfoam.com                      |
|    \\/     M anipulation  |                                                 |
\*---------------------------------------------------------------------------*/
FoamFile
{
    version     2.0;
    format      ascii;
    class       surfaceScalarField;
    location    "4.6";
    object      phi;
}
// * * * * * * * * * * * * * * * * * * * * * * * * * * * * * * * * * * * * * //

dimensions      [0 3 -1 0 0 0 0];
oriented        oriented;


internalField   nonuniform List<scalar> 
302
(
-7.47594136603e-07
-9.91293700374e-05
-2.6017829227e-06
-0.000102342954321
-5.08626026054e-06
-0.000105933357618
-8.44338900424e-06
-0.000109752403609
-1.27215915931e-05
-0.000113661331753
-1.83043880289e-05
-0.000117822333707
-2.52015021235e-05
-0.000122990878885
-3.28637322704e-05
-0.000130476456768
-4.17938820221e-05
-0.000139570160893
-5.04107698445e-05
-0.000146811359474
-7.43462822841e-05
-0.00018558928438
-0.00022746682938
0.000291681046738
6.46681492682e-05
-1.20508519019e-06
-9.27179255452e-05
-2.39857281459e-06
-9.48891507293e-05
-4.05046528543e-06
-9.74780203194e-05
-6.02501965308e-06
-0.000100368394134
-8.5907300742e-06
-0.000103367460706
-1.18804627916e-05
-0.000106461713444
-1.59370428943e-05
-0.00010960359284
-2.10048194499e-05
-0.000112753004403
-2.73989886785e-05
-0.000116595511212
-3.44193532228e-05
-0.000123454913476
-4.18800554741e-05
-0.000132108559096
-4.98441318545e-05
-0.000138846777536
-7.67679904613e-05
-0.000158665345506
-0.000237130200481
0.000452043080998
0.000118810086122
2.66748947817e-10
-9.62452604644e-05
-9.38308250955e-05
-2.41990955942e-06
-9.00833405085e-05
-3.6470467328e-06
-9.14888713584e-05
-5.06131836509e-06
-9.34731750316e-05
-6.8167950701e-06
-9.57208811434e-05
-8.94928632322e-06
-9.82338663542e-05
-1.14248957726e-05
-0.00010088943533
-1.44745549967e-05
-0.000103409223769
-1.81925538091e-05
-0.000105882601501
-2.24086584684e-05
-0.000108533912539
-2.7436509306e-05
-0.000111564900176
-3.35605119428e-05
-0.000117328459077
-4.04416740689e-05
-0.00012522544384
-4.99305411211e-05
-0.000129356951162
-8.13680972613e-05
-0.000127227650016
-0.000238743764201
0.000609419592497
0.000153388485121
-3.96566239417e-07
-9.58470333749e-05
-1.05524995605e-06
-9.31702246523e-05
-1.92910641227e-06
-8.9805315117e-05
-3.05372938472e-06
-8.84675505532e-05
-4.32205178804e-06
-8.88125731175e-05
-5.74611275971e-06
-9.00623215199e-05
-7.41757698047e-06
-9.1798924562e-05
-9.25172020353e-06
-9.38835791975e-05
-1.13759077278e-05
-9.61058651404e-05
-1.3853079505e-05
-9.84078634332e-05
-1.65342597571e-05
-0.000100723037577
-1.96154580814e-05
-0.000102796167431
-2.31750907092e-05
-0.000104968989785
-2.68898143676e-05
-0.000107845200525
-3.17531610867e-05
-0.000112460703906
-3.80307005259e-05
-0.000118944602545
-4.78474761382e-05
-0.00011953875939
-7.99176279185e-05
-9.51572743399e-05
-0.000225714618425
0.000755218230469
0.000174357119901
-7.77645053073e-07
-9.50680189243e-05
-1.78084969793e-06
-9.21654880174e-05
-3.00010721108e-06
-8.85842692374e-05
-4.40214494487e-06
-8.70634932393e-05
-5.96406277206e-06
-8.72483472215e-05
-7.63512000946e-06
-8.83885626364e-05
-9.42230190635e-06
-9.00084377036e-05
-1.14146320228e-05
-9.18871545354e-05
-1.35807140296e-05
-9.39346921856e-05
-1.5915075887e-05
-9.60673780943e-05
-1.83813153371e-05
-9.82497441982e-05
-2.09228301609e-05
-0.00010024701668
-2.369237463e-05
-0.000102191651925
-2.67652874925e-05
-0.000104764857648
-3.03126519875e-05
-0.000108906872446
-3.55736973878e-05
-0.000113678994135
-4.34988998737e-05
-0.000111611812541
-6.73926361358e-05
-7.12633204449e-05
-0.000162366714506
0.000850194385673
0.000194657607573
-1.09869015379e-06
-9.39682141758e-05
-2.41317711898e-06
-9.08497806766e-05
-3.94985527593e-06
-8.7046209609e-05
-5.64565612344e-06
-8.53660829467e-05
-7.45073871474e-06
-8.54413059902e-05
-9.34543705309e-06
-8.64913633585e-05
-1.13590873726e-05
-8.79914690844e-05
-1.34440360374e-05
-8.97977610358e-05
-1.56114743945e-05
-9.17614022403e-05
-1.78132202651e-05
-9.38582400392e-05
-2.00671499274e-05
-9.59870112669e-05
-2.23647288168e-05
-9.79396300942e-05
-2.43375789614e-05
-0.000100208639673
-2.62888075807e-05
-0.000102803929733
-2.94334598994e-05
-0.000105753965401
-3.46320041891e-05
-0.000108474935329
-4.06316267289e-05
-0.000105610257132
-3.77537533073e-05
-7.41412226532e-05
0.000269740006607
0.000542693229221
0.000253058728644
-1.4422597373e-06
-9.25251042024e-05
-3.0470449886e-06
-8.92441326488e-05
-4.87668809863e-06
-8.52156861864e-05
-6.81430554838e-06
-8.34275051496e-05
-8.84746772295e-06
-8.34069381281e-05
-1.09767480055e-05
-8.43603214266e-05
-1.31541473671e-05
-8.58112932414e-05
-1.53759373228e-05
-8.75716025812e-05
-1.7596163772e-05
-8.95347066957e-05
-1.98010633672e-05
-9.16443458842e-05
-2.19419643673e-05
-9.38345882737e-05
-2.37145155279e-05
-9.61535741028e-05
-2.52723158325e-05
-9.86364435686e-05
-2.66566196825e-05
-0.000101405847853
-2.86482651988e-05
-0.00010375083279
-3.27494870934e-05
-0.000104366228649
-3.80218492491e-05
-0.000100335206072
-2.09492260252e-05
-9.1213899994e-05
0.00051104107923
1.06878972619e-05
9.37698504935e-05
-1.70013244594e-06
-9.08244427985e-05
-3.62423808474e-06
-8.73196588101e-05
-5.69775140612e-06
-8.31420142478e-05
-7.90371117713e-06
-8.12215484924e-05
-1.01843157591e-05
-8.11262383236e-05
-1.25092078709e-05
-8.20347194127e-05
-1.48606327066e-05
-8.34577330055e-05
-1.72360808311e-05
-8.51914006107e-05
-1.95690705476e-05
-8.7193745735e-05
-2.18321011992e-05
-8.93692863528e-05
-2.3907269869e-05
-9.17433048409e-05
-2.56034275173e-05
-9.44382893046e-05
-2.68673435166e-05
-9.73523487124e-05
-2.76877480834e-05
-0.000100566687396
-2.83675309643e-05
-0.000103056063146
-2.98799966786e-05
-0.000102844361874
-2.93584967853e-05
-0.000100853599549
-1.44611540891e-05
-0.000106116717513
0.000109730151228
-0.000113547865879
-2.01862337031e-05
-1.99948705051e-06
-4.16820160769e-06
-6.50564903856e-06
-8.95238699015e-06
-1.14554335959e-05
-1.39840112138e-05
-1.65298812325e-05
-1.90767712746e-05
-2.15912692985e-05
-2.39734049727e-05
-2.61224061654e-05
-2.80362115959e-05
-2.94954722297e-05
-3.03480874996e-05
-3.07481316823e-05
-3.14744903905e-05
-2.87385423631e-05
-1.94674197129e-05
-1.50508347505e-05
)
;

boundaryField
{
    back
    {
        type            calculated;
        value           uniform 0;
    }
    sides
    {
        type            calculated;
        value           nonuniform List<scalar> 0();
    }
    bottom
    {
        type            calculated;
        value           uniform 0;
    }
    front
    {
        type            calculated;
        value           uniform 0;
    }
    atmosphere
    {
        type            calculated;
        value           nonuniform List<scalar> 9(-0.000291515643712 -0.000291271632947 -0.000273322503332 -0.000246684966633 -0.000182671079281 0.000211334557096 0.000670300008492 0.000223644729777 8.99583899357e-06);
    }
    floatingObject
    {
        type            calculated;
        value           nonuniform List<scalar> 0();
    }
    procBoundary0to1
    {
        type            processor;
        value           nonuniform List<scalar> 10(0.000113110128681 0.000117941135905 0.00012340975072 0.000129891661028 0.000138143510019 0.000148502804137 0.000155429860427 0.000209525126331 -0.000138559972682 -6.18450787767e-07);
    }
    procBoundary0to2
    {
        type            processor;
        value           nonuniform List<scalar> 
14
(
0.000100373203634
0.000104193988848
0.00010841309917
9.35537015925e-05
-5.02701351599e-07
9.6081767417e-05
9.62480646441e-05
9.41056947177e-05
3.70411363947e-07
9.10387228293e-05
-2.7114786324e-07
9.06831654549e-05
1.46870815384e-06
8.95957523766e-05
)
;
    }
    procBoundary0to4
    {
        type            processor;
        value           nonuniform List<scalar> 8(-8.88247800633e-05 -8.51510712603e-05 -8.08050883766e-05 -7.87756550183e-05 -7.86240487778e-05 -7.9506332237e-05 -8.09097983358e-05 -8.26395364191e-05);
    }
    procBoundary0to5
    {
        type            processor;
        value           nonuniform List<scalar> 
12
(
-8.46698494276e-05
-8.69722382292e-05
-8.95756333202e-05
-9.25027240951e-05
-9.5870467284e-05
-9.9693432307e-05
-0.000102639479121
-0.000102107773578
-0.000103586450927
-0.000115400142265
-0.000118018099438
-4.42764572296e-05
)
;
    }
}


// ************************************************************************* //
