/*--------------------------------*- C++ -*----------------------------------*\
| =========                 |                                                 |
| \\      /  F ield         | OpenFOAM: The Open Source CFD Toolbox           |
|  \\    /   O peration     | Version:  v2012                                 |
|   \\  /    A nd           | Website:  www.openfoam.com                      |
|    \\/     M anipulation  |                                                 |
\*---------------------------------------------------------------------------*/
FoamFile
{
    version     2.0;
    format      ascii;
    class       surfaceVectorField;
    location    "5";
    object      ddtCorrDdt0(Uf);
}
// * * * * * * * * * * * * * * * * * * * * * * * * * * * * * * * * * * * * * //

dimensions      [0 1 -2 0 0 0 0];


internalField   nonuniform List<vector> 
300
(
(0.120946272257 0.0139740846891 -8.62365995138e-24)
(0.118195613721 0.0153758075639 -1.11818303318e-23)
(0.125635704781 0.0151113040988 1.73606731328e-23)
(0.122652467321 0.0169805705 -9.27469800268e-24)
(0.131191114154 0.016026924265 6.70216312508e-24)
(0.127936875632 0.0184795092043 9.59440589915e-24)
(0.137830756124 0.0165526532676 -1.7161899854e-23)
(0.134244273319 0.0197963523867 -5.54470625868e-23)
(0.145895477179 0.0165556299726 -2.46051050842e-23)
(0.141822096103 0.0208301809088 -2.12376133034e-23)
(0.155788365058 0.0157008072887 -4.72920478418e-22)
(0.151126729593 0.0214285488469 -3.41046572674e-23)
(0.167870272856 0.0136687909799 -6.6270669432e-22)
(0.162523314786 0.0213903561385 -1.70453358663e-22)
(0.183885249514 0.0100153108964 2.86927428404e-21)
(0.176360028144 0.0201748168397 9.52536740656e-22)
(0.203643730115 0.00414986441062 6.91964245683e-21)
(0.195872102141 0.0232332727778 9.1276945318e-22)
(0.241135292093 2.88323190921e-05 -2.15733849769e-20)
(0.215823889115 0.0224402182762 4.04639230601e-21)
(0.442055830762 0.0774293934764 6.62934929946e-22)
(0.221889332782 0.0141175017834 -4.18782660239e-20)
(0.242202175493 0.00905013245726 5.68294676764e-20)
(0.119510976613 0.018452896552 -1.18328683831e-23)
(0.124441539666 0.0204416925904 -1.70409652363e-23)
(0.13032012374 0.0223870742531 -5.25548198127e-23)
(0.126210668919 0.0244053069221 -1.90583110694e-23)
(0.137379373259 0.0242375402908 -5.95227760361e-23)
(0.132691687197 0.0269011033033 -5.35222460013e-23)
(0.145945435543 0.0258851954873 -3.07371654866e-23)
(0.140526328179 0.0294507663162 4.11605977859e-24)
(0.156428547969 0.0273446740441 2.68362462488e-22)
(0.150029152093 0.0320665523885 2.03304522694e-22)
(0.169192439607 0.0285411449204 1.44479007631e-21)
(0.161641007147 0.0347974981793 1.20645653903e-21)
(0.186097914744 0.0295435486489 -1.00396809021e-21)
(0.175555522762 0.0374990087044 3.13370457025e-21)
(0.206272217375 0.0300607740973 -1.96048069764e-21)
(0.195413245949 0.0458869925868 -6.33976694925e-21)
(0.220835623682 0.0295813965744 -1.6258488741e-20)
(0.216329974682 0.045994694067 -3.99038970085e-22)
(0.249404552737 0.026564474037 1.42882667225e-20)
(0.225112065257 0.0180801792793 -2.53201561393e-20)
(0.269259290489 0.159843945908 -3.33484973516e-20)
(0.128029651368 0.0289374624209 -2.0025737258e-23)
(0.123344728446 0.0303421550154 -1.68588399671e-23)
(0.135107215936 0.0321278434962 1.01165898134e-23)
(0.129680268899 0.0340254220161 1.33468395091e-23)
(0.143658537566 0.0355685277615 2.38157747959e-22)
(0.137307542178 0.0380831152547 5.45632848959e-23)
(0.154013494956 0.039358944722 1.14139859923e-21)
(0.146471022143 0.0426732764067 5.72041347932e-22)
(0.16643481422 0.0437516494063 2.89537103296e-21)
(0.157450013762 0.048054438543 7.04693976045e-22)
(0.183018331122 0.0489905214935 -2.2020942888e-21)
(0.170440944206 0.054477329036 4.01692994005e-21)
(0.203331550477 0.0546952494365 -4.7783252217e-21)
(0.189743109445 0.0677802987692 -2.89020691276e-21)
(0.210153517106 0.0605168017036 -9.46070636833e-21)
(0.210543391929 0.0696181611792 1.43230657666e-20)
(0.211204072034 0.0770263435488 -7.29569202134e-20)
(0.208684936143 0.0267077405578 1.88063626078e-21)
(-0.192230687168 0.428498570218 -2.50697407044e-19)
(0.12444957508 0.0353226610925 1.65137368e-23)
(0.119321210661 0.0360343259151 -4.07703060677e-23)
(0.131187799667 0.0398171455856 5.77935345916e-23)
(0.125268227844 0.0408177507804 5.11671736222e-23)
(0.139208903136 0.0449411288698 3.88446884869e-22)
(0.132302823114 0.0462513710019 6.0499659716e-23)
(0.148684228782 0.0510185231514 1.35336724743e-22)
(0.140525052313 0.052591998448 4.90304814748e-22)
(0.159888021461 0.0586363884016 1.82625288313e-21)
(0.149947148378 0.0603299496757 -1.52109600751e-21)
(0.175307463138 0.0679104452359 3.32881731609e-21)
(0.16123539512 0.0701103599495 5.17264025574e-21)
(0.194132582477 0.0789078990471 1.62111840755e-20)
(0.178763068114 0.0872041673039 -5.67280269908e-21)
(0.161393274541 0.0938792945317 2.56644083957e-20)
(0.195593356794 0.0918418756663 1.33194114136e-20)
(-0.237733837896 0.277448771819 -1.7585985057e-19)
(0.025092294456 0.0808121425894 -1.45148772651e-20)
(-0.891873190439 0.725298431445 1.6385950952e-19)
(0.119676667048 0.0413076005001 -6.11686924556e-24)
(0.11427524378 0.041306212314 -3.70326411733e-23)
(0.125815924048 0.0469473881895 5.38732987466e-23)
(0.119633643963 0.0470335907266 6.042237364e-23)
(0.132912995836 0.0534684121703 1.62357589595e-22)
(0.12581947284 0.0536038653945 -5.72948814512e-23)
(0.140916893264 0.061318271262 -1.1661279175e-21)
(0.13272731399 0.0613620311615 4.16252665173e-23)
(0.150080912968 0.0711761364155 1.8252913651e-21)
(0.140137123423 0.0708493169661 -2.7461419705e-21)
(0.163080948724 0.0838354310035 -3.82897975943e-21)
(0.148602710717 0.0831510789365 4.06975391648e-21)
(0.179133877328 0.0995838190414 -8.564575361e-21)
(0.163019933082 0.103113689141 -1.71808621943e-20)
(0.0764306368164 0.116347360963 -2.68598742472e-20)
(0.178820953492 0.112164144552 -1.16474726607e-20)
(-0.781071039947 0.225288052039 3.25204482825e-19)
(-0.0838018585695 0.172485223477 -1.99898921585e-19)
(-2.05179379163 1.46939287653 5.32694970608e-19)
(0.113880553398 0.0467249240451 2.95066017123e-23)
(0.10838696088 0.0459939975209 -4.81571317518e-24)
(0.119228593883 0.0532995721723 -5.07458065578e-23)
(0.11300726877 0.0524789899788 1.12461954586e-23)
(0.125163581209 0.0609370515451 -1.78027204529e-22)
(0.118158091892 0.0599303212551 -1.34735258327e-22)
(0.131357605842 0.0701152562053 -1.53838878648e-21)
(0.123541204243 0.0687399395981 -1.11036840155e-21)
(0.137961941909 0.0817267291288 -5.01679419116e-22)
(0.12852327398 0.079227999659 -2.80195753343e-21)
(0.146955484131 0.096509366586 -9.28212851842e-21)
(0.133816269201 0.0925471381166 -2.36493662702e-21)
(0.160862574865 0.117744225065 -2.0263759494e-20)
(0.141781381672 0.113978953794 -3.08042373375e-20)
(-0.0636338547069 0.136524807312 -1.84686519999e-19)
(0.160051226838 0.122947526605 -3.84324907319e-20)
(-1.90638325017 0.581079048737 7.59156619754e-21)
(-0.528424097432 0.182968445678 -2.15013742005e-19)
(-4.54223213769 0.18588044281 1.4704240082e-18)
(0.107262872517 0.0514019921509 -2.30761194288e-23)
(0.10184271307 0.0499750401492 -5.64232890091e-24)
(0.111672696871 0.058699133666 -7.27432563103e-23)
(0.105621468246 0.057018169087 -4.12509485809e-23)
(0.116285083225 0.0671579353481 -1.06707645535e-21)
(0.109632867282 0.0650645949318 -7.73668360801e-22)
(0.120531318571 0.0771793571078 -2.3739371485e-21)
(0.113469468754 0.0744751219955 -3.91639537469e-21)
(0.124415757586 0.0893242336452 -4.66521474133e-21)
(0.116340524288 0.0852803832475 -8.54091815375e-21)
(0.129496779625 0.104271820113 -2.38870454461e-20)
(0.118843835031 0.0980493295535 -1.33042350235e-20)
(0.142692484259 0.12267353048 -4.89729685754e-20)
(0.123370118739 0.118928215918 -3.38161008424e-20)
(-0.109128393891 0.139286845469 -6.87597127377e-20)
(0.143451262805 0.119018842349 -2.16032621396e-20)
(-2.14225490391 -0.177521155765 1.2478187e-18)
(-0.211666928907 0.0466648754813 2.12459933505e-19)
(-2.71201531611 -2.36241731542 1.39532701088e-18)
(0.100039310856 0.0552565499526 -2.3817158053e-23)
(0.0948283618392 0.0531890044 4.41307574199e-25)
(0.103454319241 0.0630289621926 -7.42176053072e-22)
(0.0977401682599 0.060577897661 -3.16011390584e-22)
(0.106794607965 0.071918471872 -3.62298728014e-21)
(0.100650550864 0.0689324952013 -2.35025587028e-21)
(0.10953654543 0.0820832379931 -1.00833763799e-20)
(0.103226705976 0.0785062842947 -8.1779587388e-21)
(0.111507978069 0.0933751250031 -1.71799384359e-20)
(0.104987219685 0.0890338779555 -1.9085105969e-20)
(0.114546929461 0.106297827034 -2.32332904198e-20)
(0.105882496246 0.100737342952 -3.22059258606e-20)
(0.126368253502 0.119769103157 -6.44639440655e-21)
(0.109885779035 0.12053980536 -3.4933848478e-20)
(0.141196204658 0.141323399829 2.59616384104e-19)
(0.121895034308 0.11199465182 -8.69612357157e-20)
(0.408639033558 -0.65297191563 3.59968244389e-19)
(0.582591290776 -0.153051905725 -2.4690085402e-19)
(1.10297319214 -1.85620453669 -1.11531302802e-18)
(0.0924472937011 0.0582091799644 -2.91752924957e-22)
(0.0875562751493 0.0556311860487 -9.25576956927e-23)
(0.0948982624339 0.0662064989606 -1.92409120779e-21)
(0.0896251865958 0.0631497443202 -8.05223340467e-22)
(0.09713585798 0.0751871826757 -6.90522732894e-21)
(0.0915623834588 0.0715446921754 -3.84618294148e-21)
(0.0988444814174 0.0851544305887 -1.71796883279e-20)
(0.0931646606233 0.0809366863382 -1.20991136677e-20)
(0.0999037897224 0.0958611780634 -3.41110933938e-20)
(0.0942043258389 0.0910500684865 -2.65500855823e-20)
(0.102230562964 0.106801122147 -4.39064839188e-20)
(0.0948952688396 0.1021270979 -4.51712544454e-20)
(0.102887957288 0.11821810892 -1.15448689787e-19)
(0.0984531918107 0.119782370431 -5.38283933324e-20)
(0.350996898617 0.156874662423 -5.93478473839e-19)
(0.0832388015316 0.113323159289 -1.1079249123e-19)
(0.898018709952 -0.0727854589136 -1.72218212643e-18)
(0.812280296813 -0.0604481239163 -4.70038721032e-19)
(2.17924215972 -0.419630342039 -1.11355275055e-18)
(0.0847222720665 0.060307384815 -6.06028111202e-22)
(0.0802182709804 0.0573370076423 -1.91482223394e-22)
(0.0863203417371 0.0682678300667 -2.72731507416e-21)
(0.0815444818583 0.0647893546151 -8.93262098653e-22)
(0.0876737759694 0.07705588001 -9.04006928029e-21)
(0.0826593984469 0.0729983873342 -3.92561699488e-21)
(0.0886895833676 0.0866305112473 -2.14695109222e-20)
(0.0834855616945 0.0819744726681 -1.20817797785e-20)
(0.0893242213899 0.0966976740682 -3.76102466339e-20)
(0.0840521875256 0.0917546593422 -2.36726687879e-20)
(0.0906911288594 0.107284874954 -5.5093163859e-20)
(0.084255515984 0.102547127003 -3.62042795048e-20)
(0.0828575415221 0.119842957179 -4.91721947756e-20)
(0.0858787275859 0.11700898456 -5.95797781456e-20)
(0.396978287983 0.130497799135 1.26472615769e-20)
(0.0725397509927 0.11878484897 -3.58773722748e-20)
(1.08024860034 0.199405398555 1.38590654852e-19)
(0.743393050203 0.32931044666 -1.79498307878e-19)
(3.01322247665 -0.149931337022 3.37476223173e-19)
(0.0770734480961 0.061598840187 -4.78716210844e-22)
(0.0729742318425 0.0583776319877 -8.40459389891e-23)
(0.0779496848662 0.0693299267877 -2.09156401937e-21)
(0.0736929188702 0.0656274987402 -4.37005940079e-22)
(0.0785563418058 0.0777462813443 -6.96732749311e-21)
(0.0741245280415 0.0734867836544 -2.05648362064e-21)
(0.0789242202933 0.0868128466956 -1.42849376443e-20)
(0.0743091522653 0.0819488317313 -6.53944002627e-21)
(0.078938023048 0.0964886391587 -2.22667016588e-20)
(0.0742863253269 0.0912737389223 -9.31664280935e-21)
(0.0789004340791 0.107128318578 -4.06908937914e-20)
(0.0735601842366 0.101556016837 -1.94288589283e-20)
(0.0750686734523 0.120271430274 -4.62849556448e-20)
(0.0727183561181 0.113313660788 -3.42203126393e-20)
(0.456220882638 0.121324120169 -2.2802294173e-19)
(0.0714710639851 0.118730515739 1.48813573228e-20)
(2.0982716954 -0.0973504674252 1.93872604421e-20)
(0.961979735996 0.368445546397 -1.14556447684e-19)
(1.90851353043 0.693659501383 7.75803332857e-19)
(0.0696554152073 0.0622242157154 -4.23356682235e-23)
(0.0659417368488 0.0589090343663 5.28747686704e-23)
(0.0699580849071 0.0696182911347 -4.01925541345e-22)
(0.0661785294273 0.0658833820556 4.52530797374e-23)
(0.069947747948 0.0775406447292 -1.62859615379e-21)
(0.06608203086 0.0733088630011 -1.62874821929e-22)
(0.069639929969 0.0860797589251 -1.57114519132e-21)
(0.0656574116647 0.08121160861 -8.20130757566e-22)
(0.0688537345425 0.0953602250056 -6.47880007884e-21)
(0.0649133636229 0.0898604543448 -2.73276071212e-22)
(0.0672237974885 0.105211403236 -1.29582777763e-20)
(0.0636519188182 0.0991730696995 -2.42479538258e-21)
(0.0677211794456 0.117603726563 2.69460003282e-20)
(0.0603089826724 0.108341153524 -1.77204089442e-20)
(0.384079659291 0.123433746316 1.28347851369e-19)
(0.0656065607167 0.110966213796 8.84124151012e-21)
(1.10074573558 0.781991629081 6.41859624731e-19)
(0.303420219524 0.156313343066 8.80306806277e-20)
(1.33319140894 1.04875955953 5.35189717234e-19)
(0.0625416163968 0.0624241496095 1.40463516631e-22)
(0.0591369841537 0.0590756391527 2.33308106121e-23)
(0.0624263607613 0.0694468541578 2.84303799153e-22)
(0.0590355518292 0.0657417955258 6.92032848955e-23)
(0.0619699154492 0.0768289076574 6.45590574296e-22)
(0.058578784434 0.0727441643743 8.62808848428e-23)
(0.0611393104925 0.084538691494 4.77738362537e-22)
(0.0578337307186 0.0800947683915 5.08552121553e-22)
(0.0596765069929 0.0926013987708 3.78072862504e-21)
(0.0567573419379 0.0879312064284 2.49558277829e-21)
(0.0570537877603 0.101419559925 -7.18692655057e-21)
(0.0547765864533 0.0961414615391 9.06544697e-21)
(0.0587347194436 0.110221692048 -3.58251677624e-20)
(0.0514900787753 0.102703181231 -6.58366973398e-21)
(0.197828073431 0.118373539939 -3.14759292311e-20)
(0.0574413020676 0.101050556975 -7.28263612331e-21)
(0.739294071703 0.182161607127 -1.86392268694e-20)
(0.239602435938 0.0849150347095 1.39832808073e-20)
(0.733752832866 0.556197492967 2.44520984325e-19)
(0.0556960420514 0.0622902426334 -4.79294211237e-23)
(0.0525829838787 0.0589504456596 3.41036805066e-24)
(0.0552781172335 0.0689427876271 -1.28819629415e-22)
(0.0522494853887 0.0652829187088 -5.80398575217e-23)
(0.054524020286 0.0758766992705 -5.07575679001e-23)
(0.0515088793061 0.0718531360666 -1.53403158717e-22)
(0.0534061407208 0.0830719344318 2.52639653731e-21)
(0.0505066585165 0.078685657557 8.573483937e-24)
(0.051757797556 0.0904949497401 7.78030112324e-21)
(0.0492272975148 0.0859842638759 1.83072615104e-21)
(0.0490485536153 0.0976019422461 9.66870378658e-21)
(0.0475998098114 0.0933328853194 8.58352722228e-21)
(0.0503259391844 0.104783514853 2.19588619051e-20)
(0.0442864877857 0.0978622564405 -1.12871973267e-21)
(0.124283590483 0.111478141778 3.81765739151e-20)
(0.050723010084 0.0949155550343 3.45333389255e-21)
(0.24923697814 0.201047444066 2.77143492002e-19)
(0.149970708731 0.0574006678376 8.06155444057e-21)
(0.328753448928 0.401018869004 3.1985084591e-19)
(0.0491627223162 0.0618545349858 -6.70006834731e-24)
(0.0462959524846 0.0586318862165 2.03363648113e-22)
(0.0485279031382 0.0681301386945 -8.26233868236e-23)
(0.045813391339 0.0645805976805 2.20839310476e-22)
(0.0475565275879 0.0745488462037 -9.40721068797e-23)
(0.0449149960668 0.0706366316002 2.71745482513e-22)
(0.0463094492044 0.0811565746911 -6.87096902328e-22)
(0.0437447388707 0.0769666188808 3.84066994021e-22)
(0.0446286165177 0.0878926459677 2.63395225008e-21)
(0.0423541676614 0.0839819442797 -3.72725404622e-22)
(0.0419785251102 0.0952141066832 -2.21389629696e-21)
(0.0402010727677 0.0909229511776 4.02384938039e-21)
(0.0435019302588 0.102159360818 -1.96342477452e-20)
(0.0373169760385 0.0942170320332 -9.94411814059e-21)
(0.0734422453016 0.108833818832 -2.6661685582e-20)
(0.0440130648159 0.0911658038994 5.89330518193e-22)
(0.256091484721 0.210541286112 5.07689083488e-20)
(0.0481373742394 0.0600821412891 -9.58775108584e-22)
(0.168696784363 0.290012263333 7.584343167e-20)
(0.043012975102 0.061284550009 4.30903026936e-22)
(0.0422698515837 0.0670672470592 5.75208179812e-22)
(0.0411204590732 0.0729464256555 7.49884583414e-22)
(0.0396577842626 0.0790898767965 6.98438491727e-22)
(0.0375354101892 0.0857280423765 1.01717172568e-21)
(0.0345542683812 0.0931860538325 -3.70637246324e-21)
(0.0360714327296 0.101022268827 1.02794601228e-20)
(0.036039527371 0.109850980236 2.62922409916e-20)
(0.00245506188708 0.136256888688 2.41157482126e-20)
)
;

boundaryField
{
    back
    {
        type            calculated;
        value           uniform (0 0 0);
    }
    sides
    {
        type            calculated;
        value           nonuniform List<vector> 0();
    }
    bottom
    {
        type            calculated;
        value           nonuniform List<vector> 0();
    }
    front
    {
        type            calculated;
        value           uniform (0 0 0);
    }
    atmosphere
    {
        type            calculated;
        value           nonuniform List<vector> 
16
(
(0.37819770165 0.112297717141 -1.83361768908e-19)
(0.274469927481 -0.000525804373912 6.22298760954e-20)
(2.82400369367 0.538434658267 -6.56584406975e-19)
(0.566485834812 0.977137626201 -4.49912803968e-20)
(-2.73928332617 1.38521645917 2.46216824157e-19)
(-3.12504645418 3.07146097508 9.0387993863e-20)
(-26.6176009582 -2.00771396601 1.19151609465e-18)
(0.671848666706 -4.46791504713 2.16436074992e-19)
(1.19744343141 -1.14923215158 -2.44243670565e-18)
(1.44221200773 -0.634589129997 2.2223178554e-19)
(-9.05360497129 1.00745638923 6.95356246417e-19)
(2.09075475496 1.35725168192 -4.36223364431e-20)
(1.90655284461 0.781487890541 -1.07436371561e-19)
(-2.7422935994 0.605974222405 3.20681471607e-18)
(-0.319863803836 0.370400991775 5.08779541067e-21)
(0.767474576312 0.347905862263 -1.13515203791e-19)
)
;
    }
    floatingObject
    {
        type            calculated;
        value           nonuniform List<vector> 0();
    }
    procBoundary5to0
    {
        type            processor;
        value           nonuniform List<vector> 
12
(
(0.119320742146 0.011388456687 -1.28062955331e-24)
(0.123455595985 0.0122628031633 -2.28083558409e-23)
(0.128327988186 0.0128871831904 5.50356420571e-23)
(0.134062537353 0.0131191980619 -4.39929880676e-23)
(0.140985461634 0.0127235784923 -1.82256566918e-23)
(0.149394306507 0.0114208968016 -3.92614773729e-22)
(0.159704652156 0.00872607067125 -5.2737829018e-22)
(0.172156082893 0.00339228411335 -6.24202654828e-22)
(0.189788286605 0.000165766621357 2.24971669298e-21)
(0.211673028292 -0.00148241316708 8.64756379844e-21)
(0.29923671551 -0.00975929784257 -1.5958381878e-20)
(0.276729396502 0.328438936555 -2.9218798206e-20)
)
;
    }
    procBoundary5to3
    {
        type            processor;
        value           nonuniform List<vector> 10((0.0403482148288 0.0582762316615 1.69079431789e-21) (0.0398524720109 0.0637891150462 2.38972560604e-21) (0.0388633976154 0.069239558291 3.45489011804e-21) (0.0374258161267 0.0750530655364 4.33500904034e-21) (0.0355844298867 0.0817686513966 3.09275313635e-21) (0.0326584295883 0.0886237533559 1.86199919336e-21) (0.0294540698277 0.0914361837009 -5.61061457253e-21) (0.0351496415621 0.0882219290786 2.83217464612e-20) (0.0213554422905 0.07917299616 1.7088656252e-20) (-0.0429840797129 0.215988001924 2.99573611539e-20));
    }
    procBoundary5to4
    {
        type            processor;
        value           nonuniform List<vector> 
18
(
(0.116971717223 0.0126907619343 -6.55505059241e-24)
(0.11535325761 0.0164505095877 -9.32660709772e-24)
(0.116235708401 0.0195366606926 -1.20309489007e-24)
(0.120795561918 0.0219458648374 -5.80604873833e-24)
(0.122138317555 0.0259312897682 -7.82339457139e-24)
(0.11877956127 0.031281782035 -5.90414140694e-24)
(0.114425805249 0.0363461999701 2.06005875539e-24)
(0.109211649778 0.0409921674009 -8.92637259877e-24)
(0.103295590026 0.0450513210797 -6.22369939578e-24)
(0.0968361451475 0.0484469944195 3.44794245632e-23)
(0.0900197535349 0.0511367664065 2.36712892115e-23)
(0.0830248162688 0.0531580133326 -7.39091209062e-23)
(0.0760113180198 0.0545335163535 -8.90910475652e-23)
(0.0691001092142 0.0553642676801 -4.79902282469e-23)
(0.0623614315374 0.0557885234073 5.6281885908e-23)
(0.0558067948916 0.0559108985914 -1.75763746923e-23)
(0.0494667960883 0.0557945627376 2.50418045937e-23)
(0.0433795592464 0.0555361883705 2.99558870242e-22)
)
;
    }
}


// ************************************************************************* //
