/*--------------------------------*- C++ -*----------------------------------*\
| =========                 |                                                 |
| \\      /  F ield         | OpenFOAM: The Open Source CFD Toolbox           |
|  \\    /   O peration     | Version:  v2012                                 |
|   \\  /    A nd           | Website:  www.openfoam.com                      |
|    \\/     M anipulation  |                                                 |
\*---------------------------------------------------------------------------*/
FoamFile
{
    version     2.0;
    format      ascii;
    class       volScalarField;
    location    "5";
    object      nut;
}
// * * * * * * * * * * * * * * * * * * * * * * * * * * * * * * * * * * * * * //

dimensions      [0 2 -1 0 0 0 0];


internalField   nonuniform List<scalar> 
164
(
0.000495712095325
0.00049664469045
0.00049791265345
0.000500036330557
0.000504672492223
0.000517270129733
0.00055490840888
0.000658108717621
0.000872643671624
0.00119868080313
0.00165497946916
0.00239145844189
0.000495807362316
0.000496749526267
0.000498020334701
0.000500133743479
0.000504748044943
0.000517371761301
0.000555434645538
0.000660268188104
0.000877043430947
0.00120244193036
0.00161903847293
0.0023079897994
0.000498080446081
0.000500194680928
0.000504804016684
0.000517478364059
0.000555914419677
0.000662209474878
0.00088183868364
0.00121643081197
0.00169780299529
0.00257909328915
0.000498111173329
0.00050024349602
0.000504898223939
0.000517729210202
0.000556697565596
0.000664545885076
0.000887025148226
0.00122777580826
0.00177062505574
0.00320782724292
0.000498116444771
0.000500303100545
0.00050508531665
0.000518177318526
0.000557552501152
0.00066647631881
0.00089232359732
0.00123756750307
0.00178028682205
0.00311751942858
0.000498106602782
0.000500411413746
0.000505479924838
0.000519113441181
0.000559103817657
0.000668976175258
0.000898329254589
0.00125088483415
0.0018095046382
0.00311310155901
0.000498093693931
0.00050061497608
0.000506241622957
0.000521031923503
0.000562595008802
0.000673656464926
0.000904011254461
0.00125383657173
0.00175395059187
0.0032421319605
0.000498083812091
0.000500936429878
0.000507448202744
0.000524188281694
0.000568757680881
0.000681788421014
0.000910108513657
0.00125175739425
0.00168744047828
0.00242102244358
0.000498066318493
0.000501331820607
0.000508943988269
0.000528109990867
0.000576499549409
0.000692050627695
0.000916900729704
0.00124916424467
0.00165032079036
0.00217035397245
0.000498010357645
0.000501685225732
0.000510352250971
0.000531775446573
0.000583680839169
0.000701565991207
0.000923042840528
0.0012484868205
0.00166548908946
0.00253580293362
0.000497878858336
0.000501858394452
0.000511245424244
0.000534127809837
0.000588272512164
0.000707696860249
0.000926569982672
0.00124857424341
0.00175080349244
0.00336291524853
0.000497661507393
0.000501808471248
0.000511506458552
0.000534930515879
0.000590034047442
0.000710635476759
0.000928998944676
0.00125047784539
0.00176953445376
0.00306637506817
0.000497384247654
0.000501621165798
0.000511382781439
0.000534781915974
0.000589977726365
0.000711536861729
0.000931215156691
0.00125119963104
0.00173543143425
0.00251657355451
0.000497061146899
0.000501338524597
0.000511039407106
0.000534216347312
0.000589362469144
0.000712061760791
0.000933539234795
0.00125354879234
0.00170660918702
0.00229361916502
0.000496665230858
0.000500871207661
0.000510277559833
0.000532972206434
0.000588117531591
0.000712317059944
0.00093553353329
0.00125886236125
0.00176811748187
0.00292884050784
0.000496209475151
0.000500222723154
0.000509097135702
0.000531096274263
0.000586577712029
0.000712957033204
0.000936548717067
0.00125358021449
0.00168814272372
0.00237644961816
)
;

boundaryField
{
    back
    {
        type            nutkWallFunction;
        blending        stepwise;
        Cmu             0.09;
        kappa           0.41;
        E               9.8;
        value           nonuniform List<scalar> 
164
(
5.2643961177e-05
5.2734146859e-05
5.28567903583e-05
5.30626312856e-05
5.35129211172e-05
5.47370210815e-05
5.83897198486e-05
6.8377284803e-05
8.90521546557e-05
0.000120301413261
0.000169920295607
0.000286719781484
5.26551209678e-05
5.2746105912e-05
5.28688712742e-05
5.30735593089e-05
5.35219322568e-05
5.47503901968e-05
5.84520082569e-05
6.8627556258e-05
8.95865490568e-05
0.000120931159395
0.00016899394918
0.000254808800723
5.28771621828e-05
5.3081965633e-05
5.3530696145e-05
5.47670493665e-05
5.85148245637e-05
6.88627606187e-05
9.01479524598e-05
0.000122176973784
0.000176465427378
0.000302597243416
5.28826244495e-05
5.30895610151e-05
5.35438907451e-05
5.479960639e-05
5.86123926726e-05
6.91451959501e-05
9.07578334666e-05
0.000123302874337
0.000181613860437
0.000333246405566
5.28858281782e-05
5.30986704338e-05
5.35670434326e-05
5.48521964811e-05
5.87108166564e-05
6.93599509792e-05
9.13510453503e-05
0.000124539700723
0.000184569718518
0.00032869991154
5.28878374325e-05
5.31131466178e-05
5.36119946351e-05
5.49557429553e-05
5.88806346633e-05
6.96226201531e-05
9.19963730712e-05
0.000125966796629
0.000190055427381
0.000336995782386
5.28898115376e-05
5.3137544308e-05
5.36946419831e-05
5.51602079609e-05
5.92504831769e-05
7.01061493064e-05
9.25725495274e-05
0.000126499951973
0.000188871561002
0.000315450660278
5.28921896999e-05
5.31737341611e-05
5.38216361132e-05
5.54879095972e-05
5.9887005767e-05
7.09370056174e-05
9.31773336118e-05
0.000126441440066
0.00018642105155
0.000277725945714
5.28936845426e-05
5.32167330817e-05
5.39756509106e-05
5.58860360833e-05
6.06651008977e-05
7.19556783718e-05
9.3841088762e-05
0.000126295306114
0.000185168101512
0.000261456798383
5.28910334239e-05
5.32545855815e-05
5.41180953223e-05
5.62507198816e-05
6.13706164179e-05
7.28811432696e-05
9.44247479306e-05
0.000126163969294
0.00018785724139
0.000280061763895
5.28805439875e-05
5.32734896759e-05
5.4206369768e-05
5.64780574088e-05
6.18072145215e-05
7.34581473108e-05
9.47334979411e-05
0.000125870383696
0.000192090718725
0.000325236981184
5.28613856691e-05
5.32699421496e-05
5.42311028619e-05
5.65504239258e-05
6.19649921074e-05
7.3726277883e-05
9.49409950825e-05
0.000125823932131
0.000195287452732
0.000327574860158
5.28364821447e-05
5.32535463656e-05
5.42195867968e-05
5.65325400555e-05
6.19491423056e-05
7.37986496268e-05
9.51263670588e-05
0.000125875548171
0.000195527842905
0.000305905708823
5.28071375262e-05
5.32281303471e-05
5.41877266921e-05
5.64769096106e-05
6.18831255333e-05
7.38361440351e-05
9.53119952329e-05
0.000126043248187
0.000196634056084
0.000289637824841
5.27704078e-05
5.31837006181e-05
5.41125363748e-05
5.63517015771e-05
6.17567832266e-05
7.38568146898e-05
9.54652495465e-05
0.000126198677276
0.000201736307341
0.000323565059886
5.27275957344e-05
5.31208079488e-05
5.3994024479e-05
5.61606176718e-05
6.16005704324e-05
7.39243089692e-05
9.55387858849e-05
0.000125774830739
0.000199334302275
0.000283377571648
)
;
    }
    sides
    {
        type            nutkWallFunction;
        blending        stepwise;
        Cmu             0.09;
        kappa           0.41;
        E               9.8;
        value           nonuniform List<scalar> 0();
    }
    bottom
    {
        type            nutkWallFunction;
        blending        stepwise;
        Cmu             0.09;
        kappa           0.41;
        E               9.8;
        value           nonuniform List<scalar> 0();
    }
    front
    {
        type            nutkWallFunction;
        blending        stepwise;
        Cmu             0.09;
        kappa           0.41;
        E               9.8;
        value           nonuniform List<scalar> 
164
(
5.2643961177e-05
5.2734146859e-05
5.28567903583e-05
5.30626312856e-05
5.35129211172e-05
5.47370210815e-05
5.83897198486e-05
6.8377284803e-05
8.90521546557e-05
0.000120301413261
0.000169920295607
0.000286719781484
5.26551209678e-05
5.2746105912e-05
5.28688712742e-05
5.30735593089e-05
5.35219322568e-05
5.47503901968e-05
5.84520082569e-05
6.8627556258e-05
8.95865490568e-05
0.000120931159395
0.00016899394918
0.000254808800723
5.28771621828e-05
5.3081965633e-05
5.3530696145e-05
5.47670493665e-05
5.85148245637e-05
6.88627606187e-05
9.01479524598e-05
0.000122176973784
0.000176465427378
0.000302597243416
5.28826244495e-05
5.30895610151e-05
5.35438907451e-05
5.479960639e-05
5.86123926726e-05
6.91451959501e-05
9.07578334666e-05
0.000123302874337
0.000181613860437
0.000333246405566
5.28858281782e-05
5.30986704338e-05
5.35670434326e-05
5.48521964811e-05
5.87108166564e-05
6.93599509792e-05
9.13510453503e-05
0.000124539700723
0.000184569718518
0.00032869991154
5.28878374325e-05
5.31131466178e-05
5.36119946351e-05
5.49557429553e-05
5.88806346633e-05
6.96226201531e-05
9.19963730712e-05
0.000125966796629
0.000190055427381
0.000336995782386
5.28898115376e-05
5.3137544308e-05
5.36946419831e-05
5.51602079609e-05
5.92504831769e-05
7.01061493064e-05
9.25725495274e-05
0.000126499951973
0.000188871561002
0.000315450660278
5.28921896999e-05
5.31737341611e-05
5.38216361132e-05
5.54879095972e-05
5.9887005767e-05
7.09370056174e-05
9.31773336118e-05
0.000126441440066
0.00018642105155
0.000277725945714
5.28936845426e-05
5.32167330817e-05
5.39756509106e-05
5.58860360833e-05
6.06651008977e-05
7.19556783718e-05
9.3841088762e-05
0.000126295306114
0.000185168101512
0.000261456798383
5.28910334239e-05
5.32545855815e-05
5.41180953223e-05
5.62507198816e-05
6.13706164179e-05
7.28811432696e-05
9.44247479306e-05
0.000126163969294
0.00018785724139
0.000280061763895
5.28805439875e-05
5.32734896759e-05
5.4206369768e-05
5.64780574088e-05
6.18072145215e-05
7.34581473108e-05
9.47334979411e-05
0.000125870383696
0.000192090718725
0.000325236981184
5.28613856691e-05
5.32699421496e-05
5.42311028619e-05
5.65504239258e-05
6.19649921074e-05
7.3726277883e-05
9.49409950825e-05
0.000125823932131
0.000195287452732
0.000327574860158
5.28364821447e-05
5.32535463656e-05
5.42195867968e-05
5.65325400555e-05
6.19491423056e-05
7.37986496268e-05
9.51263670588e-05
0.000125875548171
0.000195527842905
0.000305905708823
5.28071375262e-05
5.32281303471e-05
5.41877266921e-05
5.64769096106e-05
6.18831255333e-05
7.38361440351e-05
9.53119952329e-05
0.000126043248187
0.000196634056084
0.000289637824841
5.27704078e-05
5.31837006181e-05
5.41125363748e-05
5.63517015771e-05
6.17567832266e-05
7.38568146898e-05
9.54652495465e-05
0.000126198677276
0.000201736307341
0.000323565059886
5.27275957344e-05
5.31208079488e-05
5.3994024479e-05
5.61606176718e-05
6.16005704324e-05
7.39243089692e-05
9.55387858849e-05
0.000125774830739
0.000199334302275
0.000283377571648
)
;
    }
    atmosphere
    {
        type            calculated;
        value           nonuniform List<scalar> 
16
(
0.00239145844189
0.0023079897994
0.009
0.009
0.009
0.009
0.009
0.00242102244358
0.00217035397245
0.00253580293362
0.009
0.009
0.00251657355451
0.00229361916502
0.009
0.009
)
;
    }
    floatingObject
    {
        type            nutkWallFunction;
        blending        stepwise;
        Cmu             0.09;
        kappa           0.41;
        E               9.8;
        value           nonuniform List<scalar> 0();
    }
    procBoundary5to0
    {
        type            processor;
        value           nonuniform List<scalar> 
12
(
0.000495568392868
0.000496500040226
0.000497775117412
0.000499921751443
0.000504586972356
0.0005171175249
0.000554118827583
0.000655184934235
0.000866486832314
0.00118270503185
0.00160910323495
0.00228931662384
)
;
    }
    procBoundary5to3
    {
        type            processor;
        value           nonuniform List<scalar> 10(0.000495765232386 0.000499613042295 0.000508031320277 0.000529628193313 0.000586261466764 0.000715595335362 0.000938716214416 0.00124734410159 0.00164378575664 0.00207010957413);
    }
    procBoundary5to4
    {
        type            processor;
        value           nonuniform List<scalar> 
18
(
0.000494938807188
0.000495024615358
0.000495852733644
0.000496804256231
0.000496804256231
0.000496823065453
0.000496798303368
0.000496735279992
0.000496636795289
0.000496504696954
0.000496336805966
0.000496126025142
0.000495864104016
0.000495550677209
0.000495193833498
0.000494800342231
0.000494370899344
0.000493909583075
)
;
    }
}


// ************************************************************************* //
