/*--------------------------------*- C++ -*----------------------------------*\
| =========                 |                                                 |
| \\      /  F ield         | OpenFOAM: The Open Source CFD Toolbox           |
|  \\    /   O peration     | Version:  v2012                                 |
|   \\  /    A nd           | Website:  www.openfoam.com                      |
|    \\/     M anipulation  |                                                 |
\*---------------------------------------------------------------------------*/
FoamFile
{
    version     2.0;
    format      ascii;
    class       volScalarField;
    location    "5";
    object      rAU;
}
// * * * * * * * * * * * * * * * * * * * * * * * * * * * * * * * * * * * * * //

dimensions      [-1 3 1 0 0 0 0];


internalField   nonuniform List<scalar> 
164
(
2.18519242244e-05
2.18506324189e-05
2.18479374791e-05
2.18418654432e-05
2.18352055484e-05
2.18158973235e-05
2.17687950518e-05
2.16908915287e-05
2.16366974782e-05
3.41700130618e-05
0.000963262164115
0.013741587881
2.18497155586e-05
2.18483388381e-05
2.18460402552e-05
2.18411461837e-05
2.18311367075e-05
2.18106013571e-05
2.1766230096e-05
2.1696787505e-05
2.16133056268e-05
3.49965962246e-05
0.00110988136135
0.0145656423318
2.18460695711e-05
2.18413835717e-05
2.18307508165e-05
2.18087653089e-05
2.17631172895e-05
2.17021483925e-05
2.16007680004e-05
3.59036477949e-05
0.00129803018681
0.0165484115204
2.18461529976e-05
2.18405809934e-05
2.18301869684e-05
2.18082261461e-05
2.176268389e-05
2.17079674969e-05
2.15901589078e-05
3.69730174063e-05
0.00153686444705
0.0181368163896
2.1846956911e-05
2.18410052399e-05
2.18287126278e-05
2.18058427967e-05
2.17571029858e-05
2.16905939001e-05
2.15541649099e-05
3.8058811153e-05
0.00179177611506
0.0152434555708
2.1850236882e-05
2.1844122004e-05
2.18313051475e-05
2.18051644032e-05
2.17499287013e-05
2.16384324939e-05
2.14606371361e-05
3.90021535895e-05
0.0020806088525
0.0148640045005
2.18548775037e-05
2.18499139943e-05
2.18376022204e-05
2.18046385925e-05
2.17339682138e-05
2.1577634058e-05
2.137080794e-05
3.96781593284e-05
0.00224940868539
0.0151170273304
2.18605283699e-05
2.18583120024e-05
2.18475274251e-05
2.18053312804e-05
2.17175833037e-05
2.15707030903e-05
2.13573526236e-05
4.03334509467e-05
0.00238256357319
0.0177166478829
2.18657443109e-05
2.18670082337e-05
2.1857722327e-05
2.18115092023e-05
2.17133406527e-05
2.15523873814e-05
2.13218239804e-05
4.10678673113e-05
0.00250219374637
0.0149250606016
2.18690190427e-05
2.18720126329e-05
2.18634170676e-05
2.18223537118e-05
2.17130372628e-05
2.14498588636e-05
2.12065764455e-05
4.18696761959e-05
0.00294191175253
0.0175595745615
2.18674757354e-05
2.18679025588e-05
2.18585927171e-05
2.18268665316e-05
2.17185175837e-05
2.14601592809e-05
2.12244551778e-05
4.26540120225e-05
0.00335092418239
0.0149525604485
2.18631966011e-05
2.1859153218e-05
2.18472100826e-05
2.1819168831e-05
2.17233298125e-05
2.1473410659e-05
2.12370571996e-05
4.32899695266e-05
0.00362248528637
0.0154233705111
2.18614287412e-05
2.18563014924e-05
2.18426640083e-05
2.18128316575e-05
2.17293233138e-05
2.14889616343e-05
2.12532295294e-05
4.38475157815e-05
0.00384938404903
0.0193484757549
2.186138946e-05
2.1857039613e-05
2.18437519182e-05
2.18126321463e-05
2.17379542828e-05
2.1505970169e-05
2.12700324459e-05
4.43864343315e-05
0.00414153320961
0.0194270842874
2.18592351958e-05
2.18532043262e-05
2.18419327324e-05
2.181550762e-05
2.17500146532e-05
2.15235023747e-05
2.12795411181e-05
4.48847131007e-05
0.00442933594105
0.0161533326595
2.18553149588e-05
2.18463376658e-05
2.18409802961e-05
2.18285852261e-05
2.17823311313e-05
2.15400745167e-05
2.12839156359e-05
4.53397092089e-05
0.00469278299584
0.0202943435773
)
;

boundaryField
{
    back
    {
        type            calculated;
        value           nonuniform List<scalar> 
164
(
2.18519242244e-05
2.18506324189e-05
2.18479374791e-05
2.18418654432e-05
2.18352055484e-05
2.18158973235e-05
2.17687950518e-05
2.16908915287e-05
2.16366974782e-05
3.41700130618e-05
0.000963262164115
0.013741587881
2.18497155586e-05
2.18483388381e-05
2.18460402552e-05
2.18411461837e-05
2.18311367075e-05
2.18106013571e-05
2.1766230096e-05
2.1696787505e-05
2.16133056268e-05
3.49965962246e-05
0.00110988136135
0.0145656423318
2.18460695711e-05
2.18413835717e-05
2.18307508165e-05
2.18087653089e-05
2.17631172895e-05
2.17021483925e-05
2.16007680004e-05
3.59036477949e-05
0.00129803018681
0.0165484115204
2.18461529976e-05
2.18405809934e-05
2.18301869684e-05
2.18082261461e-05
2.176268389e-05
2.17079674969e-05
2.15901589078e-05
3.69730174063e-05
0.00153686444705
0.0181368163896
2.1846956911e-05
2.18410052399e-05
2.18287126278e-05
2.18058427967e-05
2.17571029858e-05
2.16905939001e-05
2.15541649099e-05
3.8058811153e-05
0.00179177611506
0.0152434555708
2.1850236882e-05
2.1844122004e-05
2.18313051475e-05
2.18051644032e-05
2.17499287013e-05
2.16384324939e-05
2.14606371361e-05
3.90021535895e-05
0.0020806088525
0.0148640045005
2.18548775037e-05
2.18499139943e-05
2.18376022204e-05
2.18046385925e-05
2.17339682138e-05
2.1577634058e-05
2.137080794e-05
3.96781593284e-05
0.00224940868539
0.0151170273304
2.18605283699e-05
2.18583120024e-05
2.18475274251e-05
2.18053312804e-05
2.17175833037e-05
2.15707030903e-05
2.13573526236e-05
4.03334509467e-05
0.00238256357319
0.0177166478829
2.18657443109e-05
2.18670082337e-05
2.1857722327e-05
2.18115092023e-05
2.17133406527e-05
2.15523873814e-05
2.13218239804e-05
4.10678673113e-05
0.00250219374637
0.0149250606016
2.18690190427e-05
2.18720126329e-05
2.18634170676e-05
2.18223537118e-05
2.17130372628e-05
2.14498588636e-05
2.12065764455e-05
4.18696761959e-05
0.00294191175253
0.0175595745615
2.18674757354e-05
2.18679025588e-05
2.18585927171e-05
2.18268665316e-05
2.17185175837e-05
2.14601592809e-05
2.12244551778e-05
4.26540120225e-05
0.00335092418239
0.0149525604485
2.18631966011e-05
2.1859153218e-05
2.18472100826e-05
2.1819168831e-05
2.17233298125e-05
2.1473410659e-05
2.12370571996e-05
4.32899695266e-05
0.00362248528637
0.0154233705111
2.18614287412e-05
2.18563014924e-05
2.18426640083e-05
2.18128316575e-05
2.17293233138e-05
2.14889616343e-05
2.12532295294e-05
4.38475157815e-05
0.00384938404903
0.0193484757549
2.186138946e-05
2.1857039613e-05
2.18437519182e-05
2.18126321463e-05
2.17379542828e-05
2.1505970169e-05
2.12700324459e-05
4.43864343315e-05
0.00414153320961
0.0194270842874
2.18592351958e-05
2.18532043262e-05
2.18419327324e-05
2.181550762e-05
2.17500146532e-05
2.15235023747e-05
2.12795411181e-05
4.48847131007e-05
0.00442933594105
0.0161533326595
2.18553149588e-05
2.18463376658e-05
2.18409802961e-05
2.18285852261e-05
2.17823311313e-05
2.15400745167e-05
2.12839156359e-05
4.53397092089e-05
0.00469278299584
0.0202943435773
)
;
    }
    sides
    {
        type            calculated;
        value           nonuniform List<scalar> 0();
    }
    bottom
    {
        type            calculated;
        value           nonuniform List<scalar> 0();
    }
    front
    {
        type            calculated;
        value           nonuniform List<scalar> 
164
(
2.18519242244e-05
2.18506324189e-05
2.18479374791e-05
2.18418654432e-05
2.18352055484e-05
2.18158973235e-05
2.17687950518e-05
2.16908915287e-05
2.16366974782e-05
3.41700130618e-05
0.000963262164115
0.013741587881
2.18497155586e-05
2.18483388381e-05
2.18460402552e-05
2.18411461837e-05
2.18311367075e-05
2.18106013571e-05
2.1766230096e-05
2.1696787505e-05
2.16133056268e-05
3.49965962246e-05
0.00110988136135
0.0145656423318
2.18460695711e-05
2.18413835717e-05
2.18307508165e-05
2.18087653089e-05
2.17631172895e-05
2.17021483925e-05
2.16007680004e-05
3.59036477949e-05
0.00129803018681
0.0165484115204
2.18461529976e-05
2.18405809934e-05
2.18301869684e-05
2.18082261461e-05
2.176268389e-05
2.17079674969e-05
2.15901589078e-05
3.69730174063e-05
0.00153686444705
0.0181368163896
2.1846956911e-05
2.18410052399e-05
2.18287126278e-05
2.18058427967e-05
2.17571029858e-05
2.16905939001e-05
2.15541649099e-05
3.8058811153e-05
0.00179177611506
0.0152434555708
2.1850236882e-05
2.1844122004e-05
2.18313051475e-05
2.18051644032e-05
2.17499287013e-05
2.16384324939e-05
2.14606371361e-05
3.90021535895e-05
0.0020806088525
0.0148640045005
2.18548775037e-05
2.18499139943e-05
2.18376022204e-05
2.18046385925e-05
2.17339682138e-05
2.1577634058e-05
2.137080794e-05
3.96781593284e-05
0.00224940868539
0.0151170273304
2.18605283699e-05
2.18583120024e-05
2.18475274251e-05
2.18053312804e-05
2.17175833037e-05
2.15707030903e-05
2.13573526236e-05
4.03334509467e-05
0.00238256357319
0.0177166478829
2.18657443109e-05
2.18670082337e-05
2.1857722327e-05
2.18115092023e-05
2.17133406527e-05
2.15523873814e-05
2.13218239804e-05
4.10678673113e-05
0.00250219374637
0.0149250606016
2.18690190427e-05
2.18720126329e-05
2.18634170676e-05
2.18223537118e-05
2.17130372628e-05
2.14498588636e-05
2.12065764455e-05
4.18696761959e-05
0.00294191175253
0.0175595745615
2.18674757354e-05
2.18679025588e-05
2.18585927171e-05
2.18268665316e-05
2.17185175837e-05
2.14601592809e-05
2.12244551778e-05
4.26540120225e-05
0.00335092418239
0.0149525604485
2.18631966011e-05
2.1859153218e-05
2.18472100826e-05
2.1819168831e-05
2.17233298125e-05
2.1473410659e-05
2.12370571996e-05
4.32899695266e-05
0.00362248528637
0.0154233705111
2.18614287412e-05
2.18563014924e-05
2.18426640083e-05
2.18128316575e-05
2.17293233138e-05
2.14889616343e-05
2.12532295294e-05
4.38475157815e-05
0.00384938404903
0.0193484757549
2.186138946e-05
2.1857039613e-05
2.18437519182e-05
2.18126321463e-05
2.17379542828e-05
2.1505970169e-05
2.12700324459e-05
4.43864343315e-05
0.00414153320961
0.0194270842874
2.18592351958e-05
2.18532043262e-05
2.18419327324e-05
2.181550762e-05
2.17500146532e-05
2.15235023747e-05
2.12795411181e-05
4.48847131007e-05
0.00442933594105
0.0161533326595
2.18553149588e-05
2.18463376658e-05
2.18409802961e-05
2.18285852261e-05
2.17823311313e-05
2.15400745167e-05
2.12839156359e-05
4.53397092089e-05
0.00469278299584
0.0202943435773
)
;
    }
    atmosphere
    {
        type            calculated;
        value           nonuniform List<scalar> 
16
(
0.013741587881
0.0145656423318
0.0165484115204
0.0181368163896
0.0152434555708
0.0148640045005
0.0151170273304
0.0177166478829
0.0149250606016
0.0175595745615
0.0149525604485
0.0154233705111
0.0193484757549
0.0194270842874
0.0161533326595
0.0202943435773
)
;
    }
    floatingObject
    {
        type            calculated;
        value           nonuniform List<scalar> 0();
    }
    procBoundary5to0
    {
        type            processor;
        value           nonuniform List<scalar> 
12
(
2.18528141866e-05
2.18521024587e-05
2.18485995672e-05
2.18452210212e-05
2.18402616847e-05
2.18193914702e-05
2.17648315317e-05
2.16685045436e-05
2.15924998562e-05
3.31715555335e-05
0.000831801117279
0.0147355476067
)
;
    }
    procBoundary5to3
    {
        type            processor;
        value           nonuniform List<scalar> 10(2.18515784514e-05 2.1837832702e-05 2.18402510717e-05 2.18613472662e-05 2.18424262287e-05 2.15514106452e-05 2.1489711004e-05 4.66765129531e-05 0.00494044903125 0.0199282593197);
    }
    procBoundary5to4
    {
        type            processor;
        value           nonuniform List<scalar> 
18
(
2.18521995729e-05
2.18504635563e-05
2.18500717759e-05
2.18485496479e-05
2.18485496479e-05
2.18494649679e-05
2.18507126411e-05
2.18535258566e-05
2.18570830164e-05
2.18612182628e-05
2.18646241031e-05
2.18662533116e-05
2.18661072463e-05
2.18645782732e-05
2.18637887133e-05
2.18637469553e-05
2.1863413538e-05
2.18639499683e-05
)
;
    }
}


// ************************************************************************* //
