/*--------------------------------*- C++ -*----------------------------------*\
| =========                 |                                                 |
| \\      /  F ield         | OpenFOAM: The Open Source CFD Toolbox           |
|  \\    /   O peration     | Version:  v2012                                 |
|   \\  /    A nd           | Website:  www.openfoam.com                      |
|    \\/     M anipulation  |                                                 |
\*---------------------------------------------------------------------------*/
FoamFile
{
    version     2.0;
    format      ascii;
    class       volScalarField;
    location    "1";
    object      k;
}
// * * * * * * * * * * * * * * * * * * * * * * * * * * * * * * * * * * * * * //

dimensions      [0 2 -2 0 0 0 0];


internalField   nonuniform List<scalar> 
164
(
0.0182031858928
0.0196033556278
0.0204579960885
0.0211144414146
0.0217472422991
0.0233873194171
0.036648424793
0.096807683261
0.0163280877149
0.0191969869849
0.020143355284
0.0208328841371
0.0215141746437
0.0228390415393
0.0306939520614
0.077491514521
0.0163281734141
0.0191971689449
0.0201437079407
0.0208332158449
0.0215145547054
0.0228393686447
0.0306940893755
0.0774915857728
0.0182033115298
0.0196036054267
0.020458636623
0.0211150060779
0.0217478052498
0.0233878545023
0.0366485360541
0.0968073678578
0.0209418177848
0.0214428559121
0.0219517303846
0.0238645276026
0.045508526907
0.0980220411659
0.0214524340675
0.0217408129248
0.022089760181
0.0232534159999
0.0324831759451
0.0834072306246
0.0215597656771
0.0218158070359
0.0221996738271
0.0234937200416
0.032122476092
0.0745280498649
0.0215317334707
0.0217850729553
0.022240264696
0.0241074844508
0.0380489171307
0.0926149866697
0.0214788945147
0.0217289513293
0.0222438321607
0.0245489417621
0.0422767729843
0.0937658621508
0.0214228605282
0.0216721401135
0.0222238033514
0.0246145226575
0.0419028184435
0.0902871746236
0.0213710068159
0.0216222135883
0.0222068345518
0.0246772765893
0.0445183445901
0.0893454204688
0.0213283191512
0.021591775566
0.0222105352374
0.0243281352209
0.0358699852644
0.0856611276202
0.0212951128166
0.0215885620782
0.0223129148517
0.024603788703
0.035760569169
0.0788038023549
0.0212633015347
0.0215898947524
0.0224615305592
0.0252957618019
0.0409647519713
0.0935503161474
0.0212325657204
0.0215935631566
0.02258208682
0.0255686037262
0.040403070762
0.0913290980628
0.0212040085856
0.0216040027876
0.022717543953
0.025877574575
0.0401291614791
0.0907387724496
0.0211785427714
0.0216246928749
0.0228786113297
0.0261497046655
0.0361568824982
0.0795441243821
0.0211558752003
0.0216544998739
0.0230742807914
0.0267758636627
0.0391392764188
0.0873412252869
0.0211360742602
0.0216927826398
0.0232837504134
0.0272827995559
0.0375942743653
0.0787253302805
0.0211193489898
0.0217403269346
0.0235158040958
0.0278845189381
0.0379544195245
0.070757051815
0.0211058178797
0.0217973990348
0.0237687892489
0.0285289209739
0.0384551052054
0.0592387510701
0.0210956730024
0.0218641996727
0.0240430174146
0.0292450749257
0.0399900229071
0.0591197612605
0.0210892527488
0.0219411284674
0.0243359367258
0.029989098469
0.0416646388388
0.0639696438131
0.021087056196
0.0220288809399
0.0246470764161
0.0307495598426
0.0433360121745
0.0702848014601
0.0249805414468
0.0315163581926
0.0447811918942
0.0761129832305
0.0253135083444
0.0322662683402
0.0461013774419
0.0767884990323
0.0256232966846
0.0329609070664
0.0472985274925
0.0773400351128
)
;

boundaryField
{
    back
    {
        type            kqRWallFunction;
        value           nonuniform List<scalar> 
164
(
0.0182031858928
0.0196033556278
0.0204579960885
0.0211144414146
0.0217472422991
0.0233873194171
0.036648424793
0.096807683261
0.0163280877149
0.0191969869849
0.020143355284
0.0208328841371
0.0215141746437
0.0228390415393
0.0306939520614
0.077491514521
0.0163281734141
0.0191971689449
0.0201437079407
0.0208332158449
0.0215145547054
0.0228393686447
0.0306940893755
0.0774915857728
0.0182033115298
0.0196036054267
0.020458636623
0.0211150060779
0.0217478052498
0.0233878545023
0.0366485360541
0.0968073678578
0.0209418177848
0.0214428559121
0.0219517303846
0.0238645276026
0.045508526907
0.0980220411659
0.0214524340675
0.0217408129248
0.022089760181
0.0232534159999
0.0324831759451
0.0834072306246
0.0215597656771
0.0218158070359
0.0221996738271
0.0234937200416
0.032122476092
0.0745280498649
0.0215317334707
0.0217850729553
0.022240264696
0.0241074844508
0.0380489171307
0.0926149866697
0.0214788945147
0.0217289513293
0.0222438321607
0.0245489417621
0.0422767729843
0.0937658621508
0.0214228605282
0.0216721401135
0.0222238033514
0.0246145226575
0.0419028184435
0.0902871746236
0.0213710068159
0.0216222135883
0.0222068345518
0.0246772765893
0.0445183445901
0.0893454204688
0.0213283191512
0.021591775566
0.0222105352374
0.0243281352209
0.0358699852644
0.0856611276202
0.0212951128166
0.0215885620782
0.0223129148517
0.024603788703
0.035760569169
0.0788038023549
0.0212633015347
0.0215898947524
0.0224615305592
0.0252957618019
0.0409647519713
0.0935503161474
0.0212325657204
0.0215935631566
0.02258208682
0.0255686037262
0.040403070762
0.0913290980628
0.0212040085856
0.0216040027876
0.022717543953
0.025877574575
0.0401291614791
0.0907387724496
0.0211785427714
0.0216246928749
0.0228786113297
0.0261497046655
0.0361568824982
0.0795441243821
0.0211558752003
0.0216544998739
0.0230742807914
0.0267758636627
0.0391392764188
0.0873412252869
0.0211360742602
0.0216927826398
0.0232837504134
0.0272827995559
0.0375942743653
0.0787253302805
0.0211193489898
0.0217403269346
0.0235158040958
0.0278845189381
0.0379544195245
0.070757051815
0.0211058178797
0.0217973990348
0.0237687892489
0.0285289209739
0.0384551052054
0.0592387510701
0.0210956730024
0.0218641996727
0.0240430174146
0.0292450749257
0.0399900229071
0.0591197612605
0.0210892527488
0.0219411284674
0.0243359367258
0.029989098469
0.0416646388388
0.0639696438131
0.021087056196
0.0220288809399
0.0246470764161
0.0307495598426
0.0433360121745
0.0702848014601
0.0249805414468
0.0315163581926
0.0447811918942
0.0761129832305
0.0253135083444
0.0322662683402
0.0461013774419
0.0767884990323
0.0256232966846
0.0329609070664
0.0472985274925
0.0773400351128
)
;
    }
    sides
    {
        type            kqRWallFunction;
        value           nonuniform List<scalar> 0();
    }
    bottom
    {
        type            kqRWallFunction;
        value           nonuniform List<scalar> 0();
    }
    front
    {
        type            kqRWallFunction;
        value           nonuniform List<scalar> 
164
(
0.0182031858928
0.0196033556278
0.0204579960885
0.0211144414146
0.0217472422991
0.0233873194171
0.036648424793
0.096807683261
0.0163280877149
0.0191969869849
0.020143355284
0.0208328841371
0.0215141746437
0.0228390415393
0.0306939520614
0.077491514521
0.0163281734141
0.0191971689449
0.0201437079407
0.0208332158449
0.0215145547054
0.0228393686447
0.0306940893755
0.0774915857728
0.0182033115298
0.0196036054267
0.020458636623
0.0211150060779
0.0217478052498
0.0233878545023
0.0366485360541
0.0968073678578
0.0209418177848
0.0214428559121
0.0219517303846
0.0238645276026
0.045508526907
0.0980220411659
0.0214524340675
0.0217408129248
0.022089760181
0.0232534159999
0.0324831759451
0.0834072306246
0.0215597656771
0.0218158070359
0.0221996738271
0.0234937200416
0.032122476092
0.0745280498649
0.0215317334707
0.0217850729553
0.022240264696
0.0241074844508
0.0380489171307
0.0926149866697
0.0214788945147
0.0217289513293
0.0222438321607
0.0245489417621
0.0422767729843
0.0937658621508
0.0214228605282
0.0216721401135
0.0222238033514
0.0246145226575
0.0419028184435
0.0902871746236
0.0213710068159
0.0216222135883
0.0222068345518
0.0246772765893
0.0445183445901
0.0893454204688
0.0213283191512
0.021591775566
0.0222105352374
0.0243281352209
0.0358699852644
0.0856611276202
0.0212951128166
0.0215885620782
0.0223129148517
0.024603788703
0.035760569169
0.0788038023549
0.0212633015347
0.0215898947524
0.0224615305592
0.0252957618019
0.0409647519713
0.0935503161474
0.0212325657204
0.0215935631566
0.02258208682
0.0255686037262
0.040403070762
0.0913290980628
0.0212040085856
0.0216040027876
0.022717543953
0.025877574575
0.0401291614791
0.0907387724496
0.0211785427714
0.0216246928749
0.0228786113297
0.0261497046655
0.0361568824982
0.0795441243821
0.0211558752003
0.0216544998739
0.0230742807914
0.0267758636627
0.0391392764188
0.0873412252869
0.0211360742602
0.0216927826398
0.0232837504134
0.0272827995559
0.0375942743653
0.0787253302805
0.0211193489898
0.0217403269346
0.0235158040958
0.0278845189381
0.0379544195245
0.070757051815
0.0211058178797
0.0217973990348
0.0237687892489
0.0285289209739
0.0384551052054
0.0592387510701
0.0210956730024
0.0218641996727
0.0240430174146
0.0292450749257
0.0399900229071
0.0591197612605
0.0210892527488
0.0219411284674
0.0243359367258
0.029989098469
0.0416646388388
0.0639696438131
0.021087056196
0.0220288809399
0.0246470764161
0.0307495598426
0.0433360121745
0.0702848014601
0.0249805414468
0.0315163581926
0.0447811918942
0.0761129832305
0.0253135083444
0.0322662683402
0.0461013774419
0.0767884990323
0.0256232966846
0.0329609070664
0.0472985274925
0.0773400351128
)
;
    }
    atmosphere
    {
        type            inletOutlet;
        inletValue      uniform 0.1;
        value           nonuniform List<scalar> 
27
(
0.1
0.077491514521
0.0774915857728
0.1
0.1
0.0834072306246
0.0745280498649
0.1
0.1
0.1
0.1
0.1
0.0788038023549
0.1
0.1
0.1
0.0795441243821
0.1
0.1
0.1
0.1
0.0591197612605
0.0639696438131
0.0702848014601
0.1
0.1
0.1
)
;
    }
    floatingObject
    {
        type            kqRWallFunction;
        value           nonuniform List<scalar> 4(0.0182031858928 0.0163280877149 0.0163281734141 0.0182033115298);
    }
    procBoundary6to3
    {
        type            processor;
        value           nonuniform List<scalar> 8(0.0193673674229 0.0202934163501 0.0209407864165 0.0214420572054 0.0219510036299 0.0238639064882 0.0455093024988 0.0980224068648);
    }
    procBoundary6to7
    {
        type            processor;
        value           nonuniform List<scalar> 
11
(
0.0209353102689
0.0209036924429
0.0208725554284
0.020841941732
0.0208120157276
0.0207830274645
0.0210900902496
0.0221292041985
0.0221292041985
0.0222334108911
0.0223290134156
)
;
    }
    procBoundary6to8
    {
        type            processor;
        value           nonuniform List<scalar> 
16
(
0.0193676717234
0.020293893887
0.020293893887
0.0211548713656
0.0213341222879
0.0213238992668
0.021283004712
0.0212400623463
0.0211997976511
0.0211635497206
0.0211302438558
0.0210974613499
0.0210646839702
0.0210320116523
0.0209995652891
0.0209673306069
)
;
    }
    procBoundary6to9
    {
        type            processor;
        value           nonuniform List<scalar> 4(0.0259037076272 0.0335879721009 0.0483589411948 0.0778474160204);
    }
}


// ************************************************************************* //
