/*--------------------------------*- C++ -*----------------------------------*\
| =========                 |                                                 |
| \\      /  F ield         | OpenFOAM: The Open Source CFD Toolbox           |
|  \\    /   O peration     | Version:  v2012                                 |
|   \\  /    A nd           | Website:  www.openfoam.com                      |
|    \\/     M anipulation  |                                                 |
\*---------------------------------------------------------------------------*/
FoamFile
{
    version     2.0;
    format      ascii;
    class       volScalarField;
    location    "1";
    object      rAU;
}
// * * * * * * * * * * * * * * * * * * * * * * * * * * * * * * * * * * * * * //

dimensions      [-1 3 1 0 0 0 0];


internalField   nonuniform List<scalar> 
164
(
8.21392143424e-06
8.05363453611e-06
7.98849984688e-06
8.10796200955e-06
8.07415660628e-06
7.77865329733e-06
8.30622128226e-06
0.00115107896183
8.24406475741e-06
8.16564537085e-06
8.14971056584e-06
8.13804212969e-06
7.98145257962e-06
7.66626510371e-06
7.05978836959e-06
1.66403817573e-05
8.24406097194e-06
8.16564312545e-06
8.14970710224e-06
8.13803577103e-06
7.98144454011e-06
7.66625787317e-06
7.05978135766e-06
1.66404755148e-05
8.21392120301e-06
8.05363565494e-06
7.98848885733e-06
8.10794455581e-06
8.07413167172e-06
7.77866036553e-06
8.30619957995e-06
0.00115124851855
7.89445567285e-06
8.10265771111e-06
8.08231637519e-06
7.74866251155e-06
1.11256530996e-05
0.00140336036066
8.12827364032e-06
8.14546578366e-06
8.00902889083e-06
7.63904503311e-06
7.44977779806e-06
2.67397958159e-05
8.12880619414e-06
8.08411363254e-06
7.87262730177e-06
7.47841386084e-06
6.889902409e-06
1.61056743051e-05
8.13096065072e-06
8.06992185354e-06
8.00175835192e-06
7.82343625425e-06
8.44659466397e-06
0.000943444630538
8.12210771373e-06
8.09730361618e-06
8.11029072239e-06
8.00936363723e-06
1.17911738343e-05
0.00201784294178
8.10262618052e-06
8.0745359773e-06
8.0876669229e-06
8.07669178467e-06
1.20527172387e-05
0.00216646784103
8.09228897944e-06
7.96165838964e-06
7.95650759946e-06
7.97301909945e-06
1.20510880436e-05
0.00207430583936
8.16863736433e-06
7.8635318583e-06
7.83106939113e-06
7.87827716234e-06
8.84945574693e-06
0.000594927831193
8.18647079493e-06
8.00840349078e-06
7.87736440561e-06
7.71468200897e-06
7.4841325557e-06
2.83910569702e-05
8.14660763952e-06
8.09590415367e-06
8.03335775362e-06
7.92553871996e-06
1.29562753488e-05
0.00180533352253
8.14238150527e-06
8.10569216171e-06
7.96093070301e-06
7.8689496264e-06
1.38032837703e-05
0.00237412997666
8.15619720483e-06
8.14982898266e-06
7.84933896318e-06
7.82114460882e-06
1.28925561976e-05
0.00213698593055
8.16236400703e-06
8.16818765128e-06
7.94824154315e-06
7.82509715222e-06
9.96851136681e-06
0.000120179035865
8.15984433536e-06
8.14671371621e-06
8.0924519621e-06
7.93418986462e-06
1.54513018523e-05
0.00229746904003
8.16456274016e-06
8.15876160874e-06
8.10099981762e-06
8.01795332276e-06
1.61292665351e-05
0.00176323932001
8.17010029127e-06
8.16830143652e-06
8.13599216482e-06
8.14301385221e-06
1.80098336811e-05
0.00237303628445
8.17389797705e-06
8.17463329723e-06
8.15979796338e-06
8.20885325994e-06
2.08608376517e-05
0.00321856474783
8.17399214221e-06
8.17180456602e-06
8.15029731985e-06
8.30582979421e-06
2.34313795128e-05
0.00351402228723
8.17266788838e-06
8.16555621683e-06
8.1470622833e-06
8.41908377453e-06
2.61065561472e-05
0.00371454643038
8.17081790894e-06
8.15971513274e-06
8.15077949145e-06
8.5356227465e-06
2.87976257346e-05
0.00393040710679
8.15390342668e-06
8.62833342421e-06
3.11926492526e-05
0.00389112977504
8.14300374624e-06
8.68722452176e-06
3.33096588109e-05
0.00400067151836
8.1333968698e-06
8.73975496825e-06
3.51272964823e-05
0.00406958406843
)
;

boundaryField
{
    back
    {
        type            calculated;
        value           nonuniform List<scalar> 
164
(
8.21392143424e-06
8.05363453611e-06
7.98849984688e-06
8.10796200955e-06
8.07415660628e-06
7.77865329733e-06
8.30622128226e-06
0.00115107896183
8.24406475741e-06
8.16564537085e-06
8.14971056584e-06
8.13804212969e-06
7.98145257962e-06
7.66626510371e-06
7.05978836959e-06
1.66403817573e-05
8.24406097194e-06
8.16564312545e-06
8.14970710224e-06
8.13803577103e-06
7.98144454011e-06
7.66625787317e-06
7.05978135766e-06
1.66404755148e-05
8.21392120301e-06
8.05363565494e-06
7.98848885733e-06
8.10794455581e-06
8.07413167172e-06
7.77866036553e-06
8.30619957995e-06
0.00115124851855
7.89445567285e-06
8.10265771111e-06
8.08231637519e-06
7.74866251155e-06
1.11256530996e-05
0.00140336036066
8.12827364032e-06
8.14546578366e-06
8.00902889083e-06
7.63904503311e-06
7.44977779806e-06
2.67397958159e-05
8.12880619414e-06
8.08411363254e-06
7.87262730177e-06
7.47841386084e-06
6.889902409e-06
1.61056743051e-05
8.13096065072e-06
8.06992185354e-06
8.00175835192e-06
7.82343625425e-06
8.44659466397e-06
0.000943444630538
8.12210771373e-06
8.09730361618e-06
8.11029072239e-06
8.00936363723e-06
1.17911738343e-05
0.00201784294178
8.10262618052e-06
8.0745359773e-06
8.0876669229e-06
8.07669178467e-06
1.20527172387e-05
0.00216646784103
8.09228897944e-06
7.96165838964e-06
7.95650759946e-06
7.97301909945e-06
1.20510880436e-05
0.00207430583936
8.16863736433e-06
7.8635318583e-06
7.83106939113e-06
7.87827716234e-06
8.84945574693e-06
0.000594927831193
8.18647079493e-06
8.00840349078e-06
7.87736440561e-06
7.71468200897e-06
7.4841325557e-06
2.83910569702e-05
8.14660763952e-06
8.09590415367e-06
8.03335775362e-06
7.92553871996e-06
1.29562753488e-05
0.00180533352253
8.14238150527e-06
8.10569216171e-06
7.96093070301e-06
7.8689496264e-06
1.38032837703e-05
0.00237412997666
8.15619720483e-06
8.14982898266e-06
7.84933896318e-06
7.82114460882e-06
1.28925561976e-05
0.00213698593055
8.16236400703e-06
8.16818765128e-06
7.94824154315e-06
7.82509715222e-06
9.96851136681e-06
0.000120179035865
8.15984433536e-06
8.14671371621e-06
8.0924519621e-06
7.93418986462e-06
1.54513018523e-05
0.00229746904003
8.16456274016e-06
8.15876160874e-06
8.10099981762e-06
8.01795332276e-06
1.61292665351e-05
0.00176323932001
8.17010029127e-06
8.16830143652e-06
8.13599216482e-06
8.14301385221e-06
1.80098336811e-05
0.00237303628445
8.17389797705e-06
8.17463329723e-06
8.15979796338e-06
8.20885325994e-06
2.08608376517e-05
0.00321856474783
8.17399214221e-06
8.17180456602e-06
8.15029731985e-06
8.30582979421e-06
2.34313795128e-05
0.00351402228723
8.17266788838e-06
8.16555621683e-06
8.1470622833e-06
8.41908377453e-06
2.61065561472e-05
0.00371454643038
8.17081790894e-06
8.15971513274e-06
8.15077949145e-06
8.5356227465e-06
2.87976257346e-05
0.00393040710679
8.15390342668e-06
8.62833342421e-06
3.11926492526e-05
0.00389112977504
8.14300374624e-06
8.68722452176e-06
3.33096588109e-05
0.00400067151836
8.1333968698e-06
8.73975496825e-06
3.51272964823e-05
0.00406958406843
)
;
    }
    sides
    {
        type            calculated;
        value           nonuniform List<scalar> 0();
    }
    bottom
    {
        type            calculated;
        value           nonuniform List<scalar> 0();
    }
    front
    {
        type            calculated;
        value           nonuniform List<scalar> 
164
(
8.21392143424e-06
8.05363453611e-06
7.98849984688e-06
8.10796200955e-06
8.07415660628e-06
7.77865329733e-06
8.30622128226e-06
0.00115107896183
8.24406475741e-06
8.16564537085e-06
8.14971056584e-06
8.13804212969e-06
7.98145257962e-06
7.66626510371e-06
7.05978836959e-06
1.66403817573e-05
8.24406097194e-06
8.16564312545e-06
8.14970710224e-06
8.13803577103e-06
7.98144454011e-06
7.66625787317e-06
7.05978135766e-06
1.66404755148e-05
8.21392120301e-06
8.05363565494e-06
7.98848885733e-06
8.10794455581e-06
8.07413167172e-06
7.77866036553e-06
8.30619957995e-06
0.00115124851855
7.89445567285e-06
8.10265771111e-06
8.08231637519e-06
7.74866251155e-06
1.11256530996e-05
0.00140336036066
8.12827364032e-06
8.14546578366e-06
8.00902889083e-06
7.63904503311e-06
7.44977779806e-06
2.67397958159e-05
8.12880619414e-06
8.08411363254e-06
7.87262730177e-06
7.47841386084e-06
6.889902409e-06
1.61056743051e-05
8.13096065072e-06
8.06992185354e-06
8.00175835192e-06
7.82343625425e-06
8.44659466397e-06
0.000943444630538
8.12210771373e-06
8.09730361618e-06
8.11029072239e-06
8.00936363723e-06
1.17911738343e-05
0.00201784294178
8.10262618052e-06
8.0745359773e-06
8.0876669229e-06
8.07669178467e-06
1.20527172387e-05
0.00216646784103
8.09228897944e-06
7.96165838964e-06
7.95650759946e-06
7.97301909945e-06
1.20510880436e-05
0.00207430583936
8.16863736433e-06
7.8635318583e-06
7.83106939113e-06
7.87827716234e-06
8.84945574693e-06
0.000594927831193
8.18647079493e-06
8.00840349078e-06
7.87736440561e-06
7.71468200897e-06
7.4841325557e-06
2.83910569702e-05
8.14660763952e-06
8.09590415367e-06
8.03335775362e-06
7.92553871996e-06
1.29562753488e-05
0.00180533352253
8.14238150527e-06
8.10569216171e-06
7.96093070301e-06
7.8689496264e-06
1.38032837703e-05
0.00237412997666
8.15619720483e-06
8.14982898266e-06
7.84933896318e-06
7.82114460882e-06
1.28925561976e-05
0.00213698593055
8.16236400703e-06
8.16818765128e-06
7.94824154315e-06
7.82509715222e-06
9.96851136681e-06
0.000120179035865
8.15984433536e-06
8.14671371621e-06
8.0924519621e-06
7.93418986462e-06
1.54513018523e-05
0.00229746904003
8.16456274016e-06
8.15876160874e-06
8.10099981762e-06
8.01795332276e-06
1.61292665351e-05
0.00176323932001
8.17010029127e-06
8.16830143652e-06
8.13599216482e-06
8.14301385221e-06
1.80098336811e-05
0.00237303628445
8.17389797705e-06
8.17463329723e-06
8.15979796338e-06
8.20885325994e-06
2.08608376517e-05
0.00321856474783
8.17399214221e-06
8.17180456602e-06
8.15029731985e-06
8.30582979421e-06
2.34313795128e-05
0.00351402228723
8.17266788838e-06
8.16555621683e-06
8.1470622833e-06
8.41908377453e-06
2.61065561472e-05
0.00371454643038
8.17081790894e-06
8.15971513274e-06
8.15077949145e-06
8.5356227465e-06
2.87976257346e-05
0.00393040710679
8.15390342668e-06
8.62833342421e-06
3.11926492526e-05
0.00389112977504
8.14300374624e-06
8.68722452176e-06
3.33096588109e-05
0.00400067151836
8.1333968698e-06
8.73975496825e-06
3.51272964823e-05
0.00406958406843
)
;
    }
    atmosphere
    {
        type            calculated;
        value           nonuniform List<scalar> 
27
(
0.00115107896183
1.66403817573e-05
1.66404755148e-05
0.00115124851855
0.00140336036066
2.67397958159e-05
1.61056743051e-05
0.000943444630538
0.00201784294178
0.00216646784103
0.00207430583936
0.000594927831193
2.83910569702e-05
0.00180533352253
0.00237412997666
0.00213698593055
0.000120179035865
0.00229746904003
0.00176323932001
0.00237303628445
0.00321856474783
0.00351402228723
0.00371454643038
0.00393040710679
0.00389112977504
0.00400067151836
0.00406958406843
)
;
    }
    floatingObject
    {
        type            calculated;
        value           nonuniform List<scalar> 4(8.21392143424e-06 8.24406475741e-06 8.24406097194e-06 8.21392120301e-06);
    }
    procBoundary6to3
    {
        type            processor;
        value           nonuniform List<scalar> 8(8.08275487231e-06 7.94137599678e-06 7.89447302879e-06 8.1026786441e-06 8.08233110983e-06 7.74864964034e-06 1.11256486535e-05 0.001403347412);
    }
    procBoundary6to7
    {
        type            processor;
        value           nonuniform List<scalar> 
11
(
8.16495194719e-06
8.16790340943e-06
8.17018430845e-06
8.17111734332e-06
8.17112580041e-06
8.17106321871e-06
8.16851788363e-06
8.16314949963e-06
8.16314949963e-06
8.16537117789e-06
8.16422198188e-06
)
;
    }
    procBoundary6to8
    {
        type            processor;
        value           nonuniform List<scalar> 
16
(
8.08273534021e-06
7.94135463974e-06
7.94135463974e-06
8.1289620768e-06
8.16693658531e-06
8.14680063251e-06
8.13493033442e-06
8.13207930896e-06
8.14234476873e-06
8.16772708904e-06
8.16722187634e-06
8.15697104137e-06
8.15507973274e-06
8.15868170271e-06
8.16090391062e-06
8.16233753448e-06
)
;
    }
    procBoundary6to9
    {
        type            processor;
        value           nonuniform List<scalar> 4(8.12486636804e-06 8.77162599493e-06 3.64170610718e-05 0.00411424820289);
    }
}


// ************************************************************************* //
