/*--------------------------------*- C++ -*----------------------------------*\
| =========                 |                                                 |
| \\      /  F ield         | OpenFOAM: The Open Source CFD Toolbox           |
|  \\    /   O peration     | Version:  v2012                                 |
|   \\  /    A nd           | Website:  www.openfoam.com                      |
|    \\/     M anipulation  |                                                 |
\*---------------------------------------------------------------------------*/
FoamFile
{
    version     2.0;
    format      ascii;
    class       surfaceVectorField;
    location    "1";
    object      Uf_0;
}
// * * * * * * * * * * * * * * * * * * * * * * * * * * * * * * * * * * * * * //

dimensions      [0 1 -1 0 0 0 0];


internalField   nonuniform List<vector> 
293
(
(0.101744058182 0.119439815794 8.21557117842e-18)
(0.00203221550542 0.0621260555538 7.15788321952e-18)
(0.112001136935 0.167511945624 5.65258183307e-18)
(0.0659790499566 0.0775586818012 4.94801845913e-18)
(0.116684230671 0.206727987388 4.1688721942e-18)
(0.0810647112989 0.142706031823 4.11078993268e-18)
(0.132144692547 0.252833906908 2.48457930354e-18)
(0.0828005305831 0.214379997277 2.82208434816e-18)
(0.177093064137 0.277963692543 1.31274200546e-18)
(0.12389812342 0.274512049899 1.68020430795e-18)
(0.34521969241 0.25940048309 5.8609591017e-19)
(0.190636457913 0.38745671251 1.02819411762e-18)
(1.56817044507 0.0299469337686 2.8787771808e-19)
(0.503118140721 0.353509503038 5.4269678368e-19)
(2.79329185055 0.88661483011 5.01208868752e-19)
(-0.028994188542 0.00203205228049 3.89033050023e-18)
(3.3859921334e-07 -0.0141910919774 4.15104152305e-18)
(0.0397152596965 0.0680125345569 3.40622655875e-18)
(-1.26975014952e-06 0.0214018419423 3.68047520272e-18)
(0.0529838665371 0.149078424148 2.76400208664e-18)
(-1.07155644805e-06 0.106386287316 3.16123893784e-18)
(0.073980019186 0.231879789882 2.01770935258e-18)
(-7.88601255651e-07 0.198351985672 2.36640481244e-18)
(0.11746688121 0.355778565468 1.39565642011e-18)
(-6.49986556899e-07 0.27615408533 1.6892417616e-18)
(0.264909925775 0.546415737436 9.84794991132e-19)
(-7.15477843657e-07 0.497620816635 1.14017848074e-18)
(0.508506492899 1.0495342936 7.56027934352e-19)
(-5.60939970179e-07 0.482401740517 1.0414686644e-18)
(-4.28838151408e-06 2.92655860513 8.53533197931e-19)
(0.0289915656923 0.00203266963726 3.94118622553e-18)
(-0.00203213264518 0.0621267858532 7.26799104163e-18)
(-0.0397175098728 0.0680125870038 3.43548758181e-18)
(-0.0659810260814 0.0775594149735 4.98143735478e-18)
(-0.052985726164 0.149078243489 2.76364166364e-18)
(-0.0810666220733 0.142705937916 4.13728857306e-18)
(-0.0739813934305 0.231879343588 2.03793722147e-18)
(-0.0828018414786 0.214379165022 2.81118630477e-18)
(-0.117468171451 0.3557777917 1.43376382223e-18)
(-0.123899092235 0.274510642002 1.72318856133e-18)
(-0.264911047136 0.546414808543 1.19685215401e-18)
(-0.19063772296 0.387454437775 1.03108917963e-18)
(-0.508506853123 1.04953439604 1.13897392798e-18)
(-0.503120283589 0.353506616925 5.19208330562e-19)
(-2.79331754788 0.88659962038 5.23080122659e-19)
(-0.101744900193 0.119441160206 8.30824217088e-18)
(-0.112002536114 0.167512129342 5.68323834603e-18)
(-0.116685417555 0.206727152112 4.18483321419e-18)
(-0.120281543418 0.211229052948 4.39000555317e-18)
(-0.132145374756 0.252832248325 2.49643764464e-18)
(-0.128906895681 0.246109973499 2.71984254496e-18)
(-0.177093431628 0.277960998066 1.32051391873e-18)
(-0.149027833512 0.273202338042 1.25660805513e-18)
(-0.345220582946 0.259395493116 3.53445356186e-19)
(-0.172072227227 0.266847838743 6.03605113656e-19)
(-1.56818393774 0.0299386279813 -9.66854747588e-20)
(-0.273663549652 0.208370341773 2.67164895176e-19)
(-0.620786782887 -1.5486834805 2.3868992012e-19)
(-0.130534613552 0.254572029965 2.92501488394e-18)
(-0.134180546768 0.24787333789 1.63046194788e-18)
(-0.140761373298 0.26882672837 1.48001295546e-18)
(-0.143161568047 0.267753790902 6.20842022246e-19)
(-0.148151076519 0.267663764523 5.39699250052e-19)
(-0.147864867349 0.28135331808 1.73133309663e-19)
(-0.0925121264343 0.22217453828 5.17324652646e-19)
(-0.126582824085 0.309611695214 1.87700203097e-20)
(0.913481313428 -0.157429179636 6.02540290054e-19)
(0.105927660797 0.214519176038 3.1426158959e-19)
(2.60395265514 0.0854494891691 1.16315244855e-19)
(-0.147900757329 0.263252607297 -6.73710913812e-19)
(-0.153596998739 0.244231169417 -9.83329596325e-20)
(-0.151238211896 0.28550350632 -6.86037623547e-19)
(-0.165412463392 0.270579295469 -2.83515601948e-19)
(-0.128372849443 0.312457997108 -3.47795920079e-19)
(-0.174819367898 0.29910792522 -1.19109582143e-19)
(0.0219040599542 0.358713373327 -1.84293042745e-19)
(-0.172838230932 0.429112121282 -1.02915181761e-19)
(0.390523947277 0.630128479968 -1.71963455608e-19)
(-0.165486484142 0.351246364316 -1.13076350073e-19)
(0.0661953571416 2.56629087997 -2.96972892187e-19)
(-0.176353669907 0.246203858471 2.91862352231e-19)
(-0.17489952181 0.222048503766 7.43017067563e-20)
(-0.201545821607 0.285661387736 2.83412439456e-19)
(-0.20487000845 0.24400364686 1.24078789798e-19)
(-0.236383087239 0.369588025791 1.25771156175e-19)
(-0.258746026365 0.268705034106 7.73186765745e-20)
(-0.38103030394 0.540358101244 -3.16984890893e-20)
(-0.343608326905 0.368332385619 1.51563841258e-21)
(-0.591458533552 1.08324060546 -2.38085786652e-19)
(-0.708369244498 0.315482212569 -2.15984551158e-19)
(-2.76988730206 1.29196789753 -3.4002800052e-19)
(-0.197245276464 0.212014781517 -9.34818556775e-20)
(-0.1865198493 0.193926212902 -2.77353848345e-20)
(-0.241303559828 0.225478350237 -8.20149730839e-20)
(-0.218333607093 0.200659197407 -3.88714611436e-20)
(-0.318089119474 0.230716497328 -4.69368411877e-20)
(-0.263984200711 0.206885488451 -2.03795335788e-20)
(-0.546176827658 0.20754073876 -1.82770423656e-19)
(-0.320432577222 0.196575065056 -3.76808288518e-20)
(-1.81868071345 0.0613505779786 -3.17926765025e-19)
(-0.562178890004 0.139932112489 -6.48217144797e-19)
(-1.93679933464 -0.568684322194 -5.91201313316e-19)
(-0.205062281033 0.180049637568 2.68750096994e-20)
(-0.191487759426 0.16684092116 7.33114648988e-21)
(-0.241750241957 0.181284278039 2.27639783615e-20)
(-0.219568284466 0.165355341724 1.66770798841e-20)
(-0.286992795392 0.169984219287 -1.11235212429e-20)
(-0.252684171103 0.165814779731 -3.16510371627e-21)
(-0.40284167101 0.137785480965 -5.03127549993e-19)
(-0.288233849768 0.130544487764 -1.49104715063e-20)
(-1.14072416132 -0.0445088902901 -9.21491693089e-19)
(-0.379883743059 0.122900445656 -5.66287321485e-19)
(-0.778619368898 -0.568041515691 -5.08413297547e-19)
(-0.204279083005 0.151373462801 -2.8667833254e-21)
(-0.191069386688 0.143727206608 -2.23243240774e-21)
(-0.232746980627 0.145331397381 -9.25200219364e-21)
(-0.21352625897 0.138477295925 -1.50123486893e-21)
(-0.266061660429 0.134074387505 -6.95205397964e-21)
(-0.241427191727 0.128290895141 -1.10785228738e-20)
(-0.296234933698 0.116207542253 -7.80702429974e-20)
(-0.27036703721 0.0909793579828 4.58101469623e-23)
(-0.372750539558 -0.0333673949041 -1.53208925943e-19)
(-0.230306481881 0.0896123698804 -1.6451957582e-19)
(-0.145793632924 -0.46457934908 -1.48842997802e-19)
(-0.19796505163 0.130686501727 -8.66883951278e-22)
(-0.187890017585 0.127572457138 6.1100248381e-22)
(-0.215252939633 0.118583304482 -3.32775554909e-21)
(-0.201423102373 0.122906940655 -6.81846870494e-21)
(-0.235956734376 0.0937040367515 -4.08065874719e-21)
(-0.216547953816 0.103672635914 1.97185290284e-21)
(-0.217323814839 0.0576198797328 -8.64035226753e-20)
(-0.234282896913 0.0684368453661 -2.53766181119e-20)
(-0.0298258244334 -0.116736803146 -1.60153647678e-19)
(-0.0559489992914 0.0144285483482 -3.43860750094e-19)
(0.449712132825 -0.315057992101 -3.271378676e-19)
(-0.192944646023 0.121898012244 -5.34058226985e-21)
(-0.188541100521 0.117474289257 -1.63711724064e-21)
(-0.197617344675 0.114475156707 -1.51886025301e-21)
(-0.194000287327 0.120971696534 -7.95344962097e-21)
(-0.184500544279 0.0869237786809 -1.93241064619e-20)
(-0.18899660624 0.115691808614 3.78694737423e-20)
(-0.0144325832686 0.0125891177303 -2.8283384553e-19)
(-0.159948252314 0.160557987225 -3.34432868648e-20)
(0.643902723827 0.0117432015292 -5.10844970016e-19)
(-0.0551031740116 0.0532409495168 -4.11902224589e-19)
(0.763293561024 1.25078177108 -3.70701000041e-19)
(-0.197170877443 0.116343101383 -4.24998459176e-21)
(-0.194949115899 0.107212159934 -2.71692363731e-21)
(-0.204048331818 0.131227647041 3.14348843744e-20)
(-0.208884872757 0.113510435236 1.18581011039e-21)
(-0.202168028934 0.170348305442 2.37502933394e-20)
(-0.228117294869 0.123580011423 2.9017887333e-20)
(-0.268662567271 0.25328572555 -1.62511665923e-19)
(-0.242885685353 0.188318306877 -5.35291869993e-20)
(-0.325861150964 0.757121362403 -2.71758254614e-19)
(-0.558938799869 0.105325550797 -4.23915631661e-19)
(-2.16260877261 0.95485681583 -3.5695088661e-19)
(-0.204522152644 0.102308295635 2.71887106485e-21)
(-0.199103967077 0.0946752500076 5.13829970052e-22)
(-0.222118872842 0.106651634362 -1.23118693097e-21)
(-0.213228249242 0.0964026929668 2.60748165678e-21)
(-0.247001671783 0.109239103383 -4.82615930058e-20)
(-0.230704790288 0.101687539994 -1.18829585418e-20)
(-0.41676748959 0.119717608396 -3.14933152738e-19)
(-0.253364193818 0.0957531711609 -6.44920097391e-20)
(-1.44400125953 -0.0618539307404 -5.09108263657e-19)
(-0.377367780326 0.08815097502 -3.46427484635e-19)
(-0.977242032273 -0.669149962093 -3.64876969824e-19)
(-0.206763900654 0.0888147045028 4.02440561986e-22)
(-0.20127487511 0.0830231066635 3.46152702231e-22)
(-0.220813221653 0.088373559084 -8.04428995406e-21)
(-0.212787138095 0.083108249273 2.0759113584e-22)
(-0.237008804029 0.0852065577824 -2.81133752751e-20)
(-0.227537811401 0.0829683300676 -9.15498464212e-21)
(-0.260500754878 0.0774306468574 -9.59863416361e-20)
(-0.245588287984 0.0641748694977 -3.03285615948e-20)
(-0.442203627677 -0.0602684860318 -2.02196190801e-19)
(-0.239669045846 0.0596581089185 -2.40294044394e-19)
(-0.0232378543811 -0.60140812257 -2.67138482634e-19)
(-0.20749248218 0.0782416624267 1.51303276085e-22)
(-0.203177871562 0.0730042798494 1.80515169727e-23)
(-0.217807093252 0.0776878277162 -9.03103552219e-22)
(-0.212233333771 0.073467015925 -2.50313418738e-21)
(-0.224384652033 0.0687500649923 -1.13701709618e-20)
(-0.218600069163 0.0757679734935 -6.81150612052e-21)
(-0.17931981657 0.0350506672427 -1.74636264353e-19)
(-0.211888858909 0.076334409024 -5.96005441145e-21)
(0.437509995035 -0.0673255036276 -3.05236336227e-19)
(-0.137297067521 0.0333692929905 -5.82492179914e-20)
(0.923832209201 0.604459540442 5.49381052481e-20)
(-0.209115636695 0.0691440418837 -2.63638594649e-21)
(-0.20539566941 0.0638568037177 2.561994724e-22)
(-0.217575867976 0.071579043827 -8.41153675568e-21)
(-0.21466836307 0.0648899813672 -2.26905980055e-21)
(-0.221692240782 0.0777283119976 -1.4013895702e-21)
(-0.224749355606 0.0702119840387 -1.03528231914e-20)
(-0.236090589476 0.100427899794 1.1042699195e-19)
(-0.234588486188 0.0767399482504 -6.74169005711e-21)
(-0.259626625301 0.341209060367 3.01925223483e-19)
(-0.378077648259 0.0431672842746 -1.11664274622e-19)
(-1.66783131305 0.624459096107 6.71319060556e-20)
(-0.211059595375 0.0601079295635 6.23525618348e-22)
(-0.207440269297 0.0551224259177 -5.57663932115e-22)
(-0.220113224855 0.0614053055678 -4.21034623622e-21)
(-0.215965761147 0.0560060697568 3.45521393647e-21)
(-0.229098093998 0.0606578407931 -1.56931236783e-20)
(-0.2240019047 0.0603732238039 -8.95527952695e-21)
(-0.296810569067 0.0551169536355 -2.28832956629e-19)
(-0.229047589012 0.0525162313316 -1.61642655504e-20)
(-1.09032791402 -0.0513772958663 -3.4645759205e-19)
(-0.271584907951 0.0570045505318 -2.24677876481e-19)
(-0.769227835367 -0.369327724474 -2.71340514317e-20)
(-0.212809665088 0.0517352806785 2.27402438601e-21)
(-0.209515111685 0.0468269615909 2.88215380438e-22)
(-0.220759268264 0.0533800668439 -1.28971935426e-21)
(-0.217610563132 0.0479135011217 1.23837985848e-21)
(-0.226426891115 0.0543962926781 -9.42642139911e-21)
(-0.22501814044 0.0530109069523 -1.04536567618e-20)
(-0.235911700155 0.0540484618674 -1.20091854022e-20)
(-0.228699757789 0.045276676833 -6.72624305497e-21)
(-0.403710918793 0.00769930323531 9.46456641375e-20)
(-0.22523621682 0.0592058922991 -1.6804602497e-20)
(-0.436236181123 -0.113277531316 7.61231961695e-20)
(-0.214806156636 0.043662613343 -7.47429147096e-22)
(-0.211672644412 0.0386891104044 3.80246037095e-22)
(-0.222472777114 0.0457420826818 -7.92555754905e-21)
(-0.219690042097 0.0399785540544 1.14942310901e-21)
(-0.228002305947 0.0475110428449 -7.75347841764e-21)
(-0.226787106753 0.0461780492642 -8.5060445157e-21)
(-0.225645798779 0.0494918110167 -1.15216601497e-20)
(-0.230680523802 0.0397266137743 -7.77466503634e-21)
(-0.287759215601 0.045368284206 -3.5327070465e-20)
(-0.221113304605 0.0492810920327 -1.50853692864e-20)
(-0.29111617608 -0.00915914111933 -2.45914174699e-20)
(-0.217041486101 0.035520776295 2.2770982932e-21)
(-0.213820015769 0.0303891549532 2.1817247303e-22)
(-0.224948268939 0.0381160658607 5.68936142359e-22)
(-0.222285336178 0.0316423356566 4.85840235326e-22)
(-0.230932183746 0.0415699207813 -8.52723113441e-21)
(-0.230240964287 0.0385778615408 -4.1949908846e-21)
(-0.227568300828 0.0461911511627 -1.1338374173e-20)
(-0.235301754017 0.0318958362614 -5.19365658276e-21)
(-0.24607201464 0.0499445289306 -4.34971629135e-21)
(-0.224866964955 0.0417877138785 -6.40318412181e-21)
(-0.241036876985 0.0273397141652 -3.37741011134e-21)
(-0.219294315085 0.0269216177069 -1.57308558485e-21)
(-0.2157124284 0.0216837025789 1.76560820762e-22)
(-0.227933722951 0.0293786226592 -4.27808679164e-21)
(-0.224742342586 0.0224323752499 -2.88679257528e-21)
(-0.234900066524 0.0329431591834 -8.61416332957e-22)
(-0.233805501626 0.0290784987574 -4.36873076818e-21)
(-0.232299578094 0.0372632620599 -2.58466531553e-22)
(-0.239621857781 0.0213123086755 -1.92544917269e-21)
(-0.231083481032 0.0423003820466 -5.4308779418e-21)
(-0.229904259629 0.0311956727831 -4.71974994783e-21)
(-0.227389133122 0.0312426187211 -6.49742773794e-21)
(-0.221134696233 0.0176961220051 -1.13714616967e-21)
(-0.217023729052 0.0125342127674 -2.08709663346e-22)
(-0.230427881195 0.0194776133499 -2.97743655183e-21)
(-0.226523834408 0.0124575931654 -2.03205051325e-21)
(-0.238147724755 0.0218676151054 -5.43276360791e-21)
(-0.236195503149 0.0180221313113 -1.05206185964e-20)
(-0.236695909292 0.0248437760476 -6.38673258896e-21)
(-0.242598008396 0.00901196301822 -7.55030281637e-21)
(-0.228763782782 0.029726561014 -5.78629974397e-21)
(-0.234790141712 0.0183013599492 -2.64992268076e-21)
(-0.219903577349 0.0200062627069 -2.29213817903e-21)
(-0.222235085683 0.00792075747996 -1.10361400692e-21)
(-0.231608763627 0.00889706967278 -9.57523255786e-21)
(-0.239588468178 0.00860364866434 -1.26381578049e-20)
(-0.23590208332 0.00608545225885 -1.82166976241e-20)
(-0.239727802007 0.00939227122368 -3.81349290817e-21)
(-0.24338662701 -0.00438686543586 -9.30811038576e-21)
(-0.227591919747 0.0127564564854 8.44238884176e-22)
(-0.238154832543 0.00380124934874 4.27190531375e-21)
(-0.216224589414 0.00494251679826 4.17231335891e-21)
(-0.239304114736 -0.00363001273712 -1.4886650205e-20)
(-0.235133148955 -0.00614222317983 -1.74796031445e-20)
(-0.24088096046 -0.0045649635993 -1.22271216383e-21)
(-0.242451673662 -0.0182615532746 -9.92000739282e-21)
(-0.226160626311 -0.00343115119783 7.59997978849e-21)
(-0.239289051736 -0.0116144454932 6.36207235328e-21)
(-0.213486773911 -0.00937617052201 5.74547361512e-21)
(-0.238150452733 -0.015295323057 -1.25129603324e-20)
(-0.234037892515 -0.0184321157986 -1.50480919696e-20)
(-0.240519014123 -0.0170988806513 -2.3352228757e-21)
(-0.240648115574 -0.0318681462783 -3.57802398735e-21)
(-0.225941057182 -0.0170363609489 4.50756617992e-21)
(-0.239351867894 -0.0272984266529 8.07441686393e-21)
(-0.211072499348 -0.0231936839722 6.60197639153e-21)
(-0.236061202418 -0.0273940715888 -6.11315562458e-21)
(-0.239003189375 -0.03034649095 6.83161575228e-21)
(-0.224372279034 -0.0317782913108 1.01688270755e-20)
)
;

boundaryField
{
    back
    {
        type            calculated;
        value           uniform (0 0 0);
    }
    sides
    {
        type            calculated;
        value           nonuniform List<vector> 0();
    }
    bottom
    {
        type            calculated;
        value           nonuniform List<vector> 0();
    }
    front
    {
        type            calculated;
        value           uniform (0 0 0);
    }
    atmosphere
    {
        type            calculated;
        value           nonuniform List<vector> 
27
(
(0 -2.14253052045 0)
(0.627563292699 3.84283072884 6.79096061933e-19)
(-0.627563148492 3.84284794732 1.02797033393e-18)
(0 -2.14259867773 0)
(0 -3.38214257475 0)
(0.629862845286 3.16787034633 -2.2655943914e-19)
(-0.676956733349 3.91932996505 -3.67386345234e-19)
(0 -0.771742423536 0)
(0 -1.20268914795 0)
(0 -0.666195421107 0)
(0 -0.712244359415 0)
(0 -0.301835995291 0)
(-0.312409199347 3.68302291319 -2.37718636219e-19)
(0 -1.24721980589 0)
(0 -1.01427234716 0)
(0 -1.01439019226 0)
(-0.269018562517 2.93286981926 3.90582373118e-19)
(0 -0.949978280126 0)
(0 -0.325290622579 0)
(0 -0.0997497656834 0)
(0 -0.000134973205759 0)
(-0.235169657227 0.0286500281806 -7.37605108735e-21)
(-0.225343766554 0.0222496874222 -5.61880438853e-21)
(-0.218791368784 0.00907511058608 1.03452803047e-21)
(0 -0.00616856098734 0)
(0 -0.019450343466 0)
(0 -0.0344984779347 0)
)
;
    }
    floatingObject
    {
        type            calculated;
        value           nonuniform List<vector> 4((0 0 0) (0 0 0) (-2.77555756156e-16 0 0) (0 0 0));
    }
    procBoundary6to3
    {
        type            processor;
        value           nonuniform List<vector> 8((0.121471841127 0.190783134092 1.13061221274e-17) (0.114050970155 0.183679040424 5.75196895934e-18) (0.12028058635 0.211229505665 4.3731296389e-18) (0.128906377524 0.246111269126 2.71810073826e-18) (0.149027918391 0.273204396792 1.24689592351e-18) (0.17207329312 0.266850672359 6.23004279186e-19) (0.273665032131 0.208372815209 5.60844498016e-21) (0.620821878106 -1.5486696314 4.45262888855e-20));
    }
    procBoundary6to7
    {
        type            processor;
        value           nonuniform List<vector> 
11
(
(-0.204527616389 0.0496604713772 -1.91542573393e-22)
(-0.206703417962 0.0415050970923 5.52346922091e-22)
(-0.208799275237 0.0333734087648 -5.88316919969e-23)
(-0.210675458145 0.0250292007145 3.80050002656e-22)
(-0.212105632114 0.0163848144662 -2.11797338547e-22)
(-0.212856286444 0.00745510288231 1.23821649582e-23)
(-0.217489378963 0.00301422242202 -2.17138293373e-23)
(-0.227500148048 0.00227378307436 -1.52233039762e-21)
(-0.231429352318 -0.00286107462829 -1.01637954639e-20)
(-0.230343430949 -0.0142000583342 -8.606893014e-21)
(-0.228347441474 -0.0249854709242 -7.95803967522e-21)
)
;
    }
    procBoundary6to8
    {
        type            processor;
        value           nonuniform List<vector> 
16
(
(-0.121473115813 0.190783627344 1.13922984428e-17)
(-0.114051840109 0.183679172342 5.7785099528e-18)
(-0.125109825668 0.240672871683 4.48527715994e-18)
(-0.135057776822 0.243836074054 2.37215714588e-19)
(-0.155093963846 0.224901315131 7.33549771841e-20)
(-0.168094826617 0.200394474121 -3.25829864776e-20)
(-0.177221381998 0.175081769952 1.0436913417e-20)
(-0.181078051214 0.151791888827 -1.8811564417e-21)
(-0.181737059858 0.133865928431 3.41744028019e-22)
(-0.182708708569 0.121246987719 3.92791643375e-22)
(-0.186945612272 0.109935143527 -2.16267923256e-21)
(-0.19158163238 0.0981535000381 -5.67591985752e-23)
(-0.194951756655 0.0866438494261 8.34529048283e-22)
(-0.197500672031 0.0763387181036 -5.59365495896e-22)
(-0.199950567694 0.0669262975431 4.4719184368e-22)
(-0.202300092618 0.058063368234 -2.89398529062e-22)
)
;
    }
    procBoundary6to9
    {
        type            processor;
        value           nonuniform List<vector> 4((-0.231629302291 -0.0306230121445 -5.73538152558e-21) (-0.237695695754 -0.0448540612672 4.54494017352e-22) (-0.237920538789 -0.0426038030609 3.87669571782e-21) (-0.208351856716 -0.0383816121713 2.78040372933e-21));
    }
}


// ************************************************************************* //
