/*--------------------------------*- C++ -*----------------------------------*\
| =========                 |                                                 |
| \\      /  F ield         | OpenFOAM: The Open Source CFD Toolbox           |
|  \\    /   O peration     | Version:  v2012                                 |
|   \\  /    A nd           | Website:  www.openfoam.com                      |
|    \\/     M anipulation  |                                                 |
\*---------------------------------------------------------------------------*/
FoamFile
{
    version     2.0;
    format      ascii;
    class       surfaceVectorField;
    location    "4.2";
    object      ddtCorrDdt0(Uf);
}
// * * * * * * * * * * * * * * * * * * * * * * * * * * * * * * * * * * * * * //

dimensions      [0 1 -2 0 0 0 0];


internalField   nonuniform List<vector> 
302
(
(-0.08469730266 -0.0218473536517 1.93161466421e-25)
(-0.0786730017526 -0.0237209870354 -1.84154276375e-23)
(-0.0938440682676 -0.0257754497589 1.57624189105e-23)
(-0.0867364333773 -0.0282583365332 -3.06527308479e-24)
(-0.104878893753 -0.0301651572223 2.28567901016e-23)
(-0.0964427421595 -0.0333201765388 1.62500490646e-23)
(-0.118143515538 -0.0349644748194 7.2425379533e-23)
(-0.108096497905 -0.0389897836169 2.44556473992e-23)
(-0.134116075783 -0.0403523859917 7.83977412971e-23)
(-0.122129895532 -0.0453908926922 1.14297561915e-22)
(-0.153437128494 -0.0463736252051 -5.89946275097e-23)
(-0.139057285178 -0.0526898876403 -5.5120521657e-23)
(-0.176969674095 -0.0532563103204 -5.80409339665e-22)
(-0.159588290262 -0.0611166733692 -4.22775898918e-22)
(-0.205874932647 -0.0612560834257 -2.94942650311e-21)
(-0.184883042729 -0.0713871054533 -4.88216835265e-22)
(-0.242263278073 -0.0697867799386 -9.5639972272e-21)
(-0.216552272661 -0.0846635218573 -2.91830836074e-21)
(-0.279062833458 -0.0769542711023 -1.24738876213e-20)
(-0.258340976685 -0.0824206490833 -1.20982016636e-20)
(-0.290915470862 -0.0938343472077 4.18904558089e-20)
(-0.286759388491 -0.0627613012461 -1.56108601043e-20)
(-1.17686574882 -0.309823955192 1.58836381056e-19)
(-0.0646526537253 -0.102637331317 8.75549687767e-20)
(0.601875750713 -1.24213850567 -2.15694132499e-19)
(-0.0673693974957 -0.0204306036588 -1.40172662543e-24)
(-0.0627219911196 -0.020641489864 1.04378859936e-23)
(-0.0731421266795 -0.0249126972162 -1.69636257801e-23)
(-0.0676495766235 -0.025438943723 -7.63752506281e-25)
(-0.0801830427823 -0.0298854002038 -2.16738621887e-23)
(-0.073713634459 -0.0307722086643 -2.14916556756e-23)
(-0.0886876119404 -0.0354943902702 -2.57764293068e-24)
(-0.0810731197485 -0.0367613529412 -2.83703563201e-23)
(-0.0989296616112 -0.0418179505182 1.78489063622e-23)
(-0.0899708384673 -0.0435512320908 -3.58281090479e-24)
(-0.11124745205 -0.0489866292297 6.63278297808e-23)
(-0.10063691465 -0.0512812852183 -6.34511043503e-24)
(-0.126055851562 -0.0572414668425 -1.92207010395e-23)
(-0.113420922621 -0.0601621043208 5.70813581983e-23)
(-0.143947536445 -0.0668519423043 -4.18901793065e-22)
(-0.128825145404 -0.0705566904422 -1.68779552803e-22)
(-0.165815577869 -0.0782904119252 -3.30583394518e-22)
(-0.147429646234 -0.0829178463835 -6.42941882908e-22)
(-0.193054592722 -0.0924534497316 -4.57098692894e-22)
(-0.170020833088 -0.0983724149874 -8.17797046911e-22)
(-0.229192387607 -0.109652159447 -5.45251279715e-21)
(-0.198864285283 -0.119456381195 3.79671926356e-21)
(-0.269584065413 -0.12804534451 -1.52351741466e-20)
(-0.23976310572 -0.131016279086 3.64278682994e-21)
(-0.190112201833 -0.127250576532 3.00536528635e-20)
(-0.287504501375 -0.110458395619 -1.77631763045e-20)
(1.37064820396 0.0138041641856 -2.86975544778e-19)
(-0.206146785022 -0.180508610928 -4.41045711947e-20)
(0.153797794517 -0.0883940721974 -9.09436748191e-19)
(-0.0494590699519 -0.00374654852832 6.94791454838e-23)
(-0.0466029779248 -0.00191090324208 -1.71986705118e-24)
(-0.0484437348685 -0.00617824458807 -2.68920660526e-22)
(-0.0584637256275 -0.0203669005647 2.73159865044e-23)
(-0.0542654757106 -0.019615270653 1.89364032101e-23)
(-0.0626343999429 -0.0254095468966 1.10758601127e-23)
(-0.0577170718127 -0.0248525046351 7.55901502635e-24)
(-0.0678172556716 -0.0310125661479 -5.29178240175e-24)
(-0.0620682822909 -0.0306401407133 -2.46672371378e-24)
(-0.0741540947234 -0.0372982312355 -2.8188149807e-23)
(-0.0674210912619 -0.0371127914342 3.19367503746e-24)
(-0.0818125898749 -0.0443954701923 -2.93755242942e-23)
(-0.0739151118553 -0.0444177963161 -3.20679948229e-23)
(-0.0910021996382 -0.0525192559743 -2.7776827702e-23)
(-0.0817088864989 -0.0527381127612 -2.05898719328e-23)
(-0.102020615991 -0.0618375098022 -1.55915820175e-23)
(-0.0910771355332 -0.0623017632224 -4.35989815111e-24)
(-0.115223542109 -0.0726600104531 -9.24774935649e-23)
(-0.10224327301 -0.0733685015339 -5.82386818521e-23)
(-0.130994571481 -0.0856111280761 -3.92819642646e-22)
(-0.115416858814 -0.086349352673 -2.96554351301e-23)
(-0.149911177463 -0.101371626407 -1.1301555353e-21)
(-0.13115943351 -0.101951405733 -4.03328989517e-22)
(-0.17284697971 -0.121493343597 3.43602090954e-21)
(-0.149424235248 -0.121561222394 3.39510158997e-22)
(-0.203346232075 -0.149318500362 1.28920188906e-20)
(-0.170713992588 -0.149683944323 9.79907684918e-22)
(-0.246017440762 -0.188426200436 1.11478467198e-21)
(-0.200533907511 -0.178722244944 2.99190959147e-20)
(-0.241200297405 -0.224350301813 -9.19214003627e-20)
(-0.251559358884 -0.162087394163 3.58483542904e-21)
(-0.659786458425 -0.22708084397 -6.66565774608e-19)
(-0.203598029791 -0.278781861613 -2.00432554072e-20)
(-0.508971827257 -0.630300764569 -3.91967758998e-19)
(-0.0453852336464 -0.00439660514995 -3.40119673061e-22)
(-0.0422169695221 -0.00225414819838 -1.86279740381e-22)
(-0.0468945048618 -0.00885071115148 -3.05067250788e-22)
(-0.0440069728765 -0.00707511011719 -2.95774358742e-22)
(-0.0483643093874 -0.0135170774631 -9.79618739569e-23)
(-0.0450965071123 -0.0118808100134 -1.03265403656e-22)
(-0.0504599570985 -0.0184938938836 -2.73369190683e-23)
(-0.0466991743784 -0.0169896687868 -4.34599452655e-23)
(-0.0532684543496 -0.0238748748515 -8.20568267948e-25)
(-0.0489174844037 -0.0224803678608 5.13620268471e-24)
(-0.0568680416315 -0.029793856455 -5.98356880014e-24)
(-0.0518265383862 -0.0284772413978 1.77483424106e-23)
(-0.0613428172315 -0.0363873749817 6.01873372542e-24)
(-0.0554900023337 -0.0351190218618 -8.58162441758e-24)
(-0.0668013897482 -0.0438122615804 -6.86169978449e-25)
(-0.0599875280243 -0.0425680120867 1.91171140532e-23)
(-0.0733907056204 -0.0522467238409 -2.32823424614e-23)
(-0.065430561318 -0.0510036329044 3.59752345397e-25)
(-0.0812848382012 -0.0618904752738 2.82705761814e-24)
(-0.0719597280747 -0.060628377221 -9.99764056564e-24)
(-0.0906920602155 -0.07306677709 -4.70069979858e-23)
(-0.0797250423658 -0.0717024892097 6.63503521193e-23)
(-0.101863965863 -0.086071094693 4.58337658264e-24)
(-0.0889924779307 -0.0845380374362 -8.56308271065e-23)
(-0.11494111863 -0.101356262861 -4.0164782002e-23)
(-0.0998263936865 -0.0994383241443 2.12857079651e-22)
(-0.129758669175 -0.12006455531 1.06633670478e-21)
(-0.112123136763 -0.116933576775 1.81542924143e-22)
(-0.145580971679 -0.144214669075 -2.11660306563e-21)
(-0.124978544202 -0.13790138792 1.52490799653e-21)
(-0.161875469679 -0.179124682811 1.8006984709e-20)
(-0.135606476416 -0.166485792984 -4.71284672312e-21)
(-0.195210563679 -0.240990081714 3.23891466718e-20)
(-0.138594739594 -0.215465203928 1.81879927075e-20)
(-0.195736488633 -0.305054301821 7.54629803846e-20)
(-0.187509506428 -0.209137188542 1.85789609686e-20)
(-0.485406391536 -0.383079024218 2.54554760202e-19)
(-0.125306623951 -0.311482685268 4.98577243196e-20)
(-0.543196997462 -0.950451020226 1.97196347409e-19)
(-0.0406962783926 -0.00494098139435 -1.41934426062e-22)
(-0.0372838826193 -0.00255434616346 2.47936629106e-23)
(-0.0420702316127 -0.00996422400391 -9.39725116105e-23)
(-0.0389953229512 -0.00782116475238 -6.72971489923e-23)
(-0.0432805324002 -0.0152015511897 -4.87634749647e-23)
(-0.0398776370086 -0.0131231035051 -1.10655586966e-23)
(-0.0449931149026 -0.0207790945718 -1.09868235125e-23)
(-0.0411454988387 -0.0187651962014 -3.10415561423e-23)
(-0.0472927641207 -0.0268237250737 2.37051133633e-23)
(-0.0428991142109 -0.0248210573014 5.48712258614e-24)
(-0.050239523226 -0.033476050519 1.51502867932e-23)
(-0.0451989349859 -0.031439800513 5.87257827451e-24)
(-0.0538917022431 -0.0408959627359 4.51675591017e-24)
(-0.0480868235827 -0.0387763953182 4.25228796669e-24)
(-0.0583333534526 -0.049272132426 2.0163036377e-23)
(-0.0516123643982 -0.0470097713315 3.1142753068e-23)
(-0.0636803410209 -0.0588045365898 1.36444542412e-23)
(-0.0558739329416 -0.0563462260451 -2.88757275765e-23)
(-0.0700781290034 -0.0697336646226 5.35256539355e-23)
(-0.060973190082 -0.0670197235417 1.37341159409e-23)
(-0.0776765241845 -0.0823156914871 2.77265229985e-23)
(-0.0670462842393 -0.0792879270902 6.40661733671e-23)
(-0.0866515732215 -0.0969324596934 1.22642875961e-22)
(-0.0742404488597 -0.0934888067749 -8.01422544786e-23)
(-0.0970753366511 -0.113811694017 4.34564785796e-22)
(-0.0827826089932 -0.109858451324 3.07832975084e-22)
(-0.108287793937 -0.133168139501 6.40114215893e-22)
(-0.0925938448939 -0.128327822234 3.2604218852e-22)
(-0.118062190913 -0.155615397628 -1.07133566096e-21)
(-0.102380841879 -0.148358568326 1.83383396839e-21)
(-0.119120381232 -0.183156991619 -4.53183872466e-21)
(-0.107969286989 -0.169025507761 -2.94825695425e-22)
(-0.140212579781 -0.228416385913 4.3778070043e-21)
(-0.0933030601386 -0.242897850872 -1.36295744731e-20)
(-0.116358767932 -0.272634444697 -7.02629509636e-21)
(-0.143285665592 -0.25439272453 1.00328330004e-20)
(-0.342155053081 -0.46021927712 -7.50068847369e-21)
(0.0617726193412 -0.32745255791 -1.11911991361e-20)
(-0.198845462366 -0.493445727996 -1.41814270057e-21)
(-0.0355072167658 -0.0053805782061 9.94309399801e-23)
(-0.0319072059098 -0.00280828304066 2.44747344404e-22)
(-0.0367222065267 -0.0108396154119 1.56098039216e-23)
(-0.0335426146727 -0.0083811666334 -1.49064457959e-23)
(-0.037649732 -0.0165298988732 6.65636012574e-24)
(-0.0341986586328 -0.0140614843989 3.6669109778e-23)
(-0.0389470580086 -0.0225901486551 -1.45676100437e-23)
(-0.0351017509537 -0.0201125741152 -6.83007831474e-24)
(-0.0406885318267 -0.0291551278222 -1.23454125026e-23)
(-0.036354389193 -0.0265981541449 5.91018631485e-24)
(-0.0429126471884 -0.0363872411665 -5.025420552e-24)
(-0.0379884379057 -0.0336805799851 -1.03587509013e-23)
(-0.0456558453029 -0.0444508350396 3.08782851245e-23)
(-0.0400428314648 -0.0415282966975 -1.12835757984e-23)
(-0.0489781950892 -0.0535518589549 -1.78960108856e-23)
(-0.0425252824516 -0.0503355030892 -1.39925428866e-24)
(-0.0529651357876 -0.0639233656949 -2.87860658767e-23)
(-0.0455072956993 -0.0603298511014 -5.83272155951e-23)
(-0.0577255225275 -0.0758257645384 2.42746353726e-23)
(-0.0490638451438 -0.0717689736732 -4.34892961508e-24)
(-0.0633574572583 -0.0895419463142 -4.38026041099e-23)
(-0.053309553116 -0.0848973914761 1.85703976177e-23)
(-0.0701286486694 -0.105497583548 1.05047844644e-22)
(-0.0582507687134 -0.100232437772 -5.64145450415e-23)
(-0.0783316708001 -0.123663148895 1.99310377808e-22)
(-0.0645729975717 -0.118051119463 2.12285651556e-22)
(-0.0878916468424 -0.143613304115 1.51976194102e-21)
(-0.072597763016 -0.138083185848 1.99429397761e-22)
(-0.0986403678429 -0.162841400988 2.61034393393e-21)
(-0.0831169389085 -0.159930592512 2.73032084191e-21)
(-0.107824995678 -0.17071690348 -9.39256144388e-21)
(-0.100077976364 -0.1805103157 1.76459141001e-21)
(-0.124666666803 -0.13504480874 -7.97454847699e-21)
(-0.128976468405 -0.263834535286 -1.51335843093e-21)
(-0.0340925042415 -0.147280561703 5.86792896072e-21)
(-0.131056916561 -0.279459197388 3.17128719667e-21)
(0.28814898281 -0.168836963282 -5.10865336295e-21)
(0.0835928270641 -0.348479586358 2.11303211535e-20)
(0.457412311854 -0.341837342251 1.16732554665e-20)
(-0.0299100400692 -0.00568819746538 1.30409958628e-22)
(-0.0262147304926 -0.00293732327049 2.1463214969e-22)
(-0.0309731841684 -0.0114576004186 6.15286006055e-24)
(-0.0277707217102 -0.00875338964633 1.99692126894e-23)
(-0.0316024565529 -0.017486780641 2.31826713375e-23)
(-0.0281701671507 -0.0146898258862 7.78031211441e-24)
(-0.0324604254371 -0.0238974859448 1.36477180438e-23)
(-0.0286954509112 -0.0210199453427 -1.63413096922e-23)
(-0.0336104242547 -0.0308337521504 7.89684791622e-24)
(-0.0294262257743 -0.0277868096123 -1.74099201239e-24)
(-0.0350684704151 -0.038452399572 -1.66169061477e-23)
(-0.0303814789268 -0.0351554021413 2.12935009122e-24)
(-0.0368473225075 -0.0469556558926 -4.35611152116e-23)
(-0.0315552853554 -0.0433093214336 -2.21786566678e-23)
(-0.0389782110248 -0.0565558930355 -4.18304589982e-23)
(-0.0329461834598 -0.0524605193089 -3.31388940179e-23)
(-0.0415199738504 -0.0675091263423 -3.38900793335e-23)
(-0.0345826039151 -0.062860624828 -5.66348549258e-23)
(-0.0445778113291 -0.0800811078303 -1.005316737e-23)
(-0.0365318017104 -0.074808996347 -2.03573433306e-23)
(-0.047997836044 -0.0944830020484 5.95845668603e-24)
(-0.0389611363165 -0.0882957902921 -3.08262015803e-24)
(-0.05227525528 -0.111843997665 5.08232618711e-23)
(-0.0409562132161 -0.104483576959 -4.62669057887e-23)
(-0.0581234944487 -0.131789076408 2.1240467151e-22)
(-0.0447040448311 -0.12388456976 8.83093282225e-23)
(-0.0660568860275 -0.154577405928 1.40998829865e-21)
(-0.0498903699275 -0.146218521861 -3.26759081004e-22)
(-0.0788442788642 -0.180102364819 1.88456831799e-21)
(-0.0576713825628 -0.173278796185 9.13124933309e-22)
(-0.100308895467 -0.207004658913 9.64379442297e-21)
(-0.0732433086815 -0.20447903025 2.81428660644e-21)
(-0.108447877379 -0.238529581396 9.63247724273e-21)
(-0.0974910395977 -0.268109103782 8.69688095421e-21)
(0.00796349145401 -0.295219327072 1.84336793894e-20)
(-0.0743773793627 -0.266524142972 -5.92696851898e-21)
(0.17782935673 -0.379203803393 3.79122299829e-20)
(0.167448340442 -0.33569994065 1.38917995295e-20)
(0.218195814312 -0.41336034315 3.67775211658e-20)
(-0.0240586140505 -0.00584685593772 1.04191403752e-22)
(-0.0203532588999 -0.0030438973128 1.63397669946e-22)
(-0.0249563233448 -0.0118396671961 2.15966647433e-23)
(-0.0217625984951 -0.00896986244935 -3.88208525193e-23)
(-0.0252664271124 -0.018084660207 -3.17436689153e-23)
(-0.0219105211838 -0.0150142227614 -3.61417929231e-23)
(-0.0256769979205 -0.0246981373727 -3.17300197484e-23)
(-0.0220687230608 -0.0214867159733 -5.61627632121e-23)
(-0.0262223385224 -0.0318312203797 -7.50848983739e-24)
(-0.0222828893303 -0.0283719541543 -4.13674727508e-23)
(-0.0268960332606 -0.0396592638575 -3.43240042881e-24)
(-0.0225489964242 -0.0358442325655 -1.04238939321e-25)
(-0.0276822127702 -0.0483840852318 -1.17564354741e-23)
(-0.0228369897828 -0.0440920416987 -1.84341621799e-23)
(-0.0285656594163 -0.0582442797727 -4.79432899454e-23)
(-0.0231107942213 -0.0533287418236 1.08785323861e-23)
(-0.0295400102917 -0.06956934303 -4.31021189228e-23)
(-0.0233103482633 -0.0638124999755 -3.87356043338e-23)
(-0.0306176492085 -0.0827976281482 -1.33867961186e-23)
(-0.0233931816348 -0.0758622220898 -4.62377155193e-23)
(-0.0318648248583 -0.0986762927605 -5.53079826327e-23)
(-0.0232140421325 -0.0895196866488 -9.10451288567e-24)
(-0.0334383726355 -0.11590937436 -8.78083943726e-24)
(-0.0238940322003 -0.106029669917 -1.05095910773e-22)
(-0.0356914086773 -0.137145056051 -4.50854424291e-22)
(-0.0236664829163 -0.12612231591 4.59095020493e-23)
(-0.0393196138203 -0.163405498481 -8.23622446346e-22)
(-0.0238343927268 -0.150140614205 -1.10806217275e-21)
(-0.0457377915068 -0.196319264397 1.84284322176e-21)
(-0.0249427776452 -0.180028922379 6.55406825469e-22)
(-0.0580525360173 -0.243925302755 1.86737313768e-21)
(-0.0257733156273 -0.219412293692 1.15067907609e-21)
(-0.0600072997317 -0.307666522774 -6.8625648075e-21)
(-0.0338135474451 -0.263772839152 1.19505974608e-20)
(0.0657328117031 -0.350929444264 -1.04688483789e-20)
(-0.0311283363304 -0.252783283426 -9.92585331304e-21)
(0.162295064228 -0.408478162042 1.27570907124e-20)
(0.224793045971 -0.332141691689 7.00395036974e-21)
(0.170428285721 -0.50041492349 3.45373690321e-20)
(-0.018076420492 -0.00586695413606 2.03854136753e-23)
(-0.0187558280596 -0.012021477566 -9.65593101857e-23)
(-0.0187877250303 -0.0183224324454 -6.056088722e-23)
(-0.0187620235603 -0.0249737565044 -6.58002162146e-23)
(-0.0187132126475 -0.0321296597083 -3.39632218527e-23)
(-0.0186169944858 -0.0399532164691 -1.51060006904e-23)
(-0.018423581652 -0.0486359706361 4.20080568022e-24)
(-0.0180697496343 -0.058406574838 2.00862179977e-23)
(-0.0174748357162 -0.0695329284303 -4.18712009303e-23)
(-0.0165372864728 -0.0823580782423 -4.19554322864e-23)
(-0.0154770885697 -0.0971851605023 -5.88924410263e-23)
(-0.0139829830383 -0.115404955596 -5.04055692868e-23)
(-0.0117716097442 -0.137254064354 -6.1129824641e-22)
(-0.00906494667482 -0.164378772346 3.70967099065e-22)
(-0.0056844816169 -0.199840737923 -3.67573202064e-23)
(-0.00301801716054 -0.245140450278 1.12339033992e-20)
(-0.00488213950383 -0.309787665538 8.88730895529e-21)
(0.132106596646 -0.363010510701 7.54694543559e-21)
(0.250991574657 -0.472078542854 2.87842286895e-20)
)
;

boundaryField
{
    back
    {
        type            calculated;
        value           uniform (0 0 0);
    }
    sides
    {
        type            calculated;
        value           nonuniform List<vector> 0();
    }
    bottom
    {
        type            calculated;
        value           uniform (0 0 0);
    }
    front
    {
        type            calculated;
        value           uniform (0 0 0);
    }
    atmosphere
    {
        type            calculated;
        value           nonuniform List<vector> 9((-1.87106738087 -4.11175796471 2.06078975893e-19) (0.558194443568 0.463399958172 -9.47874068139e-19) (0.996390450509 0.43621937056 4.39999005645e-19) (0.437030441984 -0.34949629845 4.28580982506e-19) (6.89697122116 -0.803148468381 -3.5184622959e-20) (-0.884214378481 -0.825807688105 -6.27494542059e-20) (-1.38353247736 -0.140035858954 -9.53255167286e-20) (0.126903235616 -0.360541399515 -4.05339599402e-20) (0.107659781435 -0.561260212977 7.21625078261e-21));
    }
    floatingObject
    {
        type            calculated;
        value           nonuniform List<vector> 0();
    }
    procBoundary0to1
    {
        type            processor;
        value           nonuniform List<vector> 10((-0.113351912166 -0.0257601860206 -8.59005513309e-23) (-0.128278921046 -0.0294600935654 9.28017542506e-23) (-0.146249013911 -0.033422757092 -3.9645003167e-23) (-0.167919911667 -0.0377465730449 -1.71656202238e-22) (-0.194444748399 -0.0428800263968 -2.50275958349e-21) (-0.226310181978 -0.0498569199173 -3.77495150142e-21) (-0.266049190709 -0.0380257294877 3.37342027046e-22) (-0.303797657839 -0.0236327093852 2.8055510307e-21) (-0.283166699126 -0.0754116438334 3.44653348634e-19) (-3.19964759095 -1.61987853879 1.01437576539e-18));
    }
    procBoundary0to2
    {
        type            processor;
        value           nonuniform List<vector> 
14
(
(-0.0821757661648 -0.0161636967248 3.59898044315e-24)
(-0.0907148911868 -0.0191165003504 1.93029587895e-23)
(-0.100989179821 -0.0223048593066 5.1366677032e-23)
(-0.066662652721 -0.0159693133582 8.9905136395e-24)
(-0.0771395450731 -0.0182173520155 4.25221660067e-24)
(-0.0720571634429 -0.0196427298938 5.70401845807e-24)
(-0.0503294680476 -0.0015279962041 3.71775097717e-22)
(-0.0522172127674 -0.00515584348858 9.32749948427e-23)
(-0.0627323396395 -0.0163691441551 2.62408039915e-23)
(-0.0587898540934 -0.0162945283454 4.31189045024e-23)
(-0.0510834017068 -0.00755203322625 -1.55787567849e-23)
(-0.0497140854872 -0.0103657747216 -5.17253470467e-23)
(-0.0552056592167 -0.0157581673747 3.97770667127e-23)
(-0.0516248035874 -0.0148195136077 -6.49625556575e-24)
)
;
    }
    procBoundary0to4
    {
        type            processor;
        value           nonuniform List<vector> 8((-0.0144641912644 -0.00310465062982 1.38573071724e-22) (-0.0155842260397 -0.00898993578402 -5.28610364065e-23) (-0.0155841577277 -0.0150578616228 -3.48280976025e-23) (-0.0153913533413 -0.0215173662478 -7.28789577091e-23) (-0.0151025823616 -0.0283640349416 -6.10580213797e-23) (-0.0147078362208 -0.035767678754 2.30339437171e-23) (-0.0141530661905 -0.0439033238157 -1.23907263461e-23) (-0.0133596085586 -0.0529685338647 2.24308076665e-23));
    }
    procBoundary0to5
    {
        type            processor;
        value           nonuniform List<vector> 
12
(
(-0.0122382807287 -0.0632037680924 -2.976542184e-23)
(-0.0106732183658 -0.0749091357896 -3.33096750095e-23)
(-0.00855392929541 -0.0884394551422 4.45869356911e-23)
(-0.00589460680767 -0.104516607607 -3.63374462861e-23)
(-0.00207176011994 -0.123905104339 1.02703877355e-22)
(0.00303195936297 -0.147824394465 -7.08836652659e-22)
(0.0102920841504 -0.176656417897 1.58288804827e-21)
(0.0193649362964 -0.219236995084 -3.94016791769e-23)
(0.0307615697374 -0.258265082451 4.3351537755e-21)
(0.0220742892771 -0.256302199007 -7.92384779017e-21)
(0.33347169193 -0.361955376582 2.41009116507e-21)
(0.259883348326 -0.564883926836 1.7542630309e-20)
)
;
    }
}


// ************************************************************************* //
