/*--------------------------------*- C++ -*----------------------------------*\
| =========                 |                                                 |
| \\      /  F ield         | OpenFOAM: The Open Source CFD Toolbox           |
|  \\    /   O peration     | Version:  v2012                                 |
|   \\  /    A nd           | Website:  www.openfoam.com                      |
|    \\/     M anipulation  |                                                 |
\*---------------------------------------------------------------------------*/
FoamFile
{
    version     2.0;
    format      ascii;
    class       volScalarField;
    location    "4.2";
    object      p;
}
// * * * * * * * * * * * * * * * * * * * * * * * * * * * * * * * * * * * * * //

dimensions      [1 -1 -2 0 0 0 0];


internalField   nonuniform List<scalar> 
166
(
4987.25541257
4498.96207007
4010.8790413
3523.01740379
3035.38615251
2548.01430369
2060.93617654
1574.19353132
1087.85412318
601.885914725
187.501491537
3.03573675053
-9.57670793045
5966.72247984
5478.24300451
4990.00346043
4502.02232672
4014.3178767
3526.91338986
3039.83816659
2553.13540023
2066.86724116
1581.11547169
1096.03151583
611.823979847
195.70245766
5.1398279904
-9.57033332856
8413.78913734
7924.37346535
6457.32935956
5968.77617678
5480.482153
4992.47017396
4504.76606617
4017.39835923
3530.4015103
3043.8200207
2557.71122751
2072.1497761
1587.23695006
1103.1715147
620.326040338
202.891099563
7.18016030083
-9.56962130469
8415.21877724
7925.82482965
7436.6449288
6947.69778962
6459.0002285
5970.57062152
5482.43212067
4994.61206049
4507.14237716
4020.06051121
3533.41082224
3047.24797252
2561.64088334
2076.66412028
1592.39042069
1108.94052017
626.485922769
208.883457996
9.04935098795
-9.58200454395
8416.43503704
7927.05973207
7437.91856424
6949.02841185
6460.40702475
5972.07535643
5484.05971679
4996.39143826
4509.10762148
4022.25271512
3535.87985119
3050.05280963
2564.8558094
2080.36853261
1596.63119593
1113.57503993
630.222987096
213.055014302
10.1820561444
-9.58736059113
8417.41862221
7928.05787398
7438.94376773
6950.09422663
6461.52769667
5973.26641705
5485.33838313
4997.77792003
4510.62649018
4023.93404361
3537.76070571
3052.17070647
2567.28863715
2083.22427046
1600.11124666
1118.30920089
636.564868341
216.813731633
10.7311076785
-9.6000686515
8418.15411029
7928.80488633
7439.70522703
6950.87957281
6462.3459047
5974.12595551
5486.24869404
4998.74969681
4511.6732351
4025.07404691
3539.02477357
3053.53097636
2568.83918778
2085.02060682
1602.25448755
1120.90392295
640.516950066
218.911336093
11.1000037592
-9.60399601575
8418.62732915
7929.29233148
7440.19184855
6951.37401261
6462.85099169
5974.64307073
5486.77867582
4999.29297227
4512.2293123
4025.64041624
3539.59120961
3054.15283487
2569.46592195
2085.66397863
1602.93542828
1121.52557263
641.597519081
219.077565469
11.0194039315
-9.60669304995
8418.85301436
7929.49684453
7440.39824262
6951.57438846
6463.04002216
5974.81536384
5486.92715239
4999.40845878
4512.29946914
4025.64926687
3539.51786511
3053.98171848
2569.15039398
2085.1515508
1602.16842293
1120.35475431
640.17692313
217.541388629
10.3621420941
-9.61127359176
)
;

boundaryField
{
    back
    {
        type            calculated;
        value           nonuniform List<scalar> 
166
(
4987.25541257
4498.96207007
4010.8790413
3523.01740379
3035.38615251
2548.01430369
2060.93617654
1574.19353132
1087.85412318
601.885914725
187.501491537
3.03573675053
-9.57670793045
5966.72247984
5478.24300451
4990.00346043
4502.02232672
4014.3178767
3526.91338986
3039.83816659
2553.13540023
2066.86724116
1581.11547169
1096.03151583
611.823979847
195.70245766
5.1398279904
-9.57033332856
8413.78913734
7924.37346535
6457.32935956
5968.77617678
5480.482153
4992.47017396
4504.76606617
4017.39835923
3530.4015103
3043.8200207
2557.71122751
2072.1497761
1587.23695006
1103.1715147
620.326040338
202.891099563
7.18016030083
-9.56962130469
8415.21877724
7925.82482965
7436.6449288
6947.69778962
6459.0002285
5970.57062152
5482.43212067
4994.61206049
4507.14237716
4020.06051121
3533.41082224
3047.24797252
2561.64088334
2076.66412028
1592.39042069
1108.94052017
626.485922769
208.883457996
9.04935098795
-9.58200454395
8416.43503704
7927.05973207
7437.91856424
6949.02841185
6460.40702475
5972.07535643
5484.05971679
4996.39143826
4509.10762148
4022.25271512
3535.87985119
3050.05280963
2564.8558094
2080.36853261
1596.63119593
1113.57503993
630.222987096
213.055014302
10.1820561444
-9.58736059113
8417.41862221
7928.05787398
7438.94376773
6950.09422663
6461.52769667
5973.26641705
5485.33838313
4997.77792003
4510.62649018
4023.93404361
3537.76070571
3052.17070647
2567.28863715
2083.22427046
1600.11124666
1118.30920089
636.564868341
216.813731633
10.7311076785
-9.6000686515
8418.15411029
7928.80488633
7439.70522703
6950.87957281
6462.3459047
5974.12595551
5486.24869404
4998.74969681
4511.6732351
4025.07404691
3539.02477357
3053.53097636
2568.83918778
2085.02060682
1602.25448755
1120.90392295
640.516950066
218.911336093
11.1000037592
-9.60399601575
8418.62732915
7929.29233148
7440.19184855
6951.37401261
6462.85099169
5974.64307073
5486.77867582
4999.29297227
4512.2293123
4025.64041624
3539.59120961
3054.15283487
2569.46592195
2085.66397863
1602.93542828
1121.52557263
641.597519081
219.077565469
11.0194039315
-9.60669304995
8418.85301436
7929.49684453
7440.39824262
6951.57438846
6463.04002216
5974.81536384
5486.92715239
4999.40845878
4512.29946914
4025.64926687
3539.51786511
3053.98171848
2569.15039398
2085.1515508
1602.16842293
1120.35475431
640.17692313
217.541388629
10.3621420941
-9.61127359176
)
;
    }
    sides
    {
        type            calculated;
        value           nonuniform List<scalar> 0();
    }
    bottom
    {
        type            calculated;
        value           nonuniform List<scalar> 7(8658.59741024 8660.02721286 8661.24347238 8662.22709003 8662.96270776 8663.43609522 8663.66192657);
    }
    front
    {
        type            calculated;
        value           nonuniform List<scalar> 
166
(
4987.25541257
4498.96207007
4010.8790413
3523.01740379
3035.38615251
2548.01430369
2060.93617654
1574.19353132
1087.85412318
601.885914725
187.501491537
3.03573675053
-9.57670793045
5966.72247984
5478.24300451
4990.00346043
4502.02232672
4014.3178767
3526.91338986
3039.83816659
2553.13540023
2066.86724116
1581.11547169
1096.03151583
611.823979847
195.70245766
5.1398279904
-9.57033332856
8413.78913734
7924.37346535
6457.32935956
5968.77617678
5480.482153
4992.47017396
4504.76606617
4017.39835923
3530.4015103
3043.8200207
2557.71122751
2072.1497761
1587.23695006
1103.1715147
620.326040338
202.891099563
7.18016030083
-9.56962130469
8415.21877724
7925.82482965
7436.6449288
6947.69778962
6459.0002285
5970.57062152
5482.43212067
4994.61206049
4507.14237716
4020.06051121
3533.41082224
3047.24797252
2561.64088334
2076.66412028
1592.39042069
1108.94052017
626.485922769
208.883457996
9.04935098795
-9.58200454395
8416.43503704
7927.05973207
7437.91856424
6949.02841185
6460.40702475
5972.07535643
5484.05971679
4996.39143826
4509.10762148
4022.25271512
3535.87985119
3050.05280963
2564.8558094
2080.36853261
1596.63119593
1113.57503993
630.222987096
213.055014302
10.1820561444
-9.58736059113
8417.41862221
7928.05787398
7438.94376773
6950.09422663
6461.52769667
5973.26641705
5485.33838313
4997.77792003
4510.62649018
4023.93404361
3537.76070571
3052.17070647
2567.28863715
2083.22427046
1600.11124666
1118.30920089
636.564868341
216.813731633
10.7311076785
-9.6000686515
8418.15411029
7928.80488633
7439.70522703
6950.87957281
6462.3459047
5974.12595551
5486.24869404
4998.74969681
4511.6732351
4025.07404691
3539.02477357
3053.53097636
2568.83918778
2085.02060682
1602.25448755
1120.90392295
640.516950066
218.911336093
11.1000037592
-9.60399601575
8418.62732915
7929.29233148
7440.19184855
6951.37401261
6462.85099169
5974.64307073
5486.77867582
4999.29297227
4512.2293123
4025.64041624
3539.59120961
3054.15283487
2569.46592195
2085.66397863
1602.93542828
1121.52557263
641.597519081
219.077565469
11.0194039315
-9.60669304995
8418.85301436
7929.49684453
7440.39824262
6951.57438846
6463.04002216
5974.81536384
5486.92715239
4999.40845878
4512.29946914
4025.64926687
3539.51786511
3053.98171848
2569.15039398
2085.1515508
1602.16842293
1120.35475431
640.17692313
217.541388629
10.3621420941
-9.61127359176
)
;
    }
    atmosphere
    {
        type            calculated;
        value           nonuniform List<scalar> 9(-9.81564142087 -9.81113380623 -9.81000949859 -9.8101019907 -9.81064363001 -9.81089461769 -9.81151048868 -9.81221769249 -9.81311888681);
    }
    floatingObject
    {
        type            calculated;
        value           nonuniform List<scalar> 0();
    }
    procBoundary0to1
    {
        type            processor;
        value           nonuniform List<scalar> 10(3518.75478401 3030.51427376 2542.41871293 2054.47494994 1566.69145276 1079.11774987 591.784692299 180.17967346 1.43377139798 -9.43340994048);
    }
    procBoundary0to2
    {
        type            processor;
        value           nonuniform List<scalar> 
14
(
4984.27184262
4495.62377637
4007.11972756
5964.45244291
5475.75668634
5475.75668634
8412.17467434
7922.73300423
6455.42964255
6455.42964255
7435.14748922
7435.14748922
6946.12747491
6946.12747491
)
;
    }
    procBoundary0to4
    {
        type            processor;
        value           nonuniform List<scalar> 8(8418.81110625 7929.44131439 7440.3287707 6951.48308688 6462.91680687 5974.64844885 5486.70206735 4999.106865);
    }
    procBoundary0to5
    {
        type            processor;
        value           nonuniform List<scalar> 
12
(
4511.89845564
4025.11896043
3538.81955045
3053.06594956
2567.94275176
2083.55140962
1600.04323457
1117.47243929
636.439101939
214.159786647
9.04908725639
-9.61356761729
)
;
    }
}


// ************************************************************************* //
