/*--------------------------------*- C++ -*----------------------------------*\
| =========                 |                                                 |
| \\      /  F ield         | OpenFOAM: The Open Source CFD Toolbox           |
|  \\    /   O peration     | Version:  v2012                                 |
|   \\  /    A nd           | Website:  www.openfoam.com                      |
|    \\/     M anipulation  |                                                 |
\*---------------------------------------------------------------------------*/
FoamFile
{
    version     2.0;
    format      ascii;
    class       surfaceVectorField;
    location    "4";
    object      ddtCorrDdt0(Uf);
}
// * * * * * * * * * * * * * * * * * * * * * * * * * * * * * * * * * * * * * //

dimensions      [0 1 -2 0 0 0 0];


internalField   nonuniform List<vector> 
305
(
(-0.0052739469891 0.00998600802879 -4.28383633637e-23)
(-0.00998959027674 0.00526334721693 4.69680328463e-23)
(-0.0053944694772 0.0202306129581 -1.80168546542e-23)
(-0.0102478292023 0.015157491917 -7.83325132688e-23)
(-0.00538989451436 0.0305115987346 1.0242068655e-22)
(-0.0102831841124 0.0254732474123 8.89091043284e-23)
(-0.00537671666405 0.0407705780222 1.12381242119e-22)
(-0.0102608855452 0.0357608045836 1.67893034468e-22)
(-0.00536343559497 0.0510092461275 5.65046542939e-23)
(-0.0102425342129 0.0460472181215 2.16415448622e-22)
(-0.00533201166787 0.0611692846964 -5.13637745631e-23)
(-0.010196693135 0.0563051019713 5.33083468551e-23)
(-0.00525736492208 0.071185540533 -2.12915932186e-22)
(-0.010093914091 0.0664711490718 -8.71827396431e-23)
(-0.00988197866781 0.0764707897961 -2.10703086123e-22)
(-0.0151917194221 0.0102200804005 1.14738829413e-23)
(-0.0202132322828 0.00539056050053 4.84209893332e-24)
(-0.0153392349715 0.0204831163719 2.85934457138e-23)
(-0.0205139108868 0.0152581664505 -3.23262047865e-24)
(-0.0153417584932 0.0307457615754 1.54381452247e-22)
(-0.0205479494377 0.0255693978874 5.51734524158e-23)
(-0.0153387266646 0.0410507827072 2.71927240972e-22)
(-0.0205678382068 0.0358815293326 1.97304697141e-22)
(-0.0153154426132 0.0513817476295 2.13219141184e-22)
(-0.0205780728475 0.0462316502986 2.44865122543e-22)
(-0.0152313956725 0.0616834226615 1.74893817751e-23)
(-0.0205331044506 0.0565966778841 1.32907419693e-22)
(-0.015022813523 0.0718812413065 -8.49698935805e-23)
(-0.0203744806618 0.0669312450572 -3.98137303454e-23)
(-0.0200032696557 0.0771629770331 -3.59278295828e-23)
(-0.02545689216 0.0102284969608 -9.86440448663e-24)
(-0.0304450721833 0.00537417427921 -8.29144869378e-23)
(-0.0256211020644 0.0204503234071 2.33473862234e-23)
(-0.0307383041498 0.0151970675366 -1.22138586205e-22)
(-0.0256810029686 0.0307197575284 9.80966973095e-23)
(-0.0308182825128 0.0255138822929 6.48099310507e-24)
(-0.0257310588558 0.0410587743211 1.70242578713e-22)
(-0.0309068587794 0.0358305780533 1.54136245777e-22)
(-0.0257389618904 0.0514625395171 1.64553401053e-22)
(-0.0309836344375 0.0462331093249 1.37806989546e-22)
(-0.0256504041614 0.0618923669082 7.56043075721e-23)
(-0.0309934515676 0.0567060846846 1.05996701216e-22)
(-0.0253803312225 0.0723099472102 9.22833365234e-24)
(-0.0308454687215 0.0672301432207 7.26945092805e-24)
(-0.0304520316145 0.0777601452632 -7.77207205577e-24)
(-0.0356775898606 0.0101521507057 -1.95188668656e-22)
(-0.0406003320587 0.00532813811092 -4.30407249478e-23)
(-0.0358923308283 0.0203441908141 -1.39004979323e-22)
(-0.0409320060321 0.0150901901295 -2.98164014237e-22)
(-0.0360209385745 0.0306141971978 6.25205415725e-23)
(-0.0410870771666 0.0253758261235 1.05256521695e-25)
(-0.0361561035792 0.0409787555222 1.21700656611e-22)
(-0.0412677166504 0.0356828526361 9.81399849609e-23)
(-0.0362567356556 0.0514577328747 7.92502897096e-23)
(-0.0414591273225 0.0461257593943 9.28526388149e-23)
(-0.0362518455368 0.0620451057492 3.76618445717e-23)
(-0.0415908603713 0.0567116928736 4.07204077947e-23)
(-0.0360402567512 0.072715798474 -9.73095478006e-24)
(-0.041576632148 0.0674454820575 1.47770538808e-23)
(-0.0354880268563 0.0834518226648 -3.21779885389e-23)
(-0.0412828040154 0.0783178941928 -3.548463575e-23)
(-0.0405737465268 0.0892705384479 -1.80814537698e-23)
(-0.0458128888303 0.0100544359078 -1.46016070528e-22)
(-0.0506576063126 0.00526975145846 2.06617359307e-23)
(-0.0460995859963 0.0201762314081 -1.59053778391e-22)
(-0.0510542155735 0.0149256477709 -2.22672303269e-22)
(-0.04632949861 0.0304073114395 3.57246999102e-23)
(-0.0513142077533 0.0251306633788 1.95580718072e-23)
(-0.0465919075318 0.0407767827467 6.92919671653e-23)
(-0.0516289524699 0.035404346219 6.20802044305e-23)
(-0.0468473439421 0.0513150604849 5.43227569e-23)
(-0.0519880202092 0.0458582324461 6.11134465123e-23)
(-0.0470190483231 0.0620544557157 1.78356171038e-23)
(-0.0523287152231 0.0565337117108 3.26935916693e-23)
(-0.0469945921687 0.073001631439 -1.09766270891e-23)
(-0.0525529799931 0.0674659975082 7.71373844474e-25)
(-0.0466329978734 0.0841427944923 -2.13881009808e-23)
(-0.0525281940601 0.078674184022 -1.44904314693e-23)
(-0.0457287422248 0.0954714877754 -3.20405901369e-24)
(-0.052099820974 0.0901646127753 -9.16165368664e-24)
(-0.0510355188566 0.101955021291 4.57856974096e-24)
(-0.0558452326957 0.00991097992756 -5.59944968102e-23)
(-0.0605708145898 0.00518973185672 2.37578606641e-23)
(-0.0562291273726 0.0199374991715 -4.40604530704e-23)
(-0.0610792937424 0.0146860226783 -9.03594023427e-23)
(-0.0565876593891 0.0300759734554 4.59135763275e-23)
(-0.0614451980928 0.024754201034 2.15842017944e-23)
(-0.0570296960815 0.040401381281 5.39016837775e-23)
(-0.0619408500822 0.0349441492548 7.31140053743e-23)
(-0.0575146338703 0.0509641005177 3.94842812815e-23)
(-0.0625352045335 0.0453598371813 6.72679337886e-23)
(-0.057965116571 0.0618233184285 1.562934841e-23)
(-0.0631793013841 0.0560768773847 2.61418237656e-23)
(-0.058266378805 0.0730188369594 -2.74243053573e-24)
(-0.0637633884848 0.0671617419245 7.99707437228e-24)
(-0.0582706709048 0.0845691353426 -2.26398417514e-24)
(-0.0641726616788 0.0786659833255 -3.6014746884e-24)
(-0.0577884689605 0.0965109072852 -1.37902493199e-24)
(-0.0642336890273 0.0906359523479 2.06868643894e-24)
(-0.0637362762382 0.103171058235 -5.87689155659e-24)
(-0.0657206827316 0.00970931990735 -1.06070448683e-23)
(-0.070280944081 0.00507452235068 4.19122781812e-23)
(-0.0662276789654 0.0195640929426 -2.47147474778e-23)
(-0.0709297393054 0.0143480351769 -6.9170789983e-23)
(-0.0667454521924 0.0295590598196 4.87846308413e-23)
(-0.0714280531928 0.0242150453492 2.69161620687e-23)
(-0.0674235614528 0.0397846278736 8.64802553854e-23)
(-0.0721464704406 0.0342446818288 8.05438647709e-23)
(-0.0682158915426 0.0503183991118 5.39254762727e-23)
(-0.0730462738968 0.0445529031977 7.76342776294e-23)
(-0.0690507739767 0.0612282716019 1.85095497279e-23)
(-0.0740738172684 0.055235943685 3.42728411853e-23)
(-0.0698191553165 0.0726059900785 7.1380302196e-24)
(-0.0751496051715 0.0663905920185 1.27416875718e-23)
(-0.0703802833494 0.0844992459846 7.3119592567e-25)
(-0.0761488697271 0.0781006318161 4.59489841938e-25)
(-0.0705540711532 0.096990481822 -2.42918018566e-24)
(-0.0769160923139 0.0904538995483 -3.90145862103e-24)
(-0.0772734811539 0.103609410826 -4.39875226333e-25)
(-0.0753669556529 0.00944222214836 -1.66514669335e-23)
(-0.0797212570774 0.00491713244925 -1.67969541141e-23)
(-0.0760216200404 0.0190422032987 -1.75398804365e-23)
(-0.080521063758 0.0138879781249 -1.18618434437e-22)
(-0.0767370433401 0.0288166821393 5.86753959983e-23)
(-0.081184365249 0.0234754324917 -1.09671507974e-23)
(-0.0777026603097 0.038862131397 7.16978870149e-23)
(-0.0821643730495 0.0332539439664 5.85496171506e-23)
(-0.078877706397 0.0492754438202 5.7981642542e-23)
(-0.0834282630497 0.0433606895833 6.15446910263e-23)
(-0.0801971153379 0.060152914766 2.85049790291e-23)
(-0.0849284106945 0.0539093951552 2.17304894064e-23)
(-0.0815679478551 0.0716036568271 6.0631471941e-24)
(-0.0866021346254 0.0650161175585 1.84411056548e-23)
(-0.0828661768693 0.0837155193917 -4.17316470477e-24)
(-0.0883383755966 0.0767980735248 4.30224832628e-25)
(-0.0839302375224 0.0966314343559 -1.91215366171e-24)
(-0.0900117027969 0.089381730102 -4.23649658005e-24)
(-0.0914681999679 0.102969026403 1.58431654132e-24)
(-0.0847077453973 0.00910003891427 -1.18763921618e-22)
(-0.0888149532559 0.00471367399333 -1.08613334935e-22)
(-0.0855266085916 0.0183520282371 -1.12045704798e-22)
(-0.0897583119019 0.0132899124229 -1.95472148203e-22)
(-0.0864711669163 0.027808283871 -1.10929296451e-23)
(-0.090614917629 0.0225034684483 -7.77176582343e-23)
(-0.0877704954846 0.0375728790682 4.83964211621e-23)
(-0.091892693148 0.0319257799807 3.21000444114e-23)
(-0.0893952888074 0.0477551818511 2.52935378907e-23)
(-0.0935702839794 0.0417160717616 4.92873073821e-23)
(-0.0912923459171 0.0584783628878 1.16666160321e-23)
(-0.0956199163773 0.0520037366091 6.7142540068e-24)
(-0.0933841953728 0.0698617850204 1.28081832934e-23)
(-0.097981369922 0.0629197215744 1.46699612322e-23)
(-0.0955727149291 0.082039858308 3.66892957348e-25)
(-0.100584227453 0.0746043162251 -7.04521774038e-25)
(-0.0977293163768 0.0951649098329 -7.40026377024e-25)
(-0.103316470891 0.0872164468194 -1.1317259066e-23)
(-0.106077566496 0.100993282644 -2.86295320628e-24)
(-0.0936480083518 0.00865512896686 -1.8532156152e-22)
(-0.0974574806038 0.00446370991934 -7.70419810887e-23)
(-0.0946403812137 0.0174642817902 -1.61144101639e-22)
(-0.098545007256 0.0125443545659 -2.05873294517e-22)
(-0.0958422634185 0.0264998521975 -3.45246841778e-23)
(-0.0996159755901 0.0212705056791 -6.48922725444e-23)
(-0.0975128824914 0.035867716302 3.29909306314e-23)
(-0.101215047598 0.0302229564204 3.14011095894e-23)
(-0.0996388698142 0.0456935570236 3.07080234982e-23)
(-0.103346619425 0.039568362985 4.06495004226e-23)
(-0.102186682167 0.0561071344176 9.71759920688e-24)
(-0.105994497481 0.049446405043 2.13427092095e-23)
(-0.105098869845 0.0672592837643 1.15725616475e-24)
(-0.109122471457 0.0600021433083 -1.17093873506e-25)
(-0.108303515884 0.0792897033735 -1.23886737974e-23)
(-0.112679985349 0.0713933568463 -3.59634913297e-24)
(-0.111709477565 0.0924126455601 -1.34401858953e-23)
(-0.116603405121 0.0838018473976 -7.4007960082e-24)
(-0.120806424091 0.0974782735156 1.98071843542e-23)
(-0.102083860009 0.00808802086784 -9.75937140859e-23)
(-0.105525227816 0.00416093011211 5.20659165993e-23)
(-0.103262774636 0.0163617255008 -1.09621465422e-22)
(-0.106787600337 0.0116388094787 -1.08347179925e-22)
(-0.104739203314 0.024864273114 1.03352122275e-24)
(-0.108074900928 0.01976035821 -1.37102807179e-23)
(-0.106806347915 0.0337090448136 3.90596793806e-23)
(-0.110005325883 0.028120065344 3.31033144774e-23)
(-0.109467438862 0.0430342799799 3.12841861339e-23)
(-0.112614675713 0.0368827342269 3.60478851124e-23)
(-0.112712788119 0.0529763674841 1.15080161291e-23)
(-0.115890528393 0.0461903327417 2.02826787981e-23)
(-0.116512056386 0.063695521384 -4.87069917122e-24)
(-0.119826574253 0.0561975672114 1.07295300307e-23)
(-0.120824499095 0.0753634097114 1.39152865626e-24)
(-0.124403558121 0.0670747068799 -6.70779017508e-24)
(-0.125597464699 0.0881841196415 2.58465742413e-23)
(-0.129592386298 0.0790194433533 7.68595885147e-24)
(-0.135372451304 0.0922896148418 3.8688253401e-23)
(-0.109907691445 0.00743836683528 4.131245076e-23)
(-0.112935362977 0.00380292399369 8.03661331154e-23)
(-0.111277749062 0.015043964414 -1.24359952208e-23)
(-0.11435394661 0.0105679429944 -1.11610935006e-22)
(-0.113031809667 0.0228802133299 1.83595125367e-23)
(-0.115859512492 0.0179698674699 -5.17046546286e-23)
(-0.115506754917 0.0310765225217 3.00915202092e-23)
(-0.118140004557 0.0256059458698 6.4408338998e-24)
(-0.118722020508 0.0397457937498 2.50463777766e-23)
(-0.121220692887 0.0336400527368 5.21180710262e-23)
(-0.122690224125 0.0490398767289 1.95041926998e-23)
(-0.125135319978 0.0422099289112 1.51237320709e-23)
(-0.127407047817 0.0591222534926 8.89243902687e-24)
(-0.129889982926 0.051475071407 1.43058967888e-23)
(-0.132871249146 0.0701646142287 -4.13359979867e-25)
(-0.135503797159 0.0616060004448 8.44484487302e-24)
(-0.139080913237 0.0824046893932 2.05276380112e-23)
(-0.141984147808 0.0728029609667 1.68471493181e-23)
(-0.149358810209 0.0853443463708 1.08426655728e-23)
(-0.117006663649 0.00666448570213 -7.25572526503e-23)
(-0.119565106731 0.00339113876394 3.80788786202e-23)
(-0.118565184449 0.0134982901217 -1.50879594414e-22)
(-0.121142669853 0.00933531382312 -2.3210662772e-22)
(-0.120593471813 0.0205587861766 -6.36233332655e-23)
(-0.122863199295 0.0159020545525 -1.54777457561e-22)
(-0.123473095453 0.0279589956774 2.84673847168e-23)
(-0.125474333989 0.022684191544 -3.73232647038e-23)
(-0.127238992709 0.0358163320594 4.21954253205e-23)
(-0.129012533912 0.0298450273953 4.13789441393e-23)
(-0.131923599372 0.0442804326752 9.92543615985e-24)
(-0.133548230805 0.0375125632708 2.59603423464e-23)
(-0.137558083391 0.0535096198751 1.38583026349e-23)
(-0.139101354383 0.0458361938373 2.53157145237e-23)
(-0.144174573789 0.0636838625284 2.5705354171e-23)
(-0.145729745952 0.0549878400283 1.15562346227e-23)
(-0.15181620793 0.0750234986085 7.16217687972e-24)
(-0.153488925566 0.0651582015796 2.18139270784e-23)
(-0.162423772846 0.0766219689076 -6.07079792978e-24)
(-0.123277118218 0.00579959186293 -1.21470496449e-22)
(-0.125326790905 0.00292894641952 -2.71908528274e-23)
(-0.125014748364 0.011750754145 -2.36004490867e-22)
(-0.1270470086 0.00795043950806 -2.63895255933e-22)
(-0.127305394519 0.0179060471759 -1.28477388999e-22)
(-0.128960581841 0.0135697534116 -1.78356980977e-22)
(-0.130565988252 0.0243734641502 -2.44117052813e-23)
(-0.13187591277 0.0193781422608 -7.95176084775e-23)
(-0.134853807027 0.0312748013684 2.51438611653e-23)
(-0.135849817336 0.0255266233542 -6.21142186869e-24)
(-0.140224131477 0.038727574158 4.13506207103e-23)
(-0.140955172233 0.0321307012969 2.03249602151e-23)
(-0.146732588851 0.0469013256725 2.30136465115e-23)
(-0.147262216838 0.0393266871228 2.75523693881e-23)
(-0.154449777287 0.0559377253169 7.66480753009e-24)
(-0.154822014434 0.0472731274905 -5.39014192602e-24)
(-0.16346782021 0.0660714443956 8.58095226888e-24)
(-0.163760391694 0.0561415560762 1.62901253443e-23)
(-0.174201093709 0.0661905417474 1.68388672949e-23)
(-0.128625310568 0.00482015161332 -1.69615612311e-22)
(-0.130110660472 0.0024207936202 -3.09956442626e-23)
(-0.130523223306 0.00979197172658 -2.06247746043e-22)
(-0.131975552953 0.0064300056232 -1.5742823381e-22)
(-0.13304703871 0.0149409975058 -1.29397200455e-22)
(-0.13405609589 0.0110019138781 -1.00900714522e-22)
(-0.13665027658 0.0203577788958 -6.13173250649e-23)
(-0.137232844616 0.0157274798488 -6.460331116e-23)
(-0.141408291055 0.0261510216296 -1.10303228189e-23)
(-0.14158894345 0.0207395030408 -1.43741120936e-23)
(-0.147394800554 0.0324329128957 6.52670889292e-24)
(-0.147191507278 0.026137782875 5.64451621762e-24)
(-0.154694211228 0.0393396560981 -8.51419049444e-25)
(-0.154126222573 0.0320329381531 1.34639579422e-23)
(-0.163418139133 0.0470114721179 3.23517588815e-24)
(-0.162534042734 0.0385553299064 -2.18009973266e-24)
(-0.173698707954 0.0556372071526 2.45480403703e-23)
(-0.172544060606 0.0458638416662 1.43036418778e-23)
(-0.184296516626 0.0541824049649 3.68236592052e-23)
(-0.132957867833 0.00377099250683 -1.88082657611e-23)
(-0.133855300846 0.00187225457467 2.04617094056e-22)
(-0.134998407389 0.00766355437991 -5.20812022883e-23)
(-0.135832528229 0.00479427646419 4.52549502379e-23)
(-0.137717366878 0.0117077793112 -3.61068252262e-23)
(-0.138055861941 0.00823801621924 2.38116639524e-23)
(-0.141603560275 0.0159693038248 -1.76600981886e-23)
(-0.141448644739 0.0117937081384 -5.05634929342e-24)
(-0.146746918001 0.0205373806712 2.30072694294e-24)
(-0.146072524358 0.0155697277321 -2.10213165909e-23)
(-0.153253158187 0.0255026931953 1.25817652669e-23)
(-0.152076690678 0.019631245096 1.68456502818e-23)
(-0.161224625629 0.0309478670071 1.2135277259e-23)
(-0.159563491982 0.0240714210295 1.61783620901e-23)
(-0.170806617461 0.0370204968918 8.88836625695e-24)
(-0.182178256833 0.0438996603869 2.65792607127e-23)
(-0.136205435031 0.00266109482992 2.68680310055e-22)
(-0.136501576992 0.00129752858991 3.97951274914e-22)
(-0.138355268276 0.00541130653135 1.21147816479e-22)
(-0.138563840893 0.00307593515747 1.70717131362e-22)
(-0.14121378366 0.00826540034404 5.48621398852e-23)
(-0.140880374762 0.00533366557268 1.09371562935e-22)
(-0.145307400867 0.0113052303519 -8.41756769572e-24)
(-0.144383987098 0.00764884740923 4.60704516338e-23)
(-0.150749793046 0.0145301842581 -6.47639325204e-24)
(-0.149241541575 0.0100965392503 1.17285450649e-23)
(-0.157651886891 0.0180338974352 2.0442247105e-23)
(-0.138316722201 0.00148980930964 2.99988096221e-22)
(-0.140532691453 0.00306001696704 1.58940877819e-22)
(-0.143471132657 0.00470322228263 1.00579874684e-22)
(-0.142462956492 0.00234657375028 8.37186221794e-23)
(-0.147688725066 0.00639976719205 6.62165643943e-23)
(-0.146056922694 0.00337305173368 6.5602512097e-23)
(-0.144458876077 0.00104362810204 4.87412595925e-23)
)
;

boundaryField
{
    back
    {
        type            calculated;
        value           uniform (0 0 0);
    }
    sides
    {
        type            calculated;
        value           uniform (0 0 0);
    }
    bottom
    {
        type            calculated;
        value           uniform (0 0 0);
    }
    front
    {
        type            calculated;
        value           uniform (0 0 0);
    }
    atmosphere
    {
        type            calculated;
        value           nonuniform List<vector> 0();
    }
    floatingObject
    {
        type            calculated;
        value           nonuniform List<vector> 0();
    }
    procBoundary2to0
    {
        type            processor;
        value           nonuniform List<vector> 
14
(
(-0.168639885296 0.0289837442618 5.291887512e-23)
(-0.179495128696 0.034503086258 9.96624297262e-24)
(-0.192379205668 0.0408035582822 3.47151416858e-23)
(-0.15553038245 0.0127222906385 1.97645262052e-23)
(-0.166144622754 0.0218959412104 5.69619599511e-23)
(-0.163362353753 0.0155810597662 6.69688695632e-24)
(-0.137998319104 0.000706344643884 3.01393133516e-22)
(-0.140123499122 0.00131551847545 9.79139018451e-23)
(-0.153302682887 0.00822300497021 3.79694645221e-23)
(-0.150974041989 0.00443994849547 6.09431290142e-23)
(-0.141505188368 0.000681065725626 2.26916462057e-23)
(-0.142823700613 -0.000657445303736 -1.71704045186e-23)
(-0.148695187639 0.001422798596 6.03290767169e-23)
(-0.146370534339 -0.000928843673323 3.77377950746e-23)
)
;
    }
    procBoundary2to1
    {
        type            processor;
        value           nonuniform List<vector> 
18
(
(-0.0051166058177 0.0809577696125 -2.49085115342e-22)
(-0.0146255297483 0.0818952290914 -4.41180357712e-23)
(-0.0248208194698 0.0826086081366 -2.10877059082e-24)
(-0.0296409432012 0.0881908277691 -2.65146870739e-23)
(-0.0344202883362 0.0940647204024 3.71663547529e-23)
(-0.0391697712461 0.100265275222 5.2043749509e-23)
(-0.0440311088089 0.106936156206 4.04294494348e-24)
(-0.0565544793948 0.108945480319 7.10473827578e-25)
(-0.0701011997465 0.110269633343 -3.96490812183e-24)
(-0.0845560423705 0.110568914685 2.00686487687e-23)
(-0.0996902756181 0.109531367916 1.64491278321e-24)
(-0.1152094669 0.106897613235 5.74721895861e-24)
(-0.130772577844 0.102523126161 3.1347460812e-23)
(-0.146015117573 0.0961554924787 8.73048687648e-24)
(-0.160531888047 0.0878708928902 4.30525616702e-25)
(-0.173898161005 0.0776212614954 6.1140288321e-24)
(-0.185707155722 0.0655422702382 -2.01963574445e-23)
(-0.195565200214 0.0517872928846 -3.40942455479e-23)
)
;
    }
}


// ************************************************************************* //
