/*--------------------------------*- C++ -*----------------------------------*\
| =========                 |                                                 |
| \\      /  F ield         | OpenFOAM: The Open Source CFD Toolbox           |
|  \\    /   O peration     | Version:  v2012                                 |
|   \\  /    A nd           | Website:  www.openfoam.com                      |
|    \\/     M anipulation  |                                                 |
\*---------------------------------------------------------------------------*/
FoamFile
{
    version     2.0;
    format      ascii;
    class       volScalarField;
    location    "4";
    object      epsilon;
}
// * * * * * * * * * * * * * * * * * * * * * * * * * * * * * * * * * * * * * //

dimensions      [0 2 -3 0 0 0 0];


internalField   nonuniform List<scalar> 
167
(
0.000769822852663
0.000864842904417
0.000926838413614
0.000951192074271
0.000963192314508
0.000971417156945
0.000978656182437
0.000985868346628
0.000868611800058
0.000890466175013
0.000968630333372
0.0009985437171
0.00101195625317
0.00102006292039
0.00102665382328
0.00103306549054
0.000934581282905
0.000974388239729
0.00106552541536
0.00110023948023
0.00111524979798
0.00112390541722
0.00113080785126
0.00113751873594
0.000961350194457
0.00100821471387
0.00110488415206
0.00114160792394
0.00115713813255
0.00116584110661
0.00117270577557
0.00117943519886
0.00118691797386
0.000974136175436
0.00102343213851
0.00112239936297
0.00115985530482
0.00117541829964
0.00118393898422
0.00119060378198
0.00119718014893
0.00120459127063
0.00121430511362
0.000982036420754
0.00103191211853
0.00113187628175
0.00116952768089
0.00118492417905
0.00119316728112
0.00119955854039
0.00120589812015
0.00121310369888
0.00122260896373
0.000988236736469
0.00103803866428
0.00113849806907
0.00117614810097
0.00119131557193
0.00119925877049
0.00120535283637
0.00121141746093
0.0012183581768
0.00122755450522
0.000993860450185
0.00104333340689
0.00114412792769
0.00118173355811
0.00119667664168
0.00120433429719
0.00121013568634
0.00121591990285
0.0012225783951
0.0012314287824
0.000999213277642
0.00104832412152
0.00114941191434
0.00118698181543
0.00120172876269
0.00120913261633
0.00121466529359
0.0012201813565
0.00122655623605
0.00123505380418
0.00100439965144
0.00105315946986
0.00115454950684
0.00119211175633
0.00120669719543
0.00121387896288
0.0012191741954
0.00122444438497
0.00123055369833
0.00123870821925
0.00100946243546
0.00105783770809
0.00115957666876
0.00119717028391
0.00121163315395
0.00121862758411
0.00122371398554
0.00122876597662
0.00123462946549
0.00124245951063
0.00101437492735
0.00106242161441
0.00116450344101
0.00120215436095
0.00121652871787
0.00122337058023
0.00122827891152
0.00123313892897
0.00123878431203
0.00124630942503
0.00101909140042
0.00106683420189
0.00116930819809
0.00120705002306
0.00122136452087
0.0012280844511
0.00123284509766
0.00123754032122
0.00124298971894
0.00125023691154
0.00102364286225
0.00107111838295
0.00117397915404
0.00121183122841
0.0012261156739
0.00123274086179
0.00123738197602
0.00124194230949
0.00124722399019
0.00125421367793
0.00102802823271
0.00107518564071
0.00117848156577
0.00121647906476
0.00123076018064
0.00123731712594
0.00124186148823
0.00124631310821
0.00125145522914
0.00125822446101
0.00103223097433
0.00107909384239
0.00118280930441
0.00122097229259
0.00123527226183
0.00124178795067
0.00124626466196
0.00125063191285
0.00125567271953
0.0012622454699
0.00103623388486
0.00108282288403
0.00118695207433
0.00122528672722
0.00123963795844
0.00124613632757
0.0012505704166
0.00104004225752
0.00108632114209
0.00119088624727
0.00122942509349
0.00124383596741
0.00119462114189
0.00123336549335
)
;

boundaryField
{
    back
    {
        lowReCorrection 0;
        blending        stepwise;
        n               2;
        type            epsilonWallFunction;
        value           nonuniform List<scalar> 
167
(
0.000769822852663
0.000864842904417
0.000926838413614
0.000951192074271
0.000963192314508
0.000971417156945
0.000978656182437
0.000985868346628
0.000868611800058
0.000890466175013
0.000968630333372
0.0009985437171
0.00101195625317
0.00102006292039
0.00102665382328
0.00103306549054
0.000934581282905
0.000974388239729
0.00106552541536
0.00110023948023
0.00111524979798
0.00112390541722
0.00113080785126
0.00113751873594
0.000961350194457
0.00100821471387
0.00110488415206
0.00114160792394
0.00115713813255
0.00116584110661
0.00117270577557
0.00117943519886
0.00118691797386
0.000974136175436
0.00102343213851
0.00112239936297
0.00115985530482
0.00117541829964
0.00118393898422
0.00119060378198
0.00119718014893
0.00120459127063
0.00121430511362
0.000982036420754
0.00103191211853
0.00113187628175
0.00116952768089
0.00118492417905
0.00119316728112
0.00119955854039
0.00120589812015
0.00121310369888
0.00122260896373
0.000988236736469
0.00103803866428
0.00113849806907
0.00117614810097
0.00119131557193
0.00119925877049
0.00120535283637
0.00121141746093
0.0012183581768
0.00122755450522
0.000993860450185
0.00104333340689
0.00114412792769
0.00118173355811
0.00119667664168
0.00120433429719
0.00121013568634
0.00121591990285
0.0012225783951
0.0012314287824
0.000999213277642
0.00104832412152
0.00114941191434
0.00118698181543
0.00120172876269
0.00120913261633
0.00121466529359
0.0012201813565
0.00122655623605
0.00123505380418
0.00100439965144
0.00105315946986
0.00115454950684
0.00119211175633
0.00120669719543
0.00121387896288
0.0012191741954
0.00122444438497
0.00123055369833
0.00123870821925
0.00100946243546
0.00105783770809
0.00115957666876
0.00119717028391
0.00121163315395
0.00121862758411
0.00122371398554
0.00122876597662
0.00123462946549
0.00124245951063
0.00101437492735
0.00106242161441
0.00116450344101
0.00120215436095
0.00121652871787
0.00122337058023
0.00122827891152
0.00123313892897
0.00123878431203
0.00124630942503
0.00101909140042
0.00106683420189
0.00116930819809
0.00120705002306
0.00122136452087
0.0012280844511
0.00123284509766
0.00123754032122
0.00124298971894
0.00125023691154
0.00102364286225
0.00107111838295
0.00117397915404
0.00121183122841
0.0012261156739
0.00123274086179
0.00123738197602
0.00124194230949
0.00124722399019
0.00125421367793
0.00102802823271
0.00107518564071
0.00117848156577
0.00121647906476
0.00123076018064
0.00123731712594
0.00124186148823
0.00124631310821
0.00125145522914
0.00125822446101
0.00103223097433
0.00107909384239
0.00118280930441
0.00122097229259
0.00123527226183
0.00124178795067
0.00124626466196
0.00125063191285
0.00125567271953
0.0012622454699
0.00103623388486
0.00108282288403
0.00118695207433
0.00122528672722
0.00123963795844
0.00124613632757
0.0012505704166
0.00104004225752
0.00108632114209
0.00119088624727
0.00122942509349
0.00124383596741
0.00119462114189
0.00123336549335
)
;
    }
    sides
    {
        lowReCorrection 0;
        blending        stepwise;
        n               2;
        type            epsilonWallFunction;
        value           nonuniform List<scalar> 8(0.000769822852663 0.000864842904417 0.000926838413614 0.000951192074271 0.000963192314508 0.000971417156945 0.000978656182437 0.000985868346628);
    }
    bottom
    {
        lowReCorrection 0;
        blending        stepwise;
        n               2;
        type            epsilonWallFunction;
        value           nonuniform List<scalar> 
18
(
0.000769822852663
0.000868611800058
0.000934581282905
0.000961350194457
0.000974136175436
0.000982036420754
0.000988236736469
0.000993860450185
0.000999213277642
0.00100439965144
0.00100946243546
0.00101437492735
0.00101909140042
0.00102364286225
0.00102802823271
0.00103223097433
0.00103623388486
0.00104004225752
)
;
    }
    front
    {
        lowReCorrection 0;
        blending        stepwise;
        n               2;
        type            epsilonWallFunction;
        value           nonuniform List<scalar> 
167
(
0.000769822852663
0.000864842904417
0.000926838413614
0.000951192074271
0.000963192314508
0.000971417156945
0.000978656182437
0.000985868346628
0.000868611800058
0.000890466175013
0.000968630333372
0.0009985437171
0.00101195625317
0.00102006292039
0.00102665382328
0.00103306549054
0.000934581282905
0.000974388239729
0.00106552541536
0.00110023948023
0.00111524979798
0.00112390541722
0.00113080785126
0.00113751873594
0.000961350194457
0.00100821471387
0.00110488415206
0.00114160792394
0.00115713813255
0.00116584110661
0.00117270577557
0.00117943519886
0.00118691797386
0.000974136175436
0.00102343213851
0.00112239936297
0.00115985530482
0.00117541829964
0.00118393898422
0.00119060378198
0.00119718014893
0.00120459127063
0.00121430511362
0.000982036420754
0.00103191211853
0.00113187628175
0.00116952768089
0.00118492417905
0.00119316728112
0.00119955854039
0.00120589812015
0.00121310369888
0.00122260896373
0.000988236736469
0.00103803866428
0.00113849806907
0.00117614810097
0.00119131557193
0.00119925877049
0.00120535283637
0.00121141746093
0.0012183581768
0.00122755450522
0.000993860450185
0.00104333340689
0.00114412792769
0.00118173355811
0.00119667664168
0.00120433429719
0.00121013568634
0.00121591990285
0.0012225783951
0.0012314287824
0.000999213277642
0.00104832412152
0.00114941191434
0.00118698181543
0.00120172876269
0.00120913261633
0.00121466529359
0.0012201813565
0.00122655623605
0.00123505380418
0.00100439965144
0.00105315946986
0.00115454950684
0.00119211175633
0.00120669719543
0.00121387896288
0.0012191741954
0.00122444438497
0.00123055369833
0.00123870821925
0.00100946243546
0.00105783770809
0.00115957666876
0.00119717028391
0.00121163315395
0.00121862758411
0.00122371398554
0.00122876597662
0.00123462946549
0.00124245951063
0.00101437492735
0.00106242161441
0.00116450344101
0.00120215436095
0.00121652871787
0.00122337058023
0.00122827891152
0.00123313892897
0.00123878431203
0.00124630942503
0.00101909140042
0.00106683420189
0.00116930819809
0.00120705002306
0.00122136452087
0.0012280844511
0.00123284509766
0.00123754032122
0.00124298971894
0.00125023691154
0.00102364286225
0.00107111838295
0.00117397915404
0.00121183122841
0.0012261156739
0.00123274086179
0.00123738197602
0.00124194230949
0.00124722399019
0.00125421367793
0.00102802823271
0.00107518564071
0.00117848156577
0.00121647906476
0.00123076018064
0.00123731712594
0.00124186148823
0.00124631310821
0.00125145522914
0.00125822446101
0.00103223097433
0.00107909384239
0.00118280930441
0.00122097229259
0.00123527226183
0.00124178795067
0.00124626466196
0.00125063191285
0.00125567271953
0.0012622454699
0.00103623388486
0.00108282288403
0.00118695207433
0.00122528672722
0.00123963795844
0.00124613632757
0.0012505704166
0.00104004225752
0.00108632114209
0.00119088624727
0.00122942509349
0.00124383596741
0.00119462114189
0.00123336549335
)
;
    }
    atmosphere
    {
        type            inletOutlet;
        inletValue      nonuniform List<scalar> 0();
        value           nonuniform List<scalar> 0();
    }
    floatingObject
    {
        lowReCorrection 0;
        blending        stepwise;
        n               2;
        type            epsilonWallFunction;
        value           nonuniform List<scalar> 0();
    }
    procBoundary2to0
    {
        type            processor;
        value           nonuniform List<scalar> 
14
(
0.00125487918976
0.00125983391539
0.00126626238425
0.001250340237
0.00125487918976
0.00125475851933
0.00104358268187
0.00108961812021
0.001250340237
0.00124785743038
0.00108961812021
0.00119814027701
0.00124785743038
0.00123710174673
)
;
    }
    procBoundary2to1
    {
        type            processor;
        value           nonuniform List<scalar> 
18
(
0.000993566528719
0.00104000229571
0.00114490597843
0.00114490597843
0.00119669977005
0.00119669977005
0.00122993944907
0.00123786106562
0.00124231570337
0.00124564494758
0.00124871738363
0.00125181848303
0.0012550422027
0.00125838149591
0.001261815463
0.00126530779279
0.0012688545912
0.00127248273165
)
;
    }
}


// ************************************************************************* //
