/*--------------------------------*- C++ -*----------------------------------*\
| =========                 |                                                 |
| \\      /  F ield         | OpenFOAM: The Open Source CFD Toolbox           |
|  \\    /   O peration     | Version:  v2012                                 |
|   \\  /    A nd           | Website:  www.openfoam.com                      |
|    \\/     M anipulation  |                                                 |
\*---------------------------------------------------------------------------*/
FoamFile
{
    version     2.0;
    format      ascii;
    class       surfaceScalarField;
    location    "4";
    object      phi;
}
// * * * * * * * * * * * * * * * * * * * * * * * * * * * * * * * * * * * * * //

dimensions      [0 3 -1 0 0 0 0];
oriented        oriented;


internalField   nonuniform List<scalar> 
305
(
1.28707175932e-05
-1.28718664285e-05
2.40826637439e-05
-1.12131584895e-05
3.4609649813e-05
-1.05280980087e-05
4.51153095029e-05
-1.05065671533e-05
5.57646894986e-05
-1.0650020568e-05
6.65603255372e-05
-1.07959845256e-05
7.74372864186e-05
-1.087696145e-05
-1.09500001324e-05
1.107811695e-05
-2.39512128612e-05
2.18669710275e-05
-2.20032435662e-05
3.24803154779e-05
-2.11425290428e-05
4.29235606529e-05
-2.0950652601e-05
5.32982463564e-05
-2.10252436151e-05
6.36672731407e-05
-2.11652439854e-05
7.40682079328e-05
-2.12778063229e-05
-2.1384819287e-05
1.02668047306e-05
-3.42192108892e-05
2.07578148634e-05
-3.24954107097e-05
3.11467711275e-05
-3.15324677473e-05
4.13820526128e-05
-3.11866497915e-05
5.15166850962e-05
-3.11602753337e-05
6.1610442881e-05
-3.12590931595e-05
7.17267779477e-05
-3.13938951294e-05
-3.15073808563e-05
1.0123549902e-05
-4.43438427838e-05
2.03693660603e-05
-4.27422407895e-05
3.05063511176e-05
-4.16702688809e-05
4.05511121441e-05
-4.12319459593e-05
5.05230434619e-05
-4.11324248193e-05
6.04765439619e-05
-4.12125356672e-05
7.04067399248e-05
-4.13238243206e-05
8.03518511674e-05
-4.14519564161e-05
-4.15833430914e-05
1.01805711356e-05
-5.45253379152e-05
2.03159102464e-05
-5.2878406791e-05
3.03050870388e-05
-5.16600562739e-05
4.02081533725e-05
-5.11353342094e-05
5.00915376231e-05
-5.10158259966e-05
5.99498604785e-05
-5.10706246366e-05
6.98074223587e-05
-5.11810183298e-05
7.96669706362e-05
-5.13111423294e-05
8.9494334355e-05
-5.14104207211e-05
-5.15212606886e-05
1.0271276663e-05
-6.47973530424e-05
2.02975322985e-05
-6.29052790603e-05
3.02251038523e-05
-6.15880163599e-05
4.00742034311e-05
-6.09845365869e-05
4.99072391903e-05
-6.08486858898e-05
5.97119854544e-05
-6.08749895979e-05
6.95294258018e-05
-6.09980054546e-05
7.93260952298e-05
-6.11075035234e-05
8.91160357633e-05
-6.12003209849e-05
-6.12516856462e-05
1.03281450595e-05
-7.51260392366e-05
2.03191640868e-05
-7.28966996376e-05
3.01975913306e-05
-7.14666148008e-05
4.00013142267e-05
-7.07881592859e-05
4.97792593207e-05
-7.06262888729e-05
5.95932521457e-05
-7.06884956852e-05
6.93832803611e-05
-7.07875467751e-05
7.91666812271e-05
-7.08906570737e-05
8.89497164301e-05
-7.09834994136e-05
-7.09634493248e-05
1.03316664786e-05
-8.54580519167e-05
2.03176196711e-05
-8.28828506238e-05
3.01555778797e-05
-8.13045488575e-05
3.99282797595e-05
-8.05605913802e-05
4.96858632828e-05
-8.03834044957e-05
5.94697731928e-05
-8.04718538252e-05
6.92671435687e-05
-8.05844332968e-05
7.90768024963e-05
-8.07001450785e-05
8.88415624806e-05
-8.0748565146e-05
-8.0695198545e-05
1.02793159334e-05
-9.57375341256e-05
2.02705663564e-05
-9.28741196749e-05
3.00840363012e-05
-9.11178338075e-05
3.98303134823e-05
-9.03064725392e-05
4.95814795508e-05
-9.01340241839e-05
5.93401086607e-05
-9.02299080264e-05
6.9155314133e-05
-9.0399186851e-05
7.89730867406e-05
-9.05178301439e-05
8.88330743462e-05
-9.06090017008e-05
-9.05049022878e-05
1.02148208554e-05
-0.000105952367372
2.0189144009e-05
-0.000102848317313
2.99636175332e-05
-0.000100892003724
3.96875897497e-05
-0.000100029969442
4.94170390901e-05
-9.98628942347e-05
5.91929178014e-05
-0.000100005224767
6.9011784409e-05
-0.000100217649155
7.88949592117e-05
-0.000100400998838
8.87789778133e-05
-0.00010049355755
-0.000100493532568
1.02142476541e-05
-0.000116166508939
2.00809646565e-05
-0.000112714807399
2.97907658756e-05
-0.00011060142952
3.94850899744e-05
-0.000109723785312
4.91916222755e-05
-0.000109568854855
5.89734018333e-05
-0.000109786480364
6.8835252174e-05
-0.000110079148821
7.87598322453e-05
-0.000110325622248
8.87699394677e-05
-0.000110504236728
-0.000110464018078
1.00807835989e-05
-0.000126247110586
1.99184557579e-05
-0.000122552199146
2.95932931164e-05
-0.00012027586845
3.91955394298e-05
-0.000119325535484
4.88858642451e-05
-0.000119258649681
5.86609999318e-05
-0.000119561148638
6.85579155016e-05
-0.00011997576094
7.85881396401e-05
-0.000120355907914
8.87233211475e-05
-0.000120639919398
-0.000120784879819
1.00001827203e-05
-0.000136247082303
1.97198536192e-05
-0.000132271586123
2.92900550142e-05
-0.000129845697582
3.88295864185e-05
-0.000128864626062
4.84797007243e-05
-0.000128908307523
5.82493124454e-05
-0.000129330361224
6.81866459037e-05
-0.000129912831046
7.82973440762e-05
-0.000130466632925
8.85813314579e-05
-0.00013092426634
-0.000131291008052
9.82349538373e-06
-0.00014607038482
1.94240202354e-05
-0.000141871872219
2.88927756534e-05
-0.000139314153819
3.83624422672e-05
-0.000138333947661
4.79054506044e-05
-0.000138450959217
5.76529816055e-05
-0.000139077571258
6.75890052463e-05
-0.000139848620177
7.78251366618e-05
-0.000140702707147
8.83334046591e-05
-0.000141432644796
-0.00014203027082
9.69122563434e-06
-0.000155761478464
1.90940850554e-05
-0.000151274580097
2.83903613835e-05
-0.000148610243453
3.77258213575e-05
-0.000147669188385
4.71795645171e-05
-0.000147904460556
5.68601870966e-05
-0.000148758002371
6.68564413735e-05
-0.000149844661019
7.71421441159e-05
-0.000150988191132
8.77893332971e-05
-0.00015207970674
-0.000153044319938
9.43646152376e-06
-0.000165197966328
1.86665824491e-05
-0.00016050472889
2.77611124642e-05
-0.000157704737612
3.69040334578e-05
-0.000156812029447
4.62421667353e-05
-0.000157242709348
5.58319922842e-05
-0.000158347752718
6.5773244178e-05
-0.000159785669694
7.61280829273e-05
8.69012973163e-05
9.12035894948e-06
-0.00017431856747
1.80856086137e-05
-0.000169470188981
2.6965995695e-05
-0.000166585326733
3.59089615637e-05
-0.000165755546657
4.5064290385e-05
-0.000166398239843
5.45211675395e-05
8.80114831502e-06
1.74117848938e-05
2.59672252588e-05
-0.000175141554674
3.46310261344e-05
-0.000174419862932
2.47398388931e-05
)
;

boundaryField
{
    back
    {
        type            calculated;
        value           uniform 0;
    }
    sides
    {
        type            calculated;
        value           uniform 0;
    }
    bottom
    {
        type            calculated;
        value           uniform 0;
    }
    front
    {
        type            calculated;
        value           uniform 0;
    }
    atmosphere
    {
        type            calculated;
        value           nonuniform List<scalar> 0();
    }
    floatingObject
    {
        type            calculated;
        value           nonuniform List<scalar> 0();
    }
    procBoundary2to0
    {
        type            processor;
        value           nonuniform List<scalar> 
14
(
-0.000161342778539
-0.000162852596123
-0.000164286027319
-0.000167804775667
6.43220895297e-05
-0.000169586550907
-0.000183120143723
-0.000178081325003
4.35437282714e-05
-0.000175311604757
-1.65840256182e-05
-0.0001832983431
3.3028310057e-05
-0.000182709185356
)
;
    }
    procBoundary2to1
    {
        type            processor;
        value           nonuniform List<scalar> 
18
(
8.83875007446e-05
8.45034779858e-05
8.18496542434e-05
3.16102047077e-05
9.0325436047e-05
4.17265874045e-05
9.92891586946e-05
9.88462371888e-05
9.8661026355e-05
9.85726609161e-05
9.8641976428e-05
9.87667110906e-05
9.87395437761e-05
9.90434134926e-05
9.9086924329e-05
9.90724218714e-05
9.88035340173e-05
9.81432163602e-05
)
;
    }
}


// ************************************************************************* //
