/*--------------------------------*- C++ -*----------------------------------*\
| =========                 |                                                 |
| \\      /  F ield         | OpenFOAM: The Open Source CFD Toolbox           |
|  \\    /   O peration     | Version:  v2012                                 |
|   \\  /    A nd           | Website:  www.openfoam.com                      |
|    \\/     M anipulation  |                                                 |
\*---------------------------------------------------------------------------*/
FoamFile
{
    version     2.0;
    format      ascii;
    class       surfaceVectorField;
    location    "4";
    object      Uf;
}
// * * * * * * * * * * * * * * * * * * * * * * * * * * * * * * * * * * * * * //

dimensions      [0 1 -1 0 0 0 0];


internalField   nonuniform List<vector> 
305
(
(-0.00122061325621 0.00257414351864 7.84594857604e-22)
(-0.0025743732857 0.00120041619102 7.67835550842e-22)
(-0.00102881528213 0.00481653274878 6.24123810202e-22)
(-0.00224263169791 0.00356182150077 1.02800350889e-21)
(-0.000987972459007 0.0069219299626 -1.89843092108e-23)
(-0.00210561960173 0.00566631958566 3.91465337019e-22)
(-0.00100899139929 0.00902306190058 -5.7942534771e-22)
(-0.00210131343067 0.00776491545889 -3.32228084309e-22)
(-0.00103636409798 0.0111529378997 -8.01263363129e-22)
(-0.0021300041136 0.00986119443218 -9.10513773508e-22)
(-0.00105204108579 0.0133120651074 -6.46685970951e-22)
(-0.00215919690513 0.0119695423312 -8.58209282471e-22)
(-0.00106150062395 0.0154874572837 -7.71107132347e-23)
(-0.00217539228999 0.0140947331772 -6.23006786091e-22)
(-0.00219000002649 0.0162289177751 9.84031304968e-23)
(-0.00356880051406 0.00221562339 1.01124420213e-21)
(-0.00479024257224 0.000997514532595 1.15761966367e-21)
(-0.00330442783934 0.0043733942055 7.95345035712e-22)
(-0.00440064871323 0.00325485117114 1.45062448111e-21)
(-0.0032175008415 0.00649606309558 7.82215619213e-23)
(-0.00422850580856 0.00532515482282 6.82627857714e-22)
(-0.00321763286557 0.00858471213058 -6.63316510106e-22)
(-0.00419013052021 0.00740747120232 -1.47000720729e-22)
(-0.00324384928142 0.0106596492713 -9.67459692849e-22)
(-0.00420504872302 0.00946451062621 -7.41652879652e-22)
(-0.00326758924085 0.0127334546281 -8.3453009761e-22)
(-0.00423304879709 0.0115128061493 -7.26426991889e-22)
(-0.00328679199579 0.0148136415866 -4.4749294236e-22)
(-0.00425556126458 0.0135629730245 -5.53484393859e-22)
(-0.0042769638574 0.0156161967406 -1.08510489706e-22)
(-0.00564599755173 0.00205336094612 1.59699994266e-21)
(-0.00684384217784 0.000943554006545 1.42366461155e-21)
(-0.00537106892533 0.00415156297267 1.33790730311e-21)
(-0.00649908214195 0.00312903404088 1.73061667731e-21)
(-0.00524734531028 0.00622935422551 4.57405575064e-22)
(-0.00630649354945 0.00514126669881 9.67039598653e-22)
(-0.00522116888742 0.00827641052256 -2.25337090275e-22)
(-0.0062373299583 0.00718917732023 1.77416584389e-22)
(-0.005240056517 0.0103033370192 -5.00620178692e-22)
(-0.00623205506673 0.00920823366463 -2.92569660911e-22)
(-0.00526854764422 0.0123220885762 -4.45381288138e-22)
(-0.00625181863189 0.011215659824 -3.61614959637e-22)
(-0.00529598548929 0.0143453555895 -2.14501941206e-22)
(-0.00627877902589 0.0132215562653 -2.54241370632e-22)
(-0.00630147617126 0.0152276447574 -3.46168745079e-23)
(-0.00769305732277 0.00202470998039 1.55728134621e-21)
(-0.00886876855677 0.000952518456649 1.2392229167e-21)
(-0.00742728849494 0.00407387321205 1.35974897285e-21)
(-0.00854844815791 0.00309921611342 1.66540599861e-21)
(-0.00728398627885 0.00610127022353 6.87050607978e-22)
(-0.00833405377618 0.00507078936549 1.07662625853e-21)
(-0.00723718689652 0.00811022242883 1.10184013753e-22)
(-0.00824638919187 0.00708652941425 3.98272221478e-22)
(-0.00724146881137 0.0101046086924 -1.53564441856e-22)
(-0.00822648496387 0.00907817115423 -2.86007594117e-24)
(-0.00726324396128 0.0120953087924 -1.70475042131e-22)
(-0.00824250713343 0.0110602042889 -1.12488871937e-22)
(-0.00728830782516 0.014081347985 -7.43563039339e-23)
(-0.00826476486412 0.0130419656887 -8.5086276875e-23)
(-0.00731476401873 0.0160703702335 -5.90944885266e-24)
(-0.00829039128323 0.0150231697501 1.34104447264e-24)
(-0.00831666861829 0.0170052963527 6.26514806542e-24)
(-0.00972077186778 0.00203611422712 1.34734756911e-21)
(-0.010905067583 0.000971030800077 9.31744097738e-22)
(-0.00944673485718 0.00406318204929 1.38228328429e-21)
(-0.0105756813582 0.00310550814332 1.51817294545e-21)
(-0.00928344749532 0.00606101740775 7.87847872029e-22)
(-0.0103320112548 0.00506026961842 1.03856425777e-21)
(-0.00922321716095 0.00804163067451 2.85228131784e-22)
(-0.0102270668419 0.00704873288166 4.6385971096e-22)
(-0.00921905875753 0.0100183075246 3.82154939782e-23)
(-0.0102031651993 0.00902255983626 1.25301988076e-22)
(-0.00923616874779 0.0119899720957 -2.71001066808e-23)
(-0.0102141249273 0.0109909020271 2.93153856654e-24)
(-0.0092591124657 0.0139614844717 -9.38892846848e-24)
(-0.010236203666 0.0129607215888 -1.51271323315e-23)
(-0.00928368556414 0.0159333941272 1.35156413907e-23)
(-0.0102622284659 0.0149284336343 7.23846007119e-24)
(-0.00931304230973 0.017898866871 -2.59804069862e-24)
(-0.0102820841442 0.0168932496173 5.18477357315e-24)
(-0.0103042521377 0.0188536592023 -1.42439087709e-23)
(-0.0117473792609 0.0020542553326 1.10256947408e-21)
(-0.0129594706085 0.000982272782291 7.96477051545e-22)
(-0.0114455477515 0.00405950645969 1.17445391893e-21)
(-0.0125810558121 0.00311442778261 1.24870656816e-21)
(-0.0112646504884 0.00604502077045 7.14576096703e-22)
(-0.012317603272 0.00506439705839 8.91541751614e-22)
(-0.0111945907676 0.00801484068622 3.03933567252e-22)
(-0.0121969073174 0.00703417491883 4.22333883225e-22)
(-0.0111857194277 0.00998144783806 9.00180326642e-23)
(-0.012169737178 0.00899716078933 1.34818241842e-22)
(-0.0111998404004 0.0119423970909 1.49045129159e-23)
(-0.0121749979196 0.0109586951414 2.97042214778e-23)
(-0.0112217411046 0.0139058851604 1.50025620822e-24)
(-0.0121996010909 0.0129215471124 -4.0833180769e-24)
(-0.011245068391 0.015865219046 -1.09240774638e-24)
(-0.0122215007047 0.0148822927767 -7.51499405349e-24)
(-0.0112653639372 0.0178232071527 -6.46109449913e-24)
(-0.012240064197 0.0168406764756 -9.53974250486e-24)
(-0.0122503371292 0.0187941567226 -1.95744707344e-23)
(-0.0137779602496 0.00206562901191 9.42614145627e-22)
(-0.0150252078473 0.000990060985011 8.17989669381e-22)
(-0.0134345413242 0.00406383281736 9.65794400848e-22)
(-0.0145793399275 0.00311719059452 1.23129329207e-21)
(-0.0132357562279 0.00603951826612 5.99299538136e-22)
(-0.0142933229602 0.00506352687517 8.57399662995e-22)
(-0.0131563382063 0.00800026284533 2.53218557814e-22)
(-0.0141576318572 0.00702366787271 4.09331243164e-22)
(-0.0131452605393 0.00995585186414 7.45044306553e-23)
(-0.0141252577746 0.00897893189606 1.31588724833e-22)
(-0.0131596093269 0.0119186504291 1.07163904849e-23)
(-0.014137699137 0.010936515453 3.53948938192e-23)
(-0.0131807977178 0.0138766560722 -1.30985683386e-23)
(-0.014157509355 0.0128966835917 -2.71359844543e-24)
(-0.0131999844013 0.0158333362454 -1.5962328812e-23)
(-0.0141781314147 0.0148560687776 -1.74810978036e-23)
(-0.0132111553425 0.017789943286 -2.26531187401e-23)
(-0.0141966998827 0.0168144868868 -7.96704171229e-24)
(-0.014192689865 0.018767343369 -2.87614830882e-23)
(-0.0158116078708 0.00206633329571 1.10666881583e-21)
(-0.0170916103833 0.000996360083088 8.88222027348e-22)
(-0.0154195629288 0.00406352393422 1.12289855422e-21)
(-0.0165765701248 0.00311481876605 1.27799497455e-21)
(-0.0151984982692 0.00603111557595 6.67431368023e-22)
(-0.0162609097715 0.005054861581 8.94371913467e-22)
(-0.0151106361066 0.00798565595191 2.87701410182e-22)
(-0.016112118276 0.00700956129626 4.36460376351e-22)
(-0.0150990004414 0.00993717265656 9.24791879964e-23)
(-0.0160766808991 0.0089591517835 1.53010591777e-22)
(-0.0151169356775 0.0118939546386 2.19649048889e-23)
(-0.016094370765 0.010912483738 5.81961077192e-23)
(-0.0151394635507 0.0138534287137 -7.09612791039e-24)
(-0.0161168866594 0.0128733267047 7.81958568118e-24)
(-0.0151544739758 0.0158153604993 -9.48581070388e-24)
(-0.0161400290157 0.0148367207619 -6.5632833116e-24)
(-0.0151577349435 0.0177683124961 -1.40754060603e-23)
(-0.0161497130292 0.0168006244909 -6.22523003563e-25)
(-0.016139039709 0.0187616164494 -2.49613726978e-23)
(-0.017841064075 0.00205586318668 1.05954818607e-21)
(-0.0191475068251 0.00100047769721 7.8248619852e-22)
(-0.0174003804229 0.00405411327128 1.0494683338e-21)
(-0.018574823935 0.00310666335128 1.13373193668e-21)
(-0.0171556648699 0.00601680726025 6.63400921795e-22)
(-0.0182235667615 0.00503750294334 8.18512882859e-22)
(-0.0170608524223 0.00796606269647 3.01769557946e-22)
(-0.0180612945078 0.00698789273814 4.13453369258e-22)
(-0.0170503563813 0.00991629591015 1.187275115e-22)
(-0.0180268048368 0.00893383540847 1.46802681792e-22)
(-0.0170722100087 0.0118680217321 4.40507885115e-23)
(-0.0180459816053 0.0108838356424 5.28345993902e-23)
(-0.0170990427853 0.0138310628266 8.35243027997e-24)
(-0.0180798373702 0.01284533688 1.07020778664e-23)
(-0.0171156717863 0.0157946173481 2.30000438872e-24)
(-0.0181035660288 0.0148155156791 4.47836054806e-24)
(-0.0171145934098 0.0177666148692 -1.15084896411e-23)
(-0.0181218003402 0.0167915528764 6.28325640113e-24)
(-0.0181009804576 0.0187715226998 -1.75846061221e-23)
(-0.0198633006908 0.00204296417109 8.56669949129e-22)
(-0.0211904734744 0.000998357551141 4.0009174689e-22)
(-0.0193772885439 0.00403782880181 9.02776485743e-22)
(-0.0205696634626 0.00308975105608 7.68010131673e-22)
(-0.0191068351949 0.00599272350665 5.68565330322e-22)
(-0.0201784007448 0.00501319130479 6.04516099696e-22)
(-0.0190066048697 0.00793751794995 2.58486493105e-22)
(-0.0200059938885 0.0069565156667 3.3016721079e-22)
(-0.019001839432 0.00988340781801 8.09097696831e-23)
(-0.0199725788469 0.00889775440873 1.14058554315e-22)
(-0.0190311438999 0.0118385835603 1.94858887452e-23)
(-0.0200010449533 0.0108466931385 2.13581722498e-23)
(-0.0190642977766 0.0138023568818 6.82800813451e-24)
(-0.020043529831 0.0128106652672 5.52893327022e-24)
(-0.0190865713056 0.0157789918423 8.46161256048e-24)
(-0.0200801997675 0.0147879903124 2.58377547926e-25)
(-0.0190888930779 0.0177557955627 2.07139920074e-25)
(-0.0200987115099 0.0167775743582 -4.26949736726e-26)
(-0.0200987065136 0.0187871371948 -1.65421586028e-23)
(-0.0218748458749 0.00204284953082 3.11431929434e-22)
(-0.0232333017878 0.000993913211533 6.34886236544e-23)
(-0.021342693413 0.0040161929313 4.69749745626e-22)
(-0.0225429614799 0.00306578972253 5.37686690254e-22)
(-0.0210479727583 0.00595815317513 3.66117980164e-22)
(-0.0221202859041 0.00498066562513 4.64849039192e-22)
(-0.0209446867525 0.00789701799489 1.85739272e-22)
(-0.0219447570624 0.0069132498027 2.7380943544e-22)
(-0.0209503513279 0.0098383244551 5.4506956882e-23)
(-0.0219137709711 0.00884639619731 8.91365737225e-23)
(-0.02099357597 0.0117946803667 7.40121677488e-24)
(-0.0219572960727 0.0107942559426 1.3014786152e-23)
(-0.0210393190515 0.0137670504348 -1.04069731637e-24)
(-0.0220158297642 0.012763079412 -5.31216042742e-24)
(-0.0210714989544 0.0157519664491 -8.24592998623e-24)
(-0.0220651244495 0.0147509266753 -1.35634884857e-23)
(-0.0210803052702 0.0177539878935 -1.67919934965e-23)
(-0.0221008473457 0.0167577754745 -3.09067389521e-23)
(-0.0220928036155 0.0187964419274 -3.57700845212e-23)
(-0.0238736412559 0.00201615671978 2.89743384475e-22)
(-0.0252494221172 0.000989478341555 9.1473094157e-24)
(-0.0232959357888 0.00398369115157 5.3278598382e-22)
(-0.0245104398292 0.00303514521692 6.30214197007e-22)
(-0.0229818321875 0.00591865862328 3.72540494468e-22)
(-0.0240551736901 0.00493523388698 5.04950864416e-22)
(-0.0228783058626 0.00783910788596 1.77206737162e-22)
(-0.0238651070969 0.0068549878238 2.78977786671e-22)
(-0.0228961638259 0.00977717284901 4.76444029924e-23)
(-0.0238517299363 0.00877746325054 7.47515383774e-23)
(-0.0229579073839 0.0117321999864 3.0140894966e-25)
(-0.0239122297276 0.0107217582745 8.83006773227e-24)
(-0.0230248591666 0.0137115831003 -1.78349515967e-23)
(-0.023995152188 0.0126942399275 -9.56161854255e-24)
(-0.023076684379 0.015717627928 -3.62242974515e-23)
(-0.0240711815828 0.0146952459347 -2.58206065558e-23)
(-0.0230983667904 0.0177446642295 -4.98848299768e-23)
(-0.0241279838795 0.0167273474984 -5.48537949197e-23)
(-0.0241569759637 0.018795010682 -4.64186737824e-23)
(-0.0258569735091 0.00200003654407 3.49618121948e-22)
(-0.0272494164606 0.000983705187595 -7.51695147342e-23)
(-0.0252357367895 0.00394397072384 6.02379077602e-22)
(-0.0264543172247 0.00299618582127 4.93472248458e-22)
(-0.0249037264276 0.00585801100284 4.11388156619e-22)
(-0.0259691395164 0.0048754178558 4.37084819616e-22)
(-0.0248027252878 0.00776591728371 1.76522587886e-22)
(-0.0257729252125 0.00677915306118 2.5233401866e-22)
(-0.0248369750793 0.00969594014486 3.59372031172e-23)
(-0.0257816615047 0.00868642030271 6.40958160283e-23)
(-0.0249247022217 0.0116498624891 -1.03295975995e-24)
(-0.0258660722449 0.010621394969 1.68586892788e-24)
(-0.0250206304628 0.0136373291807 -1.75472735017e-23)
(-0.0259825662092 0.0125968116735 -1.08440643316e-23)
(-0.0251037216948 0.0156594688152 -4.4450104024e-23)
(-0.026093326585 0.0146109454615 -1.97652699987e-23)
(-0.0251573187555 0.0177162662916 -5.13876387253e-23)
(-0.0261848532679 0.0166694044092 -5.04222290112e-23)
(-0.0262582016104 0.0187761330295 -3.90290542607e-23)
(-0.0278144520189 0.00196469907675 6.86846117761e-23)
(-0.0292140769639 0.000973023604656 -2.8311622012e-22)
(-0.0271533129233 0.00388480404707 3.28177990471e-22)
(-0.0283743744439 0.00294587379771 1.50682810792e-22)
(-0.0268046791942 0.00577855513069 2.78030681657e-22)
(-0.0278628307638 0.00479908174974 1.66512479171e-22)
(-0.0267120565771 0.00767248845344 1.39907246802e-22)
(-0.0276667895323 0.00667866026676 1.31443693211e-22)
(-0.0267703393572 0.00958109012087 2.98444818389e-23)
(-0.0276901918433 0.00856559595161 3.65457561064e-23)
(-0.0268915074595 0.0115305963211 -8.12523564381e-24)
(-0.0278155142517 0.0104876794924 -4.51388139039e-24)
(-0.0270290050751 0.0135178010493 -1.30620608286e-23)
(-0.0279697240354 0.0124611943812 -1.38069523847e-23)
(-0.0271579725524 0.0155650273324 -2.57373949859e-23)
(-0.0281405414293 0.0144856966811 -8.26559362881e-24)
(-0.0272595281588 0.0176666809318 -3.80636445466e-23)
(-0.0282865289591 0.0165684975579 -2.76091886059e-23)
(-0.028406054164 0.0187178903808 -2.61918009372e-23)
(-0.0297376592087 0.00193824512687 -2.01118021103e-22)
(-0.0311522956929 0.000957585694913 -5.99240787684e-22)
(-0.0290398531228 0.00381881701108 -1.0982700508e-23)
(-0.0302549160193 0.00288116850572 -2.61977304471e-22)
(-0.028679825087 0.00567807227671 1.99254907248e-23)
(-0.0297220486906 0.00470054268567 -1.46552594587e-22)
(-0.028601413668 0.0075451642715 2.80822025155e-23)
(-0.029533837677 0.00654785193247 -3.31063293994e-23)
(-0.0286921225174 0.00943591290342 2.18739287703e-24)
(-0.0295808921112 0.00840857308335 -1.51658782913e-23)
(-0.0288574001318 0.0113720374193 -1.01955981313e-23)
(-0.0297516004743 0.0103123821971 -9.62849071672e-24)
(-0.0290503651279 0.0133712882747 -9.01048518489e-24)
(-0.0299689322037 0.0122745588498 -6.67082174439e-24)
(-0.0292404595397 0.0154284288232 -1.01373872489e-23)
(-0.0301976382265 0.0143044122726 -1.0967826654e-24)
(-0.0294049006047 0.0175578666594 -1.57373449965e-23)
(-0.030415941348 0.0164101893221 -2.24293731646e-24)
(-0.0306088639875 0.0186000203687 3.10792621109e-24)
(-0.0316234652787 0.00188729230475 -6.60100071051e-22)
(-0.0330395932657 0.000938614717407 -8.7440693585e-22)
(-0.0308895778768 0.00373331648981 -3.9754719855e-22)
(-0.0321009457779 0.00280228395103 -5.08988711333e-22)
(-0.0305222809632 0.00555222249285 -1.99584414711e-22)
(-0.0315409475225 0.00457712763629 -2.89179355277e-22)
(-0.0304629769394 0.00738080669156 -7.63544102063e-23)
(-0.0313624058893 0.00638517952093 -1.15788259274e-22)
(-0.0305941354725 0.00924843334706 -2.69817618851e-23)
(-0.0314485418695 0.00821074251133 -3.61272064827e-23)
(-0.0308152478939 0.0111663984568 -6.10371432984e-24)
(-0.0316695505437 0.0100873351374 -9.040097179e-24)
(-0.0310752516539 0.0131546488356 1.2428807751e-24)
(-0.0319571339387 0.0120287363297 7.462310467e-24)
(-0.0313409404467 0.0152256165855 6.79766726704e-24)
(-0.0315881227169 0.0173802594633 1.66023338912e-23)
(-0.0334618780658 0.0018240717899 -7.23295576132e-22)
(-0.0348637134939 0.00091053923641 -7.37477989124e-22)
(-0.0326985128589 0.00361712172275 -4.0062086806e-22)
(-0.0338940377962 0.00270468781217 -3.42249452621e-22)
(-0.0323271033877 0.00539319913901 -2.0538319984e-22)
(-0.0333170653465 0.00442500663651 -1.92740555859e-22)
(-0.0322930028337 0.00718179231274 -7.55610555509e-23)
(-0.0331511093314 0.00618107231177 -8.19246045823e-23)
(-0.0324705044772 0.00901285807701 -1.81855417766e-23)
(-0.0332796479686 0.00796124322934 -3.00791638665e-23)
(-0.0327534910302 0.0109042335079 4.52592761784e-24)
(-0.0352394809911 0.001760229663 -3.56431865613e-22)
(-0.0344501836873 0.00348235697875 -1.34369140419e-22)
(-0.0340803887991 0.00519344505177 -6.92819606006e-23)
(-0.0350283109347 0.00423655034732 2.17432157655e-23)
(-0.0340780923253 0.00692620522688 -3.64427128979e-23)
(-0.0348839725864 0.00592423029407 2.91015822295e-23)
(-0.0357640173367 0.00494796777862 1.20126758596e-22)
)
;

boundaryField
{
    back
    {
        type            calculated;
        value           uniform (0 0 0);
    }
    sides
    {
        type            calculated;
        value           uniform (0 0 0);
    }
    bottom
    {
        type            calculated;
        value           uniform (0 0 0);
    }
    front
    {
        type            calculated;
        value           uniform (0 0 0);
    }
    atmosphere
    {
        type            calculated;
        value           nonuniform List<vector> 0();
    }
    floatingObject
    {
        type            calculated;
        value           nonuniform List<vector> 0();
    }
    procBoundary2to0
    {
        type            processor;
        value           nonuniform List<vector> 
14
(
(-0.0322685557078 0.0140547955649 1.10976458282e-23)
(-0.0325705192246 0.0161756199903 1.06651489619e-23)
(-0.0328572054638 0.0183997090213 1.68745382546e-23)
(-0.0335609551335 0.0098003154518 -9.07320338001e-24)
(-0.0330845731603 0.0128644179059 1.73170755201e-23)
(-0.0339173101815 0.0117129620615 9.10070917903e-24)
(-0.0366240287445 0.000878117734708 -2.89126283757e-22)
(-0.0356162650007 0.00258588448444 3.40302498386e-23)
(-0.0343109192611 0.00870874565428 -2.09668254699e-23)
(-0.0350623209513 0.00764198661347 -8.32230549934e-24)
(-0.0361261312428 0.00331680512363 1.90142606023e-22)
(-0.0366596686201 0.00400731884196 1.40501602042e-22)
(-0.035799546377 0.0066056620114 5.72219896281e-23)
(-0.0365418370712 0.00560808477791 1.05778135642e-22)
)
;
    }
    procBoundary2to1
    {
        type            processor;
        value           nonuniform List<vector> 
18
(
(-0.00106763339688 0.0176775001489 5.54112990031e-22)
(-0.00330600709875 0.0169006955972 4.56743066628e-23)
(-0.00532459967526 0.0163699308487 -2.43671156488e-24)
(-0.00632204094154 0.0172369475275 2.62707140903e-23)
(-0.00734849029656 0.0180650872094 -1.65694537052e-23)
(-0.00834531748091 0.0189831919481 -2.54326424693e-23)
(-0.00935408655051 0.0198578317389 -3.4028248935e-23)
(-0.0112873106722 0.0197692474378 -3.36542177143e-23)
(-0.0132171394223 0.019732205271 -5.52527477506e-23)
(-0.0151488556327 0.0197145321832 -6.4410592718e-23)
(-0.0170914736507 0.0197283952856 -4.10884478648e-23)
(-0.0190584253236 0.0197533422181 -4.19189528697e-23)
(-0.021056715252 0.0197479087552 -4.76315096675e-23)
(-0.0230886580275 0.0198086826985 -5.28758542896e-23)
(-0.0251697765033 0.0198173848658 -5.67638254728e-23)
(-0.0273152412821 0.0198144843743 -4.35260616787e-23)
(-0.0295250407926 0.0197607068035 -2.43015645286e-23)
(-0.0317961189226 0.019628643272 -2.27161954956e-24)
)
;
    }
}


// ************************************************************************* //
