/*--------------------------------*- C++ -*----------------------------------*\
| =========                 |                                                 |
| \\      /  F ield         | OpenFOAM: The Open Source CFD Toolbox           |
|  \\    /   O peration     | Version:  v2012                                 |
|   \\  /    A nd           | Website:  www.openfoam.com                      |
|    \\/     M anipulation  |                                                 |
\*---------------------------------------------------------------------------*/
FoamFile
{
    version     2.0;
    format      ascii;
    class       volScalarField;
    location    "1.7";
    object      epsilon;
}
// * * * * * * * * * * * * * * * * * * * * * * * * * * * * * * * * * * * * * //

dimensions      [0 2 -3 0 0 0 0];


internalField   nonuniform List<scalar> 
167
(
0.00730392262937
0.00735532740371
0.00742073648086
0.00753726916537
0.00782078373279
0.00857155689866
0.0104347407065
0.0146767673607
0.0236592861997
0.0418044060595
0.0789766712694
0.17998707409
0.00748659482305
0.0075300483209
0.00759146537613
0.00771719531903
0.00804308369823
0.00889786074695
0.01091523413
0.0150273533323
0.0223796632487
0.0346716739815
0.0568141402822
0.0961845366202
0.00816146707674
0.00820774209112
0.00827427572584
0.00841120846223
0.00876224773179
0.00966830808443
0.0117774228415
0.0160657203269
0.0237337669403
0.0367362202068
0.0609071837418
0.108255692321
0.00846162274452
0.00852986280558
0.00866890883214
0.00902136187545
0.00992429857419
0.0120214309242
0.0163100720643
0.0240680359397
0.0373863253785
0.0629502429893
0.115083759679
0.00862598788676
0.00876296796447
0.0091080755253
0.00999086859081
0.012045505214
0.0162713107632
0.0239803793531
0.037348633403
0.0631033324399
0.115804934121
0.00866612440344
0.00879894425361
0.00913269620546
0.00998781323486
0.0119863915381
0.0161210911736
0.0237211704353
0.0370060725209
0.0627697354845
0.115708825602
0.00868829920306
0.00881586634041
0.00913623221833
0.00995944048909
0.0118932802595
0.0159192278583
0.0233733311075
0.0365105320722
0.0622296199863
0.115488536198
0.00870565544516
0.00882738143479
0.00913306632824
0.00992150040083
0.0117845826033
0.0156879419058
0.0229651765787
0.0359141679887
0.0615710799009
0.115296283295
0.00872241398664
0.00883797692756
0.00912810219893
0.00987950153705
0.0116661700018
0.0154336983478
0.0225102596679
0.0352306161639
0.0608070402136
0.115123149105
0.00873977935874
0.00884901644337
0.00912297460876
0.00983552726066
0.0115408858143
0.0151608972837
0.0220139505884
0.0344621021942
0.0599278375259
0.11493904854
0.00875799820854
0.00886087419447
0.00911838889783
0.00979088542605
0.011411497449
0.014874901816
0.0214825119607
0.0336253005135
0.0590073094216
0.115136718016
0.00877704825282
0.00887361638823
0.00911467234212
0.0097463743015
0.0112800193788
0.0145801883605
0.0209281737358
0.0327565904057
0.0583127833184
0.118957998436
0.00879681328179
0.00888728495607
0.0091120736856
0.00970320116118
0.0111479736927
0.0142804686017
0.0203530157974
0.0318152125052
0.0573032349109
0.120128147454
0.00881719467773
0.00890183913072
0.00911093899082
0.00966236095839
0.0110195312903
0.0139827843161
0.0197600743257
0.0307711398372
0.0564304762505
0.130162465785
0.00883809865864
0.00891736860347
0.00911176226954
0.00962544008215
0.0108980802572
0.0136941117521
0.0191493428147
0.0294180588838
0.0536581746948
0.15243121814
0.00885940564404
0.0089337087295
0.00911462264458
0.00959421034267
0.0107912620033
0.0134362467542
0.0185237093508
0.0274333398207
0.0427374916011
0.071238055047
)
;

boundaryField
{
    back
    {
        lowReCorrection 0;
        blending        stepwise;
        n               2;
        type            epsilonWallFunction;
        value           nonuniform List<scalar> 
167
(
0.00730392262937
0.00735532740371
0.00742073648086
0.00753726916537
0.00782078373279
0.00857155689866
0.0104347407065
0.0146767673607
0.0236592861997
0.0418044060595
0.0789766712694
0.17998707409
0.00748659482305
0.0075300483209
0.00759146537613
0.00771719531903
0.00804308369823
0.00889786074695
0.01091523413
0.0150273533323
0.0223796632487
0.0346716739815
0.0568141402822
0.0961845366202
0.00816146707674
0.00820774209112
0.00827427572584
0.00841120846223
0.00876224773179
0.00966830808443
0.0117774228415
0.0160657203269
0.0237337669403
0.0367362202068
0.0609071837418
0.108255692321
0.00846162274452
0.00852986280558
0.00866890883214
0.00902136187545
0.00992429857419
0.0120214309242
0.0163100720643
0.0240680359397
0.0373863253785
0.0629502429893
0.115083759679
0.00862598788676
0.00876296796447
0.0091080755253
0.00999086859081
0.012045505214
0.0162713107632
0.0239803793531
0.037348633403
0.0631033324399
0.115804934121
0.00866612440344
0.00879894425361
0.00913269620546
0.00998781323486
0.0119863915381
0.0161210911736
0.0237211704353
0.0370060725209
0.0627697354845
0.115708825602
0.00868829920306
0.00881586634041
0.00913623221833
0.00995944048909
0.0118932802595
0.0159192278583
0.0233733311075
0.0365105320722
0.0622296199863
0.115488536198
0.00870565544516
0.00882738143479
0.00913306632824
0.00992150040083
0.0117845826033
0.0156879419058
0.0229651765787
0.0359141679887
0.0615710799009
0.115296283295
0.00872241398664
0.00883797692756
0.00912810219893
0.00987950153705
0.0116661700018
0.0154336983478
0.0225102596679
0.0352306161639
0.0608070402136
0.115123149105
0.00873977935874
0.00884901644337
0.00912297460876
0.00983552726066
0.0115408858143
0.0151608972837
0.0220139505884
0.0344621021942
0.0599278375259
0.11493904854
0.00875799820854
0.00886087419447
0.00911838889783
0.00979088542605
0.011411497449
0.014874901816
0.0214825119607
0.0336253005135
0.0590073094216
0.115136718016
0.00877704825282
0.00887361638823
0.00911467234212
0.0097463743015
0.0112800193788
0.0145801883605
0.0209281737358
0.0327565904057
0.0583127833184
0.118957998436
0.00879681328179
0.00888728495607
0.0091120736856
0.00970320116118
0.0111479736927
0.0142804686017
0.0203530157974
0.0318152125052
0.0573032349109
0.120128147454
0.00881719467773
0.00890183913072
0.00911093899082
0.00966236095839
0.0110195312903
0.0139827843161
0.0197600743257
0.0307711398372
0.0564304762505
0.130162465785
0.00883809865864
0.00891736860347
0.00911176226954
0.00962544008215
0.0108980802572
0.0136941117521
0.0191493428147
0.0294180588838
0.0536581746948
0.15243121814
0.00885940564404
0.0089337087295
0.00911462264458
0.00959421034267
0.0107912620033
0.0134362467542
0.0185237093508
0.0274333398207
0.0427374916011
0.071238055047
)
;
    }
    sides
    {
        lowReCorrection 0;
        blending        stepwise;
        n               2;
        type            epsilonWallFunction;
        value           nonuniform List<scalar> 
12
(
0.00730392262937
0.00735532740371
0.00742073648086
0.00753726916537
0.00782078373279
0.00857155689866
0.0104347407065
0.0146767673607
0.0236592861997
0.0418044060595
0.0789766712694
0.17998707409
)
;
    }
    bottom
    {
        lowReCorrection 0;
        blending        stepwise;
        n               2;
        type            epsilonWallFunction;
        value           nonuniform List<scalar> 0();
    }
    front
    {
        lowReCorrection 0;
        blending        stepwise;
        n               2;
        type            epsilonWallFunction;
        value           nonuniform List<scalar> 
167
(
0.00730392262937
0.00735532740371
0.00742073648086
0.00753726916537
0.00782078373279
0.00857155689866
0.0104347407065
0.0146767673607
0.0236592861997
0.0418044060595
0.0789766712694
0.17998707409
0.00748659482305
0.0075300483209
0.00759146537613
0.00771719531903
0.00804308369823
0.00889786074695
0.01091523413
0.0150273533323
0.0223796632487
0.0346716739815
0.0568141402822
0.0961845366202
0.00816146707674
0.00820774209112
0.00827427572584
0.00841120846223
0.00876224773179
0.00966830808443
0.0117774228415
0.0160657203269
0.0237337669403
0.0367362202068
0.0609071837418
0.108255692321
0.00846162274452
0.00852986280558
0.00866890883214
0.00902136187545
0.00992429857419
0.0120214309242
0.0163100720643
0.0240680359397
0.0373863253785
0.0629502429893
0.115083759679
0.00862598788676
0.00876296796447
0.0091080755253
0.00999086859081
0.012045505214
0.0162713107632
0.0239803793531
0.037348633403
0.0631033324399
0.115804934121
0.00866612440344
0.00879894425361
0.00913269620546
0.00998781323486
0.0119863915381
0.0161210911736
0.0237211704353
0.0370060725209
0.0627697354845
0.115708825602
0.00868829920306
0.00881586634041
0.00913623221833
0.00995944048909
0.0118932802595
0.0159192278583
0.0233733311075
0.0365105320722
0.0622296199863
0.115488536198
0.00870565544516
0.00882738143479
0.00913306632824
0.00992150040083
0.0117845826033
0.0156879419058
0.0229651765787
0.0359141679887
0.0615710799009
0.115296283295
0.00872241398664
0.00883797692756
0.00912810219893
0.00987950153705
0.0116661700018
0.0154336983478
0.0225102596679
0.0352306161639
0.0608070402136
0.115123149105
0.00873977935874
0.00884901644337
0.00912297460876
0.00983552726066
0.0115408858143
0.0151608972837
0.0220139505884
0.0344621021942
0.0599278375259
0.11493904854
0.00875799820854
0.00886087419447
0.00911838889783
0.00979088542605
0.011411497449
0.014874901816
0.0214825119607
0.0336253005135
0.0590073094216
0.115136718016
0.00877704825282
0.00887361638823
0.00911467234212
0.0097463743015
0.0112800193788
0.0145801883605
0.0209281737358
0.0327565904057
0.0583127833184
0.118957998436
0.00879681328179
0.00888728495607
0.0091120736856
0.00970320116118
0.0111479736927
0.0142804686017
0.0203530157974
0.0318152125052
0.0573032349109
0.120128147454
0.00881719467773
0.00890183913072
0.00911093899082
0.00966236095839
0.0110195312903
0.0139827843161
0.0197600743257
0.0307711398372
0.0564304762505
0.130162465785
0.00883809865864
0.00891736860347
0.00911176226954
0.00962544008215
0.0108980802572
0.0136941117521
0.0191493428147
0.0294180588838
0.0536581746948
0.15243121814
0.00885940564404
0.0089337087295
0.00911462264458
0.00959421034267
0.0107912620033
0.0134362467542
0.0185237093508
0.0274333398207
0.0427374916011
0.071238055047
)
;
    }
    atmosphere
    {
        type            inletOutlet;
        inletValue      uniform 0.1;
        value           nonuniform List<scalar> 
16
(
0.17998707409
0.0961845366202
0.108255692321
0.115083759679
0.115804934121
0.115708825602
0.115488536198
0.115296283295
0.115123149105
0.11493904854
0.115136718016
0.118957998436
0.120128147454
0.130162465785
0.1
0.1
)
;
    }
    floatingObject
    {
        lowReCorrection 0;
        blending        stepwise;
        n               2;
        type            epsilonWallFunction;
        value           nonuniform List<scalar> 0();
    }
    procBoundary1to0
    {
        type            processor;
        value           nonuniform List<scalar> 10(0.00888095803164 0.0089506017325 0.00911865408396 0.0095655965892 0.0106925271206 0.013217376283 0.0181228424522 0.0265201337684 0.0410962785151 0.057527678909);
    }
    procBoundary1to2
    {
        type            processor;
        value           nonuniform List<scalar> 
18
(
0.00725647555945
0.00744777612766
0.00812070512065
0.00841413016099
0.00841413016099
0.00855820406861
0.00855820406861
0.00860005619523
0.00862461136847
0.00864467134838
0.00866426851782
0.00868449795833
0.0087055491622
0.00872733805589
0.00874970834199
0.00877252113533
0.00879565819738
0.00881898495862
)
;
    }
}


// ************************************************************************* //
