/*--------------------------------*- C++ -*----------------------------------*\
| =========                 |                                                 |
| \\      /  F ield         | OpenFOAM: The Open Source CFD Toolbox           |
|  \\    /   O peration     | Version:  v2012                                 |
|   \\  /    A nd           | Website:  www.openfoam.com                      |
|    \\/     M anipulation  |                                                 |
\*---------------------------------------------------------------------------*/
FoamFile
{
    version     2.0;
    format      ascii;
    class       volScalarField;
    location    "4.9";
    object      alpha.water;
}
// * * * * * * * * * * * * * * * * * * * * * * * * * * * * * * * * * * * * * //

dimensions      [0 0 0 0 0 0 0];


internalField   nonuniform List<scalar> 
1984
(
0.999999073228
0.999998946514
0.999998862852
0.999998850518
0.999998889356
0.999999583637
1.00000035598
1.00000087267
1.00000125064
1.00000175594
1.0000040245
1.00000442442
1.00000034971
1.00000093091
1
0.999999997553
0.999999332419
0.948505964162
0.314665299028
0
0.999998987359
0.999998893152
0.999998862852
0.999998877953
0.999999012211
0.999999670779
1.00000037102
1.00000141917
1.0000004111
1.00000188027
1.0000050907
1.00000261579
1.00000004312
1.00000094443
1.00000106653
1.00000000027
0.999999874931
0.962003371649
0.285165001125
-6.88173998735e-21
0.999999063604
0.999999013877
0.999999012269
0.999999081428
0.999999221953
0.999999668203
1.00000041711
1.00000163885
0.999999359607
0.999997245347
1.00000231719
1.00000320269
0.999998702768
0.999998433631
0.999999999926
0.999999997514
0.999999914141
0.961510146966
0.266901303659
-9.416577366e-23
0.999999242265
0.999999244104
0.999999285819
0.999999378885
0.999999510019
0.999999666885
1.00000037825
1.00000158202
1.00000111041
0.999992016689
0.999990928476
0.999993106383
0.999997539133
0.999999980026
0.999999997351
0.999999983268
0.999999845957
0.946327076155
0.236322358244
-1.25867315021e-38
0.999999472228
0.999999514323
0.99999959981
0.99999970511
0.999999780415
0.999999782206
1.00000010239
1.00000079782
0.999999998657
0.999992708845
0.999985851921
0.999984350271
0.999995802946
0.99999921584
0.999999970246
0.999999809361
0.999999018919
0.916795941598
0.209221764899
0
0.999999714771
0.999999791403
0.999999906919
1.0000000025
0.999999997765
0.999999821091
0.999999874147
0.999999755647
0.999997711849
0.999990707798
0.999982620785
0.99998197723
0.999992530356
0.99999644172
0.999998248744
0.999998933892
0.999997251678
0.881517916183
0.192768143414
-2.55095152313e-28
0.999999931046
1.00000001817
1.0000001458
1.0000002339
1.00000014508
0.999999802977
0.999999570478
0.999998442519
0.999995343889
0.999989466596
0.999978500862
0.999981978896
0.999990327155
0.999993535143
0.999997095692
0.999996978365
0.999995400968
0.864700464353
0.172146687112
-4.47135229523e-23
1.00000007013
1.00000016128
1.00000029874
1.00000035275
1.00000018711
0.999999769286
0.999999252608
0.999997457398
0.999993618238
0.999987465048
0.999976718399
0.99998262395
0.999987570726
0.999990743002
0.999996000365
0.999995613857
0.999993982439
0.859250056427
0.145375341807
-3.62591427631e-24
1.00000012002
1.00000018695
1.00000030695
1.00000031359
1.00000010316
0.999999697586
0.999998968281
0.999996868753
0.999992464944
0.999987110362
0.9999767184
0.999984719282
0.999991803408
0.999990749293
0.999995748315
0.999997318439
0.999995100028
0.849083787798
0.122650206629
-5.36392394224e-26
1.00000004567
1.00000006706
1.00000014596
1.00000010499
0.999999906939
0.999999521425
0.999998723236
0.999996532926
0.999992360887
0.999989210921
0.999979183254
0.99998996281
0.999995991732
0.999996272676
0.999998749287
0.99999922561
0.999997721836
0.834654065746
0.106970238617
-1.67913359484e-21
0.999999850012
0.999999808592
0.999999829677
0.99999983956
0.999999566021
0.999999046608
0.999998420879
0.99999621475
0.999994550587
0.99999452593
0.999992787457
0.99999701698
0.999999930449
1
1
1.00000000437
0.999999447895
0.815935593843
0.0960348635722
-4.85418650885e-20
0.999999535489
0.999999419582
0.999999402189
0.999999327412
0.999999162442
0.999998289142
0.999997705121
0.999997337523
0.999999182934
1
1.00000002313
1.0000013551
1.00000301128
1.00000321995
1
1.00000005751
0.999999877114
0.796104640576
0.0856797062504
-4.19275818245e-17
0.999999137177
0.999998942779
0.999998798691
0.999998549784
0.999998383666
0.999998074621
0.999998336017
0.999999585779
1.00000157338
1.00000344969
1.00000507903
1.00000672374
1.00000876639
1.00000876719
1.00000495254
1.00000002412
1.00000020345
0.776239755028
0.0746142123119
-1.04240804839e-16
0.999998587129
0.999998337507
0.999998081906
0.999997832284
0.999997571988
0.999998089287
0.999998942769
1.00000049353
1.00000418909
1.00000806801
1.00001225492
1.00001423112
1.00001664316
1.00001627257
1.00001169095
1.00000002035
1.00000000598
0.75695506359
0.0645236403443
-4.35794118958e-18
0.999998120951
0.999997811735
0.999997472844
0.99999744564
0.999996961152
0.999997463338
0.999998243129
1.00000090855
1.00000664943
1.00001197607
1.00002010767
1.00002195721
1.00002502362
1.00002377885
1.00001837258
1.00000000003
0.99999999178
0.740094407228
0.0554267260592
-1.70503333493e-16
0.999998399144
0.999998017849
0.999997471443
0.999995991505
0.9999947233
0.999993396619
0.999997014958
1.00000025554
1.00000632501
1.00001442807
1.00002322525
1.00002706755
1.00003033504
1.00002899338
1.00002251579
1
0.999999996951
0.725582866713
0.0481140644906
-9.91526729567e-16
0.999998641619
0.999998008405
0.999996823404
0.999992853728
0.999991101045
0.999987342486
0.999991502733
0.999998111632
1.00000639233
1.00001379395
1.00002256461
1.00002848186
1.00003269164
1.00003052371
1.00002456741
1
0.999999999999
0.713630850405
0.0426374216492
-4.60842714274e-15
0.999998624952
0.999997536988
0.999994744581
0.999994017228
0.999987342486
0.999987342486
0.999989157663
0.999998353517
1.00000349328
1.00000916711
1.0000155829
1.00002084392
1.00002396524
1.00002196884
1.00001692067
1.00000021965
1
0.702209449813
0.0386119507775
-1.14145748498e-13
0.999998557949
0.999997343255
0.999995034099
0.999992590246
0.999987414084
0.999989436969
0.999993755956
0.999998707437
1.00000210755
1.00000676634
1.00001203419
1.0000166912
1.00001948638
1.00001808943
1.00001349179
1.00000089078
1
0.692617466102
0.0355772138722
-7.04177793165e-11
0.99999975114
0.999999038934
0.99999614185
0.99999366313
0.99999579831
0.999996274715
0.999994974744
0.999997890457
1.00000094698
1.00000489548
1.00000935491
1.00001343322
1.00001603472
1.00001511964
1.00001031808
1.0000010941
1.0000002137
0.683427687022
0.0324249725686
1.80667961481e-21
0.999999949042
0.999999354788
0.999998404836
0.999997600866
0.999997600868
0.999997151063
0.999995816274
0.999996649895
1.00000013433
1.00000314645
1.00000689439
1.00001041964
1.00001279681
1.00001219037
1.00000595361
1.00000104152
1.00000033411
0.673494863033
0.0285877939909
8.07793566946e-25
1.0000002495
0.999999793529
0.9999990338
0.999998517282
0.999997460955
0.99999660293
0.999997553935
0.999997242306
0.999999372873
1.00000149982
1.00000433259
1.00000727165
1.00000941925
1.00000886938
1.00000155766
1.00000082377
1.00000031493
0.66155342078
0.0244368943974
-8.27180612553e-22
1.0000007394
1.00000037804
0.9999997521
0.999998700746
0.999997280464
0.99999660293
0.999998582579
0.999998657985
0.999998795406
1.0000001584
1.00000145501
1.00000357542
1.0000055909
1.00000537238
1.00000059635
1.0000007413
1.00000034516
0.648565066156
0.0208152384437
-2.91802850329e-20
1.00000134826
1.00000097695
1.00000037352
0.999999549076
0.999998585691
0.99999816127
0.999996085978
0.999995855996
0.999995928119
0.999997590088
0.999999207518
1
1.00000165321
1.00000210779
1.00000026384
1.00000073395
1.00000036212
0.632738226135
0.0163523822066
0
1.00000187832
1.00000161093
1.00000098081
1.00000028262
0.999999481009
0.999997587007
0.999994058268
0.999990321882
0.99998984612
0.999993453232
0.999995458125
0.999997905309
0.999999069389
0.999999844826
0.999999837286
1.00000058739
1.0000003495
0.612866102215
0.0122548455982
-1.15224680497e-22
1.00000232257
1.00000222436
1.00000170973
1.00000102058
1.00000038791
0.99999897429
0.999997101588
0.999993517258
0.999989576693
0.999990494886
0.999992419757
0.999993720942
0.999996355015
0.999997953734
0.999999455058
1.00000073339
1.00000051242
0.590159294732
0.00904833996975
9.03501810405e-22
1.00000223279
1.00000232337
1.00000211478
1.00000170924
1.00000113716
1.00000044999
0.999999690541
0.999997286056
0.999989576966
0.999986985736
0.999989652555
0.999991620895
0.999994585249
0.999995377999
0.999998283867
1
1.00000011225
0.566366772038
0.00629171299302
-3.59916144014e-21
1.0000025031
1.00000269303
1.00000260314
1.00000230968
1.00000177712
1.00000091782
0.999999909144
0.999997203939
0.999991324729
0.99997974845
0.999977994059
0.999990080089
0.999992342356
0.999990974293
0.999994643783
0.999999742584
1.00000002958
0.542062252625
0.00395343533264
-2.40350712601e-38
1.0000028304
1.00000309236
1.00000308202
1.00000285286
1.00000232588
1.00000136235
0.999999955676
0.999996976677
0.99999288765
0.999986330471
0.999977136956
0.999986368863
0.999989218523
0.999987134333
0.999992501091
0.999999580345
1
0.518198659053
0.00232140525653
4.51750905202e-22
1.00000315021
1.00000346224
1.00000351025
1.00000332282
1.00000278763
1.00000173515
1.00000001958
0.999997075494
0.999991540703
0.999985110304
0.99997712494
0.999979784682
0.999986458966
0.9999838347
0.999990785235
0.999999435902
1
0.496640941401
0.0013151863841
1.05635089103e-05
1.00000341645
1.00000375402
1.00000384641
1.00000369035
1.00000314855
1.00000203868
1.0000001504
0.999997198301
0.9999907449
0.999982598983
0.999977128315
0.99997712494
0.999980891667
0.999973837863
0.999987164143
0.999999381205
0.999999993427
0.477547475044
0.000720870357295
4.5499234451e-05
1.00000358342
1.00000392268
1.00000404834
1.00000391829
1.00000337874
1.00000225003
1.00000032125
0.999997351967
0.999991522665
0.999984816685
0.999977128139
0.999980312104
0.999976157017
0.999972831963
0.999972831963
0.999999135654
0.999999962345
0.461049902685
0.000510462179404
8.61777081267e-05
1.00000361215
1.00000393275
1.00000407774
1.00000396699
1.00000343632
1.00000232328
1.0000004587
0.999997580474
0.999992513213
0.999987885388
0.999979882113
0.999981761526
0.999976161495
0.999982927822
0.999990912329
0.999999133328
0.999243046604
0.448228901499
0.000371979446319
0.000158970290679
1.00000347509
1.00000376128
1.00000390531
1.00000380627
1.00000329594
1.00000225395
1.00000053083
0.9999978999
0.999993409914
0.999989286445
0.999983571611
0.999981650228
0.99997713704
0.999986073311
0.999996310263
0.999999120938
0.997353592306
0.43910763707
0.000337995478986
0.000192925125444
1.00000316426
1.00000340982
1.00000353068
1.00000344705
1.00000299931
1.00000209541
1.00000056167
0.99999821179
0.999994319533
0.999988713745
0.999981965609
0.999982969806
0.999986650279
0.99998932613
0.999997435434
0.999999111951
0.995705142599
0.432433151656
0.000233273239455
0.000105717188282
1.00000269741
1.00000290754
1.00000301127
1.00000297138
1.0000026342
1.00000188983
1.00000054018
0.999998433146
0.999995033149
0.999990546418
0.999985948856
0.999990064917
0.999991697317
0.999992549876
0.999997176194
0.999999116377
0.994581394828
0.427981840546
0.000143989927009
5.80517469986e-05
1.00000214329
1.00000232204
1.00000245729
1.00000247814
1.00000225129
1.00000163885
1.00000046115
0.999998588677
0.999995955266
0.999993734096
0.999990956533
0.999994159992
0.999994650602
0.999994733353
0.999996637765
0.999999116387
0.994032659224
0.425244051436
9.37150483677e-05
4.47031863793e-05
1.00000163254
1.00000178209
1.00000196456
1.00000203868
1.00000188254
1.00000134009
1.00000031351
0.999998799299
0.999997034318
0.999995496198
0.999992352805
0.999995519978
0.999996042778
0.999996289059
0.999996731259
0.999999116391
0.994097082261
0.42408343957
6.15480797824e-05
2.97643994259e-05
1.00000124376
1.00000138599
1.00000158512
1.00000168719
1.00000154029
1.00000101558
1.00000013311
0.999998964099
0.999997605497
0.999995886405
0.999992700058
0.999995641678
0.999995758312
0.99999520936
0.999996823498
0.999999116391
0.994366768938
0.423846215899
3.45907456757e-05
1.47702399463e-05
1.0000009091
1.00000108182
1.00000129028
1.00000138933
1.00000119168
1.00000064549
0.999999782431
0.999998994698
0.999997441756
0.999996286304
0.999992294173
0.99999313824
0.999990344545
0.999988401057
0.99999578284
0.999999116391
0.994371747594
0.424230026585
3.03876909288e-05
6.27313687019e-06
1.00000063923
1.00000085923
1.00000108308
1.00000117876
1.00000084619
1.00000017778
0.999999930865
0.999998850474
0.99999870418
0.999996320208
0.999993949227
0.999988903345
0.999984353462
0.999984353462
0.999994494504
0.999999114646
0.994208760382
0.42493153433
3.27728010754e-05
4.86360502627e-06
1.00000048228
1.00000076598
1.00000112252
1.00000093969
1.0000008311
1.00000048221
0.999999824822
0.999999548158
0.999997796428
0.999996832092
0.999994529301
0.999993528098
0.999989451209
0.9999878057
0.999995093509
0.999999106043
0.993783797853
0.42563626329
2.71291497038e-05
2.44123091554e-06
1.00000033257
1.00000073578
1.00000092826
1.00000122158
1.00000076189
1.00000047432
1.00000043302
1.00000032009
0.999999464403
0.999998743746
0.999998216787
0.999997513088
0.999996118806
0.999995336993
0.999996027522
0.99999907743
0.99348031598
0.426413574628
2.32997599008e-05
1.34644409269e-07
1.00000074962
1.00000106092
1.00000114048
1.00000106855
1.00000106935
1.00000099283
1.00000058841
1.00000035099
0.999999871521
0.999999212897
0.999998840546
0.999998032056
0.999996955437
0.999995411992
0.999996091189
0.999998989384
0.993405384474
0.427374673395
2.61249148575e-05
-1.72329294282e-24
1.00000086697
1.0000010164
1.00000104425
1.00000090491
1.00000088437
1.00000065346
1.00000053097
1.00000035055
0.99999982056
0.999998920408
0.99999805946
0.999997106134
0.99999575649
0.999993789515
0.999996068077
0.999998837177
0.993580062751
0.428639517238
4.17469534884e-05
1.10644935248e-07
1.00000086135
1.00000085957
1.00000082368
1.0000007305
1.00000063566
1.00000058939
1.0000005409
1.00000033453
0.999999840564
0.999999005915
0.999997890015
0.999996409537
0.999993764394
0.999990753267
0.999996098108
0.999998597379
0.993342573075
0.430522992909
8.87411078981e-05
3.21726988719e-06
1.00000061107
1.00000046513
1.00000032594
1.00000025293
1.00000029512
1.00000031381
1.00000038169
1.00000024783
1.00000009249
0.999999608978
0.9999983295
0.999995784354
0.999991762573
0.999986563263
0.999995743789
0.999998198227
0.992400731925
0.432971092198
0.000192350178109
0
1.00000008114
0.999999819548
0.999999595641
0.999999487034
0.999999673736
0.999999920185
0.999999747394
0.99999986546
1.00000043989
1.00000033905
0.999999389249
0.999998166589
0.999990408976
0.999983849459
0.999995800751
0.999997735961
0.990544898764
0.435584926586
0.000394886663262
3.59349660903e-24
0.999999336635
0.999999045335
0.999998828836
0.999998799443
0.999999113201
0.999999412362
0.999999654403
1.00000020728
0.999987712285
0.999983849414
0.9999956469
0.999997386623
0.988506682295
0.43774060317
0.000599463794481
-5.06217301953e-24
0.999998373839
0.999998253677
0.999998100132
0.999998391728
0.999999111186
0.999999806658
1.00000038941
1.00000105492
0.999993184865
0.999987390037
0.999995975737
0.999997197334
0.987703938873
0.438698750839
0.000740336153805
-8.56738533108e-22
0.999997796584
0.999997785184
0.999998175905
0.999998959505
1.00000018437
1.00000135096
1.00000267434
1.00000241669
0.999993184773
0.999987925922
0.999993953749
0.999997119649
0.988893109812
0.438014203398
0.000724255391594
1.12709251669e-07
0.999997586938
0.999997741439
0.999998727261
1.0000001604
1.00000161033
1.0000031988
1.00000459881
1.00000350416
0.999995223263
0.999989962462
0.999992645518
0.999997092106
0.990471927687
0.436343704445
0.000561576503022
-5.6885038396e-23
0.999998071269
0.999998978157
1.00000009235
1.00000172107
1.00000376307
1.00000587427
1.00000754549
1.00000794251
1.00000741192
1.00000683477
1.00000511976
1.00000121851
0.999993243946
0.999989289535
0.999991208313
0.999997075995
0.991725524156
0.434304886692
0.000374097415784
-5.18334205457e-25
1.00000091143
1.00000207877
1.00000294856
1.00000403077
1.00000539327
1.00000675582
1.00000756121
1.00000733683
1.0000062521
1.00000462537
1.00000258726
1.0000000942
0.999996700639
0.999991942951
0.999991520311
0.999997044682
0.992538929013
0.432218439856
0.000209633872944
8.61646471409e-25
1.00000316819
1.00000430975
1.00000519407
1.00000614459
1.0000071209
1.00000780304
1.00000769091
1.00000641079
1.00000414734
1.00000133854
0.999998678862
0.999997083181
0.999995226838
0.999990746814
0.999992699082
0.999996989709
0.992956398765
0.429950540248
0.000103189223841
6.75282385585e-06
1.00000495456
1.00000603699
1.00000677502
1.00000743112
1.00000790174
1.00000783789
1.00000686595
1.00000471375
1.00000146433
0.999998197921
0.999995573106
0.999992860276
0.999989975907
0.999986623977
0.999992001359
0.99999690787
0.992825235275
0.427675805661
5.3206497228e-05
3.34988403224e-07
1.00000611272
1.00000711573
1.00000778024
1.00000812756
1.00000793986
1.0000071698
1.00000548216
1.00000265645
0.999999079853
0.999996828404
0.999993229839
0.999985229242
0.999977182973
0.999975836544
0.999989730738
0.999996791633
0.992430592528
0.425549798072
2.63219841751e-05
-3.71234583865e-14
1.00000708652
1.00000795979
1.00000844591
1.0000084987
1.00000791968
1.00000650712
1.00000407938
1.00000078219
0.99999802953
0.999992982806
0.999989872821
0.999981341951
0.999958875098
0.999951039706
0.999976743252
0.999996634966
0.992261357635
0.423771495979
6.38046188307e-06
5.19782132116e-07
1.0000075034
1.00000814828
1.0000084753
1.00000836045
1.00000750756
1.00000564365
1.00000268169
0.99999927334
0.999995801593
0.999988133851
0.999981098384
0.99997398203
0.999938637398
0.999916061295
0.999969500726
0.999996498806
0.992257209004
0.422537108978
1.73562426406e-06
1.79380753253e-06
1.00000715697
1.00000755196
1.00000779222
1.00000763033
1.00000669683
1.000004706
1.00000168243
0.999998811774
0.999991755604
0.999981965964
0.999976287431
0.999949917501
0.999916061295
0.999916061295
0.99994067854
0.999996789592
0.99248193045
0.422089582793
2.37130464005e-06
8.04801179181e-06
1.00000606778
1.00000639087
1.00000676566
1.0000068135
1.00000612845
1.00000434103
1.00000142307
0.999998522198
0.999990425692
0.999983855009
0.999978985828
0.999956931861
0.999921275456
0.999916061295
0.999929758546
0.999996996487
0.993158688316
0.422199006808
2.99237442234e-05
1.68118910437e-05
1.0000046076
1.00000513013
1.00000589048
1.00000640629
1.00000618476
1.00000477116
1.0000019379
0.999999003504
0.999993515142
0.999990288744
0.999982144752
0.999967623489
0.999958487966
0.999940692514
0.999951539615
0.999997097815
0.994066983354
0.422895644702
5.04758094601e-05
2.84924141094e-05
1.00000330653
1.00000405604
1.00000521
1.00000620736
1.00000648399
1.00000548046
1.00000281807
0.999999655173
0.999997064269
0.999992606755
0.999986676675
0.999983083556
0.999979008828
0.999964538436
0.999969618947
0.99999716738
0.994785532273
0.424263399238
7.83575440365e-05
4.08576141665e-05
1.00000263735
1.00000357266
1.00000507345
1.00000656582
1.00000731084
1.0000066365
1.00000412767
1.00000032067
0.99999819455
0.999990772966
0.999983813182
0.999983436161
0.999983422646
0.999976303318
0.999978398113
0.999997241956
0.995008773843
0.426503435959
0.000110925577058
4.55523060641e-05
1.00000133432
1.00000203956
1.0000031958
1.00000440907
1.00000515205
1.00000496196
1.00000358935
1.0000009913
0.999997749094
0.999991284218
0.999980320746
0.999971646755
0.999971632053
0.999976264915
0.999979874178
0.999997304626
0.995146613623
0.429773847491
0.000166411081624
6.91522500234e-05
1.00000075021
1.00000117665
1.00000209979
1.00000313095
1.00000386645
1.00000396413
1.00000331523
1.00000165691
0.999999124502
0.999997253113
0.999990549789
0.999972735615
0.999969256627
0.999969256627
0.999981646146
0.99999736245
0.996037497813
0.434658229395
0.000231307773212
0.000130424350484
1.00000051326
1.00000083805
1.00000142678
1.00000233415
1.00000306092
1.00000336791
1.00000312498
1.00000209236
1.00000024321
0.999998480312
0.999996926453
0.999992148443
0.999976022555
0.999969256627
0.999988429884
0.999997417218
0.997627055085
0.44160237536
0.000327822919486
0.000198756188493
0.999999712316
1.00000047896
1.00000108611
1.00000178357
1.00000247223
1.00000290731
1.00000283036
1.00000212542
1.00000077882
0.999999178504
0.999997524407
0.999995607321
0.999990338078
0.999981280069
0.999990778037
0.99999745699
0.999559467052
0.450998081362
0.00042578360567
0.000128247356754
0.999999618045
1.00000006955
1.00000081373
1.00000141308
1.00000201997
1.00000244238
1.00000238962
1.00000179114
1.00000067402
0.999999226539
0.999997565493
0.999995581081
0.999993470092
0.999991555255
0.999991120253
0.999997484899
0.999999264794
0.464559148844
0.000587959348848
4.56623638758e-05
0.999999628744
0.999999743801
1.00000061422
1.00000120128
1.00000164567
1.00000194003
1.00000184964
1.00000126545
1.00000021802
0.999998863667
0.999997179374
0.999994561197
0.999990505952
0.999991556887
0.999990925403
0.999997569295
0.999999323201
0.481328734347
0.00102436263258
2.95425913087e-05
0.999999643339
0.999999826506
1.00000044092
1.00000099842
1.00000132172
1.00000145932
1.00000130885
1.00000073082
0.999999778839
0.999998467999
0.999996913282
0.999994498832
0.999989157124
0.999984491296
0.999988900575
0.999997643177
0.999999423049
0.500308183597
0.00164020910051
1.07744166682e-05
0.999999729866
1.00000014822
1.00000035151
1.00000077488
1.0000010568
1.00000108132
1.00000089171
1.00000033394
0.99999943164
0.999998196183
0.999996738886
0.999994444959
0.999991035391
0.999982871268
0.999981629056
0.999997538544
0.999999530204
0.521923634989
0.00275079227967
0
1.00000032716
1.00000054955
1.0000006839
1.00000084751
1.00000103113
1.00000099359
1.0000007419
1.00000013197
0.999999180021
0.99999789079
0.999996472481
0.999994633951
0.999992406272
0.999986807905
0.999981629056
0.999997539794
0.999999647998
0.544785999911
0.00436040665071
-1.12937726301e-22
1.00000061952
1.00000080641
1.00000103629
1.00000118787
1.00000127137
1.00000120176
1.00000076352
0.999999932338
0.999998737611
0.99999728167
0.999995796163
0.99999463762
0.999993716022
0.999989518334
0.999982324417
0.999997620463
0.999999757701
0.56800027077
0.00671191432535
8.21730109605e-29
1.00000073047
1.00000090558
1.00000113386
1.00000136205
1.00000149106
1.0000013041
1.00000073834
0.999999806296
0.999998417871
0.999996567375
0.999994872286
0.999993888919
0.999992344943
0.999990438971
0.999992174713
0.99999763189
0.99999981835
0.591066074985
0.00962221529824
6.14870921975e-24
1.00000115729
1.00000140638
1.00000169414
1.0000020469
1.00000218933
1.00000180012
1.00000084378
0.999999252406
0.999996730636
0.999993380005
0.999989819061
0.999984614108
0.999983576159
0.999983575665
0.999988271123
0.999997448473
0.999999845937
0.613163812873
0.0127898679935
1.99901981367e-22
1.00000077887
1.00000100708
1.00000123381
1.00000139606
1.00000133996
1.00000093333
1.00000016649
0.999998899677
0.999997060189
0.999994460379
0.999990171452
0.999989269033
0.999985421348
0.999983575665
0.999986762722
0.999998080145
0.999999867807
0.633057483169
0.0169645728351
-1.37078165297e-20
1.00000091402
1.00000107548
1.00000120307
1.00000124107
1.00000108504
1.00000065298
0.999999957547
0.99999893475
0.999997917133
0.999996932086
0.999995288485
0.99999434036
0.999993517822
0.999988372289
0.999992297497
0.999998606673
0.999999886601
0.648782999037
0.021059862334
0
1.00000093752
1.00000101426
1.00000106269
1.00000103185
1.00000080977
1.00000032539
0.999999507804
0.999998372184
0.999997118687
0.999996229794
0.999995900559
0.999993795573
0.999995240299
0.999995871933
0.999996273708
0.999999010098
0.999999898118
0.660854803932
0.0236919422597
-1.524135424e-21
1.00000077322
1.00000080522
1.00000085836
1.00000085223
1.00000067312
1.00000021778
0.999999372899
0.9999979837
0.999995979313
0.999993886938
0.999993792879
0.999993893297
0.999993792879
0.999997492327
0.999997875821
0.999998939137
0.999999921325
0.671542766577
0.0270816759567
-1.47657932425e-23
1.00000051517
1.00000061549
1.00000074907
1.00000079985
1.00000077535
1.00000047695
0.999999926843
0.99999887496
0.999997462902
0.999996521987
0.999996247727
0.999997164732
0.999994570544
0.999995360782
0.999998821698
0.999999591756
0.999999962336
0.680291012737
0.0297651290794
4.32506138969e-25
1.00000038222
1.00000055552
1.0000006459
1.00000096129
1.00000116561
1.00000113285
1.00000073144
1.000000023
0.999999406943
0.999998868134
0.999998643098
0.999998477354
0.999996829426
0.99999525792
0.999999954628
0.999999925098
0.999999992078
0.688630931769
0.0319007368105
-4.82396151297e-10
1.00000026123
1.00000055494
1.00000081744
1.00000122207
1.00000162518
1.00000170882
1.00000142505
1.00000087443
1.00000025809
0.999999542953
0.999999448521
0.999998947588
0.999996088337
0.999995783227
1.00000150315
1
0.999999999859
0.697907105984
0.0346394412451
-2.4700832592e-10
1.00000069138
1.00000080592
1.00000097882
1.00000147889
1.00000216166
1.00000238179
1.00000213747
1.00000161834
1.00000075925
1.00000061884
1.00000014751
1
0.999998780051
0.999999518755
1.00000320193
1
0.999999999175
0.709472967645
0.0389242747678
-7.92087457849e-13
1.00000164409
1.00000108889
1.00000126888
1.00000179022
1.00000208429
1.00000208065
1.00000171052
1.00000126603
1.00000088522
1.00000118938
1.00000192697
1.00000166174
1.0000012595
1.00000164473
1.000003401
1
0.999999996994
0.721580568349
0.04467519789
-3.61172028053e-14
1.00000115648
1.00000303604
1.00000193344
1.00000213593
1.00000224773
1.00000212003
1.00000173146
1.00000130769
1.00000111856
1.00000167051
1.00000227405
1.00000293024
1.00000338047
1.00000341436
1.00000278006
1.00000000037
0.999999996093
0.734532285979
0.0517933097319
-2.13994146232e-15
1.00000311466
1.00000247685
1.00000241825
1.00000246876
1.00000241972
1.00000216056
1.00000172835
1.00000136724
1.00000135558
1.00000147384
1.00000171999
1.000003106
1.00000393294
1.00000432267
1.0000020189
1.00000008942
1.00000004248
0.74924413038
0.0603007898259
-2.00022300254e-16
1.00000273826
1.00000283516
1.00000273833
1.00000269581
1.00000251774
1.00000214946
1.00000170466
1.0000014756
1.00000138945
1.00000028387
1.00000097817
1.0000015453
1.00000340006
1.00000448662
1.00000178209
1.00000004463
1.00000017229
0.766635102495
0.0712353443791
-4.06022958002e-18
1.00000289759
1.00000290782
1.0000028387
1.00000273909
1.00000248031
1.0000020708
1.00000170807
1.0000015277
0.999999542938
0.999999679774
0.999999741244
1.00000009231
1.0000024187
1.00000390778
1.00000110621
1.00000004723
1.00000004585
0.784907881735
0.0855575780065
-1.65938149629e-17
1.00000274311
1.0000027164
1.00000267046
1.00000254525
1.00000226969
1.00000189226
1.00000166161
1.00000000401
0.999998685434
0.999997776538
0.999996715009
0.999999436818
1.0000009928
1.00000241365
1
1.00000001918
0.999999709822
0.803591540345
0.100460410578
-4.40271980502e-18
1.00000233051
1.00000225931
1.00000221039
1.00000210132
1.000001863
1.00000162059
1.00000100048
0.999998985253
0.999996573309
0.999993271198
0.999996263481
0.999998581016
1
1.00000020648
1
1.00000000814
0.999999468636
0.824145228227
0.112581270594
-9.88068444271e-19
1.00000166866
1.00000152177
1.00000148361
1.00000142708
1.00000129498
1.00000105457
1
0.999998748342
0.999995105971
0.999988956426
0.999995322454
0.999996563845
0.999997012365
0.999997686988
0.999998962516
0.999999309841
0.999997936266
0.845017657919
0.12452967757
-3.47927316011e-19
1.00000078073
1.00000057395
1.0000005448
1.00000059856
1.00000054418
1.00000029356
0.999999631129
0.999997865984
0.999993882627
0.999987882518
0.999987882788
0.999993119223
0.999993977537
0.999993927452
0.999995450987
0.999997433413
0.999995589252
0.865507078204
0.142991649409
-8.76983613677e-22
0.999999778215
0.999999513703
0.999999569046
0.999999702838
0.999999681558
0.999999462975
0.999999043838
0.999996953628
0.999993563965
0.99998857401
0.999981696667
0.99998914321
0.999991358557
0.999991145692
0.999992604294
0.999994713395
0.999992659266
0.889815579784
0.167625062927
-2.58917396277e-22
0.999998636102
0.999998350393
0.999998471556
0.999998686615
0.999998795723
0.999998608699
0.99999824296
0.999996185924
0.99999188384
0.999987440179
0.999978141311
0.999986453479
0.999989871156
0.999989034886
0.999990296593
0.999992446241
0.999990110014
0.919435839802
0.196604676604
-3.71914457494e-21
0.999997552434
0.99999726047
0.999997420454
0.999997788608
0.999998008038
0.999997875135
0.999997523566
0.999994782881
0.999990143625
0.99998699105
0.999978141311
0.999983709286
0.999989412318
0.999989034886
0.999989982237
0.999992851729
0.999991002774
0.945645211542
0.22764323866
-3.68673129975e-27
0.99999655906
0.999996280707
0.999996503027
0.999996902769
0.999997163979
0.999997375158
0.999997191047
0.999992735043
0.999989795727
0.999984354694
0.999978750575
0.999986458444
0.99999022584
0.999989890345
0.999993099891
0.999993641082
0.999992852211
0.96081458774
0.252890957682
-1.65525209806e-24
0.999995188831
0.999995237931
0.999995583531
0.999995996164
0.99999650479
0.999996881047
0.999996264009
0.99999371238
0.999986205916
0.999981094729
0.999984042296
0.99999031886
0.999990994267
0.99999197333
0.999995097817
0.999994906828
0.999993641091
0.963993590237
0.270936663578
-8.09842635823e-24
0.999994778363
0.999994924091
0.999995406025
0.999995858391
0.999996393166
0.999996979539
0.999995959777
0.999992286503
0.999990121724
0.999981163476
0.999989545965
0.999993921404
0.999994218902
0.999994349361
0.999996544356
0.999996836951
0.999994872924
0.951017691401
0.283051934436
-7.05511960229e-21
0.999997320996
0.999997613287
0.999997826753
0.999998071535
0.999998256806
0.999998387375
0.999996461283
0.999995939308
0.999994511123
0.999990109178
0.999995111654
0.999997743883
0.999998009083
0.999998009092
0.999997945105
0.999997729408
0.999995887019
0.919682292556
0.31353424744
-3.7380611693e-20
)
;

boundaryField
{
    back
    {
        type            zeroGradient;
    }
    sides
    {