/*--------------------------------*- C++ -*----------------------------------*\
| =========                 |                                                 |
| \\      /  F ield         | OpenFOAM: The Open Source CFD Toolbox           |
|  \\    /   O peration     | Version:  v2012                                 |
|   \\  /    A nd           | Website:  www.openfoam.com                      |
|    \\/     M anipulation  |                                                 |
\*---------------------------------------------------------------------------*/
FoamFile
{
    version     2.0;
    format      ascii;
    class       volScalarField;
    location    "4.9";
    object      k;
}
// * * * * * * * * * * * * * * * * * * * * * * * * * * * * * * * * * * * * * //

dimensions      [0 2 -2 0 0 0 0];


internalField   nonuniform List<scalar> 
1984
(
0.00111453105912
0.00130314317421
0.00137056154128
0.00139934417409
0.00141456528213
0.00142521763505
0.00143450939626
0.00144367025454
0.00145334805945
0.00146436198398
0.00147852533709
0.00150001911544
0.00153814978003
0.00161629867885
0.00180214000544
0.00228171771321
0.00349128122406
0.00709592211051
0.0204438695101
0.0656668643694
0.00130639574158
0.0016068230726
0.00170685113112
0.0017477729003
0.00176740268058
0.00177958074679
0.0017893636646
0.00179873092355
0.00180867857943
0.00182045660611
0.00183675804077
0.00186335807497
0.00191381215961
0.00202239088839
0.00228114068228
0.00291192290731
0.00445096952602
0.00910709103022
0.0267801859868
0.0704023896262
0.00137221803928
0.00170526468912
0.00181724054482
0.00186266641552
0.00188373411679
0.00189622531078
0.00190600780113
0.0019153113107
0.0019252795943
0.00193732874875
0.00195443093289
0.00198311553696
0.00203838685814
0.00215801772081
0.00244057788605
0.00311486053296
0.00472858010199
0.00958161051509
0.0284041688691
0.0761628248946
0.00139932371218
0.00174489624947
0.00186164702952
0.0019087400902
0.00193011383264
0.00194242646264
0.00195193223253
0.00196098754567
0.00197081565014
0.0019828178122
0.00200006698379
0.00202934204952
0.00208615947536
0.00220997830776
0.00250322032618
0.00320370105686
0.0049074276084
0.0101526653951
0.0294623476114
0.0753576848037
0.00141305701037
0.00176353750423
0.00188213440236
0.00192968424085
0.00195088614817
0.00196282513548
0.00197193904966
0.00198066114391
0.00199019795484
0.00200201652516
0.00201908013398
0.00204815945296
0.00210500266573
0.00223010630085
0.00253035282633
0.0032552142565
0.00504051505605
0.0105380438191
0.0293066945188
0.0739733661358
0.00142215464268
0.00177477616267
0.0018940498912
0.00194156153442
0.00196241187429
0.00197391339785
0.00198260504671
0.00199095111295
0.002000151025
0.00201162683929
0.00202834172616
0.00205691349658
0.002113079091
0.00223823250255
0.00254302511874
0.00328345713306
0.00509671097159
0.0105959200759
0.0286804547475
0.0735999121889
0.00142961599166
0.00178345589526
0.00190294902178
0.00195024689063
0.00197070192872
0.00198176784298
0.00199004365776
0.00199800790644
0.00200685478323
0.00201796876481
0.00203424090041
0.00206220017745
0.00211754963859
0.00224229772819
0.00254988350208
0.00330240399857
0.00513408946605
0.0106022721788
0.0288473941415
0.0731556159139
0.0014364391786
0.00179124010403
0.0019107879472
0.00195782628551
0.00197789851019
0.00198855986243
0.00199644823631
0.00200405035051
0.00201254870172
0.00202329867815
0.0020391084377
0.00206645046444
0.00212098865662
0.00224537295144
0.00255702999299
0.00333980007805
0.00534201622078
0.011478200676
0.0310397411947
0.0743877503551
0.00144290731601
0.00179865513089
0.00191821306797
0.00196499430077
0.00198471618537
0.00199501301175
0.00200255230532
0.00200982196265
0.00201799815533
0.00202839356669
0.00204374985596
0.00207045733527
0.0021240884646
0.00224745363425
0.00256011800116
0.00336170275722
0.00547217149385
0.0120475662981
0.0325340495916
0.0751293830417
0.00144909691303
0.00180583124223
0.00192540149975
0.00197194732101
0.0019913550117
0.0020013297078
0.00200855930091
0.00201553333316
0.00202341272703
0.00203347832377
0.00204839233427
0.0020744653904
0.00212713937977
0.00224899110516
0.00255951854418
0.00335914721166
0.0054744540096
0.0120091905191
0.0324162507564
0.0750499759202
0.00145502129941
0.00181275532887
0.00193237221372
0.00197871083334
0.00199784096208
0.00200753347168
0.0020144924816
0.00202120679668
0.00202882226176
0.00203857687779
0.00205307437427
0.0020785222691
0.0021302930495
0.00225085375524
0.00255986141331
0.00335992158528
0.00547256447671
0.0119036046102
0.0315870382221
0.074697753295
0.0014606596171
0.00181945896677
0.00193911770094
0.00198526720197
0.00200414953121
0.00201359521041
0.00202031973021
0.00202680811472
0.00203418897051
0.00204365177009
0.00205773091556
0.00208253901952
0.00213337122388
0.00225242286392
0.00255798225446
0.00334490826294
0.0053957213845
0.0117255698727
0.0317164317878
0.0746250883061
0.00146598055286
0.00182587224846
0.0019455999936
0.001991583581
0.00201024387804
0.00201947157474
0.00202599466027
0.00203228772259
0.00203946209134
0.00204865320168
0.00206231264572
0.00208639339576
0.00213596699645
0.00225270972938
0.00255380872582
0.00333285592244
0.00537549232172
0.0119012907279
0.0327933118479
0.0749132196029
0.0014709692108
0.001831991077
0.00195179225177
0.00199762376778
0.00201608496814
0.00202512224352
0.00203147202587
0.00203760181209
0.00204459274228
0.00205353571696
0.00206677576451
0.00209006048072
0.00213805661795
0.0022515648486
0.0025472937034
0.00332296437385
0.00539131687848
0.0120745611132
0.0329414999726
0.0748559431122
0.00147561953314
0.0018377721577
0.0019576558734
0.00200335460713
0.00202163878763
0.00203051109707
0.00203671231578
0.00204270284099
0.00204953467851
0.00205824731039
0.00207110025092
0.00209358556466
0.00213994706431
0.0022498970356
0.00253901401789
0.00330853645133
0.00540427178001
0.0122022989942
0.0326158022047
0.0745655440211
0.00147993027015
0.0018432231151
0.00196317544601
0.0020087499276
0.00202687572019
0.0020356062285
0.00204168353635
0.00204755130727
0.00205424001159
0.00206275271106
0.0020752322022
0.00209701367491
0.00214197946867
0.00224911312895
0.0025326440171
0.00329217871956
0.00537355771666
0.0122101726616
0.0326716680951
0.0744130637676
0.00148388532301
0.00184831377195
0.00196833522157
0.00201379225615
0.00203178076089
0.00204038719325
0.00204635898893
0.00205211680632
0.0020586942039
0.00206700872016
0.00207913503586
0.002100254494
0.00214396730675
0.00224868702389
0.00252691792344
0.00327304705859
0.0053139402212
0.0121925645536
0.0327949823252
0.0743144996268
0.00148746300637
0.00185301248305
0.00197311524263
0.00201847900208
0.00203633844437
0.00204483898835
0.00205073017987
0.00205640475515
0.00206285777125
0.00207099297546
0.00208276600805
0.00210318741059
0.00214553739687
0.00224772547254
0.00252224490236
0.00326841024724
0.0053274813684
0.0121941872455
0.0325759607107
0.0740828230203
0.00149065909742
0.00185732695838
0.00197751378492
0.00202278535173
0.00204053693025
0.00204896852866
0.0020547848339
0.00206039104758
0.00206675607632
0.00207474292717
0.00208620333435
0.00210599159429
0.00214716361473
0.00224782434462
0.00252355302416
0.00329221446302
0.00545288804365
0.0123008312945
0.0315476140308
0.0726991089516
0.00149370729079
0.00186119391177
0.00198146214021
0.00202667185662
0.00204435868484
0.00205272388093
0.00205849318638
0.00206406043272
0.00207037235351
0.00207825156849
0.00208947465395
0.00210875981852
0.00214915394557
0.0022496119517
0.002531634742
0.00334193188757
0.0056564849167
0.0125146445458
0.0295922635761
0.0554586202359
0.00149653151895
0.0018646328505
0.00198496399157
0.00203012759271
0.00204776327131
0.00205609303376
0.00206184315828
0.00206739331154
0.00207367532008
0.00208148220937
0.0020925249076
0.00211143406508
0.00215141913874
0.00225311945256
0.00254646245459
0.0034148179227
0.00591491956788
0.0128243268439
0.0289022907271
0.0543870407558
0.00149904178044
0.00186761559048
0.00198800334536
0.00203314184806
0.00205074950271
0.0020590701438
0.00206482020636
0.00207037250696
0.00207664861063
0.00208441202691
0.00209531889667
0.00211396124015
0.00215384037987
0.00225773868322
0.00256598901205
0.00350176256655
0.00616733702221
0.0128442332747
0.0268204981254
0.0480601108254
0.00150120512113
0.00187016395182
0.00199059894482
0.00203572327372
0.00205331958919
0.00206164596743
0.00206741149776
0.00207298376541
0.00207927399757
0.00208701820171
0.00209782566348
0.00211627233397
0.00215622987609
0.0022625586645
0.00258449868151
0.00357770553834
0.00637087394782
0.0127351247601
0.0238214688357
0.0365784249836
0.00150294107841
0.00187225215731
0.0019927420652
0.00203786357426
0.00205546619496
0.00206381005745
0.0020696056747
0.00207521346784
0.00208153321092
0.0020892809912
0.00210001793133
0.00211832512226
0.00215836189025
0.00226670123331
0.00259954167036
0.00363618884214
0.00651656529997
0.0127272675574
0.0223998941864
0.0332421549494
0.00150428453373
0.00187389598592
0.0019944254453
0.00203955198343
0.00205717254906
0.00206554883104
0.00207139078478
0.00207705273132
0.00208342120029
0.00209119539907
0.00210189252387
0.00212007508403
0.00216011286031
0.00226999279402
0.00261216280435
0.00368644547493
0.00664981995976
0.0130348289878
0.0241320747675
0.0451794788074
0.00150518218558
0.00187506944313
0.00199563423322
0.00204077394573
0.00205842605863
0.00206685383621
0.00207276182374
0.0020784958508
0.00208493291711
0.00209276142371
0.00210344544336
0.00212149569231
0.00216141418983
0.00227225504672
0.00262220583316
0.00373065521463
0.00677684388628
0.0134343094532
0.0263136040865
0.0547748131993
0.00150563935819
0.00187576861081
0.00199635271363
0.00204151112391
0.00205921072562
0.00206770972876
0.0020737069012
0.00207954015962
0.00208607459203
0.0020939816564
0.00210468801465
0.00212265582756
0.00216245399296
0.00227387736156
0.00262944318497
0.00376545342621
0.0068845731207
0.013653771957
0.0258570160835
0.0431048740773
0.00150567975607
0.00187599496094
0.00199656660975
0.00204174502306
0.0020595081054
0.00206809875321
0.00207420743516
0.00208016414839
0.00208682423563
0.00209484227294
0.0021056201269
0.00212362274832
0.00216353255729
0.00227594006785
0.00263707979113
0.00379906767417
0.00699668822751
0.013953738558
0.027042041494
0.0601546565802
0.00150529229446
0.00187570415189
0.00199624026286
0.00204144974928
0.00205930021311
0.00206800876846
0.00207425506485
0.00208036575688
0.00208719923235
0.00209538742047
0.00210631893461
0.00212454349644
0.00216505740106
0.00227961634254
0.00264871026557
0.00383979302824
0.00711971100794
0.0142696907584
0.0276911111937
0.0580463495827
0.00150448194686
0.00187486857729
0.00199533513959
0.00204059575494
0.00205856786088
0.00206742739178
0.00207384136672
0.00208013705385
0.00208717758237
0.00209560178183
0.0021068366421
0.00212563393111
0.00216754658475
0.00228521443975
0.00265987345916
0.00386887512728
0.00723529118589
0.0146591013814
0.0285636341403
0.0529011661506
0.00150327620775
0.00187347190441
0.00199382337325
0.00203915627787
0.00205728970203
0.00206633872567
0.00207295538162
0.00207947387391
0.0020867698118
0.00209551608579
0.0021072690354
0.00212724744094
0.0021721184885
0.00229582933935
0.00267864519148
0.00390325205822
0.00735982558099
0.0150721890255
0.0296372086222
0.0566766424365
0.00150162087592
0.00187146743373
0.00199167393512
0.00203710553146
0.00205544620971
0.00206472835712
0.0020715888314
0.00207837294429
0.00208597938336
0.00209515056434
0.00210771458716
0.00212978813778
0.002180235103
0.00231629746572
0.00271897144943
0.00396727925383
0.00746732612185
0.0152519088063
0.029852119098
0.0535490616454
0.00149942972131
0.00186879838719
0.00198886295261
0.00203443099228
0.002053025242
0.002062586181
0.00206973429248
0.00207682690997
0.00208479812341
0.00209450194692
0.00210819807671
0.00213339531138
0.00219244094353
0.00234864275665
0.00278790385879
0.00407866912799
0.00758134717412
0.0152551903528
0.0293618111375
0.0502721223338
0.00149668329247
0.00186546341768
0.00198537576284
0.00203111783001
0.00205001278713
0.00205989968458
0.00206737884818
0.0020748211103
0.00208320545147
0.00209352944785
0.00210858596183
0.00213757265676
0.00220703098409
0.00238756212072
0.00287161676118
0.0042144200698
0.00770659630742
0.0152310284609
0.0290308379011
0.0489280688031
0.00149337648818
0.00186145145885
0.00198119818011
0.0020271501079
0.00204639384497
0.0020566545276
0.00206450652769
0.00207234182264
0.00208117988689
0.00209215597729
0.0021085711221
0.00214120692058
0.00222037334592
0.00242292842382
0.00294729029373
0.00433797610955
0.00781549751365
0.0151817115507
0.028727125571
0.0485279540877
0.0014894802192
0.00185674461997
0.00197631822205
0.00202251446985
0.0020421535206
0.00205283635804
0.00206111465761
0.00206939180621
0.00207871295323
0.00209031002609
0.00210782385579
0.00214304232073
0.00222849395591
0.0024445552458
0.00299330662155
0.00441380203895
0.00786972695123
0.0150542807394
0.0281051498143
0.047170261431
0.00148496624033
0.00185132959467
0.00197072985774
0.00201720031699
0.00203728426825
0.00204844913842
0.00205721368051
0.00206598372104
0.00207582096294
0.00208799754637
0.0021062870617
0.00214282105072
0.00223067528502
0.00245099595025
0.00300907314559
0.00444830718057
0.00790572387371
0.0149946084517
0.0279227965026
0.0503402205352
0.00147982383548
0.00184521060521
0.00196443674229
0.0020112154855
0.00203179524751
0.00204350097742
0.00205281265091
0.00206213759962
0.00207254200643
0.0020852996026
0.00210425360315
0.00214150407349
0.00222966433999
0.00244897388359
0.00300634527635
0.00445647999076
0.00793665134386
0.0149948970998
0.027823298902
0.0489537800344
0.00147403270297
0.00183839619728
0.00195745871192
0.00200457528643
0.00202569508119
0.00203799956172
0.00204792590589
0.00205787605107
0.00206890251665
0.00208228378568
0.00210183420624
0.00213941053448
0.00222689724655
0.00244358383641
0.00299856659881
0.00445994358269
0.00796590714897
0.0150164071748
0.0278193824126
0.0492652341458
0.00146764538028
0.00183090786122
0.00194981768853
0.00199729866832
0.00201900051212
0.00203196350909
0.00204257954076
0.00205323411614
0.00206494358592
0.00207893701094
0.00209874325651
0.00213554445101
0.00221996898893
0.00243120032036
0.00298437425544
0.00446241002655
0.00798969404906
0.0149838811198
0.0279089337451
0.0567184150745
0.00146058430472
0.00182278992548
0.00194156539116
0.00198942751634
0.00201174287485
0.00202541865519
0.00203680352309
0.00204823464027
0.00206073260663
0.0020753311808
0.00209510284425
0.00212997467016
0.00220889954553
0.00241214089881
0.0029668246045
0.00447245206274
0.00799967875093
0.0148615477459
0.0275768365826
0.055238978431
0.0014530200023
0.00181413862588
0.0019327865373
0.00198102647952
0.00200396473676
0.00201837984265
0.0020305668425
0.00204288016982
0.00205629103082
0.0020717150095
0.00209167503309
0.00212493320065
0.00219919160697
0.00239750941356
0.00296382287828
0.00451301545596
0.00804137557313
0.0147341914145
0.0268729250162
0.0473919778902
0.00144492615408
0.00180504563669
0.00192357807886
0.00197217381924
0.00199568904376
0.00201079379293
0.00202375641512
0.00203695537073
0.00205141508538
0.00206799560642
0.00208884946517
0.00212201184597
0.00219467079827
0.00239246130803
0.00297382755276
0.00456630322713
0.00810279327789
0.0146620849064
0.0269248933706
0.0600567289273
0.00143639473149
0.00179567966763
0.0019141168724
0.00196297762968
0.00198690964251
0.00200244909086
0.00201584001332
0.0020295619488
0.00204502199931
0.00206319365298
0.00208582587326
0.00212100743146
0.00219673322776
0.00239933109276
0.00299493284654
0.00461858378559
0.00816375519612
0.0146594413127
0.0272532251516
0.0588857466947
0.00142764539614
0.00178628644518
0.00190460631412
0.00195353201273
0.00197743741835
0.00199259871472
0.00200511759604
0.0020179254868
0.00203379734894
0.00205403032685
0.00207908020795
0.00211778829941
0.0022033288347
0.00242052925876
0.00303138688311
0.00467694437475
0.00823773382391
0.014716247565
0.0269257430729
0.0469863930966
0.00141902704828
0.0017771782201
0.00189530151619
0.00194387602964
0.00196671809063
0.00197931099552
0.00198714211825
0.00199415295289
0.00200716303487
0.00202915382892
0.0020563533012
0.00210038402839
0.00221261085651
0.00246587970976
0.0031102512457
0.00478072609368
0.00832111518979
0.0147257261734
0.0273426022028
0.0503243535139
0.00141072184529
0.00176867026764
0.00188644167761
0.00193390930135
0.0019536057229
0.00195840701833
0.00195049238793
0.00193298001667
0.001927246097
0.00194898323584
0.00197865254548
0.00203716805593
0.00222696869547
0.00255139037159
0.00325767109025
0.00495430567124
0.00840844282212
0.0144056691764
0.0253303874785
0.0470137403305
0.00140305085355
0.00176110582014
0.00187834459272
0.00192383703005
0.00193763930595
0.00192604628572
0.00187720711669
0.00177404664023
0.00162514267371
0.00163300518837
0.00167473669416
0.00184511891598
0.00224692326644
0.00271774694009
0.00351198896233
0.00520993036138
0.00850654088602
0.0140759732722
0.0244836015152
0.0574984937105
0.00139616292096
0.0017545973997
0.0018713256764
0.00191467725486
0.00192342842547
0.00190094744134
0.00182049602275
0.0015420487105
0.0022708908607
0.00300268328589
0.00386762486587
0.00549848153959
0.00861043195221
0.0138398337276
0.0231405993889
0.0588832306438
0.00139176490378
0.0017510151676
0.00186767886224
0.00190987354657
0.00191537590688
0.00188534229488
0.00178747970026
0.00146134832606
0.00242897431587
0.003279675648
0.00417078245348
0.00569356581282
0.00870809621827
0.0139264552787
0.0219126256004
0.0331967254809
0.0013917325535
0.00175098149395
0.00186765224774
0.00190985695853
0.00191536851557
0.0018853461074
0.00178751123645
0.00146158294524
0.00242765482912
0.00327416259674
0.00415515916011
0.00567080125626
0.00874236795305
0.0141579215963
0.0224685248925
0.0333334761518
0.00139611383094
0.00175453851327
0.00187127840156
0.00191463893197
0.00192339483863
0.00190090859092
0.00182048284815
0.00154223487834
0.00226794468834
0.00299130263913
0.00383793267523
0.00546291030242
0.00867235075156
0.0142475295715
0.0237692194753
0.0556102569501
0.00140299123434
0.001761057947
0.00187830852289
0.00192381968282
0.00193761879015
0.00192595487101
0.00187693382919
0.00177370084206
0.00162507464792
0.00163294971237
0.00167498076667
0.001845805664
0.00224614505795
0.00271275575187
0.00349960988844
0.00519614209412
0.00853632271172
0.0143329637949
0.0257919176075
0.0657118281433
0.00141075767468
0.00176870165392
0.00188646476178
0.00193394471582
0.00195365790567
0.00195847468215
0.00195061600124
0.00193299855337
0.00192746181743
0.00194933350854
0.00197938087423
0.00203859696525
0.0022288470905
0.00255750401818
0.00327810412682
0.00498674345019
0.00842586710248
0.0144099592557
0.0255583806474
0.0491765339319
0.00141911638019
0.00177724624897
0.00189535746031
0.0019439384244
0.00196680350552
0.00197942864746
0.0019872928163
0.0019943398396
0.00200742020604
0.00202958744586
0.00205726313851
0.00210248247846
0.00221726639456
0.00248097999965
0.00315398729772
0.00485206494957
0.008363877458
0.0145874370281
0.0257514677205
0.0426747764889
0.00142775371538
0.00178637499664
0.00190468072903
0.00195360969841
0.00197752923917
0.00199272053803
0.00200527769584
0.0020181086609
0.00203402262657
0.00205437311642
0.00207982225714
0.00211966249999
0.00220845976179
0.00243702311494
0.0030787492417
0.00475946107483
0.00830265270263
0.0147354828524
0.0271470676008
0.0511371451553
0.001436484608
0.00179576514226
0.00191419168098
0.00196305658267
0.00198699794606
0.00200255596742
0.00201597678577
0.00202972392043
0.00204519501871
0.00206342614293
0.00208627951846
0.0021221935149
0.00220026155521
0.002410808196
0.00302936554778
0.00468608434991
0.00822533641834
0.0147400482666
0.0281037070801
0.0661486959898
0.00144503012398
0.00180513742857
0.00192365884042
0.00197224920781
0.00199577855199
0.00201089097645
0.00202386745786
0.0020370764706
0.0020515454074
0.00206815380023
0.00208909298005
0.00212258035095
0.00219633124204
0.0023981546724
0.00299456094842
0.00461771307414
0.00814934303089
0.0146916993924
0.0276280514353
0.0626835074116
0.00145315591703
0.00181424447836
0.00193287237424
0.00198110258631
0.00200404469265
0.00201846617852
0.00203065357072
0.00204296654706
0.00205637969008
0.00207180616786
0.00209181334932
0.00212523172404
0.00220027875811
0.00240252488725
0.00298600600305
0.00457337306338
0.00809120933147
0.0146507085802
0.0269288338339
0.0551519422529
0.00146072383326
0.00182289643396
0.00194165330163
0.00198950163118
0.00201181780011
0.00202549492675
0.00203686791114
0.00204829332039
0.00206077499957
0.00207537489334
0.00209518086961
0.00213025796802
0.00221065497291
0.00242154490522
0.0030049864095
0.00456340094723
0.00807338480426
0.0147407371322
0.0268916375888
0.0470496716409
0.00146777852777
0.00183100529632
0.00194990202854
0.00199737290148
0.00201907645238
0.0020320401487
0.0020426498992
0.00205328601314
0.00206498560918
0.00207895937149
0.00209878233036
0.00213569551679
0.00222128944397
0.00243911645713
0.00301703848011
0.00454224000303
0.0080673623966
0.0149431424384
0.0275024763379
0.0460779694636
0.00147415768344
0.0018384867781
0.00195754394412
0.00200465497925
0.00202577983622
0.00203808767736
0.00204801067648
0.00205795078087
0.00206896467157
0.00208232472614
0.00210184921514
0.00213935197214
0.00222692307257
0.00244532368743
0.00300965088057
0.00449767169218
0.00803467979953
0.0150931386337
0.0281088322819
0.0560745075743
0.00147995689193
0.00184530754297
0.00196452929621
0.00201130484301
0.00203189200328
0.0020436036167
0.00205291480858
0.00206223734222
0.00207263311056
0.00208536755791
0.00210427461908
0.0021412777691
0.00222857041362
0.00244538653411
0.00299949113421
0.00446420599798
0.00802745201421
0.0152650089755
0.0286318829782
0.0531366905631
0.00148510560623
0.00185143555078
0.00197083119713
0.00201730057168
0.0020373939224
0.00204856666922
0.00205733294082
0.0020661025742
0.00207593704294
0.00208808431799
0.0021063198811
0.00214254938348
0.00222932488925
0.00244629599687
0.00299789283303
0.00444498870588
0.00798481808835
0.0152542993989
0.0286269427652
0.0495933892342
0.00148958451743
0.00185681899734
0.00197639964125
0.00202260135349
0.00204225265052
0.00205294885623
0.00206123848125
0.00206952772752
0.00207884720645
0.00209042388242
0.00210787451884
0.00214280347837
0.00222748884717
0.00244141023423
0.00298655341783
0.00440992006883
0.00789757308286
0.0151267801456
0.0282725023175
0.0494581334514
0.0014934600662
0.00186149793769
0.00198126343973
0.00202723112187
0.00204649141957
0.00205677017807
0.00206464171782
0.00207250062819
0.00208136134892
0.00209234362403
0.00210873447321
0.00214115786776
0.00221987894547
0.00242152523542
0.00294448877571
0.00433410165272
0.00781104532223
0.0151572799826
0.0286748979273
0.04877686192
0.00149675428322
0.00186549583076
0.00198543255867
0.00203119869853
0.00205011429902
0.00206002376776
0.00206752965778
0.00207500563694
0.00208342824095
0.00209378107334
0.00210886138713
0.00213777222635
0.00220703644847
0.00238719089641
0.00287099684313
0.00421317912562
0.00769703857372
0.0151816384122
0.0289123023973
0.0487704876402
0.00149949529082
0.00186882594795
0.00198891865937
0.00203451678184
0.00205313444916
0.00206272062487
0.00206989861252
0.00207703363763
0.00208505504585
0.00209480365097
0.00210855524993
0.00213375114253
0.00219281315995
0.00234895028332
0.00278768342937
0.00407544251544
0.00755536179565
0.0151360257407
0.0290222877583
0.0493320276481
0.00150169467289
0.00187149242759
0.00199173316361
0.00203719958486
0.00205556613839
0.00206487492381
0.00207176780831
0.00207859902104
0.00208626273805
0.0020954888476
0.00210812378317
0.00213022971518
0.0021807704009
0.00231689126014
0.00271901392845
0.00396173906824
0.00741360880343
0.0150028837975
0.0289684639033
0.0503656683747
0.00150336753207
0.00187350769117
0.00199389198991
0.00203925952614
0.00205742255355
0.00206649968276
0.00207314979226
0.00207971674595
0.00208707387003
0.00209587849748
0.00210770367728
0.00212771594127
0.00217265892969
0.00229621793044
0.00267711661137
0.0038907027842
0.0072888965336
0.0147819852065
0.028783465451
0.0542887798021
0.00150458929556
0.0018749161038
0.00199541714909
0.00204071235385
0.00205871460064
0.00206760327557
0.002074050577
0.00208039428814
0.00208749695717
0.0020959807974
0.0021072846954
0.00212610086593
0.00216797061672
0.00228469922975
0.00265325706125
0.00383893384923
0.0071609274587
0.0145280876493
0.0285732275594
0.0607062068642
0.00150541458463
0.00187577093539
0.00199633280603
0.00204157691707
0.00205945973511
0.00206819871575
0.00207447836738
0.00208063593712
0.00208753025667
0.0020957766174
0.00210677213575
0.00212500575594
0.00216539071688
0.0022783039457
0.00263715196581
0.00379417319636
0.00704337110366
0.0142931262643
0.027854798282
0.0568813491994
0.00150581282
0.00187607438788
0.00199667083265
0.00204188437247
0.00205968117371
0.00206830360232
0.00207444622448
0.00208044899947
0.00208717343283
0.00209524512286
0.00210607069916
0.00212409306986
0.00216393553169
0.00227516280657
0.00262865306535
0.00376504883481
0.00695426234772
0.0140706050029
0.0275721208699
0.0562870247933
0.00150577592047
0.00187585557707
0.00199646824053
0.00204166439218
0.00205939966443
0.00206793140665
0.00207396237306
0.00207983706677
0.00208642425069
0.00209436860248
0.00210511172784
0.00212312610466
0.00216297245402
0.00227412256477
0.00262775543258
0.00375940385346
0.0068892582175
0.0137615831416
0.0270667917042
0.059386241436
0.00150531317929
0.00187515700431
0.00199575913649
0.00204094113006
0.00205863143901
0.00206709248572
0.00207303385837
0.00207880498747
0.00208528439844
0.00209313959144
0.0021038555477
0.00212196658447
0.0021620047737
0.0022733385103
0.00262698452566
0.00375251512411
0.00682433191635
0.0134525826029
0.0267692507386
0.0677464192733
0.00150442325987
0.00187400249775
0.00199456968594
0.0020397376288
0.0020573950971
0.00206580280138
0.00207167303541
0.00207736052349
0.00208375421798
0.00209154642738
0.00210226742383
0.00212050042382
0.00216067743267
0.0022713633397
0.00261956996991
0.00372056865372
0.00671414369501
0.0130122689475
0.0248056184994
0.0602577185822
0.00150308911592
0.00187237605144
0.00199289744073
0.00203805398604
0.0020556894042
0.00206406057527
0.00206988045116
0.00207551052377
0.00208185157552
0.00208962037932
0.00210038954
0.00211875114776
0.00215889095148
0.00226764466739
0.00260419170652
0.00366142942354
0.00658003046123
0.012755008396
0.0224948662801
0.0367001903413
0.00150136423858
0.00187030706137
0.00199076628926
0.0020359200213
0.00205354624943
0.00206189528036
0.00206767949205
0.0020732666456
0.0020795696417
0.00208732984878
0.00209816780754
0.00211667768071
0.00215675094522
0.00226324188962
0.00258593141205
0.00358763206388
0.00642007538433
0.0128615692398
0.0243318134313
0.0414111869344
0.00149920648298
0.0018677691313
0.00198817702691
0.0020333414286
0.00205097493108
0.00205931616518
0.00206508075296
0.00207064123404
0.00207692194486
0.00208469363557
0.00209562838324
0.00211434855285
0.00215444898817
0.00225881921904
0.00256742794276
0.00350553697096
0.00620904918418
0.0130505926955
0.028195345122
0.0630043758445
0.00149669745275
0.0018647852479
0.00198513977606
0.00203032895132
0.00204798875111
0.0020563363056
0.00206209602586
0.0020676487266
0.00207392877558
0.00208173656306
0.00209280055749
0.00211181048292
0.0021521694728
0.00225506955412
0.00255145478017
0.00342875589409
0.00597591809543
0.0130735097001
0.030519362063
0.0720541364575
0.00149387850525
0.00186135887401
0.00198165374417
0.00202688545008
0.00204459028863
0.00205296626235
0.0020587400127
0.00206430392601
0.00207060673633
0.00207847952329
0.00208971892541
0.00210912329918
0.00215001713838
0.00225225863892
0.00253948536734
0.0033657934699
0.00574773687537
0.0128690681906
0.0314669968295
0.0693598358006
0.00149084629244
0.00185750656446
0.00197771271924
0.00202300637543
0.00204078360806
0.00204921607675
0.00205502888879
0.0020606239057
0.00206697193269
0.00207494450177
0.00208642051082
0.00210633508457
0.00214804963361
0.00225066344564
0.00253218973291
0.00331879377248
0.00556519030432
0.012743465805
0.0323210264102
0.0697547357534
0.00148763878978
0.00185319739542
0.00197332227944
0.00201870364128
0.00203658464367
0.00204509704001
0.00205097172378
0.00205662353765
0.00206304594884
0.00207115598024
0.00208293412763
0.00210347316584
0.00214637521723
0.00225060598275
0.00253088238043
0.00329461297379
0.00545523903532
0.0126709506561
0.0326231337949
0.0702272258322
0.00148405753799
0.00184849676886
0.00196853540548
0.00201401267452
0.00203201563565
0.00204062733794
0.00204658420171
0.00205231495846
0.00205883679121
0.00206711010458
0.00207920668412
0.00210039916316
0.002144513333
0.00225089970854
0.00253468591643
0.00329902677104
0.00543351984723
0.0125218108606
0.0324505618188
0.0739020075314
0.00148010675295
0.00184340306675
0.00196336192909
0.00200895066744
0.00202708753224
0.00203581725145
0.00204187747943
0.00204771169476
0.00205435397161
0.00206281334501
0.0020752446215
0.00209704599314
0.00214218473295
0.00225028207815
0.00253806253835
0.00331551895447
0.00547090024693
0.0124053315098
0.0322518546285
0.0741145828117
0.00147578750592
0.00183795894598
0.00195783646484
0.00200353835825
0.00202182749866
0.0020306980207
0.00203688500208
0.00204284484718
0.00204963197643
0.00205830019385
0.00207108812693
0.00209351774749
0.00213971712122
0.00224972171898
0.00254271001905
0.00334144080143
0.00554606127032
0.0123871553864
0.0323849609481
0.0744032290028
0.00147113478638
0.00183217238077
0.0019519646974
0.00199779500039
0.00201625693392
0.00202529191154
0.00203163107989
0.00203774163492
0.0020447001604
0.00205360278164
0.00206678880813
0.00208994520235
0.00213753096101
0.00225022037162
0.00254860977754
0.00335943541137
0.00557145236087
0.0123647873459
0.0328322871727
0.0748273492009
0.0014661396916
0.00182603313751
0.0019457586428
0.00199174209658
0.00201040301811
0.00201962901381
0.00202614727926
0.00203243351807
0.00203958600787
0.00204875064404
0.00206237627286
0.00208633107502
0.00213548513631
0.00225113458997
0.00255204089926
0.00334476590473
0.00547028596774
0.0122326626845