/*--------------------------------*- C++ -*----------------------------------*\
| =========                 |                                                 |
| \\      /  F ield         | OpenFOAM: The Open Source CFD Toolbox           |
|  \\    /   O peration     | Version:  v2012                                 |
|   \\  /    A nd           | Website:  www.openfoam.com                      |
|    \\/     M anipulation  |                                                 |
\*---------------------------------------------------------------------------*/
FoamFile
{
    version     2.0;
    format      ascii;
    class       volScalarField;
    location    "4.9";
    object      nut;
}
// * * * * * * * * * * * * * * * * * * * * * * * * * * * * * * * * * * * * * //

dimensions      [0 2 -1 0 0 0 0];


internalField   nonuniform List<scalar> 
1984
(
0.000245470990587
0.000298646904196
0.000306268117133
0.000309474013566
0.000311167717636
0.000312357095322
0.000313397312641
0.000314424042845
0.000315510543982
0.000316752248449
0.000318361828601
0.000320825590479
0.000325243453875
0.00033441419458
0.000355952442922
0.000407186823072
0.000524586635275
0.000834631193324
0.0014678680899
0.00227794299398
0.000298991537672
0.000442132500098
0.000455627246403
0.000461041674842
0.000463628903858
0.00046523869543
0.00046653394849
0.00046777676704
0.000469100083529
0.000470677740935
0.000472886455753
0.000476525694234
0.000483512988959
0.000498631892231
0.000533492453999
0.000611048559859
0.000782271589762
0.00120738216243
0.00203302412325
0.00271149159212
0.000306508803983
0.000455590686183
0.000470255313793
0.000476081581671
0.000478771862751
0.00048037354063
0.000481633915429
0.000482836321029
0.000484130047322
0.000485705424379
0.000487963270415
0.000491786965836
0.000499227150261
0.000515340967832
0.000551970570452
0.000631526775565
0.000803017147054
0.0012260774294
0.00212034628865
0.00305453141585
0.000309571027344
0.000460930539102
0.000476048424425
0.000482018406904
0.000484716485761
0.000486278241555
0.000487491933761
0.00048865309503
0.00048991889778
0.000491475931896
0.000493733979677
0.000497600017814
0.00050517246742
0.000521661401465
0.000559186784785
0.00064113094084
0.000822151196885
0.00126745820017
0.00212797527548
0.00308924981312
0.000311113521977
0.000463430518228
0.000478709951285
0.000484707095827
0.000487370020199
0.000488877762653
0.00049003725285
0.000491152489533
0.000492377881995
0.000493906252108
0.000496131517634
0.000499956521485
0.00050750310386
0.000524096963056
0.000562328320501
0.00064664897065
0.000834350628425
0.00128542449315
0.00210949772404
0.00311140818421
0.000312127015462
0.000464927520903
0.000480249590993
0.000486225011058
0.000488836382954
0.000490285148716
0.000491388671575
0.000492454136547
0.000493634269452
0.000495115902489
0.000497290591219
0.000501038276594
0.000508475512456
0.000525027325459
0.000563576335655
0.000648340747821
0.00083218911483
0.00126527010932
0.00208797085232
0.00310690044814
0.000312951030417
0.000466073068488
0.000481390714566
0.000487327232661
0.000489883789427
0.000491274807762
0.00049232372977
0.000493338894112
0.000494471978886
0.000495904081713
0.000498016716519
0.000501675077592
0.000508989493583
0.000525451904381
0.000564224718826
0.000649812965353
0.000833960967943
0.00127587726346
0.00215161902331
0.00313808814849
0.000313699217846
0.000467092205482
0.000482388906286
0.000488282804863
0.000490787065764
0.000492124675741
0.000493122641053
0.0004940900116
0.000495176480094
0.000496558608358
0.000498606372855
0.000502174184216
0.000509365102821
0.000525773006645
0.000565241519835
0.000655674828398
0.000860342996885
0.0013330728616
0.00215325162469
0.00311492685235
0.000314404387775
0.000468057126585
0.000483329426166
0.000489182151354
0.000491638749522
0.000492928234548
0.000493880152831
0.000494803354607
0.000495846254713
0.000497179320989
0.000499162520266
0.000502635881195
0.000509682380874
0.000525917486314
0.000565587736799
0.000659003327292
0.000876185189771
0.00136943721253
0.00217686462689
0.00310619486123
0.000315075644334
0.000468987092067
0.000484236268009
0.000490051302513
0.000492465256863
0.000493712146353
0.00049462307713
0.000495506695178
0.000496509142436
0.00049779596498
0.000499715228868
0.000503091231199
0.000509972465347
0.000525901459914
0.000565046009034
0.000657570519801
0.000872331735425
0.00135741036039
0.00216855724621
0.00310285916561
0.000315714961519
0.000469880327228
0.00048511243841
0.000490894154498
0.000493270438039
0.000494479987105
0.000495354901547
0.000496203524966
0.000497169543762
0.000498412374892
0.000500269746459
0.000503547018665
0.000510260032743
0.000525864577137
0.000564351531035
0.000655253268531
0.000862259724648
0.00131935168408
0.00211373454137
0.00309212363438
0.000316320294831
0.000470740942036
0.000485957301389
0.00049170872597
0.00049405145848
0.000495228370949
0.000496071947992
0.000496889670729
0.00049782288774
0.000499023861683
0.000500818873659
0.000503993968055
0.000510526454602
0.000525742641875
0.000563173311888
0.000650638487073
0.000847190029287
0.00129364299597
0.00209936573236
0.00308868366023
0.00031688878775
0.000471561298381
0.000486766423165
0.000492491053535
0.000494803887936
0.000495951883234
0.000496768408926
0.000497559139652
0.000498462989441
0.000499624468298
0.000501356323429
0.000504417955728
0.000510731986436
0.000525476960419
0.000561841987475
0.000646951818134
0.000839154382286
0.00128979939637
0.00210228569281
0.00308195863129
0.000317418276831
0.000472340205533
0.000487536504349
0.000493236766271
0.000495522890232
0.000496645615161
0.000497438699389
0.00049820652594
0.000499083845408
0.000500208847464
0.000501877876015
0.000504817205631
0.000510875298339
0.000525062394467
0.000560392852887
0.000644202953831
0.000835241773591
0.00128140807884
0.00208170995523
0.0030715812531
0.000317908642161
0.00047307332192
0.000488262992585
0.00049394191308
0.000496204319433
0.000497305145529
0.000498077901469
0.000498825922451
0.000499679964938
0.000500771166233
0.000502381513999
0.000505198577401
0.000510994363358
0.000524588717071
0.000558785352893
0.000641254553591
0.000831917992702
0.00126964421287
0.00202561557666
0.00305383424557
0.000318360253037
0.000473760412777
0.000488943927371
0.000494603261373
0.000496844642324
0.000497926577746
0.000498682047919
0.000499412702691
0.000500246112256
0.000501306979274
0.000502861579391
0.000505569124053
0.000511133264794
0.000524215849001
0.000557340037823
0.000637828604742
0.000824933225235
0.00126030952136
0.00200900093378
0.00304567750441
0.000318771599633
0.000474398922087
0.000489577499072
0.000495218825909
0.000497441759759
0.000498507177938
0.000499248209064
0.000499963312092
0.000500779511561
0.000501811051656
0.000503312925075
0.000505917836297
0.000511272312533
0.000523896450163
0.000555974156233
0.000634036814546
0.000815712766454
0.00125193760262
0.0020075745781
0.00304445658014
0.000319140582287
0.000474985220152
0.000490161860855
0.000495788049041
0.000497994197348
0.000499045714693
0.00049977510378
0.000500477671509
0.00050127605339
0.000502281070444
0.000503731269575
0.00050623184633
0.000511369853254
0.00052353763256
0.000554853639303
0.00063236522279
0.000813516602118
0.00123909277769
0.00198821600711
0.00304013315501
0.000319467016898
0.0004755202439
0.000490696511049
0.000496308772923
0.000498500750757
0.000499542259075
0.000500261180438
0.000500953244824
0.000501737815436
0.000502720994609
0.000504126429228
0.00050653833813
0.000511511969131
0.000523460286241
0.000554782018108
0.000633947604761
0.000819509729351
0.00123396972892
0.0019522418592
0.00299807167011
0.000319785850072
0.000475992337458
0.000491170831482
0.000496774652942
0.000498958470311
0.000499991678778
0.00050070355228
0.000501389028715
0.000502164710821
0.00050313125839
0.000504502988443
0.000506845474106
0.000511706174733
0.000523584118602
0.000555462203007
0.000638141776171
0.000831558554934
0.00123175007398
0.00185850660914
0.00247335941938
0.000320080230843
0.000476409220689
0.000491588107777
0.00049718575535
0.000499363770589
0.000500392024849
0.000501100412887
0.000501782126641
0.000502551886051
0.000503506496491
0.000504851934839
0.000507141314242
0.000511936794244
0.000523914429316
0.000556911781511
0.000644572612835
0.000847604036236
0.00123894340409
0.00181609522082
0.00229984952394
0.000320339726476
0.000476767295304
0.000491947036418
0.000497541299053
0.000499716296666
0.000500743069967
0.000501450331448
0.000502130702629
0.00050289769186
0.000503844231764
0.000505169154221
0.000507420098161
0.000512189315426
0.000524389170229
0.000558912227758
0.000652275087266
0.000862801361547
0.00123513335999
0.00176284429743
0.00220961903104
0.000320560751873
0.000477069667104
0.000492250216616
0.000497842687834
0.000500016621604
0.000501043891855
0.000501752056822
0.000502433305982
0.00050320012492
0.000504141812375
0.000505451449892
0.000507673224172
0.000512440912727
0.000524896966417
0.000560845965743
0.000659027332505
0.000874591467714
0.00122207581786
0.00166220603663
0.00205407162666
0.000320735712847
0.000477312969395
0.000492496850389
0.000498089183558
0.00050026435505
0.000501293481586
0.00050200440266
0.000502688559796
0.00050345711721
0.000504396981744
0.000505695224682
0.000507895757121
0.000512664957046
0.000525333854746
0.000562403746253
0.000664099621772
0.000882755123609
0.00121520676405
0.00159653014655
0.00191394088487
0.000320867492175
0.000477499989483
0.000492686351038
0.000498279877288
0.000500457716453
0.000501490464074
0.000502206096577
0.000502895469471
0.000503668182972
0.000504609109781
0.000505899935871
0.000508082436507
0.000512844970667
0.000525675270891
0.000563684134509
0.000668331173199
0.000890800787957
0.00122935682028
0.00165134795682
0.00211540401327
0.000320951387516
0.000477627228238
0.000492817167238
0.000498413150526
0.000500595262613
0.000501633974547
0.000502356633302
0.00050305344844
0.000503832922344
0.000504778709623
0.000506065893392
0.000508230094462
0.000512973854729
0.000525904788971
0.000564699995343
0.000672055244884
0.000898848066178
0.00125000081042
0.001732232136
0.00225290824438
0.000320987905939
0.000477694866081
0.000492888024085
0.000498487465307
0.00050067576075
0.000501722662552
0.000502455048293
0.000503162318391
0.00050395173358
0.000504904925691
0.000506192271151
0.000508343154202
0.000513067354655
0.000526053033386
0.000565413377311
0.000674963031253
0.00090533416624
0.00125722732569
0.0017014357645
0.00215774111899
0.000320979321871
0.000477703373408
0.000492897102318
0.00049850040043
0.00050069683614
0.000501754417775
0.000502499313087
0.000503220142615
0.00050402303579
0.000504987934438
0.000506281674612
0.000508433608788
0.000513164329858
0.000526246292765
0.000566149893816
0.000677742889139
0.000912090366975
0.00127083200154
0.00176783089539
0.00308375176725
0.000320925001957
0.000477647466951
0.00049284044819
0.000498449142353
0.000500656544609
0.000501727947393
0.000502488504797
0.000503226522112
0.000504048414305
0.000505031434083
0.000506341550969
0.000508516894422
0.000513310555121
0.000526612227872
0.000567263745307
0.00068104051869
0.000919479206368
0.00128424187047
0.00177287909188
0.00312290945943
0.000320825532753
0.000477524148333
0.000492713533004
0.000498330294371
0.000500552748415
0.000501641878374
0.000502421706558
0.000503180685483
0.000504025758455
0.000505034943379
0.000506378501263
0.000508617618344
0.000513564114996
0.000527191297459
0.000568377795355
0.000683584397732
0.000926736268214
0.00130051844737
0.00178062689258
0.00255304363934
0.000320683607342
0.000477331280719
0.000492513335724
0.000498140970295
0.00050038308269
0.000501494546095
0.000502297883542
0.000503082318669
0.000503956327545
0.000505001917222
0.000506403938023
0.000508776765581
0.000514051223285
0.00052831510551
0.000570256088555
0.000686651123395
0.000934415985973
0.00131762270674
0.00181400316854
0.00264150367411
0.000320494137552
0.000477063178098
0.000492235831187
0.00049787784162
0.000500145272341
0.000501284397218
0.000502116245763
0.00050293133355
0.000503840893517
0.000504935123303
0.000506430259696
0.000509042650599
0.000514940898271
0.000530517842001
0.000574282048561
0.000692068464499
0.000941182049447
0.00132546028327
0.00181767977954
0.00233631134301
0.000320248393786
0.000476711620314
0.000491877773605
0.000497539364181
0.000499837892029
0.000501010309052
0.000501876076159
0.000502727233521
0.000503679170419
0.000504835354417
0.000506462057087
0.000509434591832
0.000516302137062
0.000534032922593
0.000581160241356
0.000701184142613
0.000947986048906
0.00132516828375
0.00180011956901
0.0022480319253
0.000319944026905
0.000476277000278
0.00049143735877
0.000497123742299
0.000499459311933
0.000500670884116
0.000501576081381
0.000502468727322
0.000503469481481
0.000504698806503
0.000506485390238
0.000509898788791
0.000517947742918
0.000538288874159
0.000589535257196
0.000712305869938
0.000955343027784
0.00132393228352
0.00178402028852
0.00217548475627
0.000319580378143
0.000475757786923
0.000490912708105
0.000496628918082
0.000499007665853
0.000500264466301
0.000501214649585
0.000502154411819
0.000503209460173
0.00050451682796
0.000506465320501
0.000510307632955
0.000519465853546
0.000542174965775
0.000597100502365
0.000722338631985
0.000961663658645
0.00132190795711
0.00177349527247
0.00217416587019
0.000319154448397
0.000475151238905
0.000490302156702
0.000496053116403
0.000498481135468
0.000499789464034
0.000500791261281
0.000501784365203
0.000502897821878
0.000504280489107
0.000506362467241
0.000510514760757
0.000520404981898
0.000544587102832
0.000601756985512
0.000728547061425
0.000964866410797
0.0013166579775
0.00175777470129
0.00221927014993
0.000318663173348
0.000474455238976
0.00048960462912
0.000495394986404
0.000497878647749
0.000499245911558
0.000500306809323
0.000501359824372
0.00050253604084
0.000503989712767
0.000506168053231
0.000510483872206
0.000520669099687
0.000545346945741
0.000603416672395
0.000731391553067
0.000966922323787
0.00131460753913
0.0017592064252
0.00256223510341
0.000318105124486
0.000473670093312
0.000488820166301
0.000494654925805
0.000497200848837
0.000498634488676
0.000499762228047
0.000500882902012
0.000502128349899
0.000503653359156
0.00050591287481
0.000510317162634
0.00052054985077
0.00054514898124
0.00060321592305
0.000732090878561
0.00096876605163
0.00131516692257
0.00175624539879
0.00242521321706
0.000317478138595
0.000472796235351
0.000487950705503
0.000493834404001
0.00049644851117
0.000497955947617
0.00049915901894
0.000500356185536
0.00050167780968
0.000503278769361
0.000505610519313
0.000510054848513
0.000520215127418
0.000544551727422
0.000602488011311
0.000732439371173
0.000970605136065
0.00131686789349
0.00175951587276
0.00243951754957
0.000316786948979
0.000471835944626
0.00048699854441
0.000492935409039
0.000495623346996
0.000497212187711
0.000498499847492
0.000499783337392
0.000501188756945
0.000502864926584
0.000505229936626
0.000509590724972
0.000519421255899
0.000543216425478
0.000601115479814
0.000732591396728
0.000972050796508
0.00131697081317
0.00178098010088
0.00302441517821
0.000316024068814
0.000470794280463
0.000485969631607
0.000491962717212
0.000494728794943
0.000496405949056
0.00049778823151
0.000499167292278
0.000500669419038
0.000502419268313
0.00050478409439
0.00050893134844
0.000518169832886
0.000541187067495
0.000599437260297
0.000733268035634
0.000972707946012
0.00131317949344
0.00177126446672
0.00294716639762
0.000315205971059
0.000469683287768
0.000484874076203
0.000490923749055
0.000493769841169
0.000495538885292
0.000497020400167
0.00049850794121
0.00050012103458
0.000501969814945
0.000504357299141
0.000508323700933
0.000517059168444
0.000539619505739
0.000599130616061
0.000736220520997
0.000974929258548
0.00130785495001
0.00174217265792
0.00231046954289
0.000314330428799
0.000468514438814
0.000483723408156
0.000489828090969
0.000492748510485
0.000494604262848
0.00049618187041
0.000497779218819
0.000499521056503
0.000501507027954
0.000503997529432
0.000507956492609
0.000516533939308
0.000539088107167
0.000600104345525
0.000740205232152
0.000978308870306
0.00130607151468
0.00178326929996
0.00313499639034
0.000313406837309
0.000467307985242
0.00048253933996
0.000488687948476
0.000491664058483
0.000493574875166
0.000495206880404
0.000496871000739
0.000498736173645
0.000500908798752
0.000503601966094
0.000507800202167
0.000516761388134
0.000539852887106
0.00060217385087
0.000744233304454
0.00098188811556
0.00130786743533
0.00179829157778
0.00255698274288
0.000312458521642
0.000466095748202
0.000481347261962
0.000487515253524
0.00049049188273
0.000492357833429
0.000493885063522
0.000495443147226
0.000497360063849
0.000499774096835
0.000502744871726
0.000507364091854
0.000517542528251
0.000542196042417
0.000605776269068
0.000748908663468
0.00098630936033
0.00130941406713
0.00174472755016
0.00221292373256
0.000311522337851
0.000464919662016
0.000480178975179
0.000486314611364
0.000489163580643
0.000490713674527
0.000491662546806
0.000492508123425
0.000494079347887
0.000496712264421
0.000499934470287
0.000505212988674
0.00051869071174
0.000547171336214
0.000613429316982
0.000757103537311
0.000991474128571
0.0013113158067
0.00175725633766
0.00221438922358
0.000310618906662
0.000463819133494
0.0004790640037
0.00048507101134
0.000487534544861
0.000488121794895
0.000487105341009
0.000484831706523
0.000484150218542
0.000486797127786
0.000490369660665
0.000497376286298
0.000520213753927
0.000556299003537
0.00062751819315
0.000770643832666
0.000996391060443
0.00129516704672
0.00170831666848
0.00219989517388
0.000309783727457
0.000462842784236
0.000478044557076
0.000483814559808
0.000485555863315
0.000484144204332
0.00047808282465
0.000464660317974
0.000333649547662
0.000334261558115
0.000338239529016
0.000353832228344
0.000521616000961
0.000573593449366
0.000651271411267
0.000790338828905
0.00100233145297
0.00128117900439
0.00173171969131
0.00252754547555
0.000309035120357
0.000461995579177
0.00047715830767
0.000482675693215
0.000483799706995
0.000480990004026
0.000470741352894
0.000324754520429
0.000393695998749
0.000603311645117
0.000682895865187
0.00081229591567
0.00100895474315
0.00126903197715
0.0017016215608
0.00311183454449
0.00030855603448
0.000461529691646
0.0004766928083
0.000482066966485
0.000482786466923
0.000479033657796
0.000466514045575
0.000316359856086
0.000407355885823
0.000630566413139
0.000709124324486
0.000825872124019
0.00101548903188
0.00126909609408
0.00157277993496
0.00200934991723
0.000308549386082
0.00046152397195
0.000476688535483
0.000482064227089
0.000482784850502
0.000479032993456
0.000466517922972
0.000316385674409
0.000407237211965
0.00063002506705
0.000707880655151
0.000824543843287
0.00101795097935
0.00127913413569
0.00158681098374
0.00198013053518
0.00030902635716
0.000461984539944
0.000477150059103
0.000482668847817
0.000483793335614
0.00048098230311
0.000470738308223
0.00032477009739
0.000393437508779
0.000602159256746
0.000680458361176
0.000810214836467
0.00101326329821
0.00128578286262
0.0016960392101
0.00328534579197
0.000309774236038
0.000462832932034
0.000478036879639
0.000483809510706
0.000485549952301
0.000484128929648
0.000478038748321
0.000464602231761
0.000333633949998
0.000334244452643
0.000338253958668
0.000353899562831
0.000521552458204
0.000573098202021
0.000650266723415
0.000789618500805
0.00100469960895
0.00129465249498
0.00178087865738
0.00297526036131
0.000310619450002
0.000463820224725
0.000479063752937
0.000485072253145
0.00048753751124
0.000488125682886
0.000487114329925
0.000484819677999
0.000484168944781
0.000486831800965
0.000490449111448
0.000497542203117
0.000520437059653
0.000556962263415
0.000629451425888
0.000773163034358
0.000997596921413
0.00129643637639
0.0017189564729
0.00222817339937
0.000311528385123
0.000464925378906
0.000480182630171
0.000486318487254
0.000489170161646
0.000490724172874
0.000491676712339
0.000492526402659
0.000494105583787
0.000496759151769
0.000500036878148
0.000505457268956
0.00051922874392
0.000548814906218
0.000617578522311
0.00076249633072
0.00099362084187
0.00130212747557
0.00170443558163
0.00212161117449
0.000312466454225
0.000466104248632
0.000481352784637
0.000487520951412
0.000490499136253
0.000492368734718
0.000493900643665
0.000495461495742
0.000497383266308
0.000499810731312
0.00050282900992
0.000507582746822
0.000518138852156
0.00054401302617
0.000610326947715
0.000755160199357
0.000990042322611
0.00131065332046
0.00175881930922
0.00241133693118
0.000313412819268
0.000467315488024
0.000482544844563
0.00048869344325
0.000491670565705
0.000493583882147
0.000495219553324
0.00049688688606
0.000498753357271
0.000500932913486
0.00050365282556
0.000507938492722
0.000517174332277
0.00054113283725
0.000605530609534
0.00074939934431
0.000985526249727
0.00131300761758
0.0018323543263
0.00300845403506
0.000314337733735
0.000468522732437
0.00048372940211
0.000489832866441
0.000492754971485
0.000494611699119
0.00049619141534
0.00049779007693
0.000499533081267
0.000501522389485
0.000504023680853
0.000508021990595
0.00051672978311
0.000539743605662
0.00060220103812
0.000744185504574
0.000981041240144
0.00130918630754
0.00180477378116
0.00312376277945
0.000315216342565
0.000469693523838
0.000484880523343
0.000490928781548
0.000493775113291
0.00049554508835
0.00049702701071
0.000498514968328
0.000500129075315
0.000501978591424
0.000504372215031
0.00050835854942
0.000517191585933
0.000540209627128
0.000601388729116
0.000740876722634
0.000977595110854
0.00130529756311
0.00175819003572
0.00305679674085
0.00031603462842
0.000470803994276
0.000485976240655
0.000491967445324
0.000494733752848
0.000496411311082
0.000497792517298
0.000499171445078
0.000500672110249
0.000502422696384
0.000504792125243
0.000508963801736
0.000518373551987
0.00054222784525
0.000603140574021
0.00074016052559
0.000976640055497
0.00130776395415
0.00173641234585
0.00240447320245
0.000316796700604
0.000471844024161
0.000487004560703
0.000492940267772
0.000495628624756
0.000497217872545
0.000498505188393
0.000499787100806
0.000501191969874
0.000502865798554
0.000505233498189
0.000509606740457
0.000519571035807
0.000544075236989
0.000604250220668
0.000738650935945
0.000976434408416
0.00131541614265
0.00174829380674
0.00217416260758
0.000317487012311
0.000472803119725
0.00048795678968
0.000493840068843
0.000496455079781
0.000497963243825
0.000499166181938
0.000500362546273
0.000501683135845
0.000503281587949
0.00050561046014
0.000510044047502
0.000520212387731
0.000544734677496
0.000603560681355
0.000735398135768
0.000974723646549
0.00132126576168
0.0017827504327
0.00297567582108
0.000318114797348
0.000473677755951
0.000488827203126
0.00049466190007
0.000497209056727
0.000498643722026
0.000499771584526
0.000500892247666
0.000502136754486
0.000503658773685
0.000505912662641
0.000510285258083
0.000520417300074
0.000544759944157
0.000602605761403
0.000732866172101
0.000974156467139
0.00132711589963
0.00178555324465
0.0025969738444
0.000318673399414
0.000474463960266
0.00048961278632
0.000495403398766
0.000497888569042
0.000499257066777
0.000500318387699
0.000501371516286
0.000502547576723
0.000503997379439
0.00050616895144
0.000510446035204
0.000520507765901
0.000544836991427
0.000602383653302
0.000731288345206
0.00097154201935
0.00132564715446
0.00177813783239
0.00226049180563
0.000319161133682
0.000475155251232
0.000490307481167
0.000496059782378
0.000498489822794
0.000499800216498
0.000500803727069
0.00050179862118
0.000502911773219
0.00050429164857
0.000506365725549
0.000510481458653
0.000520284082182
0.000544241589649
0.000601114722805
0.000728298917149
0.000966440749017
0.00131990294624
0.00176904863043
0.00239136612603
0.000319585123256
0.000475758027538
0.000490915894858
0.000496634830589
0.000499016234664
0.000500275728166
0.000501228621269
0.000502171593684
0.00050322965552
0.000504537569872
0.000506483059279
0.000510297635965
0.00051940349252
0.000542015204873
0.000596820287334
0.000722041483649
0.000961406614454
0.00132114535677
0.00177427336992
0.00219939196491
0.000319947785557
0.000476275671714
0.000491439605374
0.000497129713649
0.000499468462441
0.000500683212529
0.000501591878417
0.000502488918159
0.000503494586962
0.00050472723521
0.00050651658612
0.000509918892085
0.000517944851339
0.000538243024756
0.000589459320836
0.000712149859066
0.000954586721088
0.00132161575891
0.00178097686014
0.00217154397154
0.000320251977239
0.000476709986217
0.000491880096329
0.00049754609362
0.000499848085592
0.000501023943457
0.000501893524567
0.000502750008521
0.000503708250461
0.000504869697706
0.000506502881736
0.000509473171549
0.00051634062855
0.000534060420051
0.00058112062977
0.000700814151863
0.000946011208051
0.00131927352637
0.00178617613715
0.00221183817656
0.000320498973174
0.000477061217473
0.000492238779018
0.000497885762692
0.000500156888876
0.000501299571273
0.000502135529309
0.000502956444203
0.00050387309453
0.000504973722814
0.000506477131124
0.000509091286892
0.00051499745497
0.000530572717228
0.000574241075715
0.000691363382443
0.000937243349591
0.00131357416329
0.0017876797656
0.00229687877903
0.000320690657917
0.000477331246241
0.000492517821216
0.000498150209919
0.000500396438619
0.000501511624334
0.000502319169983
0.000503109568886
0.000503991099608
0.000505043530463
0.000506454006302
0.000508828992869
0.000514107610141
0.000528337523965
0.000570002984022
0.000685200081761
0.000929404730347
0.00130481163388
0.00179020828289
0.00265558619935
0.000320834672307
0.000477525794863
0.000492720146046
0.000498341642596
0.000500568096698
0.000501661014484
0.000502445029836
0.00050320990465
0.000504062617569
0.000505078954464
0.000506430554048
0.000508670450935
0.000513606980688
0.000527105450375
0.000567577510656
0.000680755334945
0.000921702024519
0.00129500242625
0.00179844387218
0.00312795240232
0.000320936090453
0.000477652343479
0.000492848732155
0.000498462112896
0.000500673796822
0.000501749119742
0.000502513872477
0.000503257655078
0.000504087041672
0.000505077097597
0.000506394684224
0.000508570335735
0.000513344499165
0.000526441413712
0.000565996896752
0.000677084053093
0.00091474697645
0.00128425744191
0.00177430041987
0.0030119853221
0.000320991831304
0.000477710377919
0.000492907277176
0.000498515244494
0.00050071608993
0.000501777734814
0.000502526872661
0.00050325330423
0.000504063932506
0.00050503506472
0.00050633483755
0.000508489119328
0.000513209136216
0.000526143270918
0.000565233726461
0.000674873363297
0.000909590688834
0.00127510477965
0.00177555787159
0.00256487114007
0.00032100104254
0.000477703190858
0.00049289999297
0.000498504381339
0.000500697279134
0.000501748280508
0.000502484815093
0.000503197085527
0.000503992816358
0.000504950580005
0.000506242794103
0.000508399677766
0.000513127785585
0.000526078537791
0.000565243014113
0.000674503298696
0.000905532100111
0.00126313209681
0.00178440589729
0.00257965089801
0.000320964453257
0.000477636083185
0.000492830823294
0.000498432255221
0.000500619167796
0.000501661860722
0.000502388417645
0.000503089446399
0.000503873771532
0.000504822680534
0.000506113819154
0.000508285443502
0.000513043160574
0.000526031085582
0.000565209918471
0.000673864059622
0.000901282262304
0.00125090784109
0.00178647792913
0.00297307136896
0.000320881607198
0.000477511602644
0.000492702560892
0.000498301234731
0.000500483559707
0.000501520023388
0.000502238867642
0.000502931143591
0.00050370688333
0.000504650356373
0.000505944684583
0.000508133972344
0.000512913953138
0.000525836352051
0.000564454595887
0.000671100573169
0.000894250767839
0.00123052135248
0.00172746799918
0.00255629261315
0.000320751093802
0.000477327244807
0.000492514759985
0.000498111326195
0.000500290385018
0.000501322671711
0.000502036336557
0.00050272306766
0.000503494253056
0.000504437023991
0.000505739722494
0.000507947576601
0.000512730266663
0.000525449246686
0.000562899722397
0.00066618934286
0.00088639488256
0.00121703251055
0.00161284463746
0.00210187150812
0.000320577453109
0.00047708674265
0.00049226981269
0.000497865694504
0.000500043092151
0.000501072911204
0.000501783143204
0.000502466067136
0.000503234543483
0.000504178593213
0.000505492567379
0.000507723094874
0.000512506857862
0.000524987540045
0.000561032132378
0.000659966887939
0.000877839313428
0.00122912004499
0.00170092240221
0.00229431897008
0.000320357147311
0.000476785950797
0.000491967620516
0.000497564784626
0.000499742623127
0.000500771718999
0.000501480473249
0.000502161683386
0.000502929328519
0.000503877325593
0.00050520627131
0.000507468095512
0.000512267055725
0.000524530095482
0.000559132727269
0.000652890881078
0.000866322518531
0.00124841397289
0.00185978879692
0.00263541510253
0.000320097933364
0.000476427881162
0.000491609256696
0.000497209689351
0.00049939032157
0.000500420390605
0.000501129611056
0.000501811471769
0.000502581058755
0.000503536153838
0.000504884839484
0.00050718807888
0.000512032001138
0.000524158340581
0.000557519292146
0.000646147964713
0.000852764678076
0.0012558206317
0.00192050658398
0.00299301887383
0.000319804299976
0.000476013105641
0.000491194183471
0.000496800364434
0.00049898614631
0.000500020018604
0.00050073202535
0.000501416862645
0.000502191440849
0.000503157374888
0.000504531891429
0.000506890257243
0.000511814005006
0.000523906995769
0.000556374015251
0.000640655691492
0.000839207645809
0.00125438989003
0.00194140819697
0.00270909507269
0.000319486798674
0.000475543165949
0.000490721151935
0.000496335618747
0.000498530055842
0.000499571485692
0.000500289407683
0.000500979722877
0.000501762061986
0.000502743289302
0.000504151251344
0.000506579399032
0.000511620910168
0.000523805337961
0.000555787492957
0.000636792402202
0.000829085457288
0.00125593350958
0.00195780820723
0.00271052052
0.000319159234719
0.000475008827264
0.000490187249678
0.000495815291125
0.000498023557279
0.000499075907189
0.000499803092527
0.000500502535395
0.000501296664596
0.000502298349856
0.000503749153033
0.00050626563952
0.000511476639555
0.000523911855338
0.000555882022214
0.000635203677155
0.000824077246062
0.00125957492219
0.00197061172339