/*--------------------------------*- C++ -*----------------------------------*\
| =========                 |                                                 |
| \\      /  F ield         | OpenFOAM: The Open Source CFD Toolbox           |
|  \\    /   O peration     | Version:  v2012                                 |
|   \\  /    A nd           | Website:  www.openfoam.com                      |
|    \\/     M anipulation  |                                                 |
\*---------------------------------------------------------------------------*/
FoamFile
{
    version     2.0;
    format      ascii;
    class       volScalarField;
    location    "4.9";
    object      rAU;
}
// * * * * * * * * * * * * * * * * * * * * * * * * * * * * * * * * * * * * * //

dimensions      [-1 3 1 0 0 0 0];


internalField   nonuniform List<scalar> 
1984
(
2.21274800531e-05
2.20582576277e-05
2.2050292086e-05
2.20479857801e-05
2.20473625547e-05
2.20480451246e-05
2.2049170837e-05
2.20500932497e-05
2.20507905295e-05
2.20518489116e-05
2.20541428324e-05
2.20554896672e-05
2.2054282368e-05
2.20405991653e-05
2.20867621274e-05
2.17229050103e-05
2.12153342054e-05
2.20479262599e-05
6.18825656505e-05
0.00423894490098
2.20562832775e-05
2.19319463123e-05
2.19118921915e-05
2.19080131958e-05
2.19065564035e-05
2.19063854476e-05
2.19069893176e-05
2.19077670237e-05
2.19085607053e-05
2.19089300237e-05
2.19089625487e-05
2.19086843662e-05
2.19015644113e-05
2.1869133095e-05
2.19036138791e-05
2.15699745397e-05
2.11043095681e-05
2.19196989384e-05
7.07094349543e-05
0.00589641112349
2.20472764762e-05
2.1909421523e-05
2.18868966068e-05
2.18824805483e-05
2.18808575259e-05
2.1880281037e-05
2.18804172656e-05
2.18810879029e-05
2.1881569147e-05
2.18816505608e-05
2.1881430632e-05
2.1881210264e-05
2.18780997078e-05
2.18542250824e-05
2.18883157935e-05
2.15926862557e-05
2.1171977271e-05
2.19915825955e-05
7.48722111666e-05
0.00587079963631
2.2045027857e-05
2.190458055e-05
2.18812648876e-05
2.18765759042e-05
2.18748918075e-05
2.18743905937e-05
2.18744353166e-05
2.18747894699e-05
2.18753376121e-05
2.18754280623e-05
2.18750388333e-05
2.18734694991e-05
2.18677829538e-05
2.18439405545e-05
2.18796945738e-05
2.15711349219e-05
2.10997290293e-05
2.2279653934e-05
8.49884091558e-05
0.00624321714574
2.20456116601e-05
2.19035767506e-05
2.18799294609e-05
2.18751544612e-05
2.18735399353e-05
2.18731408824e-05
2.18731011627e-05
2.18732235324e-05
2.18735343764e-05
2.18737673713e-05
2.18732914171e-05
2.18715538069e-05
2.18654029337e-05
2.183658655e-05
2.18653591725e-05
2.15575364077e-05
2.10523930444e-05
2.26774766723e-05
9.29018747927e-05
0.00671631779697
2.204624392e-05
2.1903759416e-05
2.18799037521e-05
2.18749905814e-05
2.18733565245e-05
2.18730455147e-05
2.18730930718e-05
2.18731610804e-05
2.18732036216e-05
2.18731223389e-05
2.18713922759e-05
2.18680712425e-05
2.18610241928e-05
2.18124476558e-05
2.18102324209e-05
2.15763625257e-05
2.12180850271e-05
2.37109393032e-05
0.000100999988103
0.00713111611495
2.20468234789e-05
2.19042668174e-05
2.18802625476e-05
2.18752419218e-05
2.18736245887e-05
2.18732279676e-05
2.18733452248e-05
2.18735127679e-05
2.1873507899e-05
2.18731247674e-05
2.18712325192e-05
2.18647610112e-05
2.18568535945e-05
2.18070384219e-05
2.18134675005e-05
2.1566570682e-05
2.11303433762e-05
2.42168399217e-05
0.000112083547776
0.00740548713848
2.20476370914e-05
2.19049390657e-05
2.18808377241e-05
2.1875762973e-05
2.1874140037e-05
2.18738101859e-05
2.18738620628e-05
2.18740147845e-05
2.18741632299e-05
2.1873832946e-05
2.18721610263e-05
2.18682563938e-05
2.18592346109e-05
2.18294469678e-05
2.1847811288e-05
2.15106098863e-05
2.09685877539e-05
2.420695544e-05
0.000128507669987
0.00806388231012
2.20488591568e-05
2.19056035755e-05
2.18816974127e-05
2.18765519968e-05
2.18749028985e-05
2.18745130235e-05
2.18745195692e-05
2.18747237598e-05
2.18749767309e-05
2.18746940496e-05
2.18731740857e-05
2.18699750331e-05
2.18646804424e-05
2.18402417987e-05
2.18442624843e-05
2.15137959448e-05
2.1054738008e-05
2.44427666458e-05
0.000150616500623
0.0086891268523
2.2050430577e-05
2.19067398453e-05
2.18828820691e-05
2.18774554756e-05
2.18758001764e-05
2.18752722094e-05
2.1875215183e-05
2.18752861737e-05
2.18755143215e-05
2.18752226349e-05
2.18740865338e-05
2.18716133405e-05
2.18674592984e-05
2.18486074267e-05
2.18406903233e-05
2.15470921495e-05
2.11017203794e-05
2.48601342457e-05
0.000171181817483
0.00922677676362
2.20524468377e-05
2.19087830555e-05
2.18840754954e-05
2.18785587416e-05
2.18767759708e-05
2.18760850031e-05
2.18757437016e-05
2.18757452453e-05
2.18758263481e-05
2.18754215289e-05
2.18740106713e-05
2.18719659489e-05
2.18700176313e-05
2.18532698587e-05
2.18228135982e-05
2.15698650138e-05
2.12041048736e-05
2.5615874753e-05
0.000192507710549
0.00984371001606
2.20549772689e-05
2.1911053679e-05
2.18855540743e-05
2.18799130665e-05
2.18776585822e-05
2.18769520992e-05
2.18767426606e-05
2.18763445392e-05
2.18755717687e-05
2.18750028663e-05
2.18737338592e-05
2.18720489206e-05
2.18701191216e-05
2.18563195006e-05
2.18041312725e-05
2.16054807987e-05
2.13496509492e-05
2.64602869155e-05
0.000217578149432
0.0102372185352
2.20581342439e-05
2.19133727298e-05
2.18873452036e-05
2.18813531918e-05
2.18789888626e-05
2.18779012162e-05
2.18771839977e-05
2.18761369844e-05
2.18753769121e-05
2.18751143912e-05
2.18737554656e-05
2.18718357872e-05
2.18693861998e-05
2.18575596826e-05
2.18038094562e-05
2.16514017855e-05
2.14840768744e-05
2.72774021027e-05
0.000249831263078
0.0106952960325
2.20626705905e-05
2.19160965424e-05
2.18897330569e-05
2.18831223517e-05
2.18801083716e-05
2.18779389184e-05
2.18765827767e-05
2.18757633296e-05
2.18749936897e-05
2.1874135988e-05
2.18730570491e-05
2.18705853473e-05
2.18662578481e-05
2.18553299715e-05
2.18059136519e-05
2.16724536995e-05
2.1528150459e-05
2.80652487642e-05
0.000292422289176
0.0110937931111
2.20689564541e-05
2.1920360556e-05
2.18927949442e-05
2.1884295218e-05
2.18799146794e-05
2.18772589332e-05
2.18756084032e-05
2.18744632327e-05
2.1872771306e-05
2.18707994395e-05
2.18706478593e-05
2.18688552654e-05
2.18629558936e-05
2.18519955447e-05
2.18092616302e-05
2.16836592685e-05
2.15152608756e-05
2.87276025261e-05
0.000345341770134
0.0119230774465
2.20781197786e-05
2.1926595988e-05
2.18952542622e-05
2.18848645319e-05
2.18793762575e-05
2.18761292037e-05
2.18735893422e-05
2.18715023106e-05
2.18708355477e-05
2.18699918451e-05
2.18677205351e-05
2.18648902921e-05
2.18588572501e-05
2.18460559599e-05
2.18080612351e-05
2.16971080725e-05
2.15328196796e-05
2.93081070965e-05
0.00039767535663
0.0124770610371
2.20928522387e-05
2.19324616935e-05
2.18968974313e-05
2.18858558954e-05
2.18798767113e-05
2.18762450473e-05
2.18735159237e-05
2.1871778825e-05
2.18700316619e-05
2.18678982896e-05
2.18640641402e-05
2.1859376523e-05
2.18529951666e-05
2.18372569899e-05
2.18041712446e-05
2.17238007152e-05
2.16027071092e-05
2.99107173695e-05
0.00044046546872
0.012765705442
2.21154451218e-05
2.19328660594e-05
2.18949541355e-05
2.1883724074e-05
2.18788418048e-05
2.18762791259e-05
2.18742017622e-05
2.18715835068e-05
2.18684241168e-05
2.18658564022e-05
2.18638299615e-05
2.18599495825e-05
2.18545829886e-05
2.1840940722e-05
2.18045062619e-05
2.173941723e-05
2.16259747803e-05
3.04979176387e-05
0.000483032902544
0.0129968905206
2.1959816836e-05
2.19114107393e-05
2.18846476641e-05
2.18775249153e-05
2.18741708917e-05
2.18719624755e-05
2.18694754088e-05
2.18668560261e-05
2.18652823536e-05
2.18652632733e-05
2.18649032287e-05
2.18627844983e-05
2.1858452246e-05
2.18526579023e-05
2.18110885307e-05
2.17503837569e-05
2.16305436846e-05
3.10077013447e-05
0.000527992918097
0.0131978433609
2.18474522341e-05
2.18682713589e-05
2.18642576328e-05
2.18653995593e-05
2.18642748099e-05
2.18621305526e-05
2.18615926144e-05
2.18620674359e-05
2.18622724268e-05
2.18615149028e-05
2.18622058571e-05
2.18628481933e-05
2.18588907842e-05
2.18605152148e-05
2.18255842792e-05
2.1771743107e-05
2.16317601032e-05
3.14553617406e-05
0.00057320960118
0.0155053484987
2.19363256782e-05
2.18440949443e-05
2.18448352378e-05
2.18508526774e-05
2.18537006133e-05
2.18552725658e-05
2.1856750515e-05
2.18587100793e-05
2.18599320371e-05
2.18594711595e-05
2.18586272108e-05
2.18603801908e-05
2.18609179721e-05
2.1865404604e-05
2.18341543401e-05
2.17912273796e-05
2.1646204716e-05
3.14301108195e-05
0.000636549969158
0.0158445022699
2.19845023779e-05
2.18500504605e-05
2.18386368352e-05
2.18450735149e-05
2.18492372978e-05
2.18530211416e-05
2.18546606414e-05
2.18551677615e-05
2.18560908265e-05
2.18573930014e-05
2.18570989673e-05
2.18563758941e-05
2.18581777648e-05
2.18605578658e-05
2.18370838166e-05
2.17800411687e-05
2.16507909472e-05
3.17623637644e-05
0.000731851335871
0.0149436350439
2.20043202409e-05
2.18612534353e-05
2.18412821368e-05
2.18455641913e-05
2.18488796617e-05
2.18501972035e-05
2.18515253118e-05
2.18518788438e-05
2.18523652767e-05
2.18532509255e-05
2.18549490797e-05
2.18539410273e-05
2.18515727346e-05
2.18473260462e-05
2.18139204085e-05
2.16925986781e-05
2.14934535222e-05
3.27925185862e-05
0.000845646268643
0.0164086680164
2.2014996377e-05
2.18697089468e-05
2.18454384547e-05
2.18466360709e-05
2.18485645607e-05
2.18487376632e-05
2.18492818725e-05
2.1850455545e-05
2.18509260183e-05
2.18514380459e-05
2.1850841621e-05
2.18512801209e-05
2.18483318842e-05
2.1836988648e-05
2.17863903573e-05
2.1658997105e-05
2.13956349305e-05
3.37636498087e-05
0.00104358890257
0.0178678472721
2.20218062874e-05
2.1875699843e-05
2.18493968786e-05
2.18485589944e-05
2.18485979516e-05
2.18493744433e-05
2.18500476137e-05
2.18509238485e-05
2.18514729985e-05
2.1851482136e-05
2.18495047234e-05
2.18479137059e-05
2.184663868e-05
2.18337513138e-05
2.1784698868e-05
2.17016601193e-05
2.14825096481e-05
3.50044455073e-05
0.00130559637446
0.0177091539219
2.20265399098e-05
2.18803686741e-05
2.18531432836e-05
2.18511821282e-05
2.18502800945e-05
2.18503011873e-05
2.18506515167e-05
2.18508087002e-05
2.1850839026e-05
2.18503749241e-05
2.18492953511e-05
2.18453923463e-05
2.18423435901e-05
2.1829325684e-05
2.17851663569e-05
2.171613972e-05
2.14886523502e-05
3.63012818426e-05
0.00160730286821
0.0181710534715
2.20305426521e-05
2.18841996095e-05
2.18562838624e-05
2.18536186415e-05
2.18522120218e-05
2.18508010213e-05
2.18500941078e-05
2.18496067562e-05
2.18492727551e-05
2.18486515036e-05
2.18474616848e-05
2.18447676069e-05
2.18378503959e-05
2.18219753877e-05
2.1778328758e-05
2.16974613347e-05
2.1587925247e-05
3.80068603011e-05
0.00203994303722
0.0186869575257
2.20340036549e-05
2.18873490665e-05
2.18587523106e-05
2.18554334663e-05
2.18535790016e-05
2.18520909457e-05
2.18510428888e-05
2.1850272282e-05
2.18493912382e-05
2.18483797266e-05
2.1846886102e-05
2.18438972974e-05
2.18360228809e-05
2.18175260628e-05
2.1771737103e-05
2.16317541356e-05
2.15507113453e-05
3.97472906987e-05
0.00267350895255
0.0158673894565
2.20367263034e-05
2.1889862954e-05
2.18608283263e-05
2.18571935641e-05
2.18547811695e-05
2.185336864e-05
2.18524545302e-05
2.18516258266e-05
2.18504413718e-05
2.18485550642e-05
2.18459991846e-05
2.18418431574e-05
2.18335555416e-05
2.18133966222e-05
2.17674114218e-05
2.1568561699e-05
2.14828283627e-05
4.16311056558e-05
0.00341299003316
0.0157908725788
2.20387572761e-05
2.18918887654e-05
2.18627756795e-05
2.18588878539e-05
2.18562628058e-05
2.18545703016e-05
2.18535371445e-05
2.18526156112e-05
2.18512540626e-05
2.1849239921e-05
2.18460367267e-05
2.18409954246e-05
2.18300511841e-05
2.1806601757e-05
2.17560673669e-05
2.15531757449e-05
2.14523990983e-05
4.34919701465e-05
0.00411133511856
0.0182522927623
2.20403198702e-05
2.18936683203e-05
2.18645233117e-05
2.18602149203e-05
2.1857584311e-05
2.18559394149e-05
2.18550191066e-05
2.1854120873e-05
2.18529009256e-05
2.18509312097e-05
2.18479390909e-05
2.18424600615e-05
2.18306778053e-05
2.18006353128e-05
2.17411922448e-05
2.15291903722e-05
2.14005200595e-05
4.50125999296e-05
0.00477301034798
0.0158314388148
2.20413324169e-05
2.18951105506e-05
2.18658380454e-05
2.1861421779e-05
2.18587118922e-05
2.18571453983e-05
2.1856370751e-05
2.18558887334e-05
2.18551308838e-05
2.18535822575e-05
2.18513825337e-05
2.18467254549e-05
2.18344812585e-05
2.17930203667e-05
2.17179024531e-05
2.14994932041e-05
2.13528163773e-05
4.62112035045e-05
0.00508871111639
0.0160501105411
2.20421347453e-05
2.18962825179e-05
2.18670065637e-05
2.18625829584e-05
2.18597445982e-05
2.1858232547e-05
2.18576859809e-05
2.18576673324e-05
2.18576239031e-05
2.18572003306e-05
2.18563235198e-05
2.18541892832e-05
2.18422216662e-05
2.1788648707e-05
2.17039484201e-05
2.1486703691e-05
2.13244367628e-05
4.72191503308e-05
0.00535649181379
0.0155901195309
2.2043003831e-05
2.18972254042e-05
2.18680763211e-05
2.18634356395e-05
2.18606113563e-05
2.18592666821e-05
2.1859002567e-05
2.1859156972e-05
2.18596773227e-05
2.18603297497e-05
2.18615243449e-05
2.18633265479e-05
2.18518484107e-05
2.17954311193e-05
2.17062859034e-05
2.14919055305e-05
2.13851672271e-05
4.83284957997e-05
0.00547646638556
0.0154209522461
2.20436906039e-05
2.18980062511e-05
2.18689898318e-05
2.18641616757e-05
2.18613714119e-05
2.1860138869e-05
2.18598252959e-05
2.18598894998e-05
2.18604045211e-05
2.18617789601e-05
2.18651540445e-05
2.18698509489e-05
2.18603613283e-05
2.18104244475e-05
2.17067618732e-05
2.14956060348e-05
2.1440539592e-05
4.91376338576e-05
0.0056889644055
0.0172152129721
2.20442082402e-05
2.18987494773e-05
2.18698887836e-05
2.1864960917e-05
2.18620210348e-05
2.18606033489e-05
2.18599952455e-05
2.18598764399e-05
2.18601572108e-05
2.18612835793e-05
2.18633360112e-05
2.18653719747e-05
2.18559553779e-05
2.1820067438e-05
2.17146951114e-05
2.15034770766e-05
2.14821938446e-05
4.9668164654e-05
0.00588241368197
0.018003458724
2.20446085218e-05
2.18994166138e-05
2.18706203901e-05
2.18654948743e-05
2.18623862869e-05
2.18606971781e-05
2.18599490204e-05
2.18596887898e-05
2.18595269896e-05
2.18590221869e-05
2.18578151989e-05
2.18537112665e-05
2.18404389477e-05
2.1809954243e-05
2.17181251103e-05
2.15131085651e-05
2.15063689727e-05
4.99878196236e-05
0.00601064492093
0.016763946703
2.20449797716e-05
2.18999688965e-05
2.18712113571e-05
2.18657348025e-05
2.18625562851e-05
2.18608671193e-05
2.18600759486e-05
2.18594656421e-05
2.18588482342e-05
2.18575671909e-05
2.18549753403e-05
2.18493205863e-05
2.18343096116e-05
2.1801729191e-05
2.17213233542e-05
2.15244518787e-05
2.15130348844e-05
5.01120678609e-05
0.00607942892739
0.0184687611457
2.204537391e-05
2.19005507485e-05
2.18718491448e-05
2.18660969527e-05
2.186286807e-05
2.18610965369e-05
2.18599554873e-05
2.18592482268e-05
2.18584002835e-05
2.18570180453e-05
2.1854330866e-05
2.1849625555e-05
2.18351272768e-05
2.18010103375e-05
2.17292524292e-05
2.15380867426e-05
2.15153813979e-05
5.01185663679e-05
0.0061296113219
0.0189958743225
2.20456957636e-05
2.19011895914e-05
2.18725936759e-05
2.18666006269e-05
2.18632360911e-05
2.18613045717e-05
2.18601619227e-05
2.18591739702e-05
2.18582915807e-05
2.18562739199e-05
2.18517227301e-05
2.18452810719e-05
2.18330330208e-05
2.18019259951e-05
2.17370953269e-05
2.15521325824e-05
2.15173223095e-05
5.00481468453e-05
0.00614199654989
0.0161418964407
2.20459316306e-05
2.19017558987e-05
2.18733357646e-05
2.18670911216e-05
2.18636459233e-05
2.18614814968e-05
2.18602343957e-05
2.18597007743e-05
2.18596621209e-05
2.18564277273e-05
2.18475110998e-05
2.1838756121e-05
2.18338064988e-05
2.18155338111e-05
2.17664471039e-05
2.15499230059e-05
2.15207560897e-05
4.99540715896e-05
0.0061394138485
0.0164284430669
2.20460110226e-05
2.19023079809e-05
2.1874055639e-05
2.18675329966e-05
2.18639223357e-05
2.18616595126e-05
2.18601303697e-05
2.18606415042e-05
2.18634846574e-05
2.185918933e-05
2.1843097223e-05
2.18312266557e-05
2.18340797663e-05
2.18573847928e-05
2.18177895865e-05
2.15442416356e-05
2.15372048971e-05
4.98703777942e-05
0.00615832093529
0.0165539009282
2.20460533035e-05
2.19028908381e-05
2.18748461987e-05
2.18679763615e-05
2.18642229646e-05
2.18619200798e-05
2.18602939227e-05
2.18621546785e-05
2.18711002038e-05
2.18593670143e-05
2.18291621216e-05
2.18186755045e-05
2.1824369083e-05
2.18399498298e-05
2.17501890085e-05
2.15467355866e-05
2.15638979974e-05
4.97800229154e-05
0.00616482225276
0.016482885571
2.20463484428e-05
2.1903529733e-05
2.18757874732e-05
2.18685914261e-05
2.18646824808e-05
2.18619961134e-05
2.18603378302e-05
2.18629992351e-05
2.18840809808e-05
2.18182815516e-05
2.17773655297e-05
2.18076131342e-05
2.18039202056e-05
2.17920015636e-05
2.17115468512e-05
2.15845656931e-05
2.16718192911e-05
5.01329895168e-05
0.00614777973912
0.0164800337139
2.20466584889e-05
2.19041406064e-05
2.18768564575e-05
2.18698454626e-05
2.18663073745e-05
2.18635399051e-05
2.18594543639e-05
2.18499918803e-05
2.18484309017e-05
2.18023206808e-05
2.17890818927e-05
2.18021680268e-05
2.17793404373e-05
2.17599517723e-05
2.17235027827e-05
2.15972694482e-05
2.16528040768e-05
4.99068832092e-05
0.00609919601462
0.0194339186793
2.20466096172e-05
2.19044813426e-05
2.18775386402e-05
2.18707011149e-05
2.18680335076e-05
2.18644134647e-05
2.18567873175e-05
2.18269668958e-05
2.18214488016e-05
2.18011369068e-05
2.17938231669e-05
2.18341544062e-05
2.16949922831e-05
2.17273945287e-05
2.17309912315e-05
2.15872076134e-05
2.15890068208e-05
4.92406395391e-05
0.00601106764801
0.0204460102156
2.20467908115e-05
2.19049395317e-05
2.18788271388e-05
2.18728631013e-05
2.18724025013e-05
2.18659884461e-05
2.18437598866e-05
2.18171923984e-05
2.18344937112e-05
2.17867330667e-05
2.17926196415e-05
2.18159660016e-05
2.17538348848e-05
2.17361853006e-05
2.1737689509e-05
2.15676245824e-05
2.15788335189e-05
4.89076764505e-05
0.00589691792219
0.0206691002574
2.2046649419e-05
2.19047586042e-05
2.18790600099e-05
2.18722324351e-05
2.18653517368e-05
2.18526697918e-05
2.18480165003e-05
2.18080600016e-05
2.19686737608e-05
2.19306343818e-05
2.18184360421e-05
2.1867259612e-05
2.1860199781e-05
2.17507771601e-05
2.17227289434e-05
2.15533453642e-05
2.16263498469e-05
4.88429905687e-05
0.00562226494726
0.0163869359291
2.20456616661e-05
2.19035227078e-05
2.18777311401e-05
2.18692179972e-05
2.18713144296e-05
2.18600045251e-05
2.18639453715e-05
2.19784655318e-05
2.19224012944e-05
2.17731740497e-05
2.16933499518e-05
2.15854348993e-05
2.17434418223e-05
4.87327247704e-05
0.00542712514784
0.0162737821731
2.20446855403e-05
2.1902856442e-05
2.18786475864e-05
2.18717839645e-05
2.18733361459e-05
2.18747474806e-05
2.18772124111e-05
2.20231470623e-05
2.19518371662e-05
2.17589830607e-05
2.16878739116e-05
2.15899521633e-05
2.17915137495e-05
4.86692615255e-05
0.00511695339109
0.0203742578875
2.20445233143e-05
2.19027475929e-05
2.18787504502e-05
2.18720044901e-05
2.18736271024e-05
2.18750396378e-05
2.18761456217e-05
2.20234226944e-05
2.19521295003e-05
2.17610965244e-05
2.16895173923e-05
2.15890232393e-05
2.17616746121e-05
4.87194710336e-05
0.00511556353653
0.0201590122718
2.20453239394e-05
2.19033075999e-05
2.18778912964e-05
2.18695670103e-05
2.18725872852e-05
2.1861041842e-05
2.18612850796e-05
2.19773711646e-05
2.19224877675e-05
2.1774269241e-05
2.1693838399e-05
2.15837064603e-05
2.16964098693e-05
4.88311514139e-05
0.00541824661525
0.0162740973916
2.20462382008e-05
2.19044942897e-05
2.18791360062e-05
2.18724605741e-05
2.18663775436e-05
2.18531281266e-05
2.18465560042e-05
2.18051879507e-05
2.19702271684e-05
2.19317440528e-05
2.18199297938e-05
2.18690005429e-05
2.18613202447e-05
2.17527229532e-05
2.17245093464e-05
2.15569090994e-05
2.16129871628e-05
4.89516849274e-05
0.00562399882668
0.0163754929276
2.20464477686e-05
2.19046979823e-05
2.18787539172e-05
2.18729800145e-05
2.18723402347e-05
2.18660405384e-05
2.18459058039e-05
2.18162613635e-05
2.18347430791e-05
2.17903977357e-05
2.17958575649e-05
2.18162119801e-05
2.17571484203e-05
2.17385079302e-05
2.17437295985e-05
2.15732839362e-05
2.15963003935e-05
4.91772974654e-05
0.00587198350932
0.0207494162837
2.20463444894e-05
2.19042480658e-05
2.18774108174e-05
2.18705504539e-05
2.1867660112e-05
2.18642269834e-05
2.18573680088e-05
2.18283367306e-05
2.18223624337e-05
2.18037662659e-05
2.17966567957e-05
2.18334132279e-05
2.16991757803e-05
2.1729698672e-05
2.17401112813e-05
2.15766986323e-05
2.15877652393e-05
4.94706924032e-05
0.00602654603212
0.0205814638898
2.20463157566e-05
2.19038269687e-05
2.18766133209e-05
2.18695128029e-05
2.18660665708e-05
2.18635823409e-05
2.18595310589e-05
2.18499759229e-05
2.18459170966e-05
2.18020297123e-05
2.17908612149e-05
2.18026827921e-05
2.17791230162e-05
2.17576593821e-05
2.17332116666e-05
2.15926938714e-05
2.15936637724e-05
4.9649104692e-05
0.00608348285907
0.0207132792355
2.20460748106e-05
2.19032552276e-05
2.1875646809e-05
2.18684584136e-05
2.18646095868e-05
2.18620143053e-05
2.18602877325e-05
2.18633164394e-05
2.1884832793e-05
2.18171806293e-05
2.17758569187e-05
2.18089615507e-05
2.18038799669e-05
2.17877874892e-05
2.17145310171e-05
2.15838475744e-05
2.16032245437e-05
4.98842738882e-05
0.00614832365135
0.0164671658372
2.20458230252e-05
2.19026582918e-05
2.18747035263e-05
2.18678225217e-05
2.18641962541e-05
2.18619705086e-05
2.18606573968e-05
2.1862888946e-05
2.18714251977e-05
2.1859078326e-05
2.18296920803e-05
2.18196143543e-05
2.18248193303e-05
2.18324258172e-05
2.1749862238e-05
2.15442097297e-05
2.15901892581e-05
5.01144898723e-05
0.006210784699
0.0164155324183
2.20458221796e-05
2.19021057555e-05
2.18738916015e-05
2.18673441513e-05
2.18638001057e-05
2.1861655812e-05
2.18603555353e-05
2.18609365463e-05
2.18636929595e-05
2.18591992002e-05
2.18434756676e-05
2.18314755123e-05
2.18354476914e-05
2.18550090165e-05
2.18015757964e-05
2.15125266658e-05
2.1567113427e-05
5.02641603232e-05
0.00624383104595
0.0163592874135
2.20457940882e-05
2.190157881e-05
2.18731370362e-05
2.18668520949e-05
2.18633619103e-05
2.18612828173e-05
2.1859997377e-05
2.18593654005e-05
2.18595128213e-05
2.18566940844e-05
2.18482258977e-05
2.18410084584e-05
2.18392385991e-05
2.18184335511e-05
2.17628461583e-05
2.15416714436e-05
2.15653457836e-05
5.0314561657e-05
0.006233409237
0.0191898044567
2.20455646411e-05
2.19009933936e-05
2.18723627512e-05
2.18663265717e-05
2.18629656346e-05
2.18610426728e-05
2.18597639696e-05
2.18588062266e-05
2.18581925981e-05
2.18564343807e-05
2.18519136906e-05
2.18472916154e-05
2.18385417937e-05
2.18087484395e-05
2.17426619161e-05
2.15549654012e-05
2.1549805325e-05
5.0297791935e-05
0.00616006130123
0.0198138994163
2.20452525267e-05
2.19003642597e-05
2.18716161938e-05
2.18658448132e-05
2.18626175588e-05
2.18609297333e-05
2.18599631686e-05
2.18591732231e-05
2.18585901605e-05
2.18570921368e-05
2.18544044061e-05
2.18501829727e-05
2.18361802544e-05
2.18054178687e-05
2.1736457517e-05
2.15384498578e-05
2.1519496531e-05
5.02194757936e-05
0.00609869110693
0.0155170141997
2.20449442898e-05
2.18998866246e-05
2.18710787976e-05
2.18655663183e-05
2.18623670841e-05
2.18607448562e-05
2.1860092988e-05
2.18596987639e-05
2.18592527088e-05
2.18583205798e-05
2.18558380545e-05
2.18491993515e-05
2.18314019677e-05
2.18015867042e-05
2.17259681522e-05
2.15266250543e-05
2.14959250711e-05
5.00703581843e-05
0.00601496433604
0.0174766009598
2.2044815587e-05
2.1899520187e-05
2.18706313193e-05
2.18653298988e-05
2.18621029496e-05
2.18603263053e-05
2.18596201793e-05
2.18594856408e-05
2.18593206434e-05
2.18595671115e-05
2.18592399732e-05
2.18547921874e-05
2.1837734396e-05
2.18060347052e-05
2.17173722966e-05
2.15147263754e-05
2.14841643248e-05
4.98220973982e-05
0.00594209255427
0.0202970684183
2.20445479278e-05
2.18990517999e-05
2.18700611692e-05
2.18649839596e-05
2.18618971139e-05
2.18602362363e-05
2.18594078493e-05
2.18592101701e-05
2.18592934282e-05
2.186037815e-05
2.18633547273e-05
2.18665267018e-05
2.18570986422e-05
2.18185173467e-05
2.17119757e-05
2.15025638835e-05
2.14706032387e-05
4.94509451648e-05
0.00581157851421
0.0186484461401
2.20439048438e-05
2.1898372286e-05
2.18692260276e-05
2.18643643581e-05
2.18614010146e-05
2.18599641196e-05
2.18594968536e-05
2.18594605162e-05
2.18598920639e-05
2.18607009654e-05
2.18636746567e-05
2.18700797341e-05
2.18633017756e-05
2.18119682678e-05
2.17059099771e-05
2.14963868963e-05
2.14366814571e-05
4.88858149278e-05
0.00564112119731
0.0161607865479
2.20432230853e-05
2.18974940734e-05
2.18682145208e-05
2.18635805577e-05
2.18606698168e-05
2.18592185111e-05
2.18589517954e-05
2.18590185855e-05
2.18594450213e-05
2.18598110058e-05
2.18606316121e-05
2.1862688261e-05
2.18539305308e-05
2.17973531507e-05
2.17064570498e-05
2.14956799885e-05
2.13836421099e-05
4.80765637644e-05
0.00544425367685
0.0153178190303
2.20424569602e-05
2.18964874909e-05
2.18672243485e-05
2.18627087987e-05
2.18599480045e-05
2.18584462863e-05
2.18578448609e-05
2.18577089202e-05
2.18575172441e-05
2.18570238264e-05
2.18560708895e-05
2.18538841532e-05
2.18431046753e-05
2.17913453639e-05
2.17071078401e-05
2.14918952018e-05
2.1330597163e-05
4.70413909616e-05
0.00524002856497
0.0156660964115
2.20416365661e-05
2.18952675201e-05
2.18660772925e-05
2.18617305205e-05
2.18591040048e-05
2.18575380243e-05
2.18566505264e-05
2.18560743271e-05
2.18551122013e-05
2.18537638127e-05
2.18514882564e-05
2.1847190234e-05
2.18355237415e-05
2.17951060533e-05
2.17210488528e-05
2.14992041695e-05
2.13322327385e-05
4.58338073802e-05
0.00501591591358
0.0181508643999
2.20405070681e-05
2.189381483e-05
2.18646429772e-05
2.18606109981e-05
2.18579740698e-05
2.18563421505e-05
2.18554043724e-05
2.18544009536e-05
2.18530230044e-05
2.18510346066e-05
2.18480151338e-05
2.18430520494e-05
2.18320911959e-05
2.18033151308e-05
2.17441139023e-05
2.15316368544e-05
2.13495960116e-05
4.44227148374e-05
0.00447943936454
0.0181068735472
2.20388047397e-05
2.18922663016e-05
2.18630991354e-05
2.18591577329e-05
2.18565225606e-05
2.18548704692e-05
2.18538385499e-05
2.18527616774e-05
2.18514246564e-05
2.18493095906e-05
2.18462303908e-05
2.18415400566e-05
2.18326260284e-05
2.18120519586e-05
2.17648808812e-05
2.15610181151e-05
2.13989703956e-05
4.2871326418e-05
0.00386627003013
0.015327486611
2.20367813911e-05
2.18902240644e-05
2.18611738762e-05
2.18574042594e-05
2.18550295271e-05
2.18534408587e-05
2.18524045618e-05
2.18514534853e-05
2.18502002001e-05
2.1848225695e-05
2.18453848943e-05
2.18418531698e-05
2.18338419659e-05
2.1816865781e-05
2.17723246569e-05
2.15718936936e-05
2.1457693967e-05
4.12017697014e-05
0.00319119738498
0.0159323533986
2.2034293469e-05
2.18875165794e-05
2.18587955372e-05
2.18555273966e-05
2.18535990958e-05
2.18521221686e-05
2.18512571508e-05
2.18504465486e-05
2.18492793347e-05
2.18475826701e-05
2.18453721263e-05
2.18417121198e-05
2.18337449818e-05
2.18174627812e-05
2.17706447281e-05
2.16318256673e-05
2.15467818675e-05
3.96516295692e-05
0.00252656085825
0.0159362448404
2.20309486892e-05
2.18843608512e-05
2.18562144083e-05
2.18534364245e-05
2.1851820593e-05
2.18507762433e-05
2.18502555384e-05
2.18497138634e-05
2.18488829722e-05
2.18476396705e-05
2.18457555237e-05
2.18410140344e-05
2.18345582746e-05
2.18180201067e-05
2.1775016394e-05
2.17098070248e-05
2.1486191916e-05
3.76422025212e-05
0.00192584394242
0.0194439600024
2.20268243174e-05
2.18805608674e-05
2.18531779642e-05
2.1851021796e-05
2.18500554982e-05
2.18497699515e-05
2.18496836534e-05
2.1849678475e-05
2.18495600803e-05
2.18491752798e-05
2.18472387766e-05
2.18437873281e-05
2.18400315908e-05
2.18241772659e-05
2.17782593272e-05
2.17132445563e-05
2.14907095495e-05
3.62385682997e-05
0.00149770549687
0.0153140561889
2.20219625514e-05
2.18759460227e-05
2.18496054685e-05
2.18486942826e-05
2.18488389404e-05
2.18490633423e-05
2.18492895243e-05
2.18497531185e-05
2.18503034095e-05
2.1850726105e-05
2.18490020455e-05
2.18480566127e-05
2.18454038521e-05
2.18314119946e-05
2.17812135205e-05
2.16915824086e-05
2.14574210395e-05
3.49476916486e-05
0.00124415932895
0.0147202491586
2.20151866227e-05
2.18701036054e-05
2.18455960315e-05
2.18464870896e-05
2.18479392515e-05
2.18486973441e-05
2.18492747782e-05
2.18501643251e-05
2.18502293797e-05
2.18502332219e-05
2.18495919369e-05
2.18495539564e-05
2.18471372153e-05
2.18363712589e-05
2.17888523573e-05
2.16555785643e-05
2.13941889555e-05
3.36939079456e-05
0.00101014774693
0.0171677604803
2.20046317633e-05
2.18616955006e-05
2.18414810685e-05
2.18451135893e-05
2.18485154075e-05
2.18497205385e-05
2.18510764457e-05
2.18514229521e-05
2.18512042389e-05
2.18512928815e-05
2.1852653963e-05
2.18518175343e-05
2.18495026015e-05
2.1846474811e-05
2.18148096484e-05
2.16876459572e-05
2.14707143035e-05
3.26571392348e-05
0.000826637267238
0.0163995765459
2.19855364307e-05
2.18505782912e-05
2.18396981756e-05
2.18472020042e-05
2.18505074316e-05
2.18522550291e-05
2.18539265619e-05
2.18541351211e-05
2.18548944718e-05
2.18559881025e-05
2.18563831353e-05
2.18553637549e-05
2.18553549591e-05
2.18581709007e-05
2.1831092512e-05
2.17729732863e-05
2.16229088948e-05
3.16760082932e-05
0.000739660311394
0.013431536615
2.19403873317e-05
2.18440748727e-05
2.18447178068e-05
2.185216785e-05
2.18552862616e-05
2.18569673935e-05
2.18571158224e-05
2.1857911423e-05
2.18586038633e-05
2.18587959866e-05
2.18581016535e-05
2.18576448825e-05
2.18581007449e-05
2.18604673923e-05
2.18265737303e-05
2.17831770078e-05
2.16599514076e-05
3.15036404168e-05
0.000666000002059
0.0135438733066
2.18378662874e-05
2.18651932156e-05
2.1861158479e-05
2.18619606682e-05
2.18628048841e-05
2.18626080038e-05
2.18615604057e-05
2.18613457938e-05
2.18606347331e-05
2.18597235225e-05
2.18588593823e-05
2.18583761743e-05
2.18550066726e-05
2.18546729485e-05
2.18202170222e-05
2.17585621615e-05
2.16203327771e-05
3.15693762901e-05
0.000619429897827
0.0134057827461
2.19475545069e-05
2.19076130393e-05
2.18813367458e-05
2.18737432172e-05
2.18695021354e-05
2.18674299823e-05
2.1866364272e-05
2.18647474765e-05
2.1863042409e-05
2.18621487716e-05
2.18610580705e-05
2.18591062343e-05
2.18542283958e-05
2.18467508719e-05
2.18056120388e-05
2.17443005212e-05
2.16240496007e-05
3.11227935954e-05
0.000580579064505
0.0157410381362
2.21162280206e-05
2.19319018748e-05
2.18931478181e-05
2.18810082766e-05
2.18748104467e-05
2.18715066472e-05
2.18697182171e-05
2.18683681795e-05
2.18671102508e-05
2.18656413962e-05
2.18639495571e-05
2.18606220845e-05
2.18550963237e-05
2.1839254706e-05
2.18047643705e-05
2.1746051126e-05