/*--------------------------------*- C++ -*----------------------------------*\
| =========                 |                                                 |
| \\      /  F ield         | OpenFOAM: The Open Source CFD Toolbox           |
|  \\    /   O peration     | Version:  v2012                                 |
|   \\  /    A nd           | Website:  www.openfoam.com                      |
|    \\/     M anipulation  |                                                 |
\*---------------------------------------------------------------------------*/
FoamFile
{
    version     2.0;
    format      ascii;
    class       volVectorField;
    location    "4.9";
    object      U;
}
// * * * * * * * * * * * * * * * * * * * * * * * * * * * * * * * * * * * * * //

dimensions      [0 1 -1 0 0 0 0];


internalField   nonuniform List<vector> 
1984
(
(0.000987717260447 -0.00100186439758 6.41053273936e-22)
(0.00111713653742 -0.0034733788602 7.30863683835e-22)
(0.00123368612085 -0.00595293086343 4.11269161169e-22)
(0.00127901878052 -0.00858494827354 -2.25049997347e-22)
(0.00130093575685 -0.011305046068 -6.95026219226e-22)
(0.00133218696531 -0.014107596845 -7.58894916439e-22)
(0.00137482631228 -0.0170223473336 -5.32169111928e-22)
(0.00143588843759 -0.0200883014087 -5.03933037518e-23)
(0.00152394970414 -0.0233349021177 4.42286558343e-22)
(0.00163538364604 -0.0267946322302 3.95986898363e-22)
(0.00177437238922 -0.0304917234152 2.35025398552e-22)
(0.00192132047028 -0.034496358875 -4.67925098953e-23)
(0.00211145906498 -0.0389117380606 -1.34029035764e-22)
(0.00240138763926 -0.0438503255768 -1.16996386243e-21)
(0.00315560538786 -0.0496837829337 -1.98756441807e-21)
(0.00512158995955 -0.056589639316 -2.84615961863e-21)
(0.00733545689445 -0.0706562207577 -2.00656388848e-21)
(0.00894008769768 -0.0698538134763 2.21050254394e-20)
(-0.0248185930537 -0.0822897687494 2.0108048819e-19)
(0.0175933710382 -0.10223565242 1.51040885988e-19)
(0.00345867945479 -0.00111354085625 9.4776475022e-22)
(0.00367514527653 -0.00364796475378 1.06648043094e-21)
(0.00389307040319 -0.00613024520446 5.60538738021e-22)
(0.00404492917477 -0.00872979034363 -1.2673260501e-22)
(0.00417279184682 -0.0114280998354 -4.96297144983e-22)
(0.00432321520339 -0.0142366399485 -7.18613619095e-22)
(0.00450875834 -0.0171641466227 -4.83792419481e-22)
(0.00474405398433 -0.0202264042177 -1.37744364298e-22)
(0.00503101327932 -0.0234584552567 2.88570579679e-23)
(0.00537110733892 -0.0268965058855 2.39038765322e-22)
(0.00577575367857 -0.030579669464 -4.55012999145e-23)
(0.0062603319301 -0.0345387157741 -5.84909274214e-23)
(0.0068633089782 -0.0388062927139 -2.05454899776e-22)
(0.00768528143827 -0.0434932987464 -1.14262004794e-21)
(0.00903764368765 -0.048674019912 -2.91813630825e-21)
(0.0121408354219 -0.0536371752035 -7.41282034452e-21)
(0.0165557831207 -0.0638547478191 -8.25042114993e-21)
(0.0230108745576 -0.0485743364287 -1.08706424362e-20)
(0.00589783278712 -0.0552255088389 -1.22876498643e-19)
(-0.0123872442897 -0.0807728665303 -1.14351589465e-19)
(0.00587322206481 -0.00117432876227 1.39036601269e-21)
(0.00612354141385 -0.00375892032708 1.36293094995e-21)
(0.00639893117432 -0.00624564464345 8.81711726475e-22)
(0.00663592581993 -0.0088252970104 1.76048850554e-22)
(0.00685942762055 -0.0115050480663 -3.12752893725e-22)
(0.00711807168285 -0.0142970829374 -4.44232180763e-22)
(0.00744384899648 -0.0172105264342 -3.52655169831e-22)
(0.00784286290333 -0.0202583272217 -1.08880977471e-22)
(0.00831249276927 -0.023471517057 1.06380280594e-23)
(0.00885275806505 -0.026886507843 -3.45519174375e-23)
(0.00947367440308 -0.030517831366 -1.24472736469e-22)
(0.0102282353673 -0.0343819820449 -1.26487070842e-22)
(0.0111505083681 -0.0385076877892 -3.58049824555e-22)
(0.0122527764131 -0.042945535344 -1.64175657093e-21)
(0.0137646896271 -0.0476505621351 -3.41680908845e-22)
(0.0167405631372 -0.0516065085614 -7.09980300762e-21)
(0.0197134112787 -0.0603520303217 -8.83490343955e-21)
(0.0179077357957 -0.0420872914267 -3.15774766295e-20)
(0.00585977886919 -0.0460581724097 -2.14166278456e-19)
(0.00457906742791 -0.0875235184778 -1.97122347195e-19)
(0.0083547123277 -0.0011589675581 1.31387568218e-21)
(0.00858580979194 -0.00373237601745 1.43335547948e-21)
(0.00891950888897 -0.00619576415071 1.03179393422e-21)
(0.00923797128361 -0.00874022539125 4.26956367861e-22)
(0.00956093066562 -0.0113824264345 -9.14730762709e-25)
(0.00992967862513 -0.0141250276496 -1.51554930612e-22)
(0.0103789479964 -0.0169820836186 -1.3329069983e-22)
(0.0109200617057 -0.019973078431 -4.33771022059e-23)
(0.0115611254687 -0.0231134609588 -1.01053803811e-23)
(0.0123029672021 -0.0264353904543 -1.15532925639e-23)
(0.0131504478061 -0.0299650537518 -7.24091641406e-23)
(0.0141281946236 -0.0337102697011 -1.04361926165e-22)
(0.0152856749018 -0.0377031953389 -3.34000241922e-22)
(0.0166088982838 -0.0419485300684 -8.475257343e-22)
(0.0181293135253 -0.046400114389 -7.63994824527e-22)
(0.0207607011759 -0.050243773465 -1.38537407688e-22)
(0.022851535038 -0.0594376721523 -5.63852172973e-21)
(0.0158572900214 -0.0426260853565 -9.33461825987e-21)
(0.0224914221523 -0.0520835372137 -3.1314272103e-20)
(0.0180889416372 -0.0839390751179 -2.81445800077e-20)
(0.0107850732083 -0.00110490133957 1.15053670918e-21)
(0.0110162653867 -0.0036154822203 1.1987414738e-21)
(0.0114088728125 -0.00601718606045 1.02933566421e-21)
(0.0118031914077 -0.00850025407779 5.30253984867e-22)
(0.0122156775957 -0.0110723260994 1.65838890227e-22)
(0.0126917927973 -0.0137389871248 1.64160744478e-23)
(0.0132575292658 -0.0165115651093 -2.32831064962e-23)
(0.0139335224743 -0.0194096438342 -3.01116548777e-24)
(0.0147297565492 -0.0224494586923 -1.60319208012e-24)
(0.0156587765846 -0.0256516952547 7.09359489644e-24)
(0.0167152691012 -0.0290415445256 -3.79784659083e-23)
(0.0179067705561 -0.0326312947606 -9.20334031041e-23)
(0.0192575884903 -0.0364302696104 -4.6837849493e-22)
(0.0208037253719 -0.0404542530792 -1.53489735924e-21)
(0.0224968009968 -0.0446741584631 -1.61982042081e-21)
(0.0251806147754 -0.0480181363732 -2.75675702722e-21)
(0.027289475654 -0.0565563117389 -5.14403920586e-21)
(0.0170155795372 -0.0436849206426 -7.85336605955e-21)
(0.0312634364471 -0.0574018685009 -9.40673331209e-21)
(0.0228280045477 -0.073787781798 -7.3194549754e-21)
(0.0131123801838 -0.00104353980248 9.06738248236e-22)
(0.0133685192824 -0.00345696775866 1.08117289114e-21)
(0.0138216496755 -0.00576254958354 9.08299023676e-22)
(0.0142869038946 -0.00815754933704 5.01778570675e-22)
(0.0147808112864 -0.0106338279825 1.97523149765e-22)
(0.0153519682364 -0.0131960525372 6.36327009489e-23)
(0.0160309154316 -0.0158563099397 1.0160767576e-23)
(0.0168350940284 -0.018636071553 1.00283006951e-24)
(0.0177801636662 -0.0215533598507 -4.15173916177e-25)
(0.0188798652869 -0.0246228788521 4.08018026864e-24)
(0.0201302951341 -0.0278660841087 -4.18577609936e-23)
(0.0215229929501 -0.0312911174354 -1.19565450266e-22)
(0.0230413382991 -0.0348526830178 -6.274016765e-22)
(0.0246637350494 -0.0385542357257 -2.01988048882e-21)
(0.0264481891679 -0.0422829289289 -2.69704190617e-21)
(0.0288022838947 -0.0443708444487 -7.11891636953e-21)
(0.0304176653439 -0.0484613429047 -7.74413498438e-21)
(0.0212377364503 -0.0391086304581 9.74165462191e-21)
(0.0384678267612 -0.0534450425363 9.7642567889e-20)
(0.0321672718645 -0.0740153387349 8.78965951141e-20)
(0.0153204067983 -0.000977677266982 8.09314421192e-22)
(0.01561365826 -0.00327616078118 1.04722382625e-21)
(0.0161308279954 -0.00546150907307 8.2339587516e-22)
(0.0166641711948 -0.00774378223731 4.54832157112e-22)
(0.0172339954146 -0.0101006716096 1.96480167254e-22)
(0.0178929687141 -0.0125361571271 6.3880229194e-23)
(0.0186768378474 -0.0150637783676 1.21526377431e-23)
(0.0196039622914 -0.0177003514411 -4.3076597291e-24)
(0.0206916054219 -0.0204678744685 -1.59425325585e-23)
(0.0219544885651 -0.0233854146981 -1.5508439782e-23)
(0.0233880959963 -0.0264727444805 -5.62299878682e-23)
(0.0249742599992 -0.029747202861 -2.28397414414e-22)
(0.0266597806386 -0.0331761476594 -7.09890395211e-22)
(0.0283060868721 -0.0366576800719 -1.95284752491e-21)
(0.0297716098484 -0.0402894112536 -2.95422051044e-21)
(0.0312692101846 -0.0424983503352 -1.49076404641e-20)
(0.03183147471 -0.0466975141465 -1.31137310921e-20)
(0.0264724464567 -0.0387818021376 -4.84903243403e-22)
(0.0505378065597 -0.0566116576361 6.27364983352e-20)
(0.0415661661947 -0.0892435748787 5.63523698336e-20)
(0.0173991321613 -0.000910444629734 9.36776929906e-22)
(0.0177316891224 -0.0030763676405 9.61290041391e-22)
(0.0183161012971 -0.00512168996946 8.44688477845e-22)
(0.0189151302378 -0.00727248451719 4.79921278462e-22)
(0.0195547966332 -0.00949106619323 2.01605013086e-22)
(0.0202954761481 -0.0117804382601 7.45840011294e-23)
(0.0211753773688 -0.0141537912399 2.36860857997e-23)
(0.0222205267317 -0.016630148054 1.81036619545e-24)
(0.0234457944157 -0.0192271456147 1.5710404773e-24)
(0.0248675641496 -0.0219675833901 -1.93162764074e-23)
(0.0264839795099 -0.0248852517272 -7.16706968613e-23)
(0.0282731976687 -0.0280069147966 -2.72183390913e-22)
(0.0301754391489 -0.0313536964092 -6.60638901484e-22)
(0.0320450954742 -0.0350043420971 -1.48370312203e-21)
(0.0335699436671 -0.0390322140543 -5.22888658257e-22)
(0.0349075658012 -0.0427965297638 -8.07767021722e-21)
(0.0354329670106 -0.0515652288215 -8.25548151711e-21)
(0.0332814212637 -0.0432769995408 -1.47276946978e-20)
(0.0717848247075 -0.061084360897 -1.36269862532e-20)
(0.0527858481507 -0.0834524170163 -1.13199281015e-20)
(0.0193369682121 -0.00084165979224 8.32192102904e-22)
(0.0197091481858 -0.00285725100519 9.54938188736e-22)
(0.0203614058192 -0.00474684406065 8.02190632813e-22)
(0.0210221318582 -0.00675157164721 4.65696037778e-22)
(0.0217256306843 -0.00881349626636 2.00352803845e-22)
(0.0225390682247 -0.0109403618485 8.11790517925e-23)
(0.0235073199136 -0.0131424660194 3.25851192416e-23)
(0.0246596683034 -0.0154349935822 8.66841843043e-24)
(0.0260157814669 -0.0178395713631 8.88477961393e-25)
(0.0275917748489 -0.0203811435107 -1.56497092384e-23)
(0.0293985160442 -0.0230972135444 -4.71754552348e-23)
(0.0314203605898 -0.0260337612571 -2.1817835605e-22)
(0.0336159416161 -0.0292396543251 -4.75211673889e-22)
(0.0359123387564 -0.0328632841593 -8.5474827205e-22)
(0.0381992041245 -0.0371917020794 -1.28308658573e-21)
(0.0407176407907 -0.0416805521946 -7.01149598608e-22)
(0.0421548809604 -0.052929219451 -7.36464647011e-21)
(0.0386394971385 -0.0438871752756 -1.11286058162e-20)
(0.0858834360269 -0.0627787504546 -1.76755942328e-20)
(0.0601565758303 -0.0781701879871 -1.60005273219e-20)
(0.0211203941511 -0.000772216507023 5.81446399155e-22)
(0.0215417170743 -0.00261831339833 6.18421102821e-22)
(0.0222488167103 -0.00434003013029 6.28528077225e-22)
(0.0229678205288 -0.00618691628278 3.84208792431e-22)
(0.023729519326 -0.00807827798423 1.6289121554e-22)
(0.0246064014532 -0.0100257029859 5.2634588669e-23)
(0.0256529739307 -0.0120382513873 1.52837996935e-23)
(0.026901441658 -0.0141306625987 2.99567782031e-24)
(0.028373434753 -0.0163216124259 3.58627461218e-25)
(0.0300970794938 -0.0186340222001 -9.67645248268e-24)
(0.0320911719274 -0.0211059517233 -5.79306134042e-23)
(0.0343520960594 -0.0237834640339 -2.13081325275e-22)
(0.0368656601266 -0.0267239831109 -4.19106896472e-22)
(0.0396583258583 -0.0300789042451 -7.6805711063e-22)
(0.0428104172983 -0.0341068882361 -1.25671916262e-21)
(0.0468567513814 -0.0381858685904 -1.85112069795e-21)
(0.0493432337464 -0.0490592006185 -6.18580782117e-21)
(0.043846407701 -0.0393923461656 -1.59148157903e-20)
(0.0967453402482 -0.057977193843 -3.97794392244e-20)
(0.0661862307308 -0.0712764435338 -3.40224085737e-20)
(0.0227398159091 -0.000693946963906 1.96785513864e-22)
(0.0232123376098 -0.00236143387491 5.23051407122e-22)
(0.0239671444098 -0.00391452439807 4.5159515593e-22)
(0.0247403556971 -0.00558218802061 2.99893166186e-22)
(0.0255521772547 -0.00729053104076 1.25699229038e-22)
(0.0264852114534 -0.00904602635761 3.69909298696e-23)
(0.0275964013696 -0.0108539136294 7.34296101299e-24)
(0.0289307899374 -0.0127304608283 -4.20558375529e-24)
(0.0305044112061 -0.0146876351142 -7.45184585759e-24)
(0.0323525024919 -0.0167443799394 -1.21350821596e-23)
(0.0345036136023 -0.0189319070087 -6.48140055013e-23)
(0.0369710244941 -0.0212791278796 -2.24177260295e-22)
(0.0397619785463 -0.0238244795888 -4.42825754812e-22)
(0.0429714378585 -0.0266521296658 -6.57613440296e-22)
(0.0467932611337 -0.0300806666973 -2.07751536052e-21)
(0.0517960637255 -0.0328928252301 9.25033239371e-22)
(0.054928642126 -0.0414773720841 -5.95835558636e-21)
(0.0470714462972 -0.0318486395063 -1.11443060573e-20)
(0.106637613616 -0.0477347963751 -1.70326311118e-20)
(0.073964307424 -0.0593249343901 -1.45612063261e-20)
(0.024184711922 -0.000609383053057 1.50048541274e-22)
(0.0247003638958 -0.00208981642499 3.84109326748e-22)
(0.0255094520249 -0.00346678080831 4.42288668787e-22)
(0.0263296402434 -0.00494544573333 2.85163359605e-22)
(0.0271830932179 -0.00646118567009 1.1252271195e-22)
(0.0281646721191 -0.00801414728445 2.94825531619e-23)
(0.0293298107712 -0.00960154161303 5.91150532496e-24)
(0.0307246824746 -0.0112465546552 -1.6924678092e-23)
(0.0323820108927 -0.0129594740472 -2.15697035613e-23)
(0.0343251389601 -0.014733823655 -2.30589400758e-23)
(0.0365916986965 -0.0165921343649 -6.64461859675e-23)
(0.0392048645182 -0.0185524324327 -1.86598503047e-22)
(0.0421868048541 -0.0206304726797 -2.95918189976e-22)
(0.0456356641326 -0.0228393083397 -5.60665557811e-22)
(0.0496996983501 -0.0253798642219 -1.69534676194e-21)
(0.0549263006484 -0.0265546688382 -3.40784422753e-21)
(0.0581051269589 -0.0320113282392 -8.78747373039e-21)
(0.0492613802069 -0.0237492372248 -1.24668090818e-20)
(0.117320978398 -0.0383131841448 -1.64194793017e-20)
(0.0810548467355 -0.0571230539319 -1.25317553502e-20)
(0.0254492165287 -0.000519357099211 1.09005151038e-22)
(0.0260010065143 -0.00180501454845 2.64810456502e-22)
(0.0268653316 -0.00300077766559 3.94280979904e-22)
(0.0277272626217 -0.00428395529653 2.60038825917e-22)
(0.0286162841774 -0.00559600262954 9.94979653479e-23)
(0.0296294188546 -0.00693780428283 2.35978372464e-23)
(0.0308368591868 -0.00830853757599 5.18598656456e-24)
(0.0322709258558 -0.00970808199486 -1.45514516708e-23)
(0.0339850168667 -0.0111470542888 -2.25997763344e-23)
(0.0359889702889 -0.0126222715149 -2.51282462525e-23)
(0.0383224866191 -0.0141385017741 -6.46438106872e-23)
(0.0410238725246 -0.0157036284643 -1.54845953449e-22)
(0.0440887336109 -0.0173054230343 -2.85535087451e-22)
(0.0475733181303 -0.0189080474147 -5.15724453443e-22)
(0.0515206785314 -0.0206009895163 -8.90438513707e-22)
(0.0562784452688 -0.0206960215351 -6.42932589372e-21)
(0.059163247888 -0.0241860911506 -4.88331159453e-21)
(0.0522147246594 -0.0180295184142 -9.83095759253e-21)
(0.133492797112 -0.0317561842807 -1.0821281678e-20)
(0.090893466265 -0.0532935232505 -8.13410834682e-21)
(0.0265287458052 -0.000430092636091 -1.3028854043e-22)
(0.0271123845918 -0.00151284797057 1.02460107364e-22)
(0.0280297464064 -0.00251723271006 1.81082168336e-22)
(0.0289260151345 -0.00360157449277 1.50543576018e-22)
(0.0298419520079 -0.00471250741639 5.69459305315e-23)
(0.0308734913458 -0.00583831129541 1.0316967532e-23)
(0.0321053632023 -0.00697649061826 -1.10340256135e-24)
(0.0335677728686 -0.00812205876454 -1.11830281674e-23)
(0.0353018741713 -0.00928754433416 -1.95108419794e-23)
(0.0373353706675 -0.0104709218833 -1.49040197216e-23)
(0.0396938227433 -0.0116391772493 -6.42079285892e-23)
(0.0424181760489 -0.0128124141767 -1.20454218949e-22)
(0.0454914181271 -0.0139793460997 -2.76336653977e-22)
(0.0488899865256 -0.0150558638486 -3.36200574883e-22)
(0.0525667208165 -0.0160628987462 -1.72564214837e-21)
(0.0567108356844 -0.0156096187192 2.52624028871e-21)
(0.059278971696 -0.0187456233367 -1.77563096242e-21)
(0.0552604658079 -0.0140206106514 -2.48916261536e-21)
(0.151910138599 -0.0248386932911 -7.44689910854e-23)
(0.0954571081609 -0.0404087433515 3.81844746966e-22)
(0.0274153129815 -0.000343453389911 -4.34421628365e-22)
(0.028036946982 -0.00121651755354 -2.63960503675e-22)
(0.0289954462952 -0.002026956887 -9.19357042777e-23)
(0.0299207788419 -0.00291326273532 -1.78705963304e-23)
(0.0308530489233 -0.00381248749314 -9.67162738439e-24)
(0.0318966052191 -0.00471279678431 -7.82245347323e-24)
(0.0331318521105 -0.00561451659115 -6.70509249194e-24)
(0.034603974022 -0.00651600099327 -5.0162799481e-24)
(0.0363357977558 -0.00740899128379 -8.6660024124e-25)
(0.0383755618663 -0.00829550984909 1.42176085095e-23)
(0.0407369896907 -0.00913806130956 -4.63996468694e-23)
(0.0434116555445 -0.00993422710532 -6.58020566602e-23)
(0.0464205217786 -0.0106888526899 -1.19875435056e-22)
(0.0496748105941 -0.0113057757338 -4.79371896378e-23)
(0.0530750069175 -0.0118050553055 1.68161268516e-22)
(0.0567210751835 -0.0110009493424 4.67398547725e-21)
(0.0591899516334 -0.0140211659158 4.88236628137e-22)
(0.0569590958708 -0.0106114711024 -2.47340633053e-21)
(0.162666645022 -0.0170285996198 1.00275785169e-21)
(0.103528285785 -0.0170473487378 1.97808260238e-21)
(0.0281062243006 -0.000252040264096 -7.07174633518e-22)
(0.0287664561391 -0.000922590320545 -4.27976958221e-22)
(0.0297575752953 -0.00153601789735 -2.68064343495e-22)
(0.0307068956429 -0.00221162872784 -1.20829169712e-22)
(0.031647545507 -0.00289367716277 -4.64747347407e-23)
(0.0326920216607 -0.00357138901272 -1.15511467688e-23)
(0.0339182348066 -0.00423981925375 6.72673971586e-24)
(0.0353846335775 -0.004893254281 1.17878960445e-23)
(0.0371153685352 -0.0055144143773 2.90795248873e-23)
(0.0391170019546 -0.00610052855002 3.28690938339e-23)
(0.0414272388998 -0.00664832914437 -3.45970887818e-23)
(0.0440290786361 -0.0071116354891 -7.04547104622e-23)
(0.0469233413376 -0.00747954825652 -1.95814678605e-22)
(0.050011161815 -0.00769129993236 -3.4524306463e-22)
(0.0531553590204 -0.00785352317907 -1.24182869308e-21)
(0.0563346411765 -0.00657616932448 2.9037403588e-21)
(0.0588049001849 -0.00892466994798 -5.02418016659e-22)
(0.0576065427659 -0.00646386811999 -4.45688453844e-21)
(0.163616186498 -0.0110603127391 -4.65466508757e-21)
(0.106770484865 -0.00856409586819 -4.23689676565e-21)
(0.0286011687945 -0.000162228707805 -6.40713427165e-22)
(0.0292933058706 -0.000628815674097 -3.7488997431e-22)
(0.0303158564691 -0.00104346109289 -2.08390965953e-22)
(0.0312786043502 -0.00150761409277 -8.94710557693e-23)
(0.0322185459714 -0.00197225928187 -3.25875792463e-23)
(0.0332541859704 -0.00242325597913 -8.91726250514e-24)
(0.0344725107041 -0.00285785861377 1.79647018915e-23)
(0.0359178436956 -0.00326531200548 2.02921110973e-23)
(0.0376098702187 -0.0036412200683 1.58099228472e-23)
(0.0395497802355 -0.00395843135874 9.32466738664e-24)
(0.0417692645842 -0.00419264349146 -8.92138440158e-24)
(0.0442848987995 -0.0043236208603 -5.93216670074e-23)
(0.0470552743928 -0.00432504188392 -1.54780829722e-22)
(0.0499615008862 -0.00412679481142 -6.18590910519e-22)
(0.0528505907281 -0.00402841849026 -2.29640508081e-21)
(0.0554644943431 -0.0021619378495 -1.00847476694e-21)
(0.058061482601 -0.00332860352439 -6.57670813592e-21)
(0.0590133660968 -0.00162112183222 -8.62302864432e-21)
(0.16540528441 -0.00720283365459 -9.43988366302e-21)
(0.110856537089 -0.00790420866707 -7.13852599922e-21)
(0.0289053449089 -7.40462988003e-05 -2.62837729757e-22)
(0.0296245394179 -0.000338771022737 -8.95615867454e-23)
(0.0306738774812 -0.000563914161146 -1.55720569328e-23)
(0.0316414485383 -0.000829436375253 4.87789495596e-24)
(0.0325728714853 -0.00108549191057 -6.1614062831e-24)
(0.033593186902 -0.00132023930213 -2.71848142812e-24)
(0.0347921062514 -0.00153027495836 -2.58553087162e-24)
(0.0361927562523 -0.00170629919071 -1.10301482361e-23)
(0.0378158752275 -0.00182375740106 1.17457517159e-23)
(0.0396804885635 -0.00185206740798 1.88241700202e-23)
(0.0418040592775 -0.00177405518365 -6.63713853863e-24)
(0.0441921537798 -0.0015660944726 -4.17816685536e-23)
(0.0468198590495 -0.00120160899005 -2.6802668972e-22)
(0.0494801061736 -0.000546172943595 -1.03759285569e-21)
(0.0520351754813 -0.000203182429164 -1.80256195041e-21)
(0.0541000148994 0.00223557864677 -4.5116407204e-21)
(0.0568440116865 0.00240907454048 -1.01072073605e-20)
(0.0612346927131 0.00353176893363 -1.50524919563e-20)
(0.170308257943 -0.00119332926638 -1.40456031839e-20)
(0.114237096486 -0.0039580576943 -9.82933627134e-21)
(0.0290262391405 1.8513284005e-05 1.58933028616e-23)
(0.0297719831293 -5.98491589545e-05 1.31501183148e-22)
(0.0308415899457 -0.000105398550108 1.28565727166e-22)
(0.031808189669 -0.00018378509148 9.99535884334e-23)
(0.0327265767512 -0.000248405802452 3.1132307127e-23)
(0.0337278363666 -0.000284870359986 2.34027434584e-24)
(0.0348759444528 -0.000284426225382 2.84864135746e-26)
(0.0362111918153 -0.000226500354563 -6.43255922189e-24)
(0.0377559442809 -9.29249480616e-05 -1.21019502299e-23)
(0.0395296499349 0.000142406084407 -8.11977120227e-24)
(0.0415225235922 0.000502059240668 -1.36472895983e-23)
(0.0437592518602 0.00102809911718 -9.43450298644e-23)
(0.0461889400245 0.00171203375409 -4.77613067338e-22)
(0.0485801744699 0.00279257475634 -1.69373280328e-21)
(0.0506705767003 0.00353770931283 -4.67096017667e-21)
(0.0522664807978 0.00649763197869 -2.64577445284e-21)
(0.0548234750776 0.00745895404277 -8.18996033404e-21)
(0.0633311739298 0.00780729578213 -1.22672258686e-20)
(0.17234799682 0.00618396094296 -1.36150150519e-20)
(0.11659441336 0.00225401405246 -1.89383459003e-20)
(0.0289697378717 9.93751566754e-05 -3.79427330468e-23)
(0.0297421776827 0.000199923497376 5.26953231262e-23)
(0.0308281641974 0.000321220078926 8.12590368793e-23)
(0.0317974025778 0.0004154565434 7.92010661748e-23)
(0.0326938744897 0.000530825376623 2.44314502646e-23)
(0.0336516058681 0.000683297669996 4.85429155902e-24)
(0.0347375059334 0.000892722546804 5.65410719321e-24)
(0.0359967431518 0.00117451772988 -1.0892392404e-23)
(0.0374436702017 0.00154164539537 -2.83627551036e-23)
(0.0391060986322 0.00200480007284 -3.3044332203e-23)
(0.040969865583 0.00260755207623 -7.47475478466e-23)
(0.0430165661319 0.00340360777639 -1.05868818436e-22)
(0.0452012755089 0.00436540314491 -5.10703041382e-22)
(0.0473346570714 0.00573540854667 -1.70310184231e-21)
(0.048951280327 0.00677413351944 -3.26463313087e-21)
(0.0500853053172 0.00986637089413 3.18813415827e-21)
(0.0523378571132 0.0112440808895 -5.3713471461e-21)
(0.0645601025749 0.010835380528 -1.25611157098e-20)
(0.17055241382 0.0120325628369 -1.62315821101e-20)
(0.139942191544 0.0114035402836 -2.66586976144e-20)
(0.0287463541718 0.000177888255205 -3.68415589852e-22)
(0.0295454133587 0.000442555393174 -1.50997199158e-22)
(0.0306464109753 0.000722035255872 -4.82677046793e-23)
(0.0316135181371 0.00098503119893 3.47201182435e-23)
(0.0324815056149 0.00127669432172 1.46251208582e-23)
(0.0333754395829 0.00161590454431 3.16452992941e-25)
(0.034396879626 0.00201523220348 4.17104219413e-25)
(0.0355754529872 0.00248863710791 -1.24125752975e-24)
(0.036919152493 0.00305685334502 -6.3302541587e-24)
(0.0384513493446 0.00373839573917 -1.45450028527e-23)
(0.0401712029765 0.00453800815006 -1.87016905022e-23)
(0.042037195897 0.00552899348988 -1.07226362508e-22)
(0.0439778749873 0.00672218740954 -4.00098689823e-22)
(0.0458338179557 0.00821015681498 -1.0748670771e-21)
(0.0471313690037 0.0093840167851 -2.8903556166e-21)
(0.0480818935466 0.0122248050327 7.01893811523e-22)
(0.0500961586685 0.0137814792681 -3.54210331042e-21)
(0.0641906204418 0.0126611621815 -8.48600908004e-21)
(0.164182323553 0.0171490700011 -1.14123766922e-20)
(0.131070981899 0.0209930388894 1.78163812135e-21)
(0.0283643744115 0.000254377191952 -5.04375245652e-22)
(0.0291897969991 0.000674772905384 -2.58617430419e-22)
(0.0303043540115 0.00110547439165 -6.7907258099e-23)
(0.0312590941532 0.00153382786208 3.57580376927e-23)
(0.032087721273 0.00198544545366 2.4114047069e-23)
(0.0329257937781 0.00248746574615 2.38496332508e-23)
(0.033871856991 0.00305843263929 8.61266839675e-24)
(0.0349639641934 0.00370079369444 1.06585845962e-23)
(0.0362097182504 0.00444922246014 2.33237790597e-23)
(0.0376140648151 0.00531797062672 7.72690995721e-24)
(0.0391722219091 0.00630808325108 -2.35708989653e-23)
(0.0408737714177 0.00745459915066 -9.54801896451e-23)
(0.0426098155558 0.00877222756485 -2.80459031243e-22)
(0.0442656506878 0.0102840784006 -1.02731353007e-21)
(0.045528218853 0.0115255225613 -2.35829743803e-21)
(0.0465484897668 0.0136146768927 7.43357099295e-22)
(0.0483780074031 0.0146704383447 -3.49401717223e-21)
(0.0610776454636 0.0122325884076 -6.86896917083e-21)
(0.150713191587 0.0217686178906 -6.51152657529e-22)
(0.141905757146 0.0458914007476 -2.27428772997e-21)
(0.0278376416345 0.000320143603906 -4.40175803604e-22)
(0.0286840456412 0.000887282708407 -2.17511815965e-22)
(0.0298091090504 0.00146227723513 -2.75980998222e-23)
(0.0307453336765 0.00203913022471 5.2706364352e-23)
(0.0315294312725 0.00264113704321 2.08740818709e-23)
(0.0323148846126 0.00329446937144 8.74309754814e-24)
(0.0331856148015 0.00401634201024 8.44834966243e-24)
(0.0341841766434 0.00482194590708 1.6146753647e-23)
(0.0353284784106 0.00573309141622 1.72779949147e-23)
(0.0366076709074 0.00676103819781 2.76449728577e-23)
(0.0380291416052 0.00790868170372 -2.06151519062e-24)
(0.0395451883605 0.00919454173227 -6.83951065778e-23)
(0.0411420493808 0.0106405007567 -1.53862765881e-22)
(0.0427166430589 0.0121971851032 -4.43285761252e-22)
(0.0441785290859 0.0134504234432 7.2840195219e-23)
(0.0457174420549 0.0150126598558 1.06729532856e-21)
(0.0478599803289 0.0154898336562 -4.56602626144e-21)
(0.053973030549 0.0118407573403 -4.56558914827e-21)
(0.126515687076 0.02130112173 3.02968062394e-20)
(0.138546139885 0.099700236109 1.31087780743e-20)
(0.027176466067 0.000378094170579 -3.26585022244e-22)
(0.0280429223556 0.00108213602413 -1.24628669624e-22)
(0.0291738531204 0.00178768131941 1.29882855617e-23)
(0.0300889506257 0.00249881178945 7.86638113737e-23)
(0.0308332483941 0.00324028559766 3.59288670546e-23)
(0.031555778251 0.0040376181564 9.465659874e-24)
(0.0323509168098 0.00490653804686 -2.28875905736e-24)
(0.0332565908848 0.00586022741108 -5.00561736183e-24)
(0.0342872321635 0.00691476531634 7.85886362475e-24)
(0.0354418385565 0.00808691289787 6.45786026601e-24)
(0.0367250756008 0.00935748101543 6.72043018017e-24)
(0.0381051609886 0.0107807689009 2.06045202304e-24)
(0.0395725347598 0.0123724350747 -9.53647260168e-23)
(0.0410786619587 0.014028984493 -5.22368252467e-22)
(0.0427514918929 0.0154844161943 -1.37637399421e-21)
(0.044968154933 0.0172657542572 2.78701171766e-21)
(0.0475277237333 0.0180880965172 -1.7279687073e-21)
(0.0474546876058 0.0158201560122 -5.16205089146e-21)
(0.103175898124 0.0208234500992 -1.20189240549e-21)
(0.00964616357266 0.0932179264875 6.15222263199e-20)
(0.0263930606827 0.000432932809725 -2.04402720513e-22)
(0.0272781053374 0.0012608726083 -7.96349708905e-23)
(0.02841089143 0.00208470983395 5.70830026106e-24)
(0.0293042663367 0.00291910977886 6.32238312531e-23)
(0.0300040648452 0.00378607328044 3.18668038488e-23)
(0.0306584425696 0.00471363421088 5.73005555128e-24)
(0.0313740025222 0.00571759042639 -6.29483225711e-24)
(0.0321892870055 0.00680567696625 -1.05885766675e-23)
(0.0331111969697 0.00798900093908 -4.54727446866e-24)
(0.0341414045591 0.00928511883358 1.42132635211e-24)
(0.0352839976713 0.0106868451093 1.4738785531e-23)
(0.0365564952455 0.0122325749316 4.29235556435e-23)
(0.0378830515957 0.0139383107735 -1.84813279361e-23)
(0.0393040497647 0.0157220952948 -1.9044107449e-22)
(0.0410552030723 0.0174047464859 -8.53620192182e-22)
(0.0436443181886 0.0194799920427 1.30864890507e-21)
(0.0460626880755 0.0201795417873 -4.9994422996e-21)
(0.0446072048236 0.019534029149 -9.57171693326e-21)
(0.0941327118716 0.0237896731886 -1.61670685765e-20)
(-0.0019157985731 0.0354582079537 -1.62280443595e-20)
(0.0254962103023 0.000482659679687 -1.86818676714e-22)
(0.0264007437476 0.0014217393317 -7.45429180258e-23)
(0.0275334103359 0.00235142651102 -2.19041417798e-23)
(0.0284022396345 0.00329442464572 3.19539979686e-23)
(0.0290523055136 0.00426823474467 1.77016391086e-23)
(0.0296431912643 0.00530335248409 1.01766203836e-24)
(0.0302773374234 0.00641954784301 -4.79991473267e-24)
(0.0309976627292 0.00762275147999 -2.94663015176e-24)
(0.0318131751583 0.00892510287662 2.86926551487e-24)
(0.0327222198023 0.0103413680081 8.49873285267e-24)
(0.0337299999187 0.0118821199041 1.93487171025e-23)
(0.034865185934 0.0135463691801 6.0019894459e-23)
(0.0360900989345 0.0153508857496 4.23323105857e-23)
(0.0374300843346 0.0172582310266 -1.26339053154e-22)
(0.0392188217706 0.0191450564924 -6.01043715076e-22)
(0.0419474427927 0.0213684070627 1.88121781988e-21)
(0.0439861815111 0.0214185536008 -3.96686910757e-21)
(0.0432304444184 0.021010998426 -1.09681150256e-20)
(0.0919042922365 0.0257149170763 -9.95302918848e-21)
(0.0116748178319 0.0131929429887 -8.90631850657e-21)
(0.0244963403625 0.000525907453846 -1.44770712266e-22)
(0.0254236628337 0.00156397073172 -5.73069489468e-23)
(0.0265558915238 0.00258493405443 -1.62923789091e-23)
(0.0273990752313 0.00362051020511 8.61670080671e-24)
(0.0279990824371 0.00469034142126 2.75240301253e-24)
(0.0285235253384 0.00581812605257 -1.29106664382e-24)
(0.0290730636567 0.00702290461248 -6.26404049577e-24)
(0.0296935411239 0.00832522122519 1.35768142093e-24)
(0.0304004956578 0.00973764641002 1.28342668185e-23)
(0.031188850727 0.0112653623622 2.65185975045e-23)
(0.0320586538717 0.0129252231991 3.56949629003e-23)
(0.0330396440554 0.014733460492 8.87537127138e-23)
(0.0341556543041 0.0166612707984 9.14963664548e-23)
(0.0354471226986 0.018703207094 -6.56483662587e-23)
(0.0373054337071 0.0207361254817 -4.21931780703e-22)
(0.040166179097 0.023111139555 1.44475756269e-21)
(0.0419027737364 0.02248606062 -7.05384947693e-21)
(0.0420139200226 0.0216893733358 -1.38237422164e-20)
(0.0890272595115 0.0277600569521 -1.59532709844e-20)
(0.0325917900681 0.0197973313767 -6.99137024308e-20)
(0.0234098130005 0.000557327111451 -1.35464081538e-22)
(0.0243604434748 0.00168175079519 4.69519155743e-24)
(0.025491251927 0.00278092369193 3.44997234159e-23)