/*--------------------------------*- C++ -*----------------------------------*\
| =========                 |                                                 |
| \\      /  F ield         | OpenFOAM: The Open Source CFD Toolbox           |
|  \\    /   O peration     | Version:  v2012                                 |
|   \\  /    A nd           | Website:  www.openfoam.com                      |
|    \\/     M anipulation  |                                                 |
\*---------------------------------------------------------------------------*/
FoamFile
{
    version     2.0;
    format      ascii;
    class       volVectorField;
    location    "2";
    object      ddtCorrDdt0(U);
}
// * * * * * * * * * * * * * * * * * * * * * * * * * * * * * * * * * * * * * //

dimensions      [0 1 -2 0 0 0 0];


internalField   nonuniform List<vector> 
167
(
(0.00958150451587 0.0946279236188 -5.99700412576e-23)
(-0.00229861079248 0.108225892142 -1.14602747132e-22)
(-0.0174806684945 0.123718365694 -7.27730199851e-22)
(-0.0369966904206 0.140686171525 -1.99926490003e-21)
(-0.0622452083969 0.168867617365 2.79721045047e-21)
(-0.0904004658839 0.175259296145 3.19656805122e-21)
(-0.137156420719 0.194256079108 4.53486963362e-21)
(-0.0812513481294 0.202282833917 2.22925641327e-21)
(0.0550399200778 0.141146932551 1.73706348775e-21)
(-0.0149426746052 0.0937192539389 -2.19941571257e-23)
(-0.0317127584428 0.105238166498 -3.17689704269e-22)
(-0.0534823174363 0.118946253084 -2.64484031323e-21)
(-0.0802254352689 0.138728235946 -2.94314771751e-22)
(-0.10582278018 0.133985142684 6.37020547366e-21)
(-0.155453308079 0.126994897195 -7.49265766838e-21)
(-0.115488306446 0.168333641888 -1.16512320573e-20)
(0.113591308263 0.299129629341 9.96134929764e-21)
(-0.0240272240242 0.0782308696655 1.01957607977e-22)
(-0.0413090934037 0.0852003369772 -1.7743498561e-22)
(-0.0640388060203 0.0924986859347 -1.39821681975e-21)
(-0.0928830932544 0.0981591393554 -1.0944003879e-20)
(-0.118736365141 0.0899335516637 -1.22878350718e-20)
(-0.191953414443 0.0756397938137 -1.52628336926e-20)
(-0.291277690522 0.222392019337 -1.02562043893e-20)
(-0.0244276894915 0.553775643333 -7.95455773517e-21)
(-0.0162509524395 0.0588413424823 -3.92423040006e-22)
(-0.0294533687661 0.0628047363676 -2.76325756578e-22)
(-0.0459262076568 0.0655098371397 -1.65320767873e-21)
(-0.0671779966401 0.0674665009844 3.71007805406e-22)
(-0.0927729091594 0.0632118328399 1.21818428101e-21)
(-0.117415635603 0.0522839755174 1.39911967428e-21)
(-0.205616552371 0.0311525550014 2.97255367637e-22)
(-0.46557415898 0.0626360729885 -2.36217020146e-21)
(-0.111285749025 0.216176189099 -4.79399010395e-20)
(-0.0195819198524 0.0472852955442 -1.4750264839e-22)
(-0.0315703904815 0.048534602112 -1.16065060026e-22)
(-0.0461346615718 0.0477613497986 -2.15823084791e-21)
(-0.0643571266876 0.0457300924616 2.10380301818e-21)
(-0.0856014485617 0.0345360653322 1.28098016025e-20)
(-0.104567406097 0.0256432137936 1.32044497756e-20)
(-0.189257606786 0.00299346559724 -6.76374012013e-22)
(-0.558239739111 0.013743509621 -5.38518529347e-20)
(-0.200386421983 0.185765123857 3.51813962525e-21)
(-0.0208046683638 0.0369433322931 1.28197418119e-22)
(-0.0311351479552 0.0362076127071 -3.75719028e-22)
(-0.0432512879901 0.0330360807632 -2.01624769709e-21)
(-0.0575897656987 0.0284135057183 1.97928087529e-21)
(-0.0739177884357 0.013052328127 -6.36723341653e-21)
(-0.0849610116494 0.00888921403609 9.87009219038e-21)
(-0.163247915232 -0.01478855851 9.82110653598e-21)
(-0.642471438207 0.0273096135901 4.18131513514e-20)
(-0.363219725121 0.284004704586 6.80889936061e-20)
(-0.0129847164012 0.0286495316803 1.36782985762e-22)
(-0.0204921761358 0.028115230589 -1.35121926244e-22)
(-0.028983930861 0.0260551210203 -6.55804182618e-22)
(-0.0385504028077 0.021618544938 -1.69771453349e-21)
(-0.0488890327994 0.0157616645496 -3.18606284878e-21)
(-0.0601090909008 -0.00163030450145 -1.44791254674e-21)
(-0.0628376771004 0.00141906388795 3.31883411879e-21)
(-0.131773893699 -0.023699934228 4.4388606292e-20)
(-0.635479287851 0.124684937754 -9.84851604369e-20)
(-0.944651624994 -0.327490079596 -1.97999689728e-19)
(-0.00743767886528 0.0224451866859 6.39013032779e-23)
(-0.0130102270693 0.0221916290134 1.61037098108e-23)
(-0.0191982373366 0.0209308681132 -1.62049175188e-23)
(-0.025904879649 0.0181611607247 -3.72508899671e-22)
(-0.0331039250322 0.0132973829412 -8.54118281744e-22)
(-0.0398948736392 0.00752113988064 -2.21494450511e-21)
(-0.0463564227057 -0.00989849745985 9.58860284587e-21)
(-0.0423837768238 0.00269680791356 -2.03979574647e-20)
(-0.103702333982 -0.0250118916224 -2.18746667428e-20)
(-0.487979980339 0.0917941097011 -5.35253742612e-19)
(0.126530861903 -1.73388431808 -1.46808605036e-19)
(-0.00774727725376 0.0176558938926 1.64943291798e-23)
(-0.0123555738382 0.016889697325 6.34940872194e-23)
(-0.0173869205212 0.0152090967963 2.62711781671e-23)
(-0.0225712331785 0.0122326645864 -3.80193195231e-22)
(-0.0278672248144 0.00756408088735 9.30482807866e-23)
(-0.0318770584722 0.0028875423152 1.25613179059e-21)
(-0.034567561727 -0.0133479755245 1.97083078364e-20)
(-0.0265483716843 0.0102079546233 -1.60592549863e-20)
(-0.0830557329104 -0.0213357553174 -5.55152907707e-20)
(-0.0543350405422 -0.164717954113 -2.77682302412e-19)
(4.81824267713 -5.69877699578 -3.59698281937e-20)
(-0.0113863707313 0.012558442471 2.7269965245e-23)
(-0.0154201127057 0.010701981589 -8.18808844165e-24)
(-0.0194158270724 0.00783630070582 4.68401367202e-23)
(-0.0233802409347 0.0036713169895 -1.68762963624e-21)
(-0.0256146832319 0.000593584243721 8.13358190388e-21)
(-0.0257208389636 -0.0137488106908 1.0977706536e-20)
(-0.0177667706529 0.0222278663694 -1.60211810247e-20)
(-0.0766092615822 -0.0140118692685 8.85592962516e-21)
(0.199509927055 -0.177674160608 2.08627243542e-20)
(6.263888296 1.96461133187 -2.06590987499e-20)
(-0.0102577172693 0.00907864202288 8.73453180606e-23)
(-0.01348544102 0.00716256358264 -6.62070806156e-23)
(-0.0166223912059 0.00450628386631 -8.09739638246e-23)
(-0.0197801927022 0.000823838260482 -2.17974807689e-21)
(-0.021142534003 -0.000849678070756 -8.42976943025e-21)
(-0.0208418767201 -0.0133919982807 -2.23175052843e-20)
(-0.0157386283929 0.0332219886945 -6.23491896126e-21)
(-0.0943703574397 -0.00324604637058 -2.16443179617e-21)
(-0.150948429268 -0.106095411957 2.85724624706e-19)
(-0.815208534737 11.0638022729 1.38660284128e-19)
(-0.00900595666607 0.00624133593947 1.20885157125e-23)
(-0.0116229119943 0.00431539711465 -2.40071475802e-23)
(-0.0141557928795 0.00184414625205 -3.81427169172e-22)
(-0.0168781708633 -0.00156256680455 -7.20644140611e-22)
(-0.0178734023676 -0.00250173431541 7.5596656006e-22)
(-0.0182132976293 -0.0148238754496 7.49587818979e-22)
(-0.0151266686117 0.0367252248884 -4.0945024456e-22)
(-0.11009767793 -0.00231374196823 -5.12118933407e-21)
(-0.0767236299743 -0.409842351186 -1.18005898896e-19)
(-5.84226440759 -1.72221341053 -6.26891731492e-21)
(-0.00768697400575 0.00393645839641 -1.67263653295e-23)
(-0.00980764398917 0.00198365053039 4.89091616293e-23)
(-0.0119038977135 -0.00041179613072 -1.45960800144e-23)
(-0.0143325520704 -0.00371394385351 -1.94994042381e-21)
(-0.0152231777154 -0.00422004419709 6.08210090585e-22)
(-0.0158507555012 -0.0167247380456 2.03532672162e-21)
(-0.0125340097307 0.0395619360595 -3.20747896757e-20)
(-0.0997726976422 -0.00100951955715 -2.09629473759e-20)
(0.651562748141 -0.0310741110193 -5.19705486189e-19)
(-5.76303619873 -0.495591403637 -4.20744424934e-20)
(-0.00632821240681 0.00207255900144 -1.83228425369e-22)
(-0.00801472256562 6.82792287411e-05 -2.12200281764e-22)
(-0.00976382525954 -0.00236327725663 2.22856089127e-22)
(-0.0119214572556 -0.00576789619335 -4.15447746807e-23)
(-0.0130260240148 -0.00601307224597 1.90336011736e-20)
(-0.0141441343396 -0.0186123679842 1.19569636725e-20)
(-0.0118508683247 0.0436445037853 -2.54902308508e-20)
(-0.0879605826191 0.000678102679 -2.97949166051e-20)
(0.538231479859 -0.291437198958 7.2139686004e-21)
(-6.77403015255 1.42956196238 -5.43052162842e-19)
(-0.00360131961206 0.00232263018705 2.7048707848e-22)
(-0.00482192300784 0.000601423267653 -6.86115085125e-22)
(-0.00610636544995 -0.00150475965989 -5.99222774887e-22)
(-0.00750385779771 -0.0041093967641 6.23776696433e-22)
(-0.0092791775071 -0.00792096306316 -1.3955820705e-21)
(-0.0103660004348 -0.00840026589344 8.69687012744e-21)
(-0.0119269822058 -0.0218139670602 2.94041977624e-21)
(-0.0106976134164 0.0458475919917 -2.05426557032e-20)
(-0.0822656911398 0.0081202854643 -6.98378676443e-20)
(-0.567033558686 -0.385161818511 5.41456337533e-19)
(-8.99325451223 3.91074786652 -8.41975904995e-20)
(-0.00291937064909 0.00112580664779 2.56264110842e-21)
(-0.00367788086006 -0.000714548628867 -2.20104773819e-21)
(-0.00453667695534 -0.00298380048028 -1.06897978394e-21)
(-0.00556817809651 -0.00579110073394 8.76777077579e-22)
(-0.00688027117334 -0.00991502958415 -2.11922181637e-21)
(-0.00756277067013 -0.0110142121301 9.86518776224e-21)
(-0.00756094563419 -0.0284964287783 -1.30327837607e-20)
(-0.0205718217132 0.0363352522169 5.54322670616e-21)
(-0.100463803088 -0.00215765939505 6.70004068408e-21)
(-1.99868838508 0.143114254226 1.7137217437e-19)
(-13.6299568301 5.20762528711 1.00278932645e-18)
(0.000486704098145 -0.00236902198446 -1.49472225319e-22)
(0.000281553911137 -0.00464682005827 -4.94928888781e-22)
(-4.52223074677e-05 -0.00745007090431 -1.76412070812e-21)
(-0.000751651476699 -0.0110427071589 7.86944045154e-22)
(-0.00184436302171 -0.016299788545 -9.17768939468e-21)
(-0.00269086672007 -0.0186603585505 1.102792524e-20)
(-0.000863157355377 -0.0376024180984 2.75708159442e-20)
(0.00118643188394 0.0357836614503 -6.10355124258e-20)
(-0.0411705293872 -0.0041840330256 -1.28304722214e-19)
(-2.60749294117 1.19699249338 2.09845130194e-18)
(-11.6624089188 -14.2867911451 7.28921252147e-19)
)
;

boundaryField
{
    back
    {
        type            calculated;
        value           uniform (0 0 0);
    }
    sides
    {
        type            calculated;
        value           uniform (0 0 0);
    }
    bottom
    {
        type            calculated;
        value           nonuniform List<vector> 0();
    }
    front
    {
        type            calculated;
        value           uniform (0 0 0);
    }
    atmosphere
    {
        type            calculated;
        value           nonuniform List<vector> 
17
(
(0.0550399200778 0.141146932551 1.73706348775e-21)
(0.178224360613 0.299129629341 1.8896582966e-21)
(0 0.553775643333 0)
(-0.0134891336275 0.216176189099 -8.84833638261e-22)
(-0.103867638022 0.185765123857 7.34909819805e-21)
(-0.707026358844 0.284004704586 8.20927133545e-20)
(9.4565957028 -0.327490079596 -4.21536910199e-18)
(-27.5922186235 -1.73388431808 2.90838709268e-18)
(4.23260721813 -5.69877699578 1.76408550904e-20)
(14.2451509684 1.96461133187 -4.67257572729e-19)
(-18.94407728 11.0638022729 6.66014951283e-19)
(2.52059495393 -1.72221341053 -1.37680407309e-19)
(0.740835823892 -0.495591403637 -5.09731874787e-21)
(-1.7572654516 1.42956196238 -2.37000776663e-21)
(4.01557080663 3.91074786652 -7.7109502549e-21)
(17.0736422647 5.20762528711 -5.05215665196e-19)
(-11.6624092819 -14.2867911451 7.2892124422e-19)
)
;
    }
    floatingObject
    {
        type            calculated;
        value           nonuniform List<vector> 0();
    }
    procBoundary11to9
    {
        type            processor;
        value           nonuniform List<vector> 9((0.0235853652172 0.104538777941 -2.36942382447e-22) (0.0137013873213 0.120976202268 -3.53148693917e-22) (0.00101298986816 0.140233971758 -5.93527826242e-22) (-0.0154142533502 0.164487237617 2.73772013541e-22) (-0.0371942889734 0.203234128082 -1.01588513261e-20) (-0.0720391960534 0.217970166679 -5.07533461798e-21) (-0.136727067426 0.252845973535 -2.53181456546e-21) (-0.0803261679092 0.279125970474 -2.19807593526e-21) (-0.028884366512 0.189483143062 -1.30063168248e-20));
    }
    procBoundary11to10
    {
        type            processor;
        value           nonuniform List<vector> 
23
(
(0.0189030984653 0.0825677983067 4.60384659694e-23)
(-0.00181247521336 0.083262693268 -5.4033451932e-23)
(-0.00181247521336 0.083262693268 -5.4033451932e-23)
(-0.0104125320293 0.0710902878876 -1.17893777122e-22)
(-0.0104125320293 0.0710902878876 -1.17893777122e-22)
(-0.00566179503425 0.0542823241121 1.43132027888e-24)
(-0.00969079697061 0.0448685797345 -2.54179646776e-23)
(-0.0119820531229 0.0362431242614 -1.07715689931e-23)
(-0.0119820531229 0.0362431242614 -1.07715689931e-23)
(-0.00644649760555 0.0280906534826 -5.32117776393e-23)
(-0.00644649760555 0.0280906534826 -5.32117776393e-23)
(-0.00257255948581 0.0218009927925 -1.40021499865e-23)
(-0.00358289515566 0.0175843161911 -3.07036799005e-25)
(-0.00760012926479 0.0136783523646 5.86804272464e-23)
(-0.00760012926479 0.0136783523646 5.86804272464e-23)
(-0.00715804454767 0.0103772963438 1.11795346806e-22)
(-0.00647240886868 0.00766125588472 1.11032370939e-22)
(-0.00562799252873 0.00544726903643 -9.02023681505e-23)
(-0.00467817805403 0.00368581456624 -3.10776146336e-22)
(-0.00467817805403 0.00368581456624 -3.10776146336e-22)
(-0.00249550060131 0.0035648221515 6.16137262404e-23)
(-0.00221018816993 0.00247876166857 -6.8065808827e-22)
(0.000666154499932 -0.000601138673121 6.35672616634e-23)
)
;
    }
}


// ************************************************************************* //
