/*--------------------------------*- C++ -*----------------------------------*\
| =========                 |                                                 |
| \\      /  F ield         | OpenFOAM: The Open Source CFD Toolbox           |
|  \\    /   O peration     | Version:  v2012                                 |
|   \\  /    A nd           | Website:  www.openfoam.com                      |
|    \\/     M anipulation  |                                                 |
\*---------------------------------------------------------------------------*/
FoamFile
{
    version     2.0;
    format      ascii;
    class       volScalarField;
    location    "2";
    object      epsilon;
}
// * * * * * * * * * * * * * * * * * * * * * * * * * * * * * * * * * * * * * //

dimensions      [0 2 -3 0 0 0 0];


internalField   nonuniform List<scalar> 
167
(
0.00638332333092
0.00651490181409
0.00685075995713
0.00766528775842
0.00942203885848
0.0127750013299
0.0189167578009
0.0304498527508
0.0502727985405
0.00650828481
0.00685092796484
0.00766793957924
0.00938967004714
0.0125979688577
0.0187329766732
0.0354209495856
0.105828638564
0.00650332327508
0.00685730534493
0.00769064531932
0.00943087910749
0.0126899575439
0.0192345233078
0.041714292394
0.153057423778
0.00635076606426
0.00649982087287
0.00686904475479
0.00772945557617
0.00951396441212
0.0128558150918
0.0193700615015
0.0380587439915
0.138829801164
0.00634014616139
0.00649698245132
0.00688306490829
0.00777407588603
0.0096067806968
0.0130149843441
0.019530059485
0.0365069426096
0.128086668919
0.00632953042832
0.00649435773702
0.00689772075416
0.00781983884656
0.00969903562651
0.0131545594587
0.0196505435668
0.0356645967721
0.117493052309
0.00624420954112
0.00631898162459
0.00649183310478
0.00691224009527
0.00786440524874
0.00978786780516
0.0132784847704
0.0196964196617
0.0342851129289
0.0878584453432
0.00618806301869
0.00623029484769
0.00630858967584
0.00648931172706
0.00692626566001
0.00790726231992
0.00987277978472
0.0133955848772
0.019764415972
0.0341131465355
0.0797724429055
0.00617259834829
0.0062166354217
0.00629839603956
0.00648677706389
0.00693962854558
0.00794800584247
0.0099528869716
0.0135051876277
0.0198443956755
0.0344044377466
0.0840834101916
0.00620314712498
0.00628827359941
0.00648399715763
0.00695192275531
0.00798592042125
0.0100269403697
0.0136046328216
0.0198885963167
0.0342177514773
0.0912681088733
0.00618910670127
0.00627744608848
0.00648009716494
0.0069621470131
0.00801984721957
0.0100933602111
0.0136923025783
0.0199187208848
0.0338786894982
0.0955630996764
0.00617176693856
0.00626303140707
0.00647201897845
0.00696704611579
0.00804652337488
0.0101488423916
0.0137629372135
0.0199336631192
0.0335543442695
0.0998741553465
0.00614223863307
0.00623589455631
0.00645028906957
0.00695660333255
0.00805482076666
0.0101805561941
0.0137996869093
0.0199079445507
0.0334829879975
0.12812194553
0.00607438230474
0.00616935911755
0.00638718941394
0.00690128137448
0.00801245362034
0.0101503103967
0.0137528039692
0.0197651896486
0.0329181798342
0.12793762332
0.00584522735351
0.00589573228093
0.00598967779664
0.00620597367073
0.0067182143443
0.00782518948721
0.00994298508397
0.0134743537526
0.0193177166159
0.0320027490012
0.13170004452
0.00536613876255
0.00541388482088
0.0055009131302
0.0057007542077
0.00617797877772
0.00721916812722
0.00922241856281
0.012585160133
0.0181919552216
0.0297609626221
0.11700168743
0.00522277606726
0.00527507781282
0.00535890629591
0.00553760486376
0.00596332901914
0.00692281374263
0.00891481737152
0.0126810797953
0.0197150657801
0.0333846332307
0.0876094461638
)
;

boundaryField
{
    back
    {
        lowReCorrection 0;
        blending        stepwise;
        n               2;
        type            epsilonWallFunction;
        value           nonuniform List<scalar> 
167
(
0.00638332333092
0.00651490181409
0.00685075995713
0.00766528775842
0.00942203885848
0.0127750013299
0.0189167578009
0.0304498527508
0.0502727985405
0.00650828481
0.00685092796484
0.00766793957924
0.00938967004714
0.0125979688577
0.0187329766732
0.0354209495856
0.105828638564
0.00650332327508
0.00685730534493
0.00769064531932
0.00943087910749
0.0126899575439
0.0192345233078
0.041714292394
0.153057423778
0.00635076606426
0.00649982087287
0.00686904475479
0.00772945557617
0.00951396441212
0.0128558150918
0.0193700615015
0.0380587439915
0.138829801164
0.00634014616139
0.00649698245132
0.00688306490829
0.00777407588603
0.0096067806968
0.0130149843441
0.019530059485
0.0365069426096
0.128086668919
0.00632953042832
0.00649435773702
0.00689772075416
0.00781983884656
0.00969903562651
0.0131545594587
0.0196505435668
0.0356645967721
0.117493052309
0.00624420954112
0.00631898162459
0.00649183310478
0.00691224009527
0.00786440524874
0.00978786780516
0.0132784847704
0.0196964196617
0.0342851129289
0.0878584453432
0.00618806301869
0.00623029484769
0.00630858967584
0.00648931172706
0.00692626566001
0.00790726231992
0.00987277978472
0.0133955848772
0.019764415972
0.0341131465355
0.0797724429055
0.00617259834829
0.0062166354217
0.00629839603956
0.00648677706389
0.00693962854558
0.00794800584247
0.0099528869716
0.0135051876277
0.0198443956755
0.0344044377466
0.0840834101916
0.00620314712498
0.00628827359941
0.00648399715763
0.00695192275531
0.00798592042125
0.0100269403697
0.0136046328216
0.0198885963167
0.0342177514773
0.0912681088733
0.00618910670127
0.00627744608848
0.00648009716494
0.0069621470131
0.00801984721957
0.0100933602111
0.0136923025783
0.0199187208848
0.0338786894982
0.0955630996764
0.00617176693856
0.00626303140707
0.00647201897845
0.00696704611579
0.00804652337488
0.0101488423916
0.0137629372135
0.0199336631192
0.0335543442695
0.0998741553465
0.00614223863307
0.00623589455631
0.00645028906957
0.00695660333255
0.00805482076666
0.0101805561941
0.0137996869093
0.0199079445507
0.0334829879975
0.12812194553
0.00607438230474
0.00616935911755
0.00638718941394
0.00690128137448
0.00801245362034
0.0101503103967
0.0137528039692
0.0197651896486
0.0329181798342
0.12793762332
0.00584522735351
0.00589573228093
0.00598967779664
0.00620597367073
0.0067182143443
0.00782518948721
0.00994298508397
0.0134743537526
0.0193177166159
0.0320027490012
0.13170004452
0.00536613876255
0.00541388482088
0.0055009131302
0.0057007542077
0.00617797877772
0.00721916812722
0.00922241856281
0.012585160133
0.0181919552216
0.0297609626221
0.11700168743
0.00522277606726
0.00527507781282
0.00535890629591
0.00553760486376
0.00596332901914
0.00692281374263
0.00891481737152
0.0126810797953
0.0197150657801
0.0333846332307
0.0876094461638
)
;
    }
    sides
    {
        lowReCorrection 0;
        blending        stepwise;
        n               2;
        type            epsilonWallFunction;
        value           nonuniform List<scalar> 
11
(
0.00522277606726
0.00527507781282
0.00535890629591
0.00553760486376
0.00596332901914
0.00692281374263
0.00891481737152
0.0126810797953
0.0197150657801
0.0333846332307
0.0876094461638
)
;
    }
    bottom
    {
        lowReCorrection 0;
        blending        stepwise;
        n               2;
        type            epsilonWallFunction;
        value           nonuniform List<scalar> 0();
    }
    front
    {
        lowReCorrection 0;
        blending        stepwise;
        n               2;
        type            epsilonWallFunction;
        value           nonuniform List<scalar> 
167
(
0.00638332333092
0.00651490181409
0.00685075995713
0.00766528775842
0.00942203885848
0.0127750013299
0.0189167578009
0.0304498527508
0.0502727985405
0.00650828481
0.00685092796484
0.00766793957924
0.00938967004714
0.0125979688577
0.0187329766732
0.0354209495856
0.105828638564
0.00650332327508
0.00685730534493
0.00769064531932
0.00943087910749
0.0126899575439
0.0192345233078
0.041714292394
0.153057423778
0.00635076606426
0.00649982087287
0.00686904475479
0.00772945557617
0.00951396441212
0.0128558150918
0.0193700615015
0.0380587439915
0.138829801164
0.00634014616139
0.00649698245132
0.00688306490829
0.00777407588603
0.0096067806968
0.0130149843441
0.019530059485
0.0365069426096
0.128086668919
0.00632953042832
0.00649435773702
0.00689772075416
0.00781983884656
0.00969903562651
0.0131545594587
0.0196505435668
0.0356645967721
0.117493052309
0.00624420954112
0.00631898162459
0.00649183310478
0.00691224009527
0.00786440524874
0.00978786780516
0.0132784847704
0.0196964196617
0.0342851129289
0.0878584453432
0.00618806301869
0.00623029484769
0.00630858967584
0.00648931172706
0.00692626566001
0.00790726231992
0.00987277978472
0.0133955848772
0.019764415972
0.0341131465355
0.0797724429055
0.00617259834829
0.0062166354217
0.00629839603956
0.00648677706389
0.00693962854558
0.00794800584247
0.0099528869716
0.0135051876277
0.0198443956755
0.0344044377466
0.0840834101916
0.00620314712498
0.00628827359941
0.00648399715763
0.00695192275531
0.00798592042125
0.0100269403697
0.0136046328216
0.0198885963167
0.0342177514773
0.0912681088733
0.00618910670127
0.00627744608848
0.00648009716494
0.0069621470131
0.00801984721957
0.0100933602111
0.0136923025783
0.0199187208848
0.0338786894982
0.0955630996764
0.00617176693856
0.00626303140707
0.00647201897845
0.00696704611579
0.00804652337488
0.0101488423916
0.0137629372135
0.0199336631192
0.0335543442695
0.0998741553465
0.00614223863307
0.00623589455631
0.00645028906957
0.00695660333255
0.00805482076666
0.0101805561941
0.0137996869093
0.0199079445507
0.0334829879975
0.12812194553
0.00607438230474
0.00616935911755
0.00638718941394
0.00690128137448
0.00801245362034
0.0101503103967
0.0137528039692
0.0197651896486
0.0329181798342
0.12793762332
0.00584522735351
0.00589573228093
0.00598967779664
0.00620597367073
0.0067182143443
0.00782518948721
0.00994298508397
0.0134743537526
0.0193177166159
0.0320027490012
0.13170004452
0.00536613876255
0.00541388482088
0.0055009131302
0.0057007542077
0.00617797877772
0.00721916812722
0.00922241856281
0.012585160133
0.0181919552216
0.0297609626221
0.11700168743
0.00522277606726
0.00527507781282
0.00535890629591
0.00553760486376
0.00596332901914
0.00692281374263
0.00891481737152
0.0126810797953
0.0197150657801
0.0333846332307
0.0876094461638
)
;
    }
    atmosphere
    {
        type            inletOutlet;
        inletValue      uniform 0.1;
        value           nonuniform List<scalar> 
17
(
0.0502727985405
0.105828638564
0.1
0.1
0.1
0.1
0.1
0.1
0.1
0.0912681088733
0.0955630996764
0.0998741553465
0.1
0.12793762332
0.1
0.1
0.0876094461638
)
;
    }
    floatingObject
    {
        lowReCorrection 0;
        blending        stepwise;
        n               2;
        type            epsilonWallFunction;
        value           nonuniform List<scalar> 0();
    }
    procBoundary11to9
    {
        type            processor;
        value           nonuniform List<scalar> 9(0.00639406204048 0.00652089538837 0.00684743238505 0.00765067980676 0.00944221267022 0.0131743117806 0.021342881135 0.0412305138411 0.100445791517);
    }
    procBoundary11to10
    {
        type            processor;
        value           nonuniform List<scalar> 
23
(
0.00632692343028
0.00637229798465
0.00637229798465
0.00636144803645
0.00636144803645
0.00628628089825
0.00627232991936
0.00625826717949
0.00625826717949
0.00620375481144
0.00620375481144
0.00615793467801
0.00614117628679
0.00615731154171
0.00615731154171
0.00614153024916
0.00612260813956
0.00609182345556
0.00602334546486
0.00602334546486
0.0058085583849
0.00533066205955
0.00518029786456
)
;
    }
}


// ************************************************************************* //
