/*--------------------------------*- C++ -*----------------------------------*\
| =========                 |                                                 |
| \\      /  F ield         | OpenFOAM: The Open Source CFD Toolbox           |
|  \\    /   O peration     | Version:  v2012                                 |
|   \\  /    A nd           | Website:  www.openfoam.com                      |
|    \\/     M anipulation  |                                                 |
\*---------------------------------------------------------------------------*/
FoamFile
{
    version     2.0;
    format      ascii;
    class       surfaceVectorField;
    location    "2";
    object      Uf;
}
// * * * * * * * * * * * * * * * * * * * * * * * * * * * * * * * * * * * * * //

dimensions      [0 1 -1 0 0 0 0];


internalField   nonuniform List<vector> 
304
(
(0.0683267010524 0.0103127394188 3.83199408852e-23)
(0.0713714198943 0.00967620182932 -9.95839378231e-23)
(0.0699834032351 0.0117436446208 8.87194582845e-23)
(0.0750345532974 0.00831588159307 -1.1411144946e-21)
(0.073571498063 0.0110199471066 -2.30911173449e-22)
(0.0797129494879 0.00593485000484 -4.93139691826e-21)
(0.0780935144656 0.00974400923288 -2.19348641362e-21)
(0.0852561392355 0.00283892634191 -1.30325946561e-20)
(0.0835699617983 0.00752711060915 -8.79661581797e-21)
(0.0915771163388 -0.000525332639721 -1.53102524641e-20)
(0.0898401841681 0.00419939109075 -2.19678535903e-20)
(0.0917104885656 -0.0011061841976 -1.24080585851e-20)
(0.0957825109776 -0.000775820409265 -1.74092184649e-20)
(0.0560320384312 0.00559373345107 -1.78255557279e-20)
(0.0864138985186 0.00238918849931 -1.71585232388e-20)
(0.021191138086 0.0172418271587 -1.26342437671e-20)
(0.0721610446603 0.0131434404787 -4.2607777341e-23)
(0.0702483933758 0.0152251988654 5.43909842949e-23)
(0.0765453733411 0.0123360240666 -1.28328309248e-21)
(0.0743791748837 0.0149949859154 -6.72329848844e-23)
(0.0817712465425 0.0109746750341 -6.05870531333e-21)
(0.0794550490482 0.0142210258324 -1.64210312263e-21)
(0.0878689048495 0.00976890723438 -1.77318747521e-20)
(0.0847758315588 0.0129798435561 -6.0928614848e-21)
(0.0942685327267 0.00723593319053 -2.40668195911e-20)
(0.092373182225 0.0105687291544 -1.87439476418e-20)
(0.0876821907942 0.00177101844279 -2.21596831186e-20)
(0.101246820075 0.00739417638468 -1.99383950074e-20)
(0.0476957305506 0.0151409270258 -1.1967211278e-20)
(0.0730426243077 0.00909811948059 -1.98618054412e-20)
(0.0183770221678 0.0101827376067 -1.91142592093e-21)
(0.0724184868867 0.0171838641759 2.97657767515e-23)
(0.0700217690463 0.0191568045514 7.99265836016e-23)
(0.0772882784324 0.0169685277465 -4.2605301504e-22)
(0.0745947362879 0.0195000237602 -1.13575303357e-22)
(0.082763783776 0.0162630900825 -1.6762592941e-21)
(0.0801606476478 0.0190792394832 -8.15584272398e-22)
(0.0892455103004 0.0151394942521 -7.10493437444e-21)
(0.0858995183459 0.0185688954787 -1.42428424366e-21)
(0.0981141020429 0.0143502256554 -1.46155230581e-20)
(0.0931624748235 0.0162271420338 -1.00159967401e-20)
(0.0874779410865 0.00955194176575 -1.764051733e-20)
(0.106044854354 0.0157064517183 -1.77266571979e-20)
(0.0464878443663 0.0114047913146 -9.80602008412e-21)
(0.0711892485179 0.0168881415264 -1.76903833265e-20)
(0.0317527680688 -0.00603863226233 -2.37219322066e-22)
(0.0676830748017 0.020840740351 5.51849084591e-23)
(0.0650291819481 0.0222546095756 3.7894433493e-24)
(0.0721191366925 0.021613625309 -6.34144965065e-23)
(0.0692491290648 0.0234665442702 1.13934384951e-22)
(0.077452307496 0.0219687267737 -5.03106560714e-22)
(0.0742398310721 0.0244918818476 -3.24888674034e-22)
(0.0834059998867 0.0217360404515 -5.63609221958e-22)
(0.0803934790051 0.0245255673939 -7.82403301087e-22)
(0.0898222508963 0.0208324570888 -4.33534660928e-21)
(0.0868031844968 0.025350460462 -5.38975260115e-21)
(0.100798332169 0.0209201399458 -1.31271308798e-20)
(0.0930748156103 0.0228010478625 -1.25289312457e-20)
(0.0930071669347 0.0169372857956 -1.77765231944e-20)
(0.11002765006 0.024564697032 -1.74655733035e-20)
(0.0595713362543 0.00552152461957 -8.12158256442e-21)
(0.0826047760182 0.0251275043201 -1.81720708139e-20)
(0.0527466991664 -0.00898455764607 -1.09215555247e-21)
(0.0664512995154 0.0250283333526 6.25389198407e-23)
(0.0633910471571 0.0262566947201 5.26636140486e-23)
(0.0712007803432 0.0264411461178 -1.47539792577e-22)
(0.067836534331 0.0280914380961 9.43373812412e-23)
(0.0769693667168 0.0275466494492 -6.04185414407e-22)
(0.0731345065842 0.0299343831029 -2.87557110735e-22)
(0.0834615856992 0.0281858682132 -5.60854668028e-21)
(0.0797543929982 0.0306243664575 -2.32925951925e-21)
(0.0897546867266 0.0284132736041 -1.35833372375e-20)
(0.0865758579811 0.0333262598141 -8.60915422383e-21)
(0.10215397587 0.0292322372596 -1.68673736693e-20)
(0.0922558759204 0.0306704404269 -1.74897528494e-20)
(0.0992536337901 0.0268333609944 -1.7861120923e-20)
(0.112426516282 0.0341378318182 -1.71512399424e-20)
(0.0766635697977 0.0195134445652 -1.1142643802e-20)
(0.0899246206714 0.0365270488956 -1.85926556377e-20)
(0.0822116869355 -0.00546768491234 -5.60804876725e-21)
(0.0645803159237 0.029471465149 8.4462075449e-23)
(0.0611118080925 0.0304142394612 3.89797526556e-23)
(0.0695430657633 0.0315958949009 -4.56799369174e-23)
(0.0657123018207 0.032935325836 -7.12411867593e-23)
(0.0756026873862 0.0335701608227 -2.01263121558e-21)
(0.0711604040652 0.0356695507756 -6.57042777986e-22)
(0.0824480952884 0.0353296070152 -5.3298670628e-21)
(0.0779950728964 0.0371373387599 -4.58358727115e-21)
(0.0886729572026 0.0368202241792 -1.25155698357e-20)
(0.085085316539 0.0418017456058 -4.38675515993e-21)
(0.102064787691 0.0386701535704 -1.77736191225e-20)
(0.0904059704017 0.0392099832777 -2.20468355629e-20)
(0.103914460933 0.038617887367 -1.78827746571e-20)
(0.112478787408 0.0441394731512 -2.66413824981e-20)
(0.09819142829 0.0297422328496 -1.30580606029e-20)
(0.0988002577386 0.0478615353546 -3.13104041892e-20)
(0.129580216329 -0.00656804521262 -4.1997829436e-20)
(0.0577633446413 0.0310781570937 -5.94551004897e-25)
(0.0543139675917 0.0314018479368 -4.78164625035e-24)
(0.0620095717779 0.033995480839 -1.16723509553e-22)
(0.0581946815151 0.0346230205935 -1.5199561477e-23)
(0.0670441628852 0.0369237188095 -6.82604027828e-22)
(0.0627842407076 0.0378632937923 -9.69300679656e-23)
(0.0732055507431 0.0398557258003 -3.22799883355e-21)
(0.0682285498747 0.0414978449464 -1.34153920173e-21)
(0.0801994902844 0.0427531667972 -3.64047536828e-21)
(0.0750977513936 0.04380946398 -3.99063993083e-21)
(0.0863492159301 0.0455993779875 -1.39180208872e-20)
(0.0822391781822 0.0503603752508 -3.51028763036e-21)
(0.100194581112 0.0487300462356 -3.09145989385e-20)
(0.0872753257672 0.0479691715636 -2.42250932333e-20)
(0.107759442827 0.0511941767112 -4.00690120303e-20)
(0.110014659717 0.054251515143 -3.0565647665e-20)
(0.133697044065 0.0416698939082 -6.02501730223e-20)
(0.108324555147 0.0576320979763 -4.28076270165e-20)
(0.19712303309 -0.0114723015434 -5.28534090374e-20)
(0.0509869222765 0.0314653620363 -1.4070120531e-23)
(0.0476283057654 0.0312356257077 1.01890728956e-23)
(0.0545309743578 0.0349480925893 -1.93866567224e-23)
(0.0508314192022 0.0349375299206 -1.41843171102e-23)
(0.0587133379626 0.038540149325 4.59388011014e-24)
(0.0546027976515 0.038768558576 -4.34249930511e-23)
(0.0636656602744 0.0422568453459 -7.55865241872e-22)
(0.0590677063795 0.0427235035533 4.10610723055e-24)
(0.0697539021088 0.0461401640322 -2.10418029901e-21)
(0.0643453744867 0.0472412289399 -1.13653172547e-21)
(0.0766959191451 0.0501761333605 -3.86045219291e-21)
(0.0710618954408 0.0504198429748 -2.73004800379e-21)
(0.0826764644854 0.0543838975937 -1.38173599765e-20)
(0.078031484965 0.0587327836316 -1.21515472963e-20)
(0.0964617838589 0.0588972355209 -2.38761419597e-20)
(0.0827620111239 0.0566025040704 -1.82222508611e-20)
(0.111118210954 0.0636328666956 -3.33042626512e-20)
(0.105279034195 0.064179590753 -1.62986186845e-20)
(0.181631689741 0.0507989862672 -3.54108630316e-20)
(0.121158455295 0.0663205678887 -2.46748792288e-20)
(0.292451037658 0.00434543322052 -2.52571305253e-20)
(0.0472862281341 0.0346699521385 1.00748763164e-23)
(0.0506854519689 0.0387145783046 -3.82226534389e-23)
(0.0467869679139 0.0383292344569 -1.76883791152e-23)
(0.0546981712661 0.042957883737 -4.39127659307e-23)
(0.0503596519742 0.0427448551773 -5.90654008133e-23)
(0.0594350507544 0.0474396295844 -3.76560376364e-22)
(0.054586111467 0.047383214937 -1.87986990561e-23)
(0.0652794788406 0.0522384168607 -1.76239943024e-21)
(0.0595467219637 0.0527349870532 -1.03788883105e-21)
(0.0719581823769 0.0573753944225 -1.10211431072e-20)
(0.0659250276131 0.0567547889544 -1.17911965833e-21)
(0.0776450934716 0.0629213106329 -1.65564381809e-20)
(0.0724856378137 0.0666576644438 -1.96885430193e-20)
(0.0909973299654 0.0688053902408 -1.06447275858e-20)
(0.0768779543303 0.0647889011941 -1.75743109263e-20)
(0.110297484017 0.0755525792354 -7.6692352621e-21)
(0.0985318516223 0.0735529119199 -1.32536665719e-20)
(0.230407629268 0.0790365300662 -1.45211467225e-20)
(0.11767454597 0.0772373447274 -1.25885937742e-20)
(0.382713446985 0.086061226601 -1.73223795295e-20)
(0.0462497228056 0.0422803934146 -3.85311264896e-23)
(0.042213689928 0.041497977633 -1.01549248257e-23)
(0.0499965590625 0.047138888689 -3.39513339386e-23)
(0.0455013065176 0.0464575236458 -9.12291982269e-24)
(0.0543981575056 0.0523342963969 -6.80127153746e-22)
(0.0493908451333 0.0517248287775 -7.56919077141e-23)
(0.0598400894033 0.0579721774752 -4.54609059145e-22)
(0.0539089694098 0.0578277178896 -9.97152118805e-22)
(0.0660602563069 0.0641169395572 -9.8465195704e-21)
(0.0597803705231 0.0626279968371 5.31901874216e-22)
(0.0713251707629 0.070842939145 -2.07064157647e-20)
(0.065759704484 0.0739137851072 -1.0622179179e-20)
(0.083926110383 0.0779503081882 -2.01832499124e-20)
(0.069770606972 0.0723071226029 -1.40492883754e-20)
(0.103575983004 0.0864594010993 -1.81730250839e-20)
(0.0900227613865 0.0822116681708 -1.43452994468e-20)
(0.239319368547 0.0949937379825 -1.53898265812e-20)
(0.109140228815 0.0919615907011 -1.03936944493e-20)
(0.317361781662 0.288412152897 -8.2661273955e-21)
(0.0412697061102 0.0455610144476 1.92532818412e-23)
(0.0371587430451 0.044373662847 4.58322390961e-24)
(0.0446637288091 0.0509726827574 -5.08634935982e-23)
(0.0400897789551 0.0498214164547 2.02361952967e-23)
(0.0486271815228 0.0568129515006 -3.92716872773e-22)
(0.0435507107197 0.0556471209688 3.21140564237e-23)
(0.0535282039491 0.0631912050439 -1.06411854438e-23)
(0.0475308370893 0.0623915661219 -6.90743143763e-22)
(0.0591234166774 0.0702377818634 -2.43757734354e-22)
(0.0527338927281 0.0678892969332 1.48781644553e-22)
(0.0638339460749 0.0780257210121 -3.96505178974e-21)
(0.0579718265636 0.0803347483546 -1.88415443666e-21)
(0.0752022342235 0.0863588657277 -8.21133790985e-21)
(0.061437482163 0.0789496992937 -9.29804467923e-21)
(0.0781145061851 0.0972557588795 -6.56596881211e-21)
(0.0791258660325 0.0899781593646 -1.01165203592e-20)
(0.0872251694607 0.169792983991 -3.26999526359e-21)
(0.0366030281139 0.102181618334 -1.02561684079e-20)
(-0.0405170230734 0.234383394827 -5.28760907543e-21)
(0.0358021471498 0.0484862229322 5.56613736511e-24)
(0.0316788041569 0.0468986400125 4.08615291121e-23)
(0.0387678870016 0.0543846584574 1.03213745319e-22)
(0.0341914764027 0.0527669308877 2.75656189758e-23)
(0.0422142362263 0.060788504729 -2.65912214567e-22)
(0.0371469899882 0.0590755502057 2.60264054806e-22)
(0.0464654096282 0.0677772723102 -5.31320313766e-22)
(0.040542182452 0.0663407447482 -1.23502769177e-21)
(0.0512963003602 0.0755679737421 -1.49161505775e-21)
(0.0449432809526 0.0724347561762 -7.79280380092e-22)
(0.05533593128 0.0842261789499 -7.21714732615e-21)
(0.0493136759382 0.085837003455 -4.08286954314e-21)
(0.0653156816617 0.0934350115338 -1.12032271286e-20)
(0.0522286665458 0.0846468267568 -1.47829817221e-20)
(0.055684376173 0.104434176291 -1.3806719955e-20)
(0.0681267038999 0.0967347663566 -1.18384316656e-20)
(-0.018302303076 0.10402279883 -1.22737822197e-20)
(0.0370143786022 0.111503076369 -2.29301667373e-20)
(0.0480112542182 0.0133693152168 -5.19167060918e-21)
(0.0299112150552 0.0510028505277 6.28610107227e-23)
(0.0258390114571 0.0490450691584 1.52946886881e-22)
(0.0323900832599 0.0573080388914 1.84615928463e-22)
(0.0278864161495 0.0552622496461 1.46123382704e-22)
(0.0352590823434 0.0641676964333 -7.08851422397e-22)
(0.0302874495252 0.0619758859347 2.78914436289e-22)
(0.038782527268 0.0716909249158 -1.4829877581e-21)
(0.033019054679 0.0696557443755 -9.97943928572e-22)
(0.0427219508802 0.0800800297172 -3.37053486548e-21)
(0.0365542548403 0.0762310281255 -1.47157542851e-21)
(0.0460021439749 0.0895225740915 -1.16487039391e-20)
(0.039871176598 0.0904733204968 -1.58531497263e-20)
(0.0549211146345 0.0995741212482 -1.5418186259e-20)
(0.0421771328238 0.0895635124766 -1.67794733873e-20)
(0.0533195282888 0.111130959426 -2.09618784479e-20)
(0.0565698690395 0.102580330216 -9.84387765978e-21)
(0.0832065046965 0.0976701473139 -1.58480551268e-20)
(0.0504752303193 0.122604867354 -1.92382043557e-20)
(0.207887155238 0.0146698871255 -1.87288114839e-20)
(0.0236839291213 0.0531051566121 2.36209258863e-22)
(0.019705493428 0.0508644390123 3.35821836169e-22)
(0.0256315673335 0.059743500597 2.4042189053e-22)
(0.0212481918339 0.057363887823 6.14005313603e-22)
(0.0278726688901 0.0669805687195 -1.01780698872e-23)
(0.0230504856986 0.0644052684797 4.29756131287e-22)
(0.030611987709 0.0749116231269 -9.86531598987e-22)
(0.0250880881929 0.072417748436 -6.18704050304e-22)
(0.0335576012788 0.0838026131286 -1.39541902893e-20)
(0.0276633286536 0.0793694191898 4.3318126466e-22)
(0.0360269522345 0.0940229997237 -2.09839191746e-20)
(0.0296508253219 0.0943833147932 -2.34839094502e-20)
(0.0440930281491 0.104879329915 -1.12051647881e-20)
(0.0313208124508 0.0938578505632 -1.78073352787e-20)
(0.0478789220339 0.116563207956 -8.12020356756e-21)
(0.0448860085024 0.107291453323 -1.33240034309e-20)
(0.158677737138 0.127208607994 -2.21189607128e-20)
(0.0398297160786 0.131162168874 -1.82905754395e-20)
(0.331623768009 0.0280499786502 -2.2579085161e-20)
(0.0158787255258 0.0485386396263 1.06298978997e-22)
(0.0124552191783 0.0463665254772 -3.23288184503e-22)
(0.0170677744475 0.0549069104067 7.13617890909e-22)
(0.013337348132 0.0526077689864 7.09014081857e-22)
(0.018440864978 0.0618088924413 8.03339554361e-22)
(0.0143463176891 0.0593296857765 1.29920935802e-21)
(0.0199992166205 0.0693415942383 -1.78769849129e-22)
(0.0155178759701 0.066610218376 8.36081195535e-22)
(0.0218181709007 0.0775994547393 8.01008813343e-22)
(0.0168303002611 0.0748431539885 -6.60148532853e-22)
(0.0234594902246 0.0869542284246 -9.09653789616e-21)
(0.0183086055669 0.0820249239428 2.70451573482e-21)
(0.0246653816374 0.0978978698132 -2.03073255543e-20)
(0.0187072107593 0.0977107280019 -6.81865720718e-21)
(0.0319097530931 0.109244308127 -1.99261739215e-20)
(0.0199743819363 0.097546767672 -1.14387686693e-20)
(0.0413985159503 0.119815116016 -2.34943753029e-20)
(0.0343151879787 0.110786704949 -1.35402181711e-20)
(0.193883438359 0.109285626537 -1.87506998878e-20)
(0.0503593378896 0.128838142347 -1.83679450997e-20)
(0.460813311722 0.0172622414162 -5.24998493607e-21)
(0.00992780766844 0.0502387286491 2.79426918358e-22)
(0.00633834316314 0.0481827395343 1.39881950436e-22)
(0.0106244708512 0.0568043564556 1.29460554897e-21)
(0.00677184149362 0.0546274171273 9.58196795497e-22)
(0.0114210710354 0.0638939597147 1.33195099919e-21)
(0.00725681604402 0.0615357554901 1.67735300908e-21)
(0.0123015667043 0.0715919378493 3.54702511811e-22)
(0.00781997964695 0.0689666145349 1.42785310971e-21)
(0.0130687869262 0.0799587996173 1.24335838863e-21)
(0.00846350166824 0.0773364084258 -9.33459676514e-22)
(0.0130133338289 0.0895842856587 4.9823964238e-21)
(0.00868316222073 0.0844067307946 4.38605211167e-21)
(0.0133829457379 0.101048717005 2.04989967778e-21)
(0.00724280272986 0.0995925946455 -5.32738947428e-21)
(0.0212796202989 0.112970313174 -5.05281291887e-21)
(0.00805279314531 0.0967992902926 -1.4622108743e-20)
(0.0437312098707 0.124079661126 -8.41378796785e-21)
(0.0232058313624 0.108436183226 -1.221362722e-20)
(0.30395881888 0.079743133558 -4.86723014797e-21)
(0.0946958701157 0.109272402346 3.79966209134e-20)
(0.541722355545 0.31819454518 2.81861106714e-21)
(0.00339177773414 0.0523646275538 8.18651827575e-22)
(0.00364659081736 0.059136523785 1.34094425561e-21)
(0.00396719563795 0.0663933839467 1.7732551196e-21)
(0.00444409307301 0.0742133988719 1.39690921386e-22)
(0.0047586242152 0.0826769259323 2.20923404653e-21)
(0.00371043849002 0.0913601042841 -5.92373378641e-21)
(0.00292479028172 0.0986029139023 -2.1999397895e-20)
(0.0105669496871 0.106655707213 -2.17829230442e-20)
(0.0559906029237 0.12986156865 3.41967816612e-20)
(0.354015938113 0.224557226635 4.56824621285e-20)
)
;

boundaryField
{
    back
    {
        type            calculated;
        value           uniform (0 0 0);
    }
    sides
    {
        type            calculated;
        value           uniform (0 0 0);
    }
    bottom
    {
        type            calculated;
        value           nonuniform List<vector> 0();
    }
    front
    {
        type            calculated;
        value           uniform (0 0 0);
    }
    atmosphere
    {
        type            calculated;
        value           nonuniform List<vector> 
17
(
(0.0236361048199 0.0161032584609 -2.32741089552e-20)
(0.0173877277383 0.017954551586 -1.99437857906e-21)
(0 -0.00197116594706 0)
(0 -0.0154724744017 0)
(0 -0.00995155969291 0)
(0 -0.0176262875157 0)
(0 -0.0258729050235 0)
(0 -0.0445289922417 0)
(0 -0.0112258601442 0)
(0.365898207231 0.160345389564 -1.35194090221e-20)
(0.102900291588 0.527671869781 -3.0128457689e-21)
(-0.0742962360562 0.0154945265134 -7.56237238196e-21)
(0 -0.0622057448778 0)
(0.272684423336 0.00347203990147 -3.46366541314e-20)
(0 -0.0199040065335 0)
(0 -0.00116577123252 0)
(0.613975517828 0.766279805002 5.6156758158e-21)
)
;
    }
    floatingObject
    {
        type            calculated;
        value           nonuniform List<vector> 0();
    }
    procBoundary11to9
    {
        type            processor;
        value           nonuniform List<vector> 9((0.0667831207748 0.00924759268647 -8.45155232275e-23) (0.0693462592665 0.008837565603 5.04493058344e-23) (0.0722106827184 0.00784313796958 -4.38449309609e-22) (0.0757121022234 0.00615991969998 -2.61129694624e-21) (0.0804738254084 0.00316503682497 -7.19835329575e-21) (0.0864758660582 -0.00145939260328 -1.61436710142e-20) (0.0952028011366 -0.00654998744989 -1.05914977638e-20) (0.0931190732754 -7.0357771335e-05 -1.04102096795e-20) (0.0317036825295 0.0120640088031 -1.38978569482e-20));
    }
    procBoundary11to10
    {
        type            processor;
        value           nonuniform List<vector> 
23
(
(0.0656129613751 0.0104362654253 -2.21503124555e-24)
(0.0669074724456 0.0119254130418 -2.68862558548e-23)
(0.0685506705239 0.0134078505564 2.35132615445e-23)
(0.06836248569 0.0169567738443 1.55735377737e-23)
(0.0661141125295 0.0184896945875 -9.16813736887e-24)
(0.0638828386591 0.0197551977073 -9.86276622246e-24)
(0.0624126923966 0.023389780317 1.59694564873e-23)
(0.0603857161759 0.027191874802 5.66632814084e-23)
(0.0572293135644 0.0278104795179 1.70889777479e-23)
(0.0541627502013 0.0281623798003 2.32408772852e-23)
(0.0510100422686 0.0282259388437 1.39524030045e-23)
(0.0479744738694 0.0280832612369 -6.40704895178e-24)
(0.0443967342992 0.0307928942325 2.42730209328e-23)
(0.0437514694457 0.0341231153045 1.98781083518e-23)
(0.0430744453048 0.0377068749268 -7.88514707986e-24)
(0.0383901275688 0.040505845117 1.69090502981e-23)
(0.0332797321066 0.0430060750852 1.62948129601e-23)
(0.0277960260967 0.0451628211763 7.7518351685e-23)
(0.0220159877714 0.0469714349213 1.70092780425e-22)
(0.0183759327091 0.0448333023693 -5.94300767468e-23)
(0.0148491510078 0.0426176466877 2.49337883582e-22)
(0.0093154705115 0.0441216295914 3.9153255417e-22)
(0.0031692882439 0.0460261503616 1.05439624047e-21)
)
;
    }
}


// ************************************************************************* //
