/*--------------------------------*- C++ -*----------------------------------*\
| =========                 |                                                 |
| \\      /  F ield         | OpenFOAM: The Open Source CFD Toolbox           |
|  \\    /   O peration     | Version:  v2012                                 |
|   \\  /    A nd           | Website:  www.openfoam.com                      |
|    \\/     M anipulation  |                                                 |
\*---------------------------------------------------------------------------*/
FoamFile
{
    version     2.0;
    format      ascii;
    class       surfaceVectorField;
    location    "5.2";
    object      ddtCorrDdt0(Uf);
}
// * * * * * * * * * * * * * * * * * * * * * * * * * * * * * * * * * * * * * //

dimensions      [0 1 -2 0 0 0 0];


internalField   nonuniform List<vector> 
300
(
(-0.0177616822551 -0.00234666798397 2.78416956843e-23)
(-0.016169068015 -0.00112393625781 8.02117921779e-23)
(-0.0181154478575 -0.00469895597984 7.06744972097e-24)
(-0.0168677286941 -0.00357502178002 3.10867786418e-24)
(-0.0182114997548 -0.00708182542432 -8.48377940345e-24)
(-0.0168266864231 -0.00597689997619 -2.60823485144e-24)
(-0.0184794941103 -0.00951850560065 -2.16704605073e-23)
(-0.016993216794 -0.00841157543331 -3.31423150458e-23)
(-0.0188442475765 -0.0120362447862 -1.59236419399e-23)
(-0.017276753902 -0.0109189763145 -1.67765674317e-23)
(-0.0192665642573 -0.0146533326525 -5.1884475273e-24)
(-0.0176175758247 -0.0135176438737 -6.76402159074e-24)
(-0.0197287553652 -0.0173968045219 3.0058723223e-24)
(-0.018010242634 -0.0162261952434 2.05956880119e-24)
(-0.020210608487 -0.0202877971466 1.3050994767e-24)
(-0.0184467367463 -0.0190656883093 3.78141852903e-24)
(-0.0206733933729 -0.0233423843104 5.12651753919e-24)
(-0.0189091527983 -0.0220490407947 -8.52427780892e-24)
(-0.0210572797415 -0.0265589124774 -1.87654698818e-24)
(-0.0193580665473 -0.0251743373744 -5.6724612343e-24)
(-0.0212534261101 -0.0299063112387 -6.16911435447e-23)
(-0.0197377239272 -0.0283828303519 6.96646545449e-24)
(-0.0211200063042 -0.0332920504536 -1.12691866854e-22)
(-0.0199301040566 -0.0316414840697 -1.45559764999e-22)
(-0.0204328299758 -0.036548540803 -2.92010437547e-22)
(-0.0198089264963 -0.0347777056413 -1.76169235042e-22)
(-0.01869941472 -0.0392376633383 1.94450004968e-22)
(-0.0191632110942 -0.0373300638648 -5.49180508462e-22)
(-0.0151174489269 -0.0406156080772 -1.20404733696e-21)
(-0.0174660271932 -0.0387937562503 5.8681531029e-22)
(-0.00936696374733 -0.038730114217 -1.67169721755e-21)
(-0.0143191099191 -0.0387258392489 -3.11276134705e-21)
(-0.00703633432923 -0.028465579439 2.18907310477e-21)
(-0.0115457832294 -0.0328997222489 3.09495956363e-22)
(0.0914583871002 -0.00455665527278 -1.97842588657e-20)
(-0.0198778371697 -0.0229031641464 1.68305697685e-21)
(0.172912642694 0.000546393185479 4.25377378728e-20)
(0.183835296515 -0.000348558940998 -2.55040233752e-20)
(0.0724631527235 -0.205694957365 2.50561504413e-20)
(-0.0153426189531 -0.00240698572946 5.54787743578e-23)
(-0.0137501800169 -0.00116989762806 8.98403733519e-23)
(-0.0156632137063 -0.00482047340937 -6.56700670823e-24)
(-0.0144371197417 -0.0036501907109 -1.68794848174e-23)
(-0.0156954249026 -0.00726558645667 -2.72667704938e-23)
(-0.0143517335089 -0.0060973912922 -2.74132133136e-23)
(-0.0158762004261 -0.00976523871553 -2.82484219701e-23)
(-0.0144473355438 -0.00858652541312 -4.18925309121e-23)
(-0.0161371109023 -0.0123448138041 -7.61694708251e-24)
(-0.0146359706937 -0.0111490844848 -2.04944777816e-23)
(-0.0164490928007 -0.015023757662 4.83994737745e-25)
(-0.0148690611472 -0.0138040732467 -2.8011989233e-26)
(-0.0168072300452 -0.0178216242096 2.83511500792e-24)
(-0.0151472532655 -0.0165671071066 -3.1412765768e-24)
(-0.0172066121551 -0.0207507829649 -6.04795875659e-24)
(-0.0154751828558 -0.019455886833 -4.17875501464e-24)
(-0.0176310054192 -0.0238177556026 -1.93232565824e-23)
(-0.015846224924 -0.0224754484088 -3.25926938873e-24)
(-0.0180452117309 -0.026992788829 3.17055120837e-24)
(-0.0162607532228 -0.025610727867 2.15620243856e-24)
(-0.0184019263314 -0.0302227822593 -7.69021559995e-23)
(-0.0166857909409 -0.0287903811849 1.18526743808e-23)
(-0.0186158960001 -0.0333128022956 -2.09037133186e-22)
(-0.0171354427501 -0.0319367847134 -1.85917446206e-22)
(-0.0185657730612 -0.0360330969083 -4.33339305957e-22)
(-0.017494960087 -0.0348611345093 -2.25289981761e-22)
(-0.0180055534672 -0.0379425024294 -1.5681520314e-22)
(-0.0177356159766 -0.0370583022136 -5.51593855132e-22)
(-0.0166657584444 -0.038224553648 -1.32189869979e-21)
(-0.0176729654706 -0.0380315403103 -4.40968109667e-22)
(-0.0152265116586 -0.0354354460964 -1.13156817314e-21)
(-0.0174642221053 -0.0375544336644 -1.83780709168e-21)
(-0.0183336641679 -0.0287892349902 -1.96520171556e-22)
(-0.0183163228273 -0.0333359434193 2.46738992552e-21)
(0.0874275508185 -0.0273616728678 -4.03670753261e-21)
(-0.0213377950976 -0.0223608817334 -2.5617103969e-21)
(0.0716079747865 -0.0428630657761 -4.29856108067e-20)
(0.19904804382 -0.0323756787285 1.92113785619e-20)
(0.0854399192342 0.00212215714223 -4.95413016677e-20)
(-0.0129149037179 -0.00244124242277 1.74821141766e-23)
(-0.0113136142541 -0.00121598656724 5.63440482347e-23)
(-0.0132011264288 -0.00489675322054 -3.77256914228e-23)
(-0.0119831802011 -0.00368354634111 -3.42747599148e-23)
(-0.0131732538198 -0.00737828649812 -4.20389737319e-23)
(-0.0118611735256 -0.00615300024424 -3.73757442776e-23)
(-0.0132686009986 -0.00992506872133 -3.41385867236e-23)
(-0.0118771328847 -0.00867964225879 -3.93505682644e-23)
(-0.0134265815072 -0.0125536630704 -1.29055426883e-23)
(-0.0119699562189 -0.01128289093 -1.93271901788e-23)
(-0.0136250634609 -0.0152847751603 -3.65328330377e-24)
(-0.0120908165415 -0.0139837451049 5.63844399616e-25)
(-0.0138686048475 -0.0181335226819 -1.01551465994e-23)
(-0.0122502945672 -0.0167982196383 -5.02458423761e-24)
(-0.0141609146821 -0.0211092669286 -1.39006564678e-24)
(-0.0124626238013 -0.0197362105897 5.44719146099e-24)
(-0.0145126551229 -0.0242177277968 1.82201896322e-23)
(-0.0127284121279 -0.0228123979628 7.2059921997e-24)
(-0.0149318501816 -0.0274178928286 1.0838325611e-23)
(-0.0130972833654 -0.0260165703663 5.80667397318e-24)
(-0.0154255044026 -0.0306200396047 -9.71626158258e-23)
(-0.0135844410917 -0.0292842603381 1.63351292665e-23)
(-0.0159891089174 -0.0337273170785 -2.02170294781e-22)
(-0.0142045978462 -0.0325242342414 -1.39588413996e-22)
(-0.016621236993 -0.0364238356451 -3.43544530937e-22)
(-0.0150452539353 -0.0355883937287 -2.22013101725e-22)
(-0.0173255828497 -0.0382526703151 -8.3574676166e-22)
(-0.0161972792462 -0.0380443144738 -8.02388334053e-22)
(-0.0183116566359 -0.0384231734293 -9.56876501552e-22)
(-0.0177861270773 -0.0394269950914 -1.28123077948e-21)
(-0.0204254665091 -0.0356159654905 1.76115100698e-21)
(-0.0204696504095 -0.0396156575974 -1.45517829884e-21)
(-0.0215962014659 -0.0285389608592 1.02199700178e-22)
(-0.0254593543374 -0.0364130824422 3.61544947048e-21)
(0.0834811089987 -0.0285278811367 2.06863756976e-20)
(-0.0213649434778 -0.0244781904537 -3.36409672295e-21)
(0.152071966769 -0.00811166189729 1.26556877009e-20)
(0.178536843221 -0.0354242484468 5.26074150704e-20)
(0.0455431175592 0.108447363798 -2.14466669572e-20)
(-0.0104735964684 -0.00245701870848 4.58717414322e-24)
(-0.00887551244268 -0.00120433397649 4.98964673701e-23)
(-0.0107253250328 -0.0049116346734 -3.39248127697e-23)
(-0.00954602528309 -0.00366114892269 -2.81699794804e-24)
(-0.010638281076 -0.00741443322976 -3.46873388102e-23)
(-0.009367092671 -0.00614266410568 4.45467421382e-24)
(-0.0106442827672 -0.00998944901575 -2.45391717196e-23)
(-0.0092983157364 -0.00869236651892 -5.7068663499e-24)
(-0.0106940233915 -0.0126531428058 -5.85780309083e-24)
(-0.00928984442193 -0.0113178699328 -2.13156383276e-24)
(-0.0107727070106 -0.0154299115195 -8.07456534221e-25)
(-0.00928780085565 -0.0140510725565 1.40965832942e-25)
(-0.010890482014 -0.0183303632028 1.05777538227e-23)
(-0.00931920099182 -0.0169130806713 7.14582025478e-25)
(-0.0110614158847 -0.0213780990967 1.40432493075e-23)
(-0.00938802466854 -0.0199067349591 9.26255623686e-24)
(-0.0113157061855 -0.0245582826453 -5.20752345935e-24)
(-0.0095351414579 -0.0230642272113 -9.59363844882e-24)
(-0.0117149341983 -0.0278792221714 1.13034776287e-23)
(-0.00978897077757 -0.0264151137999 -2.01739105527e-23)
(-0.0122796066971 -0.0312248372979 -2.60906689032e-23)
(-0.0102882063617 -0.0298584124438 2.24641830426e-23)
(-0.0130766117873 -0.0345665224289 -1.59431220939e-22)
(-0.010956365147 -0.0333560204086 -5.35946459987e-23)
(-0.0142845867981 -0.0377008087983 -6.80856904841e-22)
(-0.0120446563695 -0.036886063523 -1.67973394717e-22)
(-0.0161240443602 -0.0402201501333 -1.24787235187e-21)
(-0.0138343007437 -0.0401278932727 -7.49550395822e-22)
(-0.0192100547946 -0.0414338340815 -1.77953257677e-21)
(-0.0167194780777 -0.0427733566939 -4.04184372533e-22)
(-0.0249300578157 -0.040033272268 3.99120164659e-22)
(-0.0219673875577 -0.0455178457126 -2.82309616137e-21)
(-0.0261875518704 -0.0337696787311 1.4915304735e-22)
(-0.0317521007874 -0.0450742361811 4.45207313086e-21)
(0.0599282921348 -0.0266498957711 2.85569426498e-20)
(-0.0284891378904 -0.0350558543869 -4.40199696224e-22)
(0.0608503396427 0.0418469392989 1.85050604123e-20)
(0.110001371211 -0.0520616318536 2.70150670007e-20)
(-0.231006225153 0.301933372855 -5.48647354373e-20)
(-0.00802361073191 -0.00239263933665 4.24922952788e-23)
(-0.0065143112184 -0.00119060139367 9.52499800178e-23)
(-0.00826343708151 -0.00486019898751 3.55624890355e-23)
(-0.00710981934492 -0.00360980145315 7.23846465399e-23)
(-0.00810647910843 -0.00737492777339 3.34351466741e-23)
(-0.00687692768275 -0.00608423265689 8.11939289664e-23)
(-0.00801388447192 -0.00996376256088 1.67007415369e-23)
(-0.00672327833709 -0.00862381714618 4.54318765794e-23)
(-0.00794842958171 -0.0126418135343 3.86720509102e-24)
(-0.00661464680183 -0.0112525591225 2.63386594982e-23)
(-0.00789612025494 -0.0154452570618 1.66300439264e-24)
(-0.0064780769146 -0.0139999400228 2.30715839408e-24)
(-0.00786551097354 -0.0183967195761 -6.00615560399e-25)
(-0.00635531657332 -0.0168886000035 -1.01014394396e-24)
(-0.00788355579947 -0.0215103448287 -1.43743315194e-23)
(-0.00626032223249 -0.0199405634109 -7.00457266299e-25)
(-0.0079741799335 -0.0248156795809 -2.45600255422e-23)
(-0.00621920409475 -0.0231832804312 -1.11004489796e-23)
(-0.0082854304499 -0.0283735826089 -9.01320513877e-24)
(-0.00623032725993 -0.026761765397 -1.93362187407e-23)
(-0.00881527077986 -0.0319372854022 -5.03979405282e-24)
(-0.00673936549128 -0.030430306406 -1.2889507872e-23)
(-0.00962094126498 -0.0357172852286 -6.21368197767e-23)
(-0.00721094974086 -0.0342237172711 -1.48406145007e-23)
(-0.0110434005696 -0.03959190242 -2.36666885699e-22)
(-0.00822229963026 -0.0384086016206 -6.43178706423e-24)
(-0.0134025882788 -0.0434278898238 9.41375835189e-23)
(-0.0100590807648 -0.0426819834503 1.84918423716e-22)
(-0.0177017025887 -0.0471391468455 -1.44774795714e-21)
(-0.0130610149431 -0.0471889272307 1.13661468566e-21)
(-0.0257841491426 -0.049897014946 1.22985680483e-21)
(-0.0192387968423 -0.0537708837602 -3.62205346577e-21)
(-0.0313578972449 -0.0513200285927 3.86272038729e-21)
(-0.0303329239802 -0.0572090138041 3.20639108142e-21)
(0.0178227411183 -0.0435360822226 -1.98207534531e-21)
(-0.0362739158619 -0.0492681090863 4.71802823976e-21)
(-0.290109896323 0.0444444934293 -4.63547288488e-20)
(0.0219857835976 -0.0849845143442 -1.11773009723e-21)
(-0.88739672216 0.300535620325 -6.8444108337e-20)
(-0.00567550568777 -0.00239108467708 1.25142331279e-22)
(-0.00416501282224 -0.00121192039713 1.56304704202e-22)
(-0.00583173455219 -0.00480720367029 1.18016086471e-22)
(-0.00473648763619 -0.00353887052306 1.17850626236e-22)
(-0.00559854414513 -0.00728420886921 9.31906588717e-23)
(-0.00443716682403 -0.00596960343736 1.02851217242e-22)
(-0.00540396837975 -0.00984674693032 5.50697945407e-23)
(-0.00419435511898 -0.00846602904747 5.60560990844e-23)
(-0.00521160512408 -0.0125325122863 2.47786128012e-23)
(-0.00395438656703 -0.0110693420416 1.54175341718e-23)
(-0.00500989640629 -0.0153474105417 -3.65989942519e-25)
(-0.00368231501733 -0.0138059976075 1.63782774995e-23)
(-0.00480988676685 -0.0183286333439 -1.10998564986e-24)
(-0.00338591914232 -0.0166997810295 -3.21949243746e-25)
(-0.00464673371829 -0.0214921178857 2.57342527351e-24)
(-0.0031038791964 -0.0197949059475 6.50567550091e-24)
(-0.00455570644645 -0.0248338545679 -5.87664217809e-24)
(-0.00287836811655 -0.0231164761771 1.70351661208e-23)
(-0.00459144784911 -0.0282759236227 -2.32125214739e-23)
(-0.0027854977843 -0.0268287438453 2.91177650982e-24)
(-0.00485214848973 -0.0324622482265 -2.26903283199e-23)
(-0.0025449071208 -0.0307295749845 -1.34385555893e-24)
(-0.00546644985499 -0.0367964130839 4.08644182117e-23)
(-0.00287028682109 -0.0348940566933 -2.1561355752e-23)
(-0.00660331137981 -0.0414581968194 4.15153522351e-22)
(-0.00354986130588 -0.0396294119872 2.24128589322e-23)
(-0.00858445626924 -0.0468364350484 1.22739552586e-21)
(-0.00466297487191 -0.0447851213741 1.87052592875e-22)
(-0.0126738966074 -0.053106443796 -1.03769082297e-21)
(-0.00676283839284 -0.0511576543334 1.12342983642e-21)
(-0.0203015277288 -0.0603175461049 -1.64551918917e-21)
(-0.0119945594147 -0.0612771911666 -4.65674683988e-21)
(-0.0302235946938 -0.0705926923514 4.0616989339e-21)
(-0.0200342014606 -0.0687600034078 -1.14446721516e-21)
(-0.0174340279 -0.0701233498517 5.58237348785e-21)
(-0.0367392073044 -0.0612805303496 4.75184656711e-21)
(-0.722204195565 -0.0271103978322 -2.32071095854e-20)
(-0.0210947188895 -0.107098788198 3.24455448434e-20)
(-0.680682028594 -0.797743522637 -7.20795983651e-20)
(-0.00332709675173 -0.00232892358833 1.49012999159e-22)
(-0.00188528488699 -0.00119400673895 1.51693609088e-22)
(-0.00345848754308 -0.0046845806438 1.02685757008e-22)
(-0.00243386334364 -0.00341641790897 9.08153187087e-23)
(-0.00315186087002 -0.0071057739593 6.57166574551e-23)
(-0.00208062822403 -0.00577206885974 6.04030881576e-23)
(-0.00285167959564 -0.00961810513618 1.64038387156e-23)
(-0.00173907781364 -0.00820316672554 2.32243609426e-23)
(-0.00251749016804 -0.0122606063421 7.01719887007e-24)
(-0.00136640228279 -0.0107443949614 5.93721227084e-24)
(-0.00214106653676 -0.0150578437623 1.64223181983e-23)
(-0.000930330986406 -0.0134353007779 2.3774177925e-23)
(-0.00174198313262 -0.018051454023 7.29371190702e-24)
(-0.000435160362837 -0.0163100388656 1.85478628892e-23)
(-0.00134828020034 -0.021280310411 2.09674163482e-23)
(9.66385045628e-05 -0.019411174089 2.04793266881e-23)
(-0.00100574741508 -0.0248025682722 2.58235848087e-23)
(0.000625199225448 -0.02278275707 3.51971697251e-23)
(-0.000673683033803 -0.0287014101347 2.47804424248e-23)
(0.00111993840999 -0.0265107045595 1.02166415636e-23)
(-0.000509630564303 -0.0328245732598 -2.14882990995e-25)
(0.00159564550078 -0.0305896093797 2.4180918025e-23)
(-0.000682613339748 -0.0374761874721 -4.00129150315e-23)
(0.00183280090989 -0.0351141939404 -5.45209339111e-23)
(-0.00120028231553 -0.0427988726384 -2.05688070545e-22)
(0.00184442862697 -0.0402266559786 -1.56993574366e-22)
(-0.00255677048353 -0.0488057389966 8.30869034373e-23)
(0.00143924607765 -0.0461737324218 -5.22866365481e-22)
(-0.00498938529011 -0.0549713872754 -2.49562618049e-21)
(-0.000496656033623 -0.0532385478177 -1.21222274872e-21)
(-0.0080551261247 -0.0654904351064 -4.15569486587e-21)
(-0.0013898566123 -0.0640840592233 -2.92320900731e-21)
(-0.0178861617827 -0.0857948212147 -4.54319581948e-22)
(0.000307140860924 -0.0753134599563 -1.04972932913e-21)
(0.0161281454166 -0.107280628529 3.16150179226e-20)
(-0.0152437002184 -0.0687038374312 -2.01978039268e-22)
(0.0384838177966 -0.27424694612 -1.64269439363e-20)
(0.14590771525 -0.118544037648 1.19222848804e-20)
(2.10916263892 -0.723567186545 -3.51263403354e-20)
(-0.00110224264028 -0.00221650748472 9.34959286375e-23)
(0.000266149617536 -0.00115408981407 9.62094935182e-23)
(-0.0011855781149 -0.00448934132961 4.85326498586e-23)
(-0.000244489025829 -0.00323901896416 2.8917355828e-23)
(-0.000797287678826 -0.00681568586479 1.79107916451e-23)
(0.000170732822326 -0.00548462609921 9.62354907593e-24)
(-0.00037842714523 -0.00925483993016 1.27577344978e-23)
(0.000107727075815 -0.0118191383184 2.26941913258e-23)
(0.00067790526107 -0.0145645368615 2.58997226159e-23)
(0.00131581112498 -0.0175201500724 3.17334776703e-23)
(0.00200078368557 -0.0207343804441 3.4709080065e-23)
(0.00270204033497 -0.0242762594711 1.95902264799e-23)
(0.00340633971647 -0.0282086195664 9.61711716378e-24)
(0.00404379097228 -0.0325481095732 -3.01251328951e-23)
(0.00454092894198 -0.0374936857377 -1.71501593246e-22)
(0.0047956344509 -0.0431961728282 -4.74171869303e-22)
(0.00438746589332 -0.0498054173859 -1.81817601764e-21)
(0.00368882994804 -0.0584067448282 -1.63980557554e-21)
(0.00366560692176 -0.0675278350725 1.82756529427e-22)
(-0.00231361287043 -0.073841954354 -7.97387786448e-22)
(0.0872839531567 -0.0867584859923 -1.98947110815e-20)
(1.15869277602 -0.169959680065 -6.77711151862e-21)
(0.000997874690645 -0.00208514386388 3.16309207087e-23)
(0.0022683687273 -0.00110107843679 5.02753877777e-23)
(0.000970373093067 -0.00422378353706 -9.99174495467e-24)
(0.00411274343242 -0.0010330830577 9.22287345369e-23)
(0.00583776008181 -0.000955825643655 1.39289376185e-22)
)
;

boundaryField
{
    back
    {
        type            calculated;
        value           uniform (0 0 0);
    }
    sides
    {
        type            calculated;
        value           nonuniform List<vector> 0();
    }
    bottom
    {
        type            calculated;
        value           uniform (0 0 0);
    }
    front
    {
        type            calculated;
        value           uniform (0 0 0);
    }
    atmosphere
    {
        type            calculated;
        value           nonuniform List<vector> 8((0.164978975918 -0.550687041428 1.25740228017e-19) (3.25316012834 -0.0557775387355 -5.03807068023e-20) (-0.0498023897237 0.0317720375055 -1.26286071889e-22) (-0.080247972093 0.31839102506 -6.62878663037e-21) (-3.23443906791 0.700819065073 -5.62772604075e-19) (-0.807747871491 -0.233659680619 3.91707399324e-20) (-0.000575800900888 -3.06397845052 -9.50178229496e-20) (-5.4328547647 0.525892030572 -2.0482389335e-19));
    }
    floatingObject
    {
        type            calculated;
        value           nonuniform List<vector> 0();
    }
    procBoundary9to6
    {
        type            processor;
        value           nonuniform List<vector> 4((-0.000640477701495 -0.0394574548651 5.74126666756e-21) (0.00414564875245 -0.0306798862597 1.51020693724e-20) (0.189383316418 -0.00255218789512 -5.80014533042e-19) (-0.477141013944 -0.838624063733 -5.70774776233e-19));
    }
    procBoundary9to7
    {
        type            processor;
        value           nonuniform List<vector> 
16
(
(-0.0185803035423 -0.00107021813685 3.54537578298e-23)
(-0.0192967422373 -0.00346069360743 -1.35619230949e-23)
(-0.019309518318 -0.00578942955025 2.06975543168e-24)
(-0.0195581843118 -0.00814837660049 -1.73466745619e-23)
(-0.0199458811683 -0.0105855815661 -5.78217513969e-24)
(-0.0203936345372 -0.0131209306037 -3.53035794286e-24)
(-0.0208899282435 -0.0157799901465 8.58412154688e-24)
(-0.0214092874381 -0.0185908553436 2.56701124112e-24)
(-0.0219147793233 -0.0215815184114 -1.74657545553e-24)
(-0.0223443468357 -0.0247692335064 -1.13794236193e-23)
(-0.0226140542552 -0.0281454570477 -9.39333254524e-24)
(-0.0225634202127 -0.0317054389692 -9.83659688485e-23)
(-0.0220272429423 -0.0353625645229 -1.04000174354e-22)
(-0.0205699490204 -0.0388564348157 -3.64614993104e-22)
(-0.0173786506212 -0.0418275554572 1.06646454372e-21)
(-0.0111881497015 -0.0439955964197 -2.07858532171e-21)
)
;
    }
    procBoundary9to10
    {
        type            processor;
        value           nonuniform List<vector> 
15
(
(0.0006228179466 -0.00781752187994 -5.30994642039e-24)
(0.00113287349835 -0.0102651437394 2.26078568441e-23)
(0.00174914694521 -0.0128672506496 1.38291281542e-23)
(0.00246683116588 -0.0156750079521 1.52330546478e-23)
(0.00326283114546 -0.0187321610074 2.44779269895e-23)
(0.00414479883761 -0.0220943570831 2.93581837386e-23)
(0.00504701630354 -0.0258272111545 -9.1775870873e-24)
(0.00597991728178 -0.029987696707 -2.96004385945e-23)
(0.00182407335106 -0.00301215076058 3.13711939425e-23)
(0.00143346972566 -0.00642082196012 -1.35971889896e-23)
(0.00229244142655 -0.00512137773886 2.56037112278e-23)
(0.00294689089105 -0.00190495913563 5.00156610115e-23)
(0.00474792213775 -0.00170614830366 1.06224861301e-22)
(0.0063793105143 -0.00149283202968 1.24467034705e-22)
(0.00732505219287 -0.000862257872212 8.6931371642e-23)
)
;
    }
    procBoundary9to11
    {
        type            processor;
        value           nonuniform List<vector> 9((0.00684277298441 -0.0346871263837 -8.52514607393e-23) (0.00765429401069 -0.0400496396797 -2.69075693162e-22) (0.00817747143277 -0.0464865405682 -8.87670454446e-22) (0.00824161088387 -0.053588609334 -1.99653941934e-21) (0.00783180291298 -0.0640207192904 6.66057154425e-23) (0.0066663471524 -0.0748738697445 -1.71831769639e-21) (-0.00231741365468 -0.0669004309729 -4.28828850109e-21) (0.229110904287 -0.122987458107 -1.08677294589e-20) (1.41355329408 0.213022949627 -1.12853378784e-21));
    }
}


// ************************************************************************* //
