/*--------------------------------*- C++ -*----------------------------------*\
| =========                 |                                                 |
| \\      /  F ield         | OpenFOAM: The Open Source CFD Toolbox           |
|  \\    /   O peration     | Version:  v2012                                 |
|   \\  /    A nd           | Website:  www.openfoam.com                      |
|    \\/     M anipulation  |                                                 |
\*---------------------------------------------------------------------------*/
FoamFile
{
    version     2.0;
    format      ascii;
    class       volScalarField;
    location    "5.2";
    object      k;
}
// * * * * * * * * * * * * * * * * * * * * * * * * * * * * * * * * * * * * * //

dimensions      [0 2 -2 0 0 0 0];


internalField   nonuniform List<scalar> 
166
(
0.0013620564395
0.00169452957662
0.00180501277559
0.00184708000252
0.00186382714679
0.00187187572614
0.00187745533464
0.00188280277139
0.00188877966448
0.00189603811651
0.00190596374297
0.00192264495348
0.00195895507356
0.002058100565
0.00236633119822
0.0033110931244
0.00572893749224
0.0105669605837
0.0198322327179
0.0379713197754
0.00136114043434
0.00169361410416
0.00180395702391
0.00184592380006
0.00186259867624
0.00187059650216
0.00187613389075
0.00188144418891
0.00188739531434
0.00189465901459
0.00190466267628
0.00192151911242
0.00195796379994
0.00205594071494
0.00235613998026
0.00327522489155
0.00568222529221
0.0107543583145
0.022357324186
0.0541564918084
0.00135982035964
0.00169227980648
0.00180245889512
0.00184432817939
0.00186094040843
0.0018688997912
0.00187440886964
0.00187969675678
0.00188563737611
0.00189292403033
0.00190303136653
0.0019201075808
0.00195668882382
0.00205320873897
0.00234316602064
0.00322714621435
0.00563887575007
0.011270557111
0.0256495944241
0.070688544488
0.00135808567953
0.00169050147314
0.00180051873855
0.00184229703807
0.00185886001124
0.00186679358404
0.00187229026317
0.00187757389881
0.00188352098537
0.00189085538421
0.00190110335977
0.00191847651923
0.00195533270349
0.00205059034354
0.00232990816829
0.00317115538221
0.00555724504641
0.0116507160406
0.0271524664069
0.0710910804126
0.00135599868224
0.00168829836445
0.00179814086
0.00183983536928
0.00185636456511
0.00186428687996
0.00186978873597
0.00187508887319
0.00188106791324
0.00188848105869
0.00189891901271
0.0019166818988
0.00195406798011
0.00204876210848
0.00231917813973
0.00311777100682
0.00544076672331
0.0117412807177
0.026928075903
0.059591737856
0.00135368449127
0.00168564899587
0.00179529575463
0.00183692473288
0.0018534451835
0.00186138594897
0.00186691605927
0.00187225475902
0.00187829534735
0.00188582507526
0.00189651601553
0.00191480326235
0.00195304481395
0.0020481638997
0.00231296354439
0.00307715912802
0.00532580905864
0.0116172899228
0.0250307004197
0.0439600553709
0.0013513096765
0.00168253282261
0.00179195598571
0.00183355014726
0.00185010172901
0.00185809829338
0.00186368746085
0.00186909172054
0.00187522504055
0.00188291810974
0.00189394412537
0.00191294202346
0.00195252262178
0.00204946503265
0.00231310969504
0.00305715349211
0.00526469626676
0.0116785133955
0.025184967023
0.0441891893804
0.00134878934193
0.001678955179
0.00178815437087
0.00182974191665
0.00184636009046
0.00185443673507
0.00186011368875
0.00186561571025
0.00187187970591
0.001879785077
0.00189125698024
0.00191116614138
0.00195265653739
0.00205319763303
0.00232160401148
0.0030647130485
0.00527408120457
0.0118988211311
0.0273515787936
0.0646179196807
0.0013458840944
0.0016749815018
0.00178394905864
0.00134260059472
0.00133894489187
0.00133493604313
)
;

boundaryField
{
    back
    {
        type            kqRWallFunction;
        value           nonuniform List<scalar> 
166
(
0.0013620564395
0.00169452957662
0.00180501277559
0.00184708000252
0.00186382714679
0.00187187572614
0.00187745533464
0.00188280277139
0.00188877966448
0.00189603811651
0.00190596374297
0.00192264495348
0.00195895507356
0.002058100565
0.00236633119822
0.0033110931244
0.00572893749224
0.0105669605837
0.0198322327179
0.0379713197754
0.00136114043434
0.00169361410416
0.00180395702391
0.00184592380006
0.00186259867624
0.00187059650216
0.00187613389075
0.00188144418891
0.00188739531434
0.00189465901459
0.00190466267628
0.00192151911242
0.00195796379994
0.00205594071494
0.00235613998026
0.00327522489155
0.00568222529221
0.0107543583145
0.022357324186
0.0541564918084
0.00135982035964
0.00169227980648
0.00180245889512
0.00184432817939
0.00186094040843
0.0018688997912
0.00187440886964
0.00187969675678
0.00188563737611
0.00189292403033
0.00190303136653
0.0019201075808
0.00195668882382
0.00205320873897
0.00234316602064
0.00322714621435
0.00563887575007
0.011270557111
0.0256495944241
0.070688544488
0.00135808567953
0.00169050147314
0.00180051873855
0.00184229703807
0.00185886001124
0.00186679358404
0.00187229026317
0.00187757389881
0.00188352098537
0.00189085538421
0.00190110335977
0.00191847651923
0.00195533270349
0.00205059034354
0.00232990816829
0.00317115538221
0.00555724504641
0.0116507160406
0.0271524664069
0.0710910804126
0.00135599868224
0.00168829836445
0.00179814086
0.00183983536928
0.00185636456511
0.00186428687996
0.00186978873597
0.00187508887319
0.00188106791324
0.00188848105869
0.00189891901271
0.0019166818988
0.00195406798011
0.00204876210848
0.00231917813973
0.00311777100682
0.00544076672331
0.0117412807177
0.026928075903
0.059591737856
0.00135368449127
0.00168564899587
0.00179529575463
0.00183692473288
0.0018534451835
0.00186138594897
0.00186691605927
0.00187225475902
0.00187829534735
0.00188582507526
0.00189651601553
0.00191480326235
0.00195304481395
0.0020481638997
0.00231296354439
0.00307715912802
0.00532580905864
0.0116172899228
0.0250307004197
0.0439600553709
0.0013513096765
0.00168253282261
0.00179195598571
0.00183355014726
0.00185010172901
0.00185809829338
0.00186368746085
0.00186909172054
0.00187522504055
0.00188291810974
0.00189394412537
0.00191294202346
0.00195252262178
0.00204946503265
0.00231310969504
0.00305715349211
0.00526469626676
0.0116785133955
0.025184967023
0.0441891893804
0.00134878934193
0.001678955179
0.00178815437087
0.00182974191665
0.00184636009046
0.00185443673507
0.00186011368875
0.00186561571025
0.00187187970591
0.001879785077
0.00189125698024
0.00191116614138
0.00195265653739
0.00205319763303
0.00232160401148
0.0030647130485
0.00527408120457
0.0118988211311
0.0273515787936
0.0646179196807
0.0013458840944
0.0016749815018
0.00178394905864
0.00134260059472
0.00133894489187
0.00133493604313
)
;
    }
    sides
    {
        type            kqRWallFunction;
        value           nonuniform List<scalar> 0();
    }
    bottom
    {
        type            kqRWallFunction;
        value           nonuniform List<scalar> 
12
(
0.0013620564395
0.00136114043434
0.00135982035964
0.00135808567953
0.00135599868224
0.00135368449127
0.0013513096765
0.00134878934193
0.0013458840944
0.00134260059472
0.00133894489187
0.00133493604313
)
;
    }
    front
    {
        type            kqRWallFunction;
        value           nonuniform List<scalar> 
166
(
0.0013620564395
0.00169452957662
0.00180501277559
0.00184708000252
0.00186382714679
0.00187187572614
0.00187745533464
0.00188280277139
0.00188877966448
0.00189603811651
0.00190596374297
0.00192264495348
0.00195895507356
0.002058100565
0.00236633119822
0.0033110931244
0.00572893749224
0.0105669605837
0.0198322327179
0.0379713197754
0.00136114043434
0.00169361410416
0.00180395702391
0.00184592380006
0.00186259867624
0.00187059650216
0.00187613389075
0.00188144418891
0.00188739531434
0.00189465901459
0.00190466267628
0.00192151911242
0.00195796379994
0.00205594071494
0.00235613998026
0.00327522489155
0.00568222529221
0.0107543583145
0.022357324186
0.0541564918084
0.00135982035964
0.00169227980648
0.00180245889512
0.00184432817939
0.00186094040843
0.0018688997912
0.00187440886964
0.00187969675678
0.00188563737611
0.00189292403033
0.00190303136653
0.0019201075808
0.00195668882382
0.00205320873897
0.00234316602064
0.00322714621435
0.00563887575007
0.011270557111
0.0256495944241
0.070688544488
0.00135808567953
0.00169050147314
0.00180051873855
0.00184229703807
0.00185886001124
0.00186679358404
0.00187229026317
0.00187757389881
0.00188352098537
0.00189085538421
0.00190110335977
0.00191847651923
0.00195533270349
0.00205059034354
0.00232990816829
0.00317115538221
0.00555724504641
0.0116507160406
0.0271524664069
0.0710910804126
0.00135599868224
0.00168829836445
0.00179814086
0.00183983536928
0.00185636456511
0.00186428687996
0.00186978873597
0.00187508887319
0.00188106791324
0.00188848105869
0.00189891901271
0.0019166818988
0.00195406798011
0.00204876210848
0.00231917813973
0.00311777100682
0.00544076672331
0.0117412807177
0.026928075903
0.059591737856
0.00135368449127
0.00168564899587
0.00179529575463
0.00183692473288
0.0018534451835
0.00186138594897
0.00186691605927
0.00187225475902
0.00187829534735
0.00188582507526
0.00189651601553
0.00191480326235
0.00195304481395
0.0020481638997
0.00231296354439
0.00307715912802
0.00532580905864
0.0116172899228
0.0250307004197
0.0439600553709
0.0013513096765
0.00168253282261
0.00179195598571
0.00183355014726
0.00185010172901
0.00185809829338
0.00186368746085
0.00186909172054
0.00187522504055
0.00188291810974
0.00189394412537
0.00191294202346
0.00195252262178
0.00204946503265
0.00231310969504
0.00305715349211
0.00526469626676
0.0116785133955
0.025184967023
0.0441891893804
0.00134878934193
0.001678955179
0.00178815437087
0.00182974191665
0.00184636009046
0.00185443673507
0.00186011368875
0.00186561571025
0.00187187970591
0.001879785077
0.00189125698024
0.00191116614138
0.00195265653739
0.00205319763303
0.00232160401148
0.0030647130485
0.00527408120457
0.0118988211311
0.0273515787936
0.0646179196807
0.0013458840944
0.0016749815018
0.00178394905864
0.00134260059472
0.00133894489187
0.00133493604313
)
;
    }
    atmosphere
    {
        type            inletOutlet;
        inletValue      uniform 0.1;
        value           nonuniform List<scalar> 8(0.0379713197754 0.1 0.1 0.1 0.059591737856 0.0439600553709 0.0441891893804 0.1);
    }
    floatingObject
    {
        type            kqRWallFunction;
        value           nonuniform List<scalar> 0();
    }
    procBoundary9to6
    {
        type            processor;
        value           nonuniform List<scalar> 4(0.00577830698078 0.0107398413224 0.0201413512547 0.0392710760509);
    }
    procBoundary9to7
    {
        type            processor;
        value           nonuniform List<scalar> 
16
(
0.00136254697917
0.00169500705479
0.00180561617429
0.00184778054051
0.00186460494622
0.00187271612166
0.00187835346166
0.00188375843532
0.00188978760678
0.00189707323885
0.00190695825657
0.00192348044832
0.00195953079354
0.00205887857726
0.00237054357399
0.00332897763038
)
;
    }
    procBoundary9to10
    {
        type            processor;
        value           nonuniform List<scalar> 
15
(
0.00182554167904
0.00184224101597
0.0018504186994
0.00185620312575
0.00186182811714
0.00186825129148
0.00187642271543
0.00188837786075
0.00167061768281
0.00182554167904
0.00177935822601
0.00167061768281
0.00166589639571
0.00166081809012
0.001330566988
)
;
    }
    procBoundary9to11
    {
        type            processor;
        value           nonuniform List<scalar> 9(0.00190933754244 0.00195312948067 0.00205909594524 0.00234035452696 0.0031091043155 0.00537049328553 0.0121836376151 0.0294167410798 0.0723766296245);
    }
}


// ************************************************************************* //
