/*--------------------------------*- C++ -*----------------------------------*\
| =========                 |                                                 |
| \\      /  F ield         | OpenFOAM: The Open Source CFD Toolbox           |
|  \\    /   O peration     | Version:  v2012                                 |
|   \\  /    A nd           | Website:  www.openfoam.com                      |
|    \\/     M anipulation  |                                                 |
\*---------------------------------------------------------------------------*/
FoamFile
{
    version     2.0;
    format      ascii;
    class       volVectorField;
    location    "5.2";
    object      U;
}
// * * * * * * * * * * * * * * * * * * * * * * * * * * * * * * * * * * * * * //

dimensions      [0 1 -1 0 0 0 0];


internalField   nonuniform List<vector> 
166
(
(-0.0462911007604 0.00041803085211 -3.63428099232e-22)
(-0.0474090522068 0.00113113940256 -2.32812476376e-22)
(-0.0486175106641 0.00185968575945 -1.0672199175e-22)
(-0.0497024393122 0.00258915956153 1.48303477995e-23)
(-0.0506743718515 0.00332741904559 1.71766996789e-23)
(-0.0516728413969 0.00409622639253 2.65608273259e-24)
(-0.0527989737187 0.00490468078671 -1.05765668921e-24)
(-0.0540988242364 0.00575955242848 -7.71985062141e-25)
(-0.0555922427476 0.00666538486011 5.80698800828e-24)
(-0.0572858283026 0.00762116599077 5.312159552e-24)
(-0.0591873404071 0.00859363755082 1.81090875524e-23)
(-0.0612920636962 0.00960695238471 1.48867878274e-23)
(-0.0635769829861 0.0106254650833 -6.31894268935e-23)
(-0.0660476755932 0.0115266116934 -3.73274689024e-22)
(-0.0688637331802 0.0120578686181 -1.10945190074e-21)
(-0.0723506903693 0.0123249451893 1.36370244457e-22)
(-0.0758118939674 0.0123155710629 -3.80505554794e-21)
(-0.0777065815378 0.0124212041205 -6.19156557528e-21)
(-0.101477364651 0.0113530271472 -3.04666355098e-23)
(-0.128186463191 0.0740746461982 -1.89699539714e-21)
(-0.0469566743106 0.000325111694108 -3.73562979099e-22)
(-0.0480544860198 0.000852473380236 -2.28525631379e-22)
(-0.0492502621342 0.00139772850218 -1.04962640412e-22)
(-0.0503399258766 0.00193980459384 -1.03894593131e-23)
(-0.0513333159316 0.00248894271228 2.10516026057e-24)
(-0.0523674180344 0.0030661156474 -2.06209913094e-24)
(-0.053535613826 0.00368051524137 2.3050407825e-24)
(-0.0548817925589 0.00433639942191 -1.26424251134e-24)
(-0.0564250375719 0.00503833769884 1.07676797059e-23)
(-0.0581641558436 0.00578565779228 4.98231233491e-24)
(-0.0600956125211 0.00654786709634 -1.12701488489e-23)
(-0.0621838366517 0.00734517151371 -8.60541780569e-23)
(-0.0644233176652 0.00815741037129 -2.56107522894e-22)
(-0.0667378240905 0.00888239628845 -9.79628330346e-22)
(-0.0691267621324 0.0091768103948 -1.03829864639e-21)
(-0.071895367932 0.00922955166898 -8.99547873751e-22)
(-0.0752340590154 0.00918178592815 -5.86640017401e-21)
(-0.0794845568665 0.0087165648 -6.4649331643e-21)
(-0.104537175063 0.0106072565395 -8.38334558458e-21)
(-0.145253456196 -0.0233974046877 -4.01819551187e-21)
(-0.0474360031511 0.000228008529872 -3.5851866903e-22)
(-0.0485118033245 0.000562062843891 -2.33634656949e-22)
(-0.0496928816133 0.000918204855724 -1.17717918588e-22)
(-0.0507865685153 0.00126616895845 -4.50019668137e-23)
(-0.0517993131831 0.00161895621954 -2.16173781954e-23)
(-0.0528654828288 0.00199858174938 -9.56747629395e-24)
(-0.0540712274134 0.00241492650246 -2.26761537406e-24)
(-0.0554598507911 0.00286696043116 2.85542356178e-24)
(-0.0570499452757 0.00336411425443 1.25831664484e-23)
(-0.0588326278794 0.00390823258955 1.4722736575e-23)
(-0.0607940843252 0.00448517295631 -2.58402020995e-23)
(-0.0629016069225 0.00509412588682 -1.7797156058e-22)
(-0.0651146023184 0.00572547525954 -4.15822459195e-22)
(-0.0672942367461 0.00635290186604 -1.16138695973e-21)
(-0.0692446558236 0.00652726904841 -9.90793512705e-22)
(-0.0712646687247 0.0066865605462 -1.37583301508e-21)
(-0.0744693307089 0.00661561017392 -6.30121601734e-21)
(-0.0821795487693 0.00611318694831 -1.06319973769e-20)
(-0.105371372981 0.00806671898291 -2.42047110301e-20)
(-0.0888497271421 -0.0075965434649 -1.63150678009e-20)
(-0.0477206208794 0.000124181876897 -3.84176847538e-22)
(-0.04877392708 0.000263482389999 -2.51911500613e-22)
(-0.0499387138134 0.00042398872597 -1.57761649222e-22)
(-0.0510346330066 0.000570172978643 -7.81082687207e-23)
(-0.0520666576928 0.000719759798667 -4.21381248803e-23)
(-0.0531629915094 0.000896923363908 -1.47194505496e-23)
(-0.0544077830597 0.00111248291183 -7.17687145873e-24)
(-0.0558417241767 0.00136136743749 8.79584694285e-24)
(-0.0574719299387 0.00165996737961 2.5181211845e-23)
(-0.0593006363949 0.00201739471073 1.5977838104e-23)
(-0.0613053796651 0.00241134443307 -9.66590152127e-24)
(-0.0634685277957 0.00285234326723 -2.13337867842e-22)
(-0.0656915217142 0.00333201749024 -5.59780495791e-22)
(-0.0678005262205 0.00389238678869 -1.67662426837e-21)
(-0.0694655793695 0.00400410264242 -2.20944399181e-21)
(-0.0708732205399 0.0045930196362 -8.96998366276e-22)
(-0.0738030058433 0.00457800112942 -5.54333018708e-21)
(-0.0834467230174 0.00465075532622 -1.19475389545e-20)
(-0.10788451044 0.00441525594903 -2.56217380196e-20)
(-0.0808532478346 0.00471633928196 -1.8221576279e-20)
(-0.0477991322071 1.9619421758e-05 -3.84329853595e-22)
(-0.0488325747958 -4.28868256254e-05 -2.92096775365e-22)
(-0.0499806873927 -8.59135618353e-05 -1.8874486196e-22)
(-0.0510769882679 -0.00015314251778 -1.00714091078e-22)
(-0.0521317078571 -0.000212233540458 -4.53476117448e-23)
(-0.0532539262411 -0.000244934105407 -3.67019213952e-24)
(-0.0545403369636 -0.000239677970967 -2.83192373022e-24)
(-0.0560236869585 -0.00019141830886 4.75248558736e-24)
(-0.057700053689 -9.04230118037e-05 2.0592821018e-23)
(-0.0595821707834 7.20229990026e-05 9.61809344522e-24)
(-0.0616552132535 0.000278419950858 2.52330906496e-23)
(-0.063871320116 0.000549660096833 -1.67535860441e-22)
(-0.0661513097153 0.000889084727053 -6.71173234699e-22)
(-0.0683055124542 0.00137987418242 -2.22675518947e-21)
(-0.0698633990545 0.00140420066125 -3.55196423846e-21)
(-0.0709200868336 0.00236887914716 -8.86558985752e-22)
(-0.0732724240578 0.00265855781891 -6.94757388628e-21)
(-0.082635918613 0.00333219756087 -1.48599027056e-20)
(-0.111779838374 -0.000503582409063 -2.20040323774e-20)
(-0.0872380305728 0.0164618855912 -1.45719020221e-20)
(-0.0476735475468 -8.55265749546e-05 -3.49462796372e-22)
(-0.0486786005526 -0.000362038067925 -2.2509108807e-22)
(-0.0498091535985 -0.000619377938762 -1.48271739846e-22)
(-0.0509037741961 -0.000910229696372 -5.70759377832e-23)
(-0.0519761702801 -0.00118236810695 -2.44892179345e-23)
(-0.0531339193887 -0.00142807950167 -5.23166286812e-24)
(-0.0544608023051 -0.00164414798939 -1.94941482404e-24)
(-0.055990020582 -0.00180856120746 -2.7276053041e-24)
(-0.0577265851332 -0.00191852605055 -6.58009944819e-24)
(-0.0596755897752 -0.00196821204667 -1.02481245587e-23)
(-0.0618159400762 -0.00194846166667 -6.79487621103e-23)
(-0.0641087018287 -0.00184355385977 -1.28358234123e-22)
(-0.0664763124397 -0.00168845810857 -4.61833636949e-22)
(-0.0687032708102 -0.0012961257522 -1.00991227399e-21)
(-0.0703040496472 -0.00136675881806 -2.6978001454e-21)
(-0.0713396502407 -0.000287156655846 -1.07837509041e-21)
(-0.0731010893645 3.48729533027e-05 -5.47450397851e-21)
(-0.0807621713627 0.00129561626204 -1.06333814475e-20)
(-0.114714494054 -0.00454154023393 -1.47809491987e-20)
(-0.0852468224014 0.00559356253545 -1.58970482934e-20)
(-0.0473352869867 -0.000201662681603 -2.09132814609e-22)
(-0.0483035524374 -0.00070021398527 -8.86782253122e-23)
(-0.0494147574826 -0.00117923771245 -3.66176652512e-23)
(-0.0505065479816 -0.00169369102493 1.5478957488e-23)
(-0.0515935973069 -0.00219331762121 -9.2666231126e-24)
(-0.0527921471213 -0.00266257232267 8.63012309627e-24)
(-0.0541645737623 -0.00309630230106 -2.24914669424e-24)
(-0.0557440837986 -0.00348262610669 9.21156766565e-24)
(-0.0575465427976 -0.00381489654742 1.27027331904e-23)
(-0.0595594777885 -0.00407027346039 1.27358934668e-23)
(-0.0617720024812 -0.00424687112407 -6.11462910387e-23)
(-0.0641587746274 -0.00433806234578 -8.26241977965e-23)
(-0.0666289321742 -0.00435778282156 -3.02022388468e-22)
(-0.0689194072868 -0.00412015131716 -8.6327746454e-22)
(-0.0707317032775 -0.00435254402569 -1.76657934387e-21)
(-0.0719772216356 -0.00317257216912 -1.52525644119e-21)
(-0.0731906141011 -0.00286662440709 -4.04644495811e-21)
(-0.0786910716254 -0.00127983092676 -8.441991839e-21)
(-0.119244867881 -0.00740702303686 -2.09585422749e-20)
(-0.115731212528 0.00644805039505 -2.68176546243e-20)
(-0.0467578105567 -0.000326546289814 -7.36315902028e-23)
(-0.0477010985275 -0.00105170740831 3.24848703315e-23)
(-0.0487905241125 -0.0017592391177 7.39772495904e-23)
(-0.0498814597883 -0.00250534566658 5.51273442597e-23)
(-0.0509880542206 -0.00323925176826 1.23637869477e-23)
(-0.0522180116647 -0.0039416766806 -8.13241306191e-25)
(-0.0536406266694 -0.00460322965519 1.76438873756e-24)
(-0.0552821865541 -0.00521704416688 7.52620185109e-24)
(-0.0571488665857 -0.00576712479006 4.91944309485e-23)
(-0.0592279300256 -0.00623919777429 2.77901310483e-23)
(-0.0615316066712 -0.00662745929993 -1.87244024186e-23)
(-0.0640101143129 -0.00691735949978 -5.50791034394e-23)
(-0.0665791015337 -0.00711454535051 -3.55558959489e-22)
(-0.0689962708272 -0.00709839724419 -1.28909548074e-21)
(-0.0711420600495 -0.00741331465329 -2.18081561138e-21)
(-0.0726474970546 -0.00618500103017 -5.23372603131e-21)
(-0.0735281322782 -0.00553982525245 -6.67963086046e-21)
(-0.0771871397848 -0.00337834673241 -8.7444591949e-21)
(-0.120734810657 -0.00721952737947 -1.30128661201e-20)
(-0.113381834814 -0.0132811491734 -9.05859373524e-21)
(-0.0459517664352 -0.000445109377165 2.00306354393e-24)
(-0.0468649283733 -0.00140941944949 7.07480861831e-23)
(-0.0479316061571 -0.0023532183921 8.32766600945e-23)
(-0.044907318973 -0.000568006508213 5.07508419166e-23)
(-0.0436146844133 -0.000696617759549 9.24447201999e-23)
(-0.0420699634878 -0.000824621312163 3.18280858672e-22)
)
;

boundaryField
{
    back
    {
        type            noSlip;
    }
    sides
    {
        type            noSlip;
    }
    bottom
    {
        type            noSlip;
    }
    front
    {
        type            noSlip;
    }
    atmosphere
    {
        type            pressureInletOutletVelocity;
        value           nonuniform List<vector> 8((-0.128186463191 0.0740746461982 -1.89699539714e-21) (0 -0.0233974046877 0) (0 -0.0075965434649 0) (0 0.00471633928196 0) (-0.0872380305728 0.0164618855912 -1.45719020221e-20) (-0.0852468224014 0.00559356253545 -1.58970482934e-20) (-0.115731212528 0.00644805039505 -2.68176546243e-20) (0 -0.0132811491734 0));
    }
    floatingObject
    {
        type            movingWallVelocity;
        value           nonuniform List<vector> 0();
    }
    procBoundary9to6
    {
        type            processor;
        value           nonuniform List<vector> 4((-0.0760947845459 0.0158528965378 -8.67055175453e-21) (-0.0774873503274 0.016333821036 -5.71215528647e-21) (-0.0989184019402 0.0129221823798 3.68938848099e-20) (-0.101464032554 -0.0261366951862 4.17430277811e-20));
    }
    procBoundary9to7
    {
        type            processor;
        value           nonuniform List<vector> 
16
(
(-0.0454428687786 0.00050894929064 -3.17750326641e-22)
(-0.046581279075 0.00140170862558 -2.13887840201e-22)
(-0.0478013933844 0.00230792907374 -9.89185475081e-23)
(-0.0488803384413 0.0032195642049 2.27891143978e-23)
(-0.0498285329549 0.00413925282796 1.69142678627e-23)
(-0.0507894840393 0.00509102239418 5.32586050044e-24)
(-0.0518698590018 0.00608601644755 -3.49658871099e-24)
(-0.0531188771608 0.00713019896164 -4.35306989039e-24)
(-0.0545588144169 0.00822982278862 1.51447284831e-24)
(-0.0562021233397 0.00938592129223 -1.72460906538e-23)
(-0.0580640382874 0.010575014143 4.48465532344e-23)
(-0.0601734578504 0.0118105026699 7.4344939312e-23)
(-0.0624964209115 0.0130679708997 8.51864048287e-23)
(-0.0651198624575 0.0142525646651 -1.71606274031e-22)
(-0.0683195248595 0.0151829320764 -1.34623928409e-21)
(-0.0724184466934 0.0159323148287 4.58758186122e-22)
)
;
    }
    procBoundary9to10
    {
        type            processor;
        value           nonuniform List<vector> 
15
(
(-0.0490201801104 -0.00334028431309 4.68326795422e-23)
(-0.0501448840437 -0.00431541832956 5.64397084971e-26)
(-0.0514069867445 -0.00526107796286 -7.0229185523e-24)
(-0.0528755837351 -0.00616506232903 2.76997627458e-24)
(-0.0545777938849 -0.00701456650652 3.2638581827e-23)
(-0.0565169391388 -0.00779345148061 7.09373885224e-23)
(-0.0586850745734 -0.00849837987116 1.74783586144e-23)
(-0.0610809128539 -0.00911155227018 -2.34990515194e-23)
(-0.0457879205051 -0.00177717706831 6.01423694013e-23)
(-0.0490201801104 -0.00334028431309 4.68326795422e-23)
(-0.0468301565535 -0.00296142235965 7.37869554111e-23)
(-0.0457879205051 -0.00177717706831 6.01423694013e-23)
(-0.0444625461901 -0.00215457353199 1.67745543395e-22)
(-0.042883693744 -0.00253505029753 2.72364609542e-22)
(-0.0402720753608 -0.00095006423699 4.60539114401e-22)
)
;
    }
    procBoundary9to11
    {
        type            processor;
        value           nonuniform List<vector> 9((-0.0636606599631 -0.00961133139331 -9.71625274443e-23) (-0.0663459925579 -0.00998894446567 -4.20497130043e-22) (-0.0689573031273 -0.0101924630564 -1.52859292194e-21) (-0.0714304066865 -0.0104362337919 -4.8310421461e-21) (-0.0733265114514 -0.00922549815585 -4.32232340437e-21) (-0.0739804219686 -0.0085306262696 -7.3125308199e-21) (-0.0773137135057 -0.00560255397433 -1.13811863236e-20) (-0.118319017113 -0.00675513913941 -1.47878461268e-20) (-0.0997908019655 -0.0186828030419 -7.16789053928e-21));
    }
}


// ************************************************************************* //
