/*--------------------------------*- C++ -*----------------------------------*\
| =========                 |                                                 |
| \\      /  F ield         | OpenFOAM: The Open Source CFD Toolbox           |
|  \\    /   O peration     | Version:  v2012                                 |
|   \\  /    A nd           | Website:  www.openfoam.com                      |
|    \\/     M anipulation  |                                                 |
\*---------------------------------------------------------------------------*/
FoamFile
{
    version     2.0;
    format      ascii;
    class       volScalarField;
    location    "3.8";
    object      k;
}
// * * * * * * * * * * * * * * * * * * * * * * * * * * * * * * * * * * * * * //

dimensions      [0 2 -2 0 0 0 0];


internalField   nonuniform List<scalar> 
167
(
0.00318747926084
0.00325526981297
0.00341454293149
0.00383232504376
0.0050368543765
0.00831125939265
0.0157187806591
0.03136058696
0.067630490347
0.00325269688271
0.00341396048578
0.00383280357482
0.00504938909106
0.00840752146732
0.0161249338016
0.0325414233257
0.073130924332
0.0032512367048
0.0034171843666
0.00384492474636
0.00508469121422
0.00852997990763
0.0165250720814
0.0334921442594
0.073684238345
0.00317503450042
0.0032513590222
0.00342664932338
0.00387826478406
0.0051653415397
0.00865720492805
0.0167357750661
0.0340290261334
0.0739404504723
0.00317140063001
0.00325171791834
0.00343705023225
0.00391532712443
0.00525328966837
0.00875855937843
0.0167620585283
0.0341632328031
0.0740271021597
0.00316767948287
0.00325134994247
0.00344334568044
0.00393735344165
0.00530435964019
0.00880297450365
0.0166773768309
0.0340639337438
0.0740131095777
0.00312287585766
0.00316386849263
0.00325011848524
0.00344572713805
0.00394573229559
0.00532747968395
0.00883888808371
0.0166651689246
0.0340429000127
0.0740301375477
0.00309517305566
0.00311756316841
0.00316008420917
0.00324858975398
0.00344655009373
0.00394897763761
0.00534591747953
0.00891455441134
0.0168143332241
0.0342087570223
0.074079725415
0.00308907611343
0.0031123864877
0.00315650304661
0.00324769262565
0.00345029791443
0.00396425944894
0.00540130026481
0.00908106998736
0.0171367917372
0.0345061970243
0.0741079783519
0.00310722716116
0.00315302099357
0.0032474202275
0.00345700820948
0.00398984495464
0.00548115238891
0.00929183152538
0.0175388884139
0.0348472121239
0.0740934780543
0.00310161142207
0.00314913465764
0.00324699896364
0.00346431761167
0.00401667532308
0.00555346066595
0.00945849409252
0.0178319000175
0.0350290695109
0.0739999468743
0.00309410038462
0.00314330607496
0.00324476333251
0.00346992574015
0.00403698420115
0.00559316074948
0.00952457373355
0.0179610615168
0.0350184906011
0.0738409419497
0.00308075521608
0.00313138249736
0.00323607099553
0.00346768391129
0.00404220558961
0.00559211530983
0.00952271566891
0.0180433072072
0.0350257873415
0.0736311024714
0.00305113493028
0.00310231611351
0.00320863196768
0.00344344744575
0.00402060411023
0.00557050377542
0.00956830527463
0.0183134146959
0.0352051716578
0.0695839109641
0.00295228546764
0.00297842888139
0.0030283064736
0.00313234290663
0.00336272906474
0.00393123563409
0.00548387850904
0.00957128052803
0.0184242317669
0.0346501508598
0.0636030655658
0.00276864769691
0.00279267900578
0.00283799909867
0.00293251189836
0.00314191960549
0.00366735791978
0.00516704639899
0.00925376378721
0.0179299846998
0.0329799455801
0.0565837128638
0.00221996864909
0.00223936666259
0.00227371247282
0.00234276848548
0.00249204627578
0.0028681004928
0.00403067650086
0.00760153851973
0.0160931933157
0.0323309834119
0.0703669368619
)
;

boundaryField
{
    back
    {
        type            kqRWallFunction;
        value           nonuniform List<scalar> 
167
(
0.00318747926084
0.00325526981297
0.00341454293149
0.00383232504376
0.0050368543765
0.00831125939265
0.0157187806591
0.03136058696
0.067630490347
0.00325269688271
0.00341396048578
0.00383280357482
0.00504938909106
0.00840752146732
0.0161249338016
0.0325414233257
0.073130924332
0.0032512367048
0.0034171843666
0.00384492474636
0.00508469121422
0.00852997990763
0.0165250720814
0.0334921442594
0.073684238345
0.00317503450042
0.0032513590222
0.00342664932338
0.00387826478406
0.0051653415397
0.00865720492805
0.0167357750661
0.0340290261334
0.0739404504723
0.00317140063001
0.00325171791834
0.00343705023225
0.00391532712443
0.00525328966837
0.00875855937843
0.0167620585283
0.0341632328031
0.0740271021597
0.00316767948287
0.00325134994247
0.00344334568044
0.00393735344165
0.00530435964019
0.00880297450365
0.0166773768309
0.0340639337438
0.0740131095777
0.00312287585766
0.00316386849263
0.00325011848524
0.00344572713805
0.00394573229559
0.00532747968395
0.00883888808371
0.0166651689246
0.0340429000127
0.0740301375477
0.00309517305566
0.00311756316841
0.00316008420917
0.00324858975398
0.00344655009373
0.00394897763761
0.00534591747953
0.00891455441134
0.0168143332241
0.0342087570223
0.074079725415
0.00308907611343
0.0031123864877
0.00315650304661
0.00324769262565
0.00345029791443
0.00396425944894
0.00540130026481
0.00908106998736
0.0171367917372
0.0345061970243
0.0741079783519
0.00310722716116
0.00315302099357
0.0032474202275
0.00345700820948
0.00398984495464
0.00548115238891
0.00929183152538
0.0175388884139
0.0348472121239
0.0740934780543
0.00310161142207
0.00314913465764
0.00324699896364
0.00346431761167
0.00401667532308
0.00555346066595
0.00945849409252
0.0178319000175
0.0350290695109
0.0739999468743
0.00309410038462
0.00314330607496
0.00324476333251
0.00346992574015
0.00403698420115
0.00559316074948
0.00952457373355
0.0179610615168
0.0350184906011
0.0738409419497
0.00308075521608
0.00313138249736
0.00323607099553
0.00346768391129
0.00404220558961
0.00559211530983
0.00952271566891
0.0180433072072
0.0350257873415
0.0736311024714
0.00305113493028
0.00310231611351
0.00320863196768
0.00344344744575
0.00402060411023
0.00557050377542
0.00956830527463
0.0183134146959
0.0352051716578
0.0695839109641
0.00295228546764
0.00297842888139
0.0030283064736
0.00313234290663
0.00336272906474
0.00393123563409
0.00548387850904
0.00957128052803
0.0184242317669
0.0346501508598
0.0636030655658
0.00276864769691
0.00279267900578
0.00283799909867
0.00293251189836
0.00314191960549
0.00366735791978
0.00516704639899
0.00925376378721
0.0179299846998
0.0329799455801
0.0565837128638
0.00221996864909
0.00223936666259
0.00227371247282
0.00234276848548
0.00249204627578
0.0028681004928
0.00403067650086
0.00760153851973
0.0160931933157
0.0323309834119
0.0703669368619
)
;
    }
    sides
    {
        type            kqRWallFunction;
        value           nonuniform List<scalar> 
11
(
0.00221996864909
0.00223936666259
0.00227371247282
0.00234276848548
0.00249204627578
0.0028681004928
0.00403067650086
0.00760153851973
0.0160931933157
0.0323309834119
0.0703669368619
)
;
    }
    bottom
    {
        type            kqRWallFunction;
        value           nonuniform List<scalar> 0();
    }
    front
    {
        type            kqRWallFunction;
        value           nonuniform List<scalar> 
167
(
0.00318747926084
0.00325526981297
0.00341454293149
0.00383232504376
0.0050368543765
0.00831125939265
0.0157187806591
0.03136058696
0.067630490347
0.00325269688271
0.00341396048578
0.00383280357482
0.00504938909106
0.00840752146732
0.0161249338016
0.0325414233257
0.073130924332
0.0032512367048
0.0034171843666
0.00384492474636
0.00508469121422
0.00852997990763
0.0165250720814
0.0334921442594
0.073684238345
0.00317503450042
0.0032513590222
0.00342664932338
0.00387826478406
0.0051653415397
0.00865720492805
0.0167357750661
0.0340290261334
0.0739404504723
0.00317140063001
0.00325171791834
0.00343705023225
0.00391532712443
0.00525328966837
0.00875855937843
0.0167620585283
0.0341632328031
0.0740271021597
0.00316767948287
0.00325134994247
0.00344334568044
0.00393735344165
0.00530435964019
0.00880297450365
0.0166773768309
0.0340639337438
0.0740131095777
0.00312287585766
0.00316386849263
0.00325011848524
0.00344572713805
0.00394573229559
0.00532747968395
0.00883888808371
0.0166651689246
0.0340429000127
0.0740301375477
0.00309517305566
0.00311756316841
0.00316008420917
0.00324858975398
0.00344655009373
0.00394897763761
0.00534591747953
0.00891455441134
0.0168143332241
0.0342087570223
0.074079725415
0.00308907611343
0.0031123864877
0.00315650304661
0.00324769262565
0.00345029791443
0.00396425944894
0.00540130026481
0.00908106998736
0.0171367917372
0.0345061970243
0.0741079783519
0.00310722716116
0.00315302099357
0.0032474202275
0.00345700820948
0.00398984495464
0.00548115238891
0.00929183152538
0.0175388884139
0.0348472121239
0.0740934780543
0.00310161142207
0.00314913465764
0.00324699896364
0.00346431761167
0.00401667532308
0.00555346066595
0.00945849409252
0.0178319000175
0.0350290695109
0.0739999468743
0.00309410038462
0.00314330607496
0.00324476333251
0.00346992574015
0.00403698420115
0.00559316074948
0.00952457373355
0.0179610615168
0.0350184906011
0.0738409419497
0.00308075521608
0.00313138249736
0.00323607099553
0.00346768391129
0.00404220558961
0.00559211530983
0.00952271566891
0.0180433072072
0.0350257873415
0.0736311024714
0.00305113493028
0.00310231611351
0.00320863196768
0.00344344744575
0.00402060411023
0.00557050377542
0.00956830527463
0.0183134146959
0.0352051716578
0.0695839109641
0.00295228546764
0.00297842888139
0.0030283064736
0.00313234290663
0.00336272906474
0.00393123563409
0.00548387850904
0.00957128052803
0.0184242317669
0.0346501508598
0.0636030655658
0.00276864769691
0.00279267900578
0.00283799909867
0.00293251189836
0.00314191960549
0.00366735791978
0.00516704639899
0.00925376378721
0.0179299846998
0.0329799455801
0.0565837128638
0.00221996864909
0.00223936666259
0.00227371247282
0.00234276848548
0.00249204627578
0.0028681004928
0.00403067650086
0.00760153851973
0.0160931933157
0.0323309834119
0.0703669368619
)
;
    }
    atmosphere
    {
        type            inletOutlet;
        inletValue      uniform 0.1;
        value           nonuniform List<scalar> 
17
(
0.067630490347
0.1
0.1
0.1
0.1
0.1
0.1
0.1
0.1
0.1
0.1
0.1
0.1
0.0695839109641
0.0636030655658
0.0565837128638
0.1
)
;
    }
    floatingObject
    {
        type            kqRWallFunction;
        value           nonuniform List<scalar> 0();
    }
    procBoundary11to9
    {
        type            processor;
        value           nonuniform List<scalar> 9(0.00319193756007 0.00325758992465 0.00341387967239 0.00382720959795 0.00501683536456 0.00822649180693 0.015386497885 0.0293378968359 0.0538183930133);
    }
    procBoundary11to10
    {
        type            processor;
        value           nonuniform List<scalar> 
23
(
0.00315608939591
0.00318300239609
0.00318300239609
0.00317884185747
0.00317884185747
0.00313925771058
0.00313376873606
0.00312828997728
0.00312828997728
0.00310139032806
0.00310139032806
0.00308121740622
0.00307452798343
0.00308298474881
0.00308298474881
0.00307644953411
0.00306809798435
0.00305410711008
0.00302430492732
0.00302430492732
0.00293587854547
0.00275321700368
0.00220638394115
)
;
    }
}


// ************************************************************************* //
