/*--------------------------------*- C++ -*----------------------------------*\
| =========                 |                                                 |
| \\      /  F ield         | OpenFOAM: The Open Source CFD Toolbox           |
|  \\    /   O peration     | Version:  v2012                                 |
|   \\  /    A nd           | Website:  www.openfoam.com                      |
|    \\/     M anipulation  |                                                 |
\*---------------------------------------------------------------------------*/
FoamFile
{
    version     2.0;
    format      ascii;
    class       volScalarField;
    location    "3.8";
    object      p_rgh;
}
// * * * * * * * * * * * * * * * * * * * * * * * * * * * * * * * * * * * * * //

dimensions      [1 -1 -2 0 0 0 0];


internalField   nonuniform List<scalar> 
167
(
8555.5282088
8551.09539297
8546.12204127
8540.58095497
8534.33435205
8457.90411563
3791.34344237
0.0282993880057
0.00359577398551
8542.42166268
8537.322214
8531.70273682
8525.58864486
8428.90469132
3669.97674888
0.0100704394907
0.00499677928943
8534.23533471
8528.98108446
8523.30757515
8517.4765369
8404.2602222
3551.66444453
0.00520465779934
0.00653240888396
8531.48519844
8526.49291774
8521.05777853
8515.18552586
8508.90015606
8375.36716292
3424.84649475
0.00645286322823
0.00758429716812
8524.39636034
8519.22172905
8513.56658327
8507.41612278
8500.70409596
8341.08226588
3299.23397115
0.00848725841395
0.00803165244994
8517.79203129
8512.43274257
8506.559301
8500.13575512
8493.0614816
8307.07115485
3181.48956632
0.0103968593594
0.00795233054423
8516.69322012
8511.69095756
8506.16225784
8500.08960182
8493.4308832
8486.07273232
8276.98570058
3074.23899675
0.0120319625166
0.0076212384077
8515.8650295
8511.25094636
8506.11739422
8500.43893467
8494.19643446
8487.34775256
8479.77251798
8249.28704487
2978.14278435
0.0135780613675
0.00710487989989
8511.05322238
8506.33462891
8501.08486679
8495.2824184
8488.90302251
8481.90790943
8474.16734882
8221.90062014
2892.88039183
0.0152460962484
0.00638453952536
8501.94825783
8496.60359654
8490.7040591
8484.22226262
8477.12378384
8469.26425468
8193.72816451
2817.42204439
0.0167873030707
0.00549818044078
8498.09618913
8492.67792254
8486.70645185
8480.15753063
8473.00409919
8465.05836163
8164.42586174
2752.65700825
0.0178341654429
0.00454614550809
8494.78224974
8489.30567118
8483.28319135
8476.70036644
8469.52565448
8461.65061104
8138.03547582
2698.13653134
0.0176210151136
0.00359910500157
8492.00393597
8486.47791838
8480.41392549
8473.81087489
8466.71138952
8459.04880561
8116.37116981
2653.06424954
0.0163809999315
0.00290398735224
8489.76249015
8484.18437736
8478.07172015
8471.44917258
8464.43964757
8457.16757249
8101.41908995
2614.0191954
0.0146252325849
0.00286542798426
8493.14876588
8488.066039
8482.4260612
8476.23810019
8469.54893744
8462.52249699
8455.78713274
8092.70000943
2576.96167487
0.0113993162041
0.00322244741714
8492.03998123
8486.92833764
8481.2193307
8474.9224343
8468.05360028
8460.71636708
8454.53052922
8079.87325631
2561.28115979
0.0205475452614
0.0014317965656
8491.38817007
8486.2188224
8480.50816884
8474.17653674
8467.12059297
8459.36322576
8453.8397564
8111.58195612
2523.34284162
0.0314049822928
0.00491671259402
)
;

boundaryField
{
    back
    {
        type            fixedFluxPressure;
        gradient        uniform 0;
        value           nonuniform List<scalar> 
167
(
8555.5282088
8551.09539297
8546.12204127
8540.58095497
8534.33435205
8457.90411563
3791.34344237
0.0282993880057
0.00359577398551
8542.42166268
8537.322214
8531.70273682
8525.58864486
8428.90469132
3669.97674888
0.0100704394907
0.00499677928943
8534.23533471
8528.98108446
8523.30757515
8517.4765369
8404.2602222
3551.66444453
0.00520465779934
0.00653240888396
8531.48519844
8526.49291774
8521.05777853
8515.18552586
8508.90015606
8375.36716292
3424.84649475
0.00645286322823
0.00758429716812
8524.39636034
8519.22172905
8513.56658327
8507.41612278
8500.70409596
8341.08226588
3299.23397115
0.00848725841395
0.00803165244994
8517.79203129
8512.43274257
8506.559301
8500.13575512
8493.0614816
8307.07115485
3181.48956632
0.0103968593594
0.00795233054423
8516.69322012
8511.69095756
8506.16225784
8500.08960182
8493.4308832
8486.07273232
8276.98570058
3074.23899675
0.0120319625166
0.0076212384077
8515.8650295
8511.25094636
8506.11739422
8500.43893467
8494.19643446
8487.34775256
8479.77251798
8249.28704487
2978.14278435
0.0135780613675
0.00710487989989
8511.05322238
8506.33462891
8501.08486679
8495.2824184
8488.90302251
8481.90790943
8474.16734882
8221.90062014
2892.88039183
0.0152460962484
0.00638453952536
8501.94825783
8496.60359654
8490.7040591
8484.22226262
8477.12378384
8469.26425468
8193.72816451
2817.42204439
0.0167873030707
0.00549818044078
8498.09618913
8492.67792254
8486.70645185
8480.15753063
8473.00409919
8465.05836163
8164.42586174
2752.65700825
0.0178341654429
0.00454614550809
8494.78224974
8489.30567118
8483.28319135
8476.70036644
8469.52565448
8461.65061104
8138.03547582
2698.13653134
0.0176210151136
0.00359910500157
8492.00393597
8486.47791838
8480.41392549
8473.81087489
8466.71138952
8459.04880561
8116.37116981
2653.06424954
0.0163809999315
0.00290398735224
8489.76249015
8484.18437736
8478.07172015
8471.44917258
8464.43964757
8457.16757249
8101.41908995
2614.0191954
0.0146252325849
0.00286542798426
8493.14876588
8488.066039
8482.4260612
8476.23810019
8469.54893744
8462.52249699
8455.78713274
8092.70000943
2576.96167487
0.0113993162041
0.00322244741714
8492.03998123
8486.92833764
8481.2193307
8474.9224343
8468.05360028
8460.71636708
8454.53052922
8079.87325631
2561.28115979
0.0205475452614
0.0014317965656
8491.38817007
8486.2188224
8480.50816884
8474.17653674
8467.12059297
8459.36322576
8453.8397564
8111.58195612
2523.34284162
0.0314049822928
0.00491671259402
)
;
    }
    sides
    {
        type            fixedFluxPressure;
        gradient        uniform 0;
        value           nonuniform List<scalar> 
11
(
8491.38817007
8486.2188224
8480.50816884
8474.17653674
8467.12059297
8459.36322576
8453.8397564
8111.58195612
2523.34284162
0.0314049822928
0.00491671259402
)
;
    }
    bottom
    {
        type            fixedFluxPressure;
        gradient        nonuniform List<scalar> 0();
        value           nonuniform List<scalar> 0();
    }
    front
    {
        type            fixedFluxPressure;
        gradient        uniform 0;
        value           nonuniform List<scalar> 
167
(
8555.5282088
8551.09539297
8546.12204127
8540.58095497
8534.33435205
8457.90411563
3791.34344237
0.0282993880057
0.00359577398551
8542.42166268
8537.322214
8531.70273682
8525.58864486
8428.90469132
3669.97674888
0.0100704394907
0.00499677928943
8534.23533471
8528.98108446
8523.30757515
8517.4765369
8404.2602222
3551.66444453
0.00520465779934
0.00653240888396
8531.48519844
8526.49291774
8521.05777853
8515.18552586
8508.90015606
8375.36716292
3424.84649475
0.00645286322823
0.00758429716812
8524.39636034
8519.22172905
8513.56658327
8507.41612278
8500.70409596
8341.08226588
3299.23397115
0.00848725841395
0.00803165244994
8517.79203129
8512.43274257
8506.559301
8500.13575512
8493.0614816
8307.07115485
3181.48956632
0.0103968593594
0.00795233054423
8516.69322012
8511.69095756
8506.16225784
8500.08960182
8493.4308832
8486.07273232
8276.98570058
3074.23899675
0.0120319625166
0.0076212384077
8515.8650295
8511.25094636
8506.11739422
8500.43893467
8494.19643446
8487.34775256
8479.77251798
8249.28704487
2978.14278435
0.0135780613675
0.00710487989989
8511.05322238
8506.33462891
8501.08486679
8495.2824184
8488.90302251
8481.90790943
8474.16734882
8221.90062014
2892.88039183
0.0152460962484
0.00638453952536
8501.94825783
8496.60359654
8490.7040591
8484.22226262
8477.12378384
8469.26425468
8193.72816451
2817.42204439
0.0167873030707
0.00549818044078
8498.09618913
8492.67792254
8486.70645185
8480.15753063
8473.00409919
8465.05836163
8164.42586174
2752.65700825
0.0178341654429
0.00454614550809
8494.78224974
8489.30567118
8483.28319135
8476.70036644
8469.52565448
8461.65061104
8138.03547582
2698.13653134
0.0176210151136
0.00359910500157
8492.00393597
8486.47791838
8480.41392549
8473.81087489
8466.71138952
8459.04880561
8116.37116981
2653.06424954
0.0163809999315
0.00290398735224
8489.76249015
8484.18437736
8478.07172015
8471.44917258
8464.43964757
8457.16757249
8101.41908995
2614.0191954
0.0146252325849
0.00286542798426
8493.14876588
8488.066039
8482.4260612
8476.23810019
8469.54893744
8462.52249699
8455.78713274
8092.70000943
2576.96167487
0.0113993162041
0.00322244741714
8492.03998123
8486.92833764
8481.2193307
8474.9224343
8468.05360028
8460.71636708
8454.53052922
8079.87325631
2561.28115979
0.0205475452614
0.0014317965656
8491.38817007
8486.2188224
8480.50816884
8474.17653674
8467.12059297
8459.36322576
8453.8397564
8111.58195612
2523.34284162
0.0314049822928
0.00491671259402
)
;
    }
    atmosphere
    {
        type            totalPressure;
        rho             rho;
        psi             none;
        gamma           1;
        p0              uniform 0;
        value           nonuniform List<scalar> 
17
(
0
-2.05384194897e-05
-0.000135888982938
-0.000241905763427
-0.000295373723523
-0.000297614468326
-0.000300884920759
-0.000293185124295
-0.000245687928973
-0.000167189778392
-8.21548792598e-05
-2.17176114963e-05
-5.66195422128e-07
0
0
0
-8.15579291766e-06
)
;
    }
    floatingObject
    {
        type            fixedFluxPressure;
        gradient        nonuniform List<scalar> 0();
        value           nonuniform List<scalar> 0();
    }
    procBoundary11to9
    {
        type            processor;
        value           nonuniform List<scalar> 9(8564.56560746 8560.35135138 8555.5658662 8550.15247789 8543.93794123 8494.67205292 3919.21616627 0.788706526115 0.000585853044923);
    }
    procBoundary11to10
    {
        type            processor;
        value           nonuniform List<scalar> 
23
(
8559.48055786
8547.04416648
8547.04416648
8539.03988432
8539.03988432
8535.99690895
8529.08180119
8522.64153448
8522.64153448
8521.18394475
8521.18394475
8519.96954489
8515.25219506
8506.75484542
8506.75484542
8502.97688812
8499.72446481
8497.00098415
8494.80676194
8494.80676194
8497.69839272
8496.61296201
8496.00136609
)
;
    }
}


// ************************************************************************* //
