/*--------------------------------*- C++ -*----------------------------------*\
| =========                 |                                                 |
| \\      /  F ield         | OpenFOAM: The Open Source CFD Toolbox           |
|  \\    /   O peration     | Version:  v2012                                 |
|   \\  /    A nd           | Website:  www.openfoam.com                      |
|    \\/     M anipulation  |                                                 |
\*---------------------------------------------------------------------------*/
FoamFile
{
    version     2.0;
    format      ascii;
    class       volScalarField;
    location    "3.8";
    object      rAU;
}
// * * * * * * * * * * * * * * * * * * * * * * * * * * * * * * * * * * * * * //

dimensions      [-1 3 1 0 0 0 0];


internalField   nonuniform List<scalar> 
167
(
2.17544002644e-05
2.17485920624e-05
2.17360662908e-05
2.16945780156e-05
2.15895358218e-05
2.17102798565e-05
4.94594367419e-05
0.00597800478622
0.0205788175011
2.17501489587e-05
2.17378338027e-05
2.17048451577e-05
2.16143427086e-05
2.17695629157e-05
5.08347671015e-05
0.00604056159222
0.0164385243342
2.17510719104e-05
2.1738049225e-05
2.17078534421e-05
2.16201770264e-05
2.17963870929e-05
5.22964943723e-05
0.0061140324582
0.0161105584509
2.1758309828e-05
2.17518931392e-05
2.17373655283e-05
2.17022330261e-05
2.16030043345e-05
2.18180018875e-05
5.39425156912e-05
0.00621541401596
0.0161372293072
2.17599041132e-05
2.1753234994e-05
2.17379996184e-05
2.17016643902e-05
2.15854749027e-05
2.18581915101e-05
5.57752592032e-05
0.0063382349875
0.016145403067
2.17618637923e-05
2.17554559976e-05
2.17409743942e-05
2.17049786717e-05
2.15808568687e-05
2.19026809794e-05
5.7599563347e-05
0.00650519519986
0.0162805767353
2.17669898168e-05
2.1763812662e-05
2.17578447531e-05
2.17450937512e-05
2.17112208986e-05
2.15849750633e-05
2.19597164735e-05
5.94825248293e-05
0.00665312687981
0.0162966841278
2.17702938289e-05
2.17687636787e-05
2.17655544654e-05
2.17596541287e-05
2.17484584915e-05
2.17174780339e-05
2.15871332637e-05
2.20166659039e-05
6.13399539884e-05
0.00677479313568
0.0162886612399
2.17716820433e-05
2.17702235018e-05
2.17671447359e-05
2.176100702e-05
2.17502263619e-05
2.17205592631e-05
2.15839124576e-05
2.20761751867e-05
6.31471764697e-05
0.00687324037601
0.0162945408896
2.17715934818e-05
2.17686836618e-05
2.17621522245e-05
2.17504475235e-05
2.17195613911e-05
2.15762524287e-05
2.21422405991e-05
6.48947509751e-05
0.00695820723851
0.016323744888
2.17727995158e-05
2.17700463141e-05
2.17632443376e-05
2.17491073733e-05
2.17149184979e-05
2.15679763043e-05
2.22198314025e-05
6.65524444379e-05
0.00704678569805
0.01636782011
2.17741068441e-05
2.17713435906e-05
2.17640032692e-05
2.1746834743e-05
2.17065003941e-05
2.15698870901e-05
2.23087671952e-05
6.80909790886e-05
0.0071377141208
0.0163464130057
2.17755099551e-05
2.17723672867e-05
2.17640209656e-05
2.1742868915e-05
2.16765216171e-05
2.15550632576e-05
2.23921217729e-05
6.94858731293e-05
0.00723182183637
0.0164510734786
2.17776461675e-05
2.17737545616e-05
2.17645342621e-05
2.1741934007e-05
2.16846965473e-05
2.15794698233e-05
2.2463752348e-05
7.07776447931e-05
0.0072935042595
0.0206056459015
2.17850432546e-05
2.17829159643e-05
2.17784046638e-05
2.17688163232e-05
2.1748115087e-05
2.1701228748e-05
2.15959470368e-05
2.24976895095e-05
7.18568418046e-05
0.00737512349001
0.020656433731
2.18131595606e-05
2.18107760251e-05
2.18062622911e-05
2.17972204917e-05
2.1778907028e-05
2.17277487463e-05
2.16143606151e-05
2.25557384777e-05
7.2512476264e-05
0.00748629438193
0.0206277157809
2.19884282782e-05
2.19862608747e-05
2.19820576792e-05
2.19756813642e-05
2.19692895118e-05
2.19264669276e-05
2.18301766643e-05
2.2728163424e-05
7.49454570713e-05
0.00924548389596
0.0171325005814
)
;

boundaryField
{
    back
    {
        type            calculated;
        value           nonuniform List<scalar> 
167
(
2.17544002644e-05
2.17485920624e-05
2.17360662908e-05
2.16945780156e-05
2.15895358218e-05
2.17102798565e-05
4.94594367419e-05
0.00597800478622
0.0205788175011
2.17501489587e-05
2.17378338027e-05
2.17048451577e-05
2.16143427086e-05
2.17695629157e-05
5.08347671015e-05
0.00604056159222
0.0164385243342
2.17510719104e-05
2.1738049225e-05
2.17078534421e-05
2.16201770264e-05
2.17963870929e-05
5.22964943723e-05
0.0061140324582
0.0161105584509
2.1758309828e-05
2.17518931392e-05
2.17373655283e-05
2.17022330261e-05
2.16030043345e-05
2.18180018875e-05
5.39425156912e-05
0.00621541401596
0.0161372293072
2.17599041132e-05
2.1753234994e-05
2.17379996184e-05
2.17016643902e-05
2.15854749027e-05
2.18581915101e-05
5.57752592032e-05
0.0063382349875
0.016145403067
2.17618637923e-05
2.17554559976e-05
2.17409743942e-05
2.17049786717e-05
2.15808568687e-05
2.19026809794e-05
5.7599563347e-05
0.00650519519986
0.0162805767353
2.17669898168e-05
2.1763812662e-05
2.17578447531e-05
2.17450937512e-05
2.17112208986e-05
2.15849750633e-05
2.19597164735e-05
5.94825248293e-05
0.00665312687981
0.0162966841278
2.17702938289e-05
2.17687636787e-05
2.17655544654e-05
2.17596541287e-05
2.17484584915e-05
2.17174780339e-05
2.15871332637e-05
2.20166659039e-05
6.13399539884e-05
0.00677479313568
0.0162886612399
2.17716820433e-05
2.17702235018e-05
2.17671447359e-05
2.176100702e-05
2.17502263619e-05
2.17205592631e-05
2.15839124576e-05
2.20761751867e-05
6.31471764697e-05
0.00687324037601
0.0162945408896
2.17715934818e-05
2.17686836618e-05
2.17621522245e-05
2.17504475235e-05
2.17195613911e-05
2.15762524287e-05
2.21422405991e-05
6.48947509751e-05
0.00695820723851
0.016323744888
2.17727995158e-05
2.17700463141e-05
2.17632443376e-05
2.17491073733e-05
2.17149184979e-05
2.15679763043e-05
2.22198314025e-05
6.65524444379e-05
0.00704678569805
0.01636782011
2.17741068441e-05
2.17713435906e-05
2.17640032692e-05
2.1746834743e-05
2.17065003941e-05
2.15698870901e-05
2.23087671952e-05
6.80909790886e-05
0.0071377141208
0.0163464130057
2.17755099551e-05
2.17723672867e-05
2.17640209656e-05
2.1742868915e-05
2.16765216171e-05
2.15550632576e-05
2.23921217729e-05
6.94858731293e-05
0.00723182183637
0.0164510734786
2.17776461675e-05
2.17737545616e-05
2.17645342621e-05
2.1741934007e-05
2.16846965473e-05
2.15794698233e-05
2.2463752348e-05
7.07776447931e-05
0.0072935042595
0.0206056459015
2.17850432546e-05
2.17829159643e-05
2.17784046638e-05
2.17688163232e-05
2.1748115087e-05
2.1701228748e-05
2.15959470368e-05
2.24976895095e-05
7.18568418046e-05
0.00737512349001
0.020656433731
2.18131595606e-05
2.18107760251e-05
2.18062622911e-05
2.17972204917e-05
2.1778907028e-05
2.17277487463e-05
2.16143606151e-05
2.25557384777e-05
7.2512476264e-05
0.00748629438193
0.0206277157809
2.19884282782e-05
2.19862608747e-05
2.19820576792e-05
2.19756813642e-05
2.19692895118e-05
2.19264669276e-05
2.18301766643e-05
2.2728163424e-05
7.49454570713e-05
0.00924548389596
0.0171325005814
)
;
    }
    sides
    {
        type            calculated;
        value           nonuniform List<scalar> 
11
(
2.19884282782e-05
2.19862608747e-05
2.19820576792e-05
2.19756813642e-05
2.19692895118e-05
2.19264669276e-05
2.18301766643e-05
2.2728163424e-05
7.49454570713e-05
0.00924548389596
0.0171325005814
)
;
    }
    bottom
    {
        type            calculated;
        value           nonuniform List<scalar> 0();
    }
    front
    {
        type            calculated;
        value           nonuniform List<scalar> 
167
(
2.17544002644e-05
2.17485920624e-05
2.17360662908e-05
2.16945780156e-05
2.15895358218e-05
2.17102798565e-05
4.94594367419e-05
0.00597800478622
0.0205788175011
2.17501489587e-05
2.17378338027e-05
2.17048451577e-05
2.16143427086e-05
2.17695629157e-05
5.08347671015e-05
0.00604056159222
0.0164385243342
2.17510719104e-05
2.1738049225e-05
2.17078534421e-05
2.16201770264e-05
2.17963870929e-05
5.22964943723e-05
0.0061140324582
0.0161105584509
2.1758309828e-05
2.17518931392e-05
2.17373655283e-05
2.17022330261e-05
2.16030043345e-05
2.18180018875e-05
5.39425156912e-05
0.00621541401596
0.0161372293072
2.17599041132e-05
2.1753234994e-05
2.17379996184e-05
2.17016643902e-05
2.15854749027e-05
2.18581915101e-05
5.57752592032e-05
0.0063382349875
0.016145403067
2.17618637923e-05
2.17554559976e-05
2.17409743942e-05
2.17049786717e-05
2.15808568687e-05
2.19026809794e-05
5.7599563347e-05
0.00650519519986
0.0162805767353
2.17669898168e-05
2.1763812662e-05
2.17578447531e-05
2.17450937512e-05
2.17112208986e-05
2.15849750633e-05
2.19597164735e-05
5.94825248293e-05
0.00665312687981
0.0162966841278
2.17702938289e-05
2.17687636787e-05
2.17655544654e-05
2.17596541287e-05
2.17484584915e-05
2.17174780339e-05
2.15871332637e-05
2.20166659039e-05
6.13399539884e-05
0.00677479313568
0.0162886612399
2.17716820433e-05
2.17702235018e-05
2.17671447359e-05
2.176100702e-05
2.17502263619e-05
2.17205592631e-05
2.15839124576e-05
2.20761751867e-05
6.31471764697e-05
0.00687324037601
0.0162945408896
2.17715934818e-05
2.17686836618e-05
2.17621522245e-05
2.17504475235e-05
2.17195613911e-05
2.15762524287e-05
2.21422405991e-05
6.48947509751e-05
0.00695820723851
0.016323744888
2.17727995158e-05
2.17700463141e-05
2.17632443376e-05
2.17491073733e-05
2.17149184979e-05
2.15679763043e-05
2.22198314025e-05
6.65524444379e-05
0.00704678569805
0.01636782011
2.17741068441e-05
2.17713435906e-05
2.17640032692e-05
2.1746834743e-05
2.17065003941e-05
2.15698870901e-05
2.23087671952e-05
6.80909790886e-05
0.0071377141208
0.0163464130057
2.17755099551e-05
2.17723672867e-05
2.17640209656e-05
2.1742868915e-05
2.16765216171e-05
2.15550632576e-05
2.23921217729e-05
6.94858731293e-05
0.00723182183637
0.0164510734786
2.17776461675e-05
2.17737545616e-05
2.17645342621e-05
2.1741934007e-05
2.16846965473e-05
2.15794698233e-05
2.2463752348e-05
7.07776447931e-05
0.0072935042595
0.0206056459015
2.17850432546e-05
2.17829159643e-05
2.17784046638e-05
2.17688163232e-05
2.1748115087e-05
2.1701228748e-05
2.15959470368e-05
2.24976895095e-05
7.18568418046e-05
0.00737512349001
0.020656433731
2.18131595606e-05
2.18107760251e-05
2.18062622911e-05
2.17972204917e-05
2.1778907028e-05
2.17277487463e-05
2.16143606151e-05
2.25557384777e-05
7.2512476264e-05
0.00748629438193
0.0206277157809
2.19884282782e-05
2.19862608747e-05
2.19820576792e-05
2.19756813642e-05
2.19692895118e-05
2.19264669276e-05
2.18301766643e-05
2.2728163424e-05
7.49454570713e-05
0.00924548389596
0.0171325005814
)
;
    }
    atmosphere
    {
        type            calculated;
        value           nonuniform List<scalar> 
17
(
0.0205788175011
0.0164385243342
0.0161105584509
0.0161372293072
0.016145403067
0.0162805767353
0.0162966841278
0.0162886612399
0.0162945408896
0.016323744888
0.01636782011
0.0163464130057
0.0164510734786
0.0206056459015
0.020656433731
0.0206277157809
0.0171325005814
)
;
    }
    floatingObject
    {
        type            calculated;
        value           nonuniform List<scalar> 0();
    }
    procBoundary11to9
    {
        type            processor;
        value           nonuniform List<scalar> 9(2.17526217795e-05 2.17464510067e-05 2.17353626128e-05 2.16920404101e-05 2.15651783933e-05 2.16151061069e-05 4.80128703627e-05 0.00576101091114 0.0203960987827);
    }
    procBoundary11to10
    {
        type            processor;
        value           nonuniform List<scalar> 
23
(
2.17581098493e-05
2.175589266e-05
2.175589266e-05
2.1757166209e-05
2.1757166209e-05
2.17617762537e-05
2.17633881967e-05
2.1765149914e-05
2.1765149914e-05
2.17686500051e-05
2.17686500051e-05
2.177129089e-05
2.1772624981e-05
2.17729183195e-05
2.17729183195e-05
2.1774162522e-05
2.1775380194e-05
2.17769092682e-05
2.17793184076e-05
2.17793184076e-05
2.17861104956e-05
2.18147703115e-05
2.19898044381e-05
)
;
    }
}


// ************************************************************************* //
