/*--------------------------------*- C++ -*----------------------------------*\
| =========                 |                                                 |
| \\      /  F ield         | OpenFOAM: The Open Source CFD Toolbox           |
|  \\    /   O peration     | Version:  v2012                                 |
|   \\  /    A nd           | Website:  www.openfoam.com                      |
|    \\/     M anipulation  |                                                 |
\*---------------------------------------------------------------------------*/
FoamFile
{
    version     2.0;
    format      ascii;
    class       volScalarField;
    location    "3.3";
    object      rAU;
}
// * * * * * * * * * * * * * * * * * * * * * * * * * * * * * * * * * * * * * //

dimensions      [-1 3 1 0 0 0 0];


internalField   nonuniform List<scalar> 
166
(
1.74539614198e-05
1.7451634276e-05
1.74489466925e-05
1.74456538074e-05
1.74404011994e-05
1.74349286068e-05
1.74362853587e-05
1.74049305331e-05
1.72507975134e-05
1.71412821539e-05
3.00188490288e-05
0.00375176642303
0.013657832442
1.7457481006e-05
1.74560422506e-05
1.745423862e-05
1.74522808575e-05
1.74499318487e-05
1.74476822583e-05
1.74444498425e-05
1.74412612492e-05
1.74492465026e-05
1.74258056727e-05
1.7257785026e-05
1.70845132528e-05
2.97261036614e-05
0.00367309443847
0.0137159150654
1.76156556864e-05
1.74861507647e-05
1.74588099386e-05
1.74574844285e-05
1.74562351178e-05
1.74547156782e-05
1.74530192785e-05
1.74510189393e-05
1.74494356987e-05
1.74473674397e-05
1.74451749857e-05
1.74572630933e-05
1.74405319987e-05
1.72516591732e-05
1.70500268332e-05
2.95376973183e-05
0.00358771047512
0.013689891082
1.76169588246e-05
1.74871722066e-05
1.74655747289e-05
1.74613320413e-05
1.74592265442e-05
1.74578453758e-05
1.74565236501e-05
1.74551742153e-05
1.74536546702e-05
1.7452049664e-05
1.74504448425e-05
1.74487948596e-05
1.74461056841e-05
1.74586232584e-05
1.74474881522e-05
1.72523544162e-05
1.70359912276e-05
2.93901404876e-05
0.00395174521049
0.0136105833072
1.76185602935e-05
1.74884788002e-05
1.74665300892e-05
1.74620318821e-05
1.74598872629e-05
1.7458267104e-05
1.74568655427e-05
1.74553324605e-05
1.7453717214e-05
1.74520934226e-05
1.7450498733e-05
1.74485882276e-05
1.74448031825e-05
1.74548032076e-05
1.74481717314e-05
1.72559842089e-05
1.70357414116e-05
2.92419888407e-05
0.00407381052565
0.0135742398735
1.76204503442e-05
1.74900307959e-05
1.74678262134e-05
1.7463229819e-05
1.74608366056e-05
1.74590913027e-05
1.74574171053e-05
1.74554831084e-05
1.74536337465e-05
1.74518138177e-05
1.74501587838e-05
1.7447630117e-05
1.74431883713e-05
1.74506445218e-05
1.74459700976e-05
1.72592736385e-05
1.70359388773e-05
2.9117910377e-05
0.00412344445034
0.0135477561713
1.76231136209e-05
1.74926070568e-05
1.74698924921e-05
1.74649485013e-05
1.74622516653e-05
1.74602578113e-05
1.74579093058e-05
1.74558393482e-05
1.74538907027e-05
1.74519186883e-05
1.74498212201e-05
1.74468841718e-05
1.74421300839e-05
1.74480558259e-05
1.74415584899e-05
1.72587388674e-05
1.70356953706e-05
2.90347188464e-05
0.00417957282669
0.0135415032423
1.76268604665e-05
1.74956070787e-05
1.74721518783e-05
1.74664274196e-05
1.74631830478e-05
1.74604763216e-05
1.74579743388e-05
1.74558764738e-05
1.74537334442e-05
1.74516424842e-05
1.74494155787e-05
1.74460712465e-05
1.74411738243e-05
1.74464739755e-05
1.74368192365e-05
1.72541967913e-05
1.70336550799e-05
2.89686545035e-05
0.00432203499924
0.0135340572781
1.76326540922e-05
1.74995117896e-05
1.74748148682e-05
1.74677575354e-05
1.74634791717e-05
1.74600862786e-05
1.74576037306e-05
1.74552410705e-05
1.74530198829e-05
1.74510322709e-05
1.74486762337e-05
1.74450675146e-05
1.74406988359e-05
1.7445083783e-05
1.74330756885e-05
1.72511299089e-05
1.70297235778e-05
2.89397793887e-05
0.00435046128076
0.0135027166835
)
;

boundaryField
{
    back
    {
        type            calculated;
        value           nonuniform List<scalar> 
166
(
1.74539614198e-05
1.7451634276e-05
1.74489466925e-05
1.74456538074e-05
1.74404011994e-05
1.74349286068e-05
1.74362853587e-05
1.74049305331e-05
1.72507975134e-05
1.71412821539e-05
3.00188490288e-05
0.00375176642303
0.013657832442
1.7457481006e-05
1.74560422506e-05
1.745423862e-05
1.74522808575e-05
1.74499318487e-05
1.74476822583e-05
1.74444498425e-05
1.74412612492e-05
1.74492465026e-05
1.74258056727e-05
1.7257785026e-05
1.70845132528e-05
2.97261036614e-05
0.00367309443847
0.0137159150654
1.76156556864e-05
1.74861507647e-05
1.74588099386e-05
1.74574844285e-05
1.74562351178e-05
1.74547156782e-05
1.74530192785e-05
1.74510189393e-05
1.74494356987e-05
1.74473674397e-05
1.74451749857e-05
1.74572630933e-05
1.74405319987e-05
1.72516591732e-05
1.70500268332e-05
2.95376973183e-05
0.00358771047512
0.013689891082
1.76169588246e-05
1.74871722066e-05
1.74655747289e-05
1.74613320413e-05
1.74592265442e-05
1.74578453758e-05
1.74565236501e-05
1.74551742153e-05
1.74536546702e-05
1.7452049664e-05
1.74504448425e-05
1.74487948596e-05
1.74461056841e-05
1.74586232584e-05
1.74474881522e-05
1.72523544162e-05
1.70359912276e-05
2.93901404876e-05
0.00395174521049
0.0136105833072
1.76185602935e-05
1.74884788002e-05
1.74665300892e-05
1.74620318821e-05
1.74598872629e-05
1.7458267104e-05
1.74568655427e-05
1.74553324605e-05
1.7453717214e-05
1.74520934226e-05
1.7450498733e-05
1.74485882276e-05
1.74448031825e-05
1.74548032076e-05
1.74481717314e-05
1.72559842089e-05
1.70357414116e-05
2.92419888407e-05
0.00407381052565
0.0135742398735
1.76204503442e-05
1.74900307959e-05
1.74678262134e-05
1.7463229819e-05
1.74608366056e-05
1.74590913027e-05
1.74574171053e-05
1.74554831084e-05
1.74536337465e-05
1.74518138177e-05
1.74501587838e-05
1.7447630117e-05
1.74431883713e-05
1.74506445218e-05
1.74459700976e-05
1.72592736385e-05
1.70359388773e-05
2.9117910377e-05
0.00412344445034
0.0135477561713
1.76231136209e-05
1.74926070568e-05
1.74698924921e-05
1.74649485013e-05
1.74622516653e-05
1.74602578113e-05
1.74579093058e-05
1.74558393482e-05
1.74538907027e-05
1.74519186883e-05
1.74498212201e-05
1.74468841718e-05
1.74421300839e-05
1.74480558259e-05
1.74415584899e-05
1.72587388674e-05
1.70356953706e-05
2.90347188464e-05
0.00417957282669
0.0135415032423
1.76268604665e-05
1.74956070787e-05
1.74721518783e-05
1.74664274196e-05
1.74631830478e-05
1.74604763216e-05
1.74579743388e-05
1.74558764738e-05
1.74537334442e-05
1.74516424842e-05
1.74494155787e-05
1.74460712465e-05
1.74411738243e-05
1.74464739755e-05
1.74368192365e-05
1.72541967913e-05
1.70336550799e-05
2.89686545035e-05
0.00432203499924
0.0135340572781
1.76326540922e-05
1.74995117896e-05
1.74748148682e-05
1.74677575354e-05
1.74634791717e-05
1.74600862786e-05
1.74576037306e-05
1.74552410705e-05
1.74530198829e-05
1.74510322709e-05
1.74486762337e-05
1.74450675146e-05
1.74406988359e-05
1.7445083783e-05
1.74330756885e-05
1.72511299089e-05
1.70297235778e-05
2.89397793887e-05
0.00435046128076
0.0135027166835
)
;
    }
    sides
    {
        type            calculated;
        value           nonuniform List<scalar> 0();
    }
    bottom
    {
        type            calculated;
        value           nonuniform List<scalar> 7(1.76156556864e-05 1.76169588246e-05 1.76185602935e-05 1.76204503442e-05 1.76231136209e-05 1.76268604665e-05 1.76326540922e-05);
    }
    front
    {
        type            calculated;
        value           nonuniform List<scalar> 
166
(
1.74539614198e-05
1.7451634276e-05
1.74489466925e-05
1.74456538074e-05
1.74404011994e-05
1.74349286068e-05
1.74362853587e-05
1.74049305331e-05
1.72507975134e-05
1.71412821539e-05
3.00188490288e-05
0.00375176642303
0.013657832442
1.7457481006e-05
1.74560422506e-05
1.745423862e-05
1.74522808575e-05
1.74499318487e-05
1.74476822583e-05
1.74444498425e-05
1.74412612492e-05
1.74492465026e-05
1.74258056727e-05
1.7257785026e-05
1.70845132528e-05
2.97261036614e-05
0.00367309443847
0.0137159150654
1.76156556864e-05
1.74861507647e-05
1.74588099386e-05
1.74574844285e-05
1.74562351178e-05
1.74547156782e-05
1.74530192785e-05
1.74510189393e-05
1.74494356987e-05
1.74473674397e-05
1.74451749857e-05
1.74572630933e-05
1.74405319987e-05
1.72516591732e-05
1.70500268332e-05
2.95376973183e-05
0.00358771047512
0.013689891082
1.76169588246e-05
1.74871722066e-05
1.74655747289e-05
1.74613320413e-05
1.74592265442e-05
1.74578453758e-05
1.74565236501e-05
1.74551742153e-05
1.74536546702e-05
1.7452049664e-05
1.74504448425e-05
1.74487948596e-05
1.74461056841e-05
1.74586232584e-05
1.74474881522e-05
1.72523544162e-05
1.70359912276e-05
2.93901404876e-05
0.00395174521049
0.0136105833072
1.76185602935e-05
1.74884788002e-05
1.74665300892e-05
1.74620318821e-05
1.74598872629e-05
1.7458267104e-05
1.74568655427e-05
1.74553324605e-05
1.7453717214e-05
1.74520934226e-05
1.7450498733e-05
1.74485882276e-05
1.74448031825e-05
1.74548032076e-05
1.74481717314e-05
1.72559842089e-05
1.70357414116e-05
2.92419888407e-05
0.00407381052565
0.0135742398735
1.76204503442e-05
1.74900307959e-05
1.74678262134e-05
1.7463229819e-05
1.74608366056e-05
1.74590913027e-05
1.74574171053e-05
1.74554831084e-05
1.74536337465e-05
1.74518138177e-05
1.74501587838e-05
1.7447630117e-05
1.74431883713e-05
1.74506445218e-05
1.74459700976e-05
1.72592736385e-05
1.70359388773e-05
2.9117910377e-05
0.00412344445034
0.0135477561713
1.76231136209e-05
1.74926070568e-05
1.74698924921e-05
1.74649485013e-05
1.74622516653e-05
1.74602578113e-05
1.74579093058e-05
1.74558393482e-05
1.74538907027e-05
1.74519186883e-05
1.74498212201e-05
1.74468841718e-05
1.74421300839e-05
1.74480558259e-05
1.74415584899e-05
1.72587388674e-05
1.70356953706e-05
2.90347188464e-05
0.00417957282669
0.0135415032423
1.76268604665e-05
1.74956070787e-05
1.74721518783e-05
1.74664274196e-05
1.74631830478e-05
1.74604763216e-05
1.74579743388e-05
1.74558764738e-05
1.74537334442e-05
1.74516424842e-05
1.74494155787e-05
1.74460712465e-05
1.74411738243e-05
1.74464739755e-05
1.74368192365e-05
1.72541967913e-05
1.70336550799e-05
2.89686545035e-05
0.00432203499924
0.0135340572781
1.76326540922e-05
1.74995117896e-05
1.74748148682e-05
1.74677575354e-05
1.74634791717e-05
1.74600862786e-05
1.74576037306e-05
1.74552410705e-05
1.74530198829e-05
1.74510322709e-05
1.74486762337e-05
1.74450675146e-05
1.74406988359e-05
1.7445083783e-05
1.74330756885e-05
1.72511299089e-05
1.70297235778e-05
2.89397793887e-05
0.00435046128076
0.0135027166835
)
;
    }
    atmosphere
    {
        type            calculated;
        value           nonuniform List<scalar> 9(0.013657832442 0.0137159150654 0.013689891082 0.0136105833072 0.0135742398735 0.0135477561713 0.0135415032423 0.0135340572781 0.0135027166835);
    }
    floatingObject
    {
        type            calculated;
        value           nonuniform List<scalar> 0();
    }
    procBoundary0to1
    {
        type            processor;
        value           nonuniform List<scalar> 10(1.7444400149e-05 1.74368566828e-05 1.74293045832e-05 1.74278709612e-05 1.73899916572e-05 1.72433790608e-05 1.7105313826e-05 3.00011424962e-05 0.00393438664127 0.0137060312889);
    }
    procBoundary0to2
    {
        type            processor;
        value           nonuniform List<scalar> 
14
(
1.74539465019e-05
1.74515655267e-05
1.7448442489e-05
1.74574471078e-05
1.74558582273e-05
1.74558582273e-05
1.76152672923e-05
1.74859337371e-05
1.74586876098e-05
1.74586876098e-05
1.7464648279e-05
1.7464648279e-05
1.74606771272e-05
1.74606771272e-05
)
;
    }
    procBoundary0to4
    {
        type            processor;
        value           nonuniform List<scalar> 8(1.76418360087e-05 1.75059771458e-05 1.74779510445e-05 1.74688282158e-05 1.74634893633e-05 1.74596949773e-05 1.74567358241e-05 1.74540899861e-05);
    }
    procBoundary0to5
    {
        type            processor;
        value           nonuniform List<scalar> 
12
(
1.74519149486e-05
1.74499537526e-05
1.74476582031e-05
1.74444565502e-05
1.74405444463e-05
1.74431974135e-05
1.74306742196e-05
1.72709944252e-05
1.70568921782e-05
2.90712274369e-05
0.00418358732141
0.0133412678012
)
;
    }
}


// ************************************************************************* //
