/*--------------------------------*- C++ -*----------------------------------*\
| =========                 |                                                 |
| \\      /  F ield         | OpenFOAM: The Open Source CFD Toolbox           |
|  \\    /   O peration     | Version:  v2012                                 |
|   \\  /    A nd           | Website:  www.openfoam.com                      |
|    \\/     M anipulation  |                                                 |
\*---------------------------------------------------------------------------*/
FoamFile
{
    version     2.0;
    format      ascii;
    class       surfaceVectorField;
    location    "3.3";
    object      Uf_0;
}
// * * * * * * * * * * * * * * * * * * * * * * * * * * * * * * * * * * * * * //

dimensions      [0 1 -1 0 0 0 0];


internalField   nonuniform List<vector> 
302
(
(0.039623258023 -0.0165353005748 8.3420877658e-24)
(0.0406470773038 -0.0153253736828 9.69823841888e-24)
(0.039738163679 -0.0187787720575 9.32283467286e-24)
(0.040815554736 -0.0175666229528 1.39414815012e-23)
(0.0397640976999 -0.0210592220918 1.5949867292e-24)
(0.0409169245998 -0.0198601302655 1.24010705572e-23)
(0.0396500520641 -0.0233832562035 -2.13922172056e-23)
(0.0409068062654 -0.0222134626001 -7.45431320423e-24)
(0.0393093599706 -0.0257488704369 -4.22166792952e-23)
(0.0407302411264 -0.0246365743391 -2.70108468513e-23)
(0.0385535407617 -0.0281657453649 -1.53844974349e-22)
(0.0402787922479 -0.0271672342067 -5.70911409885e-23)
(0.0369936212277 -0.03063986937 -5.91372643863e-22)
(0.0392947401262 -0.0297415801973 -3.19839507433e-22)
(0.0342076556701 -0.0330852741088 -1.09258568839e-21)
(0.0372247068974 -0.0322576114962 -1.43904469125e-21)
(0.0307112078574 -0.0350533893572 -3.57587699441e-21)
(0.0334948712861 -0.0357440501239 -3.49518202285e-21)
(0.028783586045 -0.0363142441333 -3.8247593478e-21)
(0.0295032787213 -0.0391172190039 -7.46685644511e-21)
(0.0312006307258 -0.0366200027601 -1.90598700691e-21)
(0.0285416155489 -0.0370917672773 -9.42278051422e-21)
(0.0200920871309 -0.0381298935917 -7.71834652414e-22)
(0.0340604515407 -0.0378811099791 -9.08945231436e-21)
(0.00667294275498 -0.043208499177 -3.57335726401e-21)
(0.0414114812502 -0.0119495220571 -7.36241922307e-24)
(0.0423406433485 -0.0107560766647 -1.06174918653e-23)
(0.0416532670103 -0.0141240725522 5.84944547622e-24)
(0.0426137444693 -0.0128945924739 -1.40280017883e-24)
(0.0418731306147 -0.016358110495 1.52976321543e-23)
(0.0428811082676 -0.0151014839625 4.58238744375e-24)
(0.0420436034474 -0.0186560154461 1.70197173855e-23)
(0.0431134808065 -0.017383160682 1.32698641644e-23)
(0.042131233068 -0.0210288867485 3.35177062372e-24)
(0.0432898450396 -0.0197471655311 8.94317808961e-24)
(0.0420916125065 -0.0234982034808 -1.30729428499e-23)
(0.0433762016067 -0.0222102645247 1.51035077455e-24)
(0.0418472938692 -0.0260737013148 -4.18853085446e-23)
(0.0433058468226 -0.0247904899184 -1.96786238424e-23)
(0.0412223815273 -0.0288036327967 -2.23085674072e-22)
(0.0430088579859 -0.0275411903284 -1.41160954309e-22)
(0.0397821145752 -0.0317333474053 -1.16751155482e-21)
(0.0422246023069 -0.0304410973311 -7.87312051621e-22)
(0.0368326994382 -0.0348405380105 -3.84164102571e-21)
(0.0403320387443 -0.0333814928832 -3.00048712151e-21)
(0.0326710175224 -0.0377126260714 -7.38616147355e-21)
(0.0363670591778 -0.0374298712695 -6.1996703862e-21)
(0.0297106081093 -0.0398775162651 -1.30648776115e-20)
(0.0316682024949 -0.0416651652858 -7.24552702913e-21)
(0.031861668327 -0.0411532193234 -1.66062458217e-20)
(0.0298176225689 -0.0389537006217 -1.96974387757e-20)
(0.0209494861175 -0.0436463491059 -1.1890974926e-20)
(0.0365536471388 -0.0418355424532 -1.80716740201e-20)
(0.00837604678939 -0.0519517309459 -9.15606742385e-21)
(0.0405247748629 -0.00178539778816 1.70504017823e-22)
(0.0407576939111 -0.000925221338221 4.20590858152e-23)
(0.0421112072486 -0.00264486906402 3.29143199631e-22)
(0.0432388138178 -0.00958534941372 -3.45877256077e-26)
(0.0440979121548 -0.0084220680682 4.88844840123e-24)
(0.043550029096 -0.0116850148186 -4.65787282108e-24)
(0.0444402347121 -0.0104706059642 -4.41280076975e-24)
(0.0438611083433 -0.0138560573008 -2.66985821129e-24)
(0.0447847458031 -0.012591087353 -3.18475098614e-24)
(0.0441611431882 -0.0161081938674 2.5546194539e-24)
(0.045133236311 -0.0147991014537 -2.96268928482e-24)
(0.0444243565693 -0.0184627405322 5.19332486854e-24)
(0.0454680529097 -0.0171096876383 -1.38798100865e-23)
(0.0446159993332 -0.0209093723575 7.10175824044e-24)
(0.045736537708 -0.0195367580152 -1.55798496603e-23)
(0.0446976103019 -0.0235025901393 -5.0953302179e-24)
(0.0459695162106 -0.022095334371 -1.41953131218e-23)
(0.0446053422763 -0.0262537768562 -1.18954269607e-22)
(0.0460571630224 -0.0248026404671 -1.39284842937e-23)
(0.0441835636239 -0.0291681306737 -7.05387331858e-22)
(0.0459233659464 -0.0277123519863 -2.71507845209e-22)
(0.0429885398728 -0.0323245036401 -2.62028761831e-21)
(0.0453811389446 -0.0308255792182 -1.35162726557e-21)
(0.0401384919607 -0.0357624307991 -5.358516482e-21)
(0.0437701162522 -0.0340242022981 -3.85597568844e-21)
(0.0357448736981 -0.0393520955982 -6.05903594179e-21)
(0.0399568271442 -0.038402613747 -2.98130571886e-21)
(0.0323352590474 -0.0429647804864 -1.38780881933e-20)
(0.0352809210918 -0.0436690903288 -1.21325371642e-21)
(0.0343390085393 -0.0465999937999 -2.11628669741e-20)
(0.0334530548099 -0.0406259269444 -2.02381760078e-20)
(0.02334289352 -0.048761144641 -1.5336766518e-20)
(0.0387147996409 -0.0458436805275 -1.76706792616e-20)
(0.0113652885944 -0.0599175019813 -1.06543497344e-20)
(0.0423170365239 -0.00170869186872 2.00698267624e-22)
(0.0424663150816 -0.000883662195194 -1.86833261243e-22)
(0.0435278629222 -0.00351193629347 2.35132283522e-22)
(0.0439143641025 -0.00252777173077 1.10367922123e-22)
(0.0443536697618 -0.00537102165952 1.31477708139e-22)
(0.0449593799231 -0.0043303623422 2.68225312071e-23)
(0.0448852105856 -0.00729405173961 6.14672779544e-23)
(0.0456290392442 -0.00617736710478 8.00324666385e-23)
(0.0452876145613 -0.00928486475564 5.10235357085e-25)
(0.0460886312417 -0.00810950917406 -3.33170643221e-24)
(0.0456724791196 -0.0113492216713 -2.93967893482e-24)
(0.0465045179393 -0.0101102072196 -9.92168546055e-24)
(0.0460695575043 -0.0135027578393 -3.47758205967e-24)
(0.0469382345723 -0.0121981825753 -4.5112438575e-24)
(0.0464704010209 -0.0157617157578 -1.93971188253e-23)
(0.0473921795371 -0.0143942666602 -5.6491139577e-24)
(0.0468541373599 -0.0181413915492 -3.46529846154e-23)
(0.0478477516899 -0.0167172032979 -2.41544598918e-23)
(0.0471859897885 -0.0206790032251 -3.68769210226e-23)
(0.0482742128329 -0.0191903894239 -2.74994698558e-23)
(0.0474251814443 -0.0233554579453 -2.30284671976e-23)
(0.0486460747096 -0.0218294233472 -2.98532447155e-23)
(0.047509564108 -0.0262188149927 -1.66482059896e-22)
(0.0489206585013 -0.0246487072738 -2.28686518277e-23)
(0.0473000815743 -0.0292935914624 -9.17747778922e-22)
(0.0489983048318 -0.0276917412809 -2.89066158777e-22)
(0.0463886704286 -0.032607825305 -2.5873153357e-21)
(0.0486955417246 -0.0309717235364 -1.25510565908e-21)
(0.0438928814362 -0.0362832426151 -1.47876492529e-21)
(0.0474456853035 -0.0343816366858 -3.18631638482e-21)
(0.0398985965822 -0.0405300508037 1.86447650651e-21)
(0.0442037370581 -0.0390285095645 -3.09362902796e-22)
(0.0368999659143 -0.0455214606371 -7.57334153096e-21)
(0.040272362782 -0.045180281834 -1.99232571624e-21)
(0.0380193407319 -0.0512110762922 -1.67459882953e-20)
(0.0391429462019 -0.0419097708662 -1.48004593221e-20)
(0.0266543420437 -0.0534391801354 -1.2988262478e-20)
(0.040942806515 -0.0491094062866 -1.28163840945e-20)
(0.0151475851741 -0.0673443007101 -8.90912853888e-21)
(0.0440281214569 -0.0016340528848 -2.77163606744e-22)
(0.0441003024233 -0.000833809445399 -5.94416652471e-22)
(0.045313533227 -0.00333778099617 -9.79418301921e-23)
(0.0456180150123 -0.00238836680807 -1.99240102642e-22)
(0.0462091335127 -0.0051223299639 -2.46227102939e-23)
(0.0467438386461 -0.00410512412696 -9.14343272604e-23)
(0.0468101289336 -0.00697586312286 1.52334822518e-23)
(0.0474824764679 -0.005867433041 5.36113629671e-23)
(0.0472883439858 -0.00890545585333 -1.37636272498e-23)
(0.0480181311404 -0.00772315426072 -2.18116918838e-24)
(0.0477623278584 -0.0109192184542 -1.14932503832e-23)
(0.0485181999529 -0.00965827043751 -2.71222235014e-24)
(0.0482656512401 -0.0130438708182 -6.68277575552e-24)
(0.0490628283877 -0.0116967070231 -1.91706961225e-24)
(0.0487899181115 -0.0152940539106 -1.04064550242e-23)
(0.0496423353884 -0.0138657005074 -2.63251977351e-25)
(0.0493155667193 -0.0176964402948 -1.70009451322e-23)
(0.0502501492857 -0.0161836671959 5.32149681063e-24)
(0.0498153157198 -0.0202701760983 -2.04757935488e-23)
(0.0508480019017 -0.0186777234516 -6.96928063303e-24)
(0.0502471221559 -0.0230409331445 -2.96934293456e-23)
(0.0514169264043 -0.0213733435011 -1.35291297723e-23)
(0.0505397958738 -0.0260215662905 -1.4545275071e-22)
(0.0519014215734 -0.0242923729793 -4.91634276016e-23)
(0.0505585430002 -0.029238989635 -6.26424038935e-22)
(0.0522158815474 -0.027465335734 -2.64357017309e-22)
(0.0499646621684 -0.0327139048974 -1.85410670821e-21)
(0.0521706163308 -0.0309001991518 -9.42677341477e-22)
(0.0480265230694 -0.0366109174044 -2.01691436233e-21)
(0.0513428400932 -0.0345178844303 -2.57409531914e-21)
(0.0448584533792 -0.0414047161204 -4.16616512555e-21)
(0.0489976302455 -0.039450294689 -1.58121869157e-21)
(0.0428237602521 -0.0472061279851 -9.21944350738e-21)
(0.0460738035642 -0.046123676273 -8.09145803353e-21)
(0.0426921091229 -0.0542630159146 -1.08708551213e-20)
(0.0462001101763 -0.042806026298 -8.87395188682e-21)
(0.0301250909219 -0.0585751975988 -8.73725015539e-21)
(0.0452548930973 -0.0514862014077 -8.190252636e-21)
(0.0201575208416 -0.0721077539063 -4.21577565999e-21)
(0.0456469272967 -0.00152363361307 -5.16493148369e-22)
(0.0456238730175 -0.000773906533317 -7.02480465805e-22)
(0.0470101077239 -0.00313767334258 -1.9273259971e-22)
(0.0472319821916 -0.00222275173326 -2.61944004031e-22)
(0.0479818731376 -0.00482438088666 -1.32002539994e-23)
(0.0484304617052 -0.00383430730056 -1.67539345658e-23)
(0.0486618205349 -0.00659011594396 3.61967115269e-23)
(0.049248117516 -0.00549159095206 7.11003998887e-23)
(0.049229764223 -0.00844149337336 8.87023571132e-24)
(0.0498694115867 -0.00725010847953 6.19370150035e-24)
(0.0498077130232 -0.0103809709685 6.86395842083e-24)
(0.0504575868573 -0.00910294831888 6.10516866888e-24)
(0.0504343118524 -0.0124593198654 4.50245416592e-24)
(0.0511411038559 -0.0110728612917 4.93978083315e-24)
(0.0511071271148 -0.0146813137692 1.54646998575e-23)
(0.051864283749 -0.0131892754427 6.89262096363e-24)
(0.0518051037652 -0.0170754333418 1.53531613098e-23)
(0.0526442594295 -0.0154779197805 2.43538386744e-23)
(0.0525015282295 -0.0196765057413 -2.26168566015e-26)
(0.053449105041 -0.0179689781875 1.34321162431e-23)
(0.0531559798683 -0.0225084206699 -3.29991280283e-23)
(0.0542489116446 -0.0206956945479 -2.66280154777e-25)
(0.053695361774 -0.0255975817965 -1.68067694201e-22)
(0.0549906873427 -0.0236927690301 -4.32344730789e-23)
(0.0539818699862 -0.0289671103978 -5.80610319851e-22)
(0.0555855385829 -0.0269889812953 -1.99023383534e-22)
(0.0537389784352 -0.0326324667744 -1.66266595241e-21)
(0.0558361094443 -0.0305848276918 -6.51573104272e-22)
(0.0524830280266 -0.0367449810392 -2.13839964838e-21)
(0.0554554786294 -0.0344275533938 -1.76358070116e-21)
(0.0503939451902 -0.0417781143559 -5.50651159955e-21)
(0.0540308472023 -0.0397122214682 -1.23390824286e-21)
(0.0495813579315 -0.0482105565974 -7.74596641297e-21)
(0.0525062720326 -0.0466678442659 -2.78907315649e-21)
(0.0486811839923 -0.0558157033109 -6.1933494015e-21)
(0.0538055088449 -0.0435008159337 -6.12948885521e-21)
(0.0350124508983 -0.0606763542845 -3.6687781406e-21)
(0.0501155040034 -0.0530129209045 -6.2481941365e-21)
(0.0244646697868 -0.0692497137716 -3.2270541017e-21)
(0.0471558343295 -0.00141367343301 -4.47931321467e-22)
(0.0470374911933 -0.000702901364408 -5.94194212483e-22)
(0.0485987724318 -0.00290035956474 -8.59653388867e-23)
(0.0487186027878 -0.00202738443204 -1.718201794e-22)
(0.049650240241 -0.00446916333252 6.75467193222e-23)
(0.0499991834472 -0.00351428573607 6.13971197524e-23)
(0.0504148445062 -0.00612157061672 4.10973898621e-23)
(0.0509004250705 -0.0050443965555 1.06061678757e-22)
(0.0510826545875 -0.00786475646437 3.42863445791e-24)
(0.0516124844169 -0.00668124635098 2.07870738042e-23)
(0.0517813109264 -0.00973557588482 4.1809910812e-24)
(0.0523282893619 -0.00842756883127 4.35711391587e-24)
(0.0525528304191 -0.0117304309916 7.32994763086e-24)
(0.0531358509646 -0.0103033708298 3.48853223542e-24)
(0.0533983647281 -0.0138966065897 1.57817597805e-23)
(0.0540303734224 -0.0123390639117 2.41259675219e-24)
(0.0542976124505 -0.0162617546625 2.24327936076e-23)
(0.0550093539931 -0.0145700611031 1.17552463623e-23)
(0.0552241255811 -0.0188626156962 1.31884529449e-23)
(0.0560499511896 -0.017029240504 1.49754394505e-23)
(0.0561384788952 -0.0217283544183 -1.05016252053e-23)
(0.0571146752768 -0.0197579177875 9.43093812797e-24)
(0.0569695544771 -0.0248995629437 -7.41901624116e-23)
(0.0581619578299 -0.0228040145078 -7.70676534597e-24)
(0.0575812145126 -0.0284109001836 -2.69986167956e-22)
(0.0590969683818 -0.0262059899367 -5.91665421884e-23)
(0.0577413838197 -0.0323112268671 -7.52487853023e-22)
(0.0597365480691 -0.0299742438831 -2.44215113467e-22)
(0.0572215885214 -0.036673998921 -8.59089295648e-22)
(0.0598183640928 -0.0340876928794 -7.63058493259e-22)
(0.0563519196425 -0.0420696580402 1.48353020019e-21)
(0.0594265916601 -0.03984092933 -5.17883961971e-22)
(0.0567302320917 -0.0488864055655 -1.17259559873e-21)
(0.0593230526164 -0.0471090879377 8.74963797354e-22)
(0.0542986488372 -0.0563915167351 -6.18433359021e-21)
(0.0613107754011 -0.0441054965107 -4.64699622345e-21)
(0.038371523194 -0.056410512471 -5.8064700976e-21)
(0.0501347242774 -0.0545966309217 -5.12196841597e-21)
(0.0257683349394 -0.0649359209681 -4.59699337889e-21)
(0.0485344818209 -0.00127559392271 -3.18083070416e-22)
(0.0483130416343 -0.000625551249747 -4.2124473169e-22)
(0.0500555891279 -0.00262149621838 -2.44577207608e-23)
(0.0500644452388 -0.00180016397052 -6.68970283064e-23)
(0.0511916014852 -0.00405053876503 9.99120791874e-23)
(0.0514281388989 -0.00313590225692 4.47843442831e-23)
(0.0520464404195 -0.00556836142153 8.57513626994e-23)
(0.052418129253 -0.00451832462247 1.16937503102e-22)
(0.0528186349739 -0.00718733903584 2.17155532622e-23)
(0.0532313163389 -0.00601062221986 3.36149882116e-23)
(0.0536492879857 -0.00893300827489 3.66465507008e-24)
(0.0540737975092 -0.00761877614528 4.32806778924e-24)
(0.0545852919325 -0.0108259051228 -1.42881864326e-24)
(0.0550285878542 -0.00936727556267 -6.92550285336e-24)
(0.0556267459585 -0.0129083321348 -1.61391666599e-24)
(0.05611264497 -0.0112916490502 -4.50091926445e-24)
(0.0567578548699 -0.0152124343028 4.29789220522e-24)
(0.057313338161 -0.0134291699526 -4.8715703401e-24)
(0.0579532198281 -0.0177803463575 1.12179246336e-23)
(0.0586177894524 -0.0158190726497 -4.59801669242e-24)
(0.0591727751729 -0.0206522544962 1.22257979873e-23)
(0.0599865557981 -0.0185136652481 1.54975547825e-23)
(0.0603497532634 -0.0238861147987 7.31685487718e-24)
(0.0613958377443 -0.0215719502787 2.24316435153e-23)
(0.0613559515932 -0.027529585288 -3.33954876998e-23)
(0.0627405045539 -0.0250473340121 4.91459435963e-23)
(0.0620056508698 -0.0316549545504 -2.54785753703e-22)
(0.0638620216917 -0.0289775923106 1.0147724509e-22)
(0.0622927487968 -0.0364448886948 -4.21853159582e-22)
(0.0646084197895 -0.0334002948233 -3.9209142005e-22)
(0.0626881604291 -0.0423269196877 -1.12645036481e-21)
(0.0653087202833 -0.0397410843532 -6.8218574955e-22)
(0.064027426062 -0.0496317764465 -2.59943682736e-21)
(0.0666279448107 -0.0475114563376 -4.22128034481e-22)
(0.0577740946193 -0.05693058057 -3.58463104921e-21)
(0.0686098567976 -0.0445746100612 -5.42402344195e-21)
(0.0381749646746 -0.0577183020918 -3.91249169726e-21)
(0.0509229391477 -0.0583059936977 -7.55869823997e-21)
(0.0255227653474 -0.0732562425977 -1.70393828255e-21)
(0.0497658204058 -0.00110551105849 -1.70058689581e-22)
(0.0513638766458 -0.00229334848466 2.34503673748e-24)
(0.0525849392349 -0.003561299638 6.18097681975e-23)
(0.0535360365029 -0.00491994314937 6.4801128614e-23)
(0.054422866883 -0.00638486010958 1.62275027386e-23)
(0.0553952413831 -0.00798060887097 -6.26209013419e-24)
(0.0565048355213 -0.0097393105615 -9.99760347455e-24)
(0.0577576915137 -0.0116969185049 -7.75857293857e-24)
(0.0591452947377 -0.0138958834227 -1.37674792377e-23)
(0.0606455501463 -0.0163866032521 -3.18386543518e-25)
(0.062223918065 -0.0192283151279 2.57034003105e-23)
(0.0638226964324 -0.0224875137096 6.42607322344e-23)
(0.0653203612068 -0.0262184211377 1.84018676386e-22)
(0.0665919115307 -0.0305886419225 -3.58284212569e-23)
(0.067840813407 -0.0357866836499 -6.52424010017e-22)
(0.0695754350389 -0.0423055340976 2.21365807819e-23)
(0.071766632074 -0.0503778711906 -3.24671464907e-21)
(0.0626355091472 -0.0589664409473 -9.39809063271e-21)
(0.0385959494305 -0.0731985355036 -5.35014482526e-21)
)
;

boundaryField
{
    back
    {
        type            calculated;
        value           uniform (0 0 0);
    }
    sides
    {
        type            calculated;
        value           nonuniform List<vector> 0();
    }
    bottom
    {
        type            calculated;
        value           uniform (0 0 0);
    }
    front
    {
        type            calculated;
        value           uniform (0 0 0);
    }
    atmosphere
    {
        type            calculated;
        value           nonuniform List<vector> 9((0 -0.0375951022656 0) (0 -0.0453493064514 0) (0 -0.0517502798037 0) (0 -0.0572213774648 0) (0 -0.0635850209842 0) (0 -0.0649833499407 0) (0 -0.0577137669616 0) (0 -0.0574722149351 0) (0 -0.0731918590225 0));
    }
    floatingObject
    {
        type            calculated;
        value           nonuniform List<vector> 0();
    }
    procBoundary0to1
    {
        type            processor;
        value           nonuniform List<vector> 10((0.038582698445 -0.0221258553721 -8.95808723441e-24) (0.0383645193228 -0.0243608882526 -3.59766629165e-23) (0.037861766417 -0.0266101899551 -9.50033353769e-23) (0.036820437838 -0.0287454281823 -2.8858271266e-22) (0.0347791101176 -0.0306375385572 -6.20777963964e-22) (0.0315266087079 -0.033191179855 -1.78529312793e-22) (0.0282423627109 -0.03588876896 -3.43437267219e-21) (0.0282354221777 -0.0352863946811 2.86451719291e-22) (0.0325499091281 -0.0347410746727 8.22696691439e-23) (0.00720701572871 -0.0358117756925 1.63146221392e-21));
    }
    procBoundary0to2
    {
        type            processor;
        value           nonuniform List<vector> 
14
(
(0.0384436162501 -0.0155012525001 5.93518033916e-24)
(0.0385720574548 -0.0176931650274 1.00586717416e-23)
(0.0386364278066 -0.0199021110505 1.48842351556e-23)
(0.0402256029145 -0.0109921471272 -1.16394493323e-23)
(0.039457424621 -0.0143318125924 1.24052672365e-23)
(0.0404392501146 -0.0131344363061 8.55647429384e-24)
(0.0389724355055 -0.000961347070685 -2.64429622875e-22)
(0.0402539492547 -0.00274244424256 1.00637229714e-22)
(0.0411594633618 -0.0098343053547 -2.92285675384e-23)
(0.0420619328203 -0.00867605178871 -1.86456633987e-23)
(0.0416641246754 -0.00364281611441 2.64676887406e-22)
(0.0431004756716 -0.00451670303856 1.70665971297e-22)
(0.0429008329122 -0.00754916080845 7.3529188819e-23)
(0.0437061716919 -0.00643093434188 1.30108018372e-22)
)
;
    }
    procBoundary0to4
    {
        type            processor;
        value           nonuniform List<vector> 8((0.0494185215825 -0.00053318549684 -3.00807668259e-22) (0.0512522333016 -0.00153597951499 -3.5834980282e-23) (0.0526960075234 -0.00269532638648 -1.39948925261e-23) (0.0537766507939 -0.00390460847869 8.3072832153e-23) (0.0546960758212 -0.00522580096662 2.29914772082e-23) (0.0556693663792 -0.00666651219796 1.4274267846e-24) (0.0567870782343 -0.00825541615838 -1.11647807426e-23) (0.0580700527466 -0.0100306260665 -7.69688063994e-24));
    }
    procBoundary0to5
    {
        type            processor;
        value           nonuniform List<vector> 
12
(
(0.0595121236584 -0.0120304527247 -7.7447890611e-24)
(0.0611083872957 -0.0143038556687 -1.26783895968e-23)
(0.0628282048494 -0.0169112098156 8.69933476555e-24)
(0.0646550299894 -0.0199211066122 3.2828902282e-23)
(0.0664714629753 -0.0234151350802 1.13663024946e-22)
(0.0682323426967 -0.0274558036574 1.90324164204e-22)
(0.0698065858074 -0.0321438757402 -3.65618314668e-22)
(0.0718276704953 -0.0390027885329 -1.63740164498e-21)
(0.0747003197269 -0.0472111270415 -2.74744939292e-21)
(0.0771989160908 -0.0444577062687 -6.20731507997e-21)
(0.0651554296629 -0.064453745284 -9.19144236541e-21)
(0.0255166468589 -0.0931229471049 5.37688810707e-22)
)
;
    }
}


// ************************************************************************* //
