/*--------------------------------*- C++ -*----------------------------------*\
| =========                 |                                                 |
| \\      /  F ield         | OpenFOAM: The Open Source CFD Toolbox           |
|  \\    /   O peration     | Version:  v2012                                 |
|   \\  /    A nd           | Website:  www.openfoam.com                      |
|    \\/     M anipulation  |                                                 |
\*---------------------------------------------------------------------------*/
FoamFile
{
    version     2.0;
    format      ascii;
    class       volScalarField;
    location    "5.6";
    object      epsilon_0;
}
// * * * * * * * * * * * * * * * * * * * * * * * * * * * * * * * * * * * * * //

dimensions      [0 2 -3 0 0 0 0];


internalField   nonuniform List<scalar> 
164
(
0.000455461649896
0.000473851172727
0.000521277993662
0.000539957629053
0.000547560950154
0.000551270400154
0.000553853167027
0.000556323621227
0.000455443599794
0.000473759307112
0.000521271312537
0.000540030036512
0.000547691140782
0.000551440386234
0.000554052242879
0.000556546483546
0.00045521424927
0.000473472026124
0.00052104838975
0.00053988109092
0.000547603643466
0.000551399045442
0.000554047992769
0.000556573928484
0.000559373353786
0.000562730314363
0.000454768994755
0.00047298298694
0.00052060253647
0.00053950425607
0.000547292654625
0.000551142061152
0.000553836786027
0.000556404057946
0.000559241732076
0.000562632263578
0.000454113125648
0.000472285962512
0.000519923085789
0.00053889075314
0.000546752052283
0.00055066524524
0.000553416235623
0.000556036967462
0.000558928129687
0.000562371641473
0.000453250381269
0.000471378863018
0.00051900522495
0.000538035497808
0.000545976961213
0.000549965417236
0.000552784993614
0.000555472551185
0.000558434165969
0.000561958727271
0.000452167831335
0.000470252317821
0.000517839779668
0.000536930010909
0.000544962486379
0.000549040329998
0.000551943201497
0.000554713205818
0.000557765118367
0.000561407252237
0.000450839996085
0.000468880625097
0.000516415754181
0.000535569563486
0.000543705653897
0.000547888683739
0.000550891750925
0.000553763001665
0.000556929440869
0.000560733195211
0.000449254217891
0.000467263235308
0.000514728426802
0.000533950607793
0.000542203957954
0.000546509232806
0.000549631278743
0.000552625023296
0.000555932811985
0.000559942094533
0.000447407427986
0.000465401181502
0.000512775160656
0.00053206943562
0.000540454312994
0.000544900249629
0.00054816176107
0.000551299737938
0.000554773402746
0.000559019617564
0.00044529415739
0.000463289854488
0.000510554067411
0.000529923368742
0.00053845418869
0.000543060348088
0.000546482466777
0.000549786473038
0.000553445012384
0.000557936389933
0.000442907869656
0.00046092555876
0.000508064675489
0.000527512034886
0.000536202538674
0.000540988985862
0.00054459437553
0.000548086662219
0.000551946889746
0.000556678030098
0.000440246264633
0.000458313678109
0.000505310205288
0.000524837516239
0.000533701394932
0.000538688274826
0.000542500750114
0.000546205625387
0.000550287684556
0.000555256123539
0.000437309421261
0.00045545988053
0.000502299322961
0.000521906721975
0.00053095556847
0.00053616274718
0.000540207509421
0.000544152668841
0.000548479745169
0.000553691020846
0.000434113447829
0.000452375919475
0.000499044655477
0.000518730882614
0.00052797394053
0.000533420614168
0.000537724768609
0.000541939650095
0.00054653816857
0.000551989263122
0.000430655298632
0.000449082579096
0.000495569769138
0.000515328272314
0.000524771975593
0.000530473785666
0.000535062382628
0.000539578983197
0.000544472123686
0.000550174985517
0.000426982059206
0.000445621603304
0.000491909057473
0.000511732288304
0.00052136555212
0.00052733035373
0.000532220318329
0.000517780270718
)
;

boundaryField
{
    back
    {
        lowReCorrection 0;
        blending        stepwise;
        n               2;
        type            epsilonWallFunction;
        value           nonuniform List<scalar> 
164
(
0.000455461649896
0.000473851172727
0.000521277993662
0.000539957629053
0.000547560950154
0.000551270400154
0.000553853167027
0.000556323621227
0.000455443599794
0.000473759307112
0.000521271312537
0.000540030036512
0.000547691140782
0.000551440386234
0.000554052242879
0.000556546483546
0.00045521424927
0.000473472026124
0.00052104838975
0.00053988109092
0.000547603643466
0.000551399045442
0.000554047992769
0.000556573928484
0.000559373353786
0.000562730314363
0.000454768994755
0.00047298298694
0.00052060253647
0.00053950425607
0.000547292654625
0.000551142061152
0.000553836786027
0.000556404057946
0.000559241732076
0.000562632263578
0.000454113125648
0.000472285962512
0.000519923085789
0.00053889075314
0.000546752052283
0.00055066524524
0.000553416235623
0.000556036967462
0.000558928129687
0.000562371641473
0.000453250381269
0.000471378863018
0.00051900522495
0.000538035497808
0.000545976961213
0.000549965417236
0.000552784993614
0.000555472551185
0.000558434165969
0.000561958727271
0.000452167831335
0.000470252317821
0.000517839779668
0.000536930010909
0.000544962486379
0.000549040329998
0.000551943201497
0.000554713205818
0.000557765118367
0.000561407252237
0.000450839996085
0.000468880625097
0.000516415754181
0.000535569563486
0.000543705653897
0.000547888683739
0.000550891750925
0.000553763001665
0.000556929440869
0.000560733195211
0.000449254217891
0.000467263235308
0.000514728426802
0.000533950607793
0.000542203957954
0.000546509232806
0.000549631278743
0.000552625023296
0.000555932811985
0.000559942094533
0.000447407427986
0.000465401181502
0.000512775160656
0.00053206943562
0.000540454312994
0.000544900249629
0.00054816176107
0.000551299737938
0.000554773402746
0.000559019617564
0.00044529415739
0.000463289854488
0.000510554067411
0.000529923368742
0.00053845418869
0.000543060348088
0.000546482466777
0.000549786473038
0.000553445012384
0.000557936389933
0.000442907869656
0.00046092555876
0.000508064675489
0.000527512034886
0.000536202538674
0.000540988985862
0.00054459437553
0.000548086662219
0.000551946889746
0.000556678030098
0.000440246264633
0.000458313678109
0.000505310205288
0.000524837516239
0.000533701394932
0.000538688274826
0.000542500750114
0.000546205625387
0.000550287684556
0.000555256123539
0.000437309421261
0.00045545988053
0.000502299322961
0.000521906721975
0.00053095556847
0.00053616274718
0.000540207509421
0.000544152668841
0.000548479745169
0.000553691020846
0.000434113447829
0.000452375919475
0.000499044655477
0.000518730882614
0.00052797394053
0.000533420614168
0.000537724768609
0.000541939650095
0.00054653816857
0.000551989263122
0.000430655298632
0.000449082579096
0.000495569769138
0.000515328272314
0.000524771975593
0.000530473785666
0.000535062382628
0.000539578983197
0.000544472123686
0.000550174985517
0.000426982059206
0.000445621603304
0.000491909057473
0.000511732288304
0.00052136555212
0.00052733035373
0.000532220318329
0.000517780270718
)
;
    }
    sides
    {
        lowReCorrection 0;
        blending        stepwise;
        n               2;
        type            epsilonWallFunction;
        value           nonuniform List<scalar> 0();
    }
    bottom
    {
        lowReCorrection 0;
        blending        stepwise;
        n               2;
        type            epsilonWallFunction;
        value           nonuniform List<scalar> 
17
(
0.000455461649896
0.000455443599794
0.00045521424927
0.000454768994755
0.000454113125648
0.000453250381269
0.000452167831335
0.000450839996085
0.000449254217891
0.000447407427986
0.00044529415739
0.000442907869656
0.000440246264633
0.000437309421261
0.000434113447829
0.000430655298632
0.000426982059206
)
;
    }
    front
    {
        lowReCorrection 0;
        blending        stepwise;
        n               2;
        type            epsilonWallFunction;
        value           nonuniform List<scalar> 
164
(
0.000455461649896
0.000473851172727
0.000521277993662
0.000539957629053
0.000547560950154
0.000551270400154
0.000553853167027
0.000556323621227
0.000455443599794
0.000473759307112
0.000521271312537
0.000540030036512
0.000547691140782
0.000551440386234
0.000554052242879
0.000556546483546
0.00045521424927
0.000473472026124
0.00052104838975
0.00053988109092
0.000547603643466
0.000551399045442
0.000554047992769
0.000556573928484
0.000559373353786
0.000562730314363
0.000454768994755
0.00047298298694
0.00052060253647
0.00053950425607
0.000547292654625
0.000551142061152
0.000553836786027
0.000556404057946
0.000559241732076
0.000562632263578
0.000454113125648
0.000472285962512
0.000519923085789
0.00053889075314
0.000546752052283
0.00055066524524
0.000553416235623
0.000556036967462
0.000558928129687
0.000562371641473
0.000453250381269
0.000471378863018
0.00051900522495
0.000538035497808
0.000545976961213
0.000549965417236
0.000552784993614
0.000555472551185
0.000558434165969
0.000561958727271
0.000452167831335
0.000470252317821
0.000517839779668
0.000536930010909
0.000544962486379
0.000549040329998
0.000551943201497
0.000554713205818
0.000557765118367
0.000561407252237
0.000450839996085
0.000468880625097
0.000516415754181
0.000535569563486
0.000543705653897
0.000547888683739
0.000550891750925
0.000553763001665
0.000556929440869
0.000560733195211
0.000449254217891
0.000467263235308
0.000514728426802
0.000533950607793
0.000542203957954
0.000546509232806
0.000549631278743
0.000552625023296
0.000555932811985
0.000559942094533
0.000447407427986
0.000465401181502
0.000512775160656
0.00053206943562
0.000540454312994
0.000544900249629
0.00054816176107
0.000551299737938
0.000554773402746
0.000559019617564
0.00044529415739
0.000463289854488
0.000510554067411
0.000529923368742
0.00053845418869
0.000543060348088
0.000546482466777
0.000549786473038
0.000553445012384
0.000557936389933
0.000442907869656
0.00046092555876
0.000508064675489
0.000527512034886
0.000536202538674
0.000540988985862
0.00054459437553
0.000548086662219
0.000551946889746
0.000556678030098
0.000440246264633
0.000458313678109
0.000505310205288
0.000524837516239
0.000533701394932
0.000538688274826
0.000542500750114
0.000546205625387
0.000550287684556
0.000555256123539
0.000437309421261
0.00045545988053
0.000502299322961
0.000521906721975
0.00053095556847
0.00053616274718
0.000540207509421
0.000544152668841
0.000548479745169
0.000553691020846
0.000434113447829
0.000452375919475
0.000499044655477
0.000518730882614
0.00052797394053
0.000533420614168
0.000537724768609
0.000541939650095
0.00054653816857
0.000551989263122
0.000430655298632
0.000449082579096
0.000495569769138
0.000515328272314
0.000524771975593
0.000530473785666
0.000535062382628
0.000539578983197
0.000544472123686
0.000550174985517
0.000426982059206
0.000445621603304
0.000491909057473
0.000511732288304
0.00052136555212
0.00052733035373
0.000532220318329
0.000517780270718
)
;
    }
    atmosphere
    {
        type            inletOutlet;
        inletValue      nonuniform List<scalar> 0();
        value           nonuniform List<scalar> 0();
    }
    floatingObject
    {
        lowReCorrection 0;
        blending        stepwise;
        n               2;
        type            epsilonWallFunction;
        value           nonuniform List<scalar> 0();
    }
    procBoundary4to0
    {
        type            processor;
        value           nonuniform List<scalar> 8(0.000455264160047 0.000473741015693 0.000521069183475 0.000539667224367 0.000547215984182 0.000550891864572 0.00055345282399 0.000555907150988);
    }
    procBoundary4to3
    {
        type            processor;
        value           nonuniform List<scalar> 
13
(
0.00053706944098
0.000542316414367
0.000548304752728
0.000423112269243
0.000442035339908
0.000488113427615
0.000507970705333
0.000523979635793
0.00053706944098
0.000529160350345
0.000507970705333
0.000523979635793
0.000514013448987
)
;
    }
    procBoundary4to5
    {
        type            processor;
        value           nonuniform List<scalar> 
18
(
0.00055907679841
0.000559318571945
0.000559318571945
0.000562657160233
0.000567232793343
0.000567148809337
0.000566942557052
0.000566647215038
0.000566308556264
0.000565964056966
0.000565606605814
0.000565164507779
0.000564524543959
0.000563617005583
0.000562466203566
0.000561120773841
0.000559561794789
0.000557787266858
)
;
    }
}


// ************************************************************************* //
