/*--------------------------------*- C++ -*----------------------------------*\
| =========                 |                                                 |
| \\      /  F ield         | OpenFOAM: The Open Source CFD Toolbox           |
|  \\    /   O peration     | Version:  v2012                                 |
|   \\  /    A nd           | Website:  www.openfoam.com                      |
|    \\/     M anipulation  |                                                 |
\*---------------------------------------------------------------------------*/
FoamFile
{
    version     2.0;
    format      ascii;
    class       volScalarField;
    location    "5.6";
    object      epsilon;
}
// * * * * * * * * * * * * * * * * * * * * * * * * * * * * * * * * * * * * * //

dimensions      [0 2 -3 0 0 0 0];


internalField   nonuniform List<scalar> 
164
(
0.000450039867397
0.000468278588949
0.000515151463615
0.000533620699681
0.000541141879803
0.00054481262986
0.00054736874271
0.000549813755002
0.000450022819447
0.00046819196653
0.000515150837964
0.000533699573174
0.000541278401565
0.000544988593345
0.000547573329777
0.00055004158521
0.000449796765323
0.000467911588037
0.000514936125288
0.000533559427384
0.00054119958677
0.000544955524241
0.00054757676666
0.000550076025737
0.000552846184688
0.000556169737975
0.00044935612668
0.000467431317018
0.000514500736786
0.000533193769512
0.000540899647766
0.000544709094398
0.000547375436707
0.00054991522705
0.000552722770829
0.000556078684498
0.000448706519828
0.000466744982525
0.000513834155141
0.000532593902495
0.000540372437038
0.000544245063142
0.00054696690577
0.00054955927553
0.000552419170501
0.000555826555911
0.000447853982215
0.00046584976353
0.000512930960477
0.00053175434614
0.000539612902895
0.00054356013131
0.000546349690973
0.000549007870122
0.000551936919156
0.000555423451725
0.000446787961479
0.000464735830959
0.000511781373544
0.000530666219589
0.000538615882624
0.000542651914578
0.00054552385328
0.000548263366368
0.00055128127734
0.000554883150057
0.000445481091868
0.000463378578874
0.000510375130546
0.00052932503217
0.000537378442559
0.00054151911666
0.000544490359104
0.000547329903885
0.000550460760727
0.000554221748118
0.00044391868143
0.000461777495092
0.000508707772342
0.000527727483424
0.000535898164772
0.000540160403538
0.00054324962169
0.000546210450699
0.000549481151725
0.000553445194254
0.000442097460496
0.000459933671028
0.00050677662228
0.000525869800799
0.000534171883508
0.000538573963267
0.000541801539026
0.000544905308816
0.000548340355098
0.000552538947201
0.000440011968774
0.000457842545147
0.000504579757139
0.000523749241568
0.000532196986601
0.00053675830759
0.000540145210446
0.000543413572365
0.000547031945204
0.000551473735508
0.00043765572295
0.000455500437254
0.000502116651241
0.000521365360575
0.000529972305397
0.000534712687717
0.000538281329728
0.000541736333995
0.000545554778143
0.000550234678311
0.000435026378615
0.000452912733966
0.000499390454892
0.000518720088233
0.000527499663402
0.000532438964662
0.00053621287274
0.000539878557734
0.000543916972249
0.000548832352023
0.00043212407035
0.000450085126129
0.000496409714097
0.000515820161892
0.00052478368513
0.000529941466864
0.000533945508939
0.000537849225663
0.000542130509338
0.000547286430708
0.000428964500722
0.00044702934043
0.000493186970482
0.000512676636285
0.000521833073418
0.000527228161959
0.000531489083361
0.000535659905678
0.00054021007316
0.000545603532332
0.000425545223796
0.000443766109606
0.000489745565426
0.000509307776565
0.00051866300881
0.000524310887207
0.000528853217678
0.000533322607579
0.000538164390165
0.0005438070003
0.000421912196219
0.000440336927245
0.000486119984261
0.000505746352823
0.000515289770223
0.000521197406633
0.000526037889969
0.000511737821377
)
;

boundaryField
{
    back
    {
        lowReCorrection 0;
        blending        stepwise;
        n               2;
        type            epsilonWallFunction;
        value           nonuniform List<scalar> 
164
(
0.000450039867397
0.000468278588949
0.000515151463615
0.000533620699681
0.000541141879803
0.00054481262986
0.00054736874271
0.000549813755002
0.000450022819447
0.00046819196653
0.000515150837964
0.000533699573174
0.000541278401565
0.000544988593345
0.000547573329777
0.00055004158521
0.000449796765323
0.000467911588037
0.000514936125288
0.000533559427384
0.00054119958677
0.000544955524241
0.00054757676666
0.000550076025737
0.000552846184688
0.000556169737975
0.00044935612668
0.000467431317018
0.000514500736786
0.000533193769512
0.000540899647766
0.000544709094398
0.000547375436707
0.00054991522705
0.000552722770829
0.000556078684498
0.000448706519828
0.000466744982525
0.000513834155141
0.000532593902495
0.000540372437038
0.000544245063142
0.00054696690577
0.00054955927553
0.000552419170501
0.000555826555911
0.000447853982215
0.00046584976353
0.000512930960477
0.00053175434614
0.000539612902895
0.00054356013131
0.000546349690973
0.000549007870122
0.000551936919156
0.000555423451725
0.000446787961479
0.000464735830959
0.000511781373544
0.000530666219589
0.000538615882624
0.000542651914578
0.00054552385328
0.000548263366368
0.00055128127734
0.000554883150057
0.000445481091868
0.000463378578874
0.000510375130546
0.00052932503217
0.000537378442559
0.00054151911666
0.000544490359104
0.000547329903885
0.000550460760727
0.000554221748118
0.00044391868143
0.000461777495092
0.000508707772342
0.000527727483424
0.000535898164772
0.000540160403538
0.00054324962169
0.000546210450699
0.000549481151725
0.000553445194254
0.000442097460496
0.000459933671028
0.00050677662228
0.000525869800799
0.000534171883508
0.000538573963267
0.000541801539026
0.000544905308816
0.000548340355098
0.000552538947201
0.000440011968774
0.000457842545147
0.000504579757139
0.000523749241568
0.000532196986601
0.00053675830759
0.000540145210446
0.000543413572365
0.000547031945204
0.000551473735508
0.00043765572295
0.000455500437254
0.000502116651241
0.000521365360575
0.000529972305397
0.000534712687717
0.000538281329728
0.000541736333995
0.000545554778143
0.000550234678311
0.000435026378615
0.000452912733966
0.000499390454892
0.000518720088233
0.000527499663402
0.000532438964662
0.00053621287274
0.000539878557734
0.000543916972249
0.000548832352023
0.00043212407035
0.000450085126129
0.000496409714097
0.000515820161892
0.00052478368513
0.000529941466864
0.000533945508939
0.000537849225663
0.000542130509338
0.000547286430708
0.000428964500722
0.00044702934043
0.000493186970482
0.000512676636285
0.000521833073418
0.000527228161959
0.000531489083361
0.000535659905678
0.00054021007316
0.000545603532332
0.000425545223796
0.000443766109606
0.000489745565426
0.000509307776565
0.00051866300881
0.000524310887207
0.000528853217678
0.000533322607579
0.000538164390165
0.0005438070003
0.000421912196219
0.000440336927245
0.000486119984261
0.000505746352823
0.000515289770223
0.000521197406633
0.000526037889969
0.000511737821377
)
;
    }
    sides
    {
        lowReCorrection 0;
        blending        stepwise;
        n               2;
        type            epsilonWallFunction;
        value           nonuniform List<scalar> 0();
    }
    bottom
    {
        lowReCorrection 0;
        blending        stepwise;
        n               2;
        type            epsilonWallFunction;
        value           nonuniform List<scalar> 
17
(
0.000450039867397
0.000450022819447
0.000449796765323
0.00044935612668
0.000448706519828
0.000447853982215
0.000446787961479
0.000445481091868
0.00044391868143
0.000442097460496
0.000440011968774
0.00043765572295
0.000435026378615
0.00043212407035
0.000428964500722
0.000425545223796
0.000421912196219
)
;
    }
    front
    {
        lowReCorrection 0;
        blending        stepwise;
        n               2;
        type            epsilonWallFunction;
        value           nonuniform List<scalar> 
164
(
0.000450039867397
0.000468278588949
0.000515151463615
0.000533620699681
0.000541141879803
0.00054481262986
0.00054736874271
0.000549813755002
0.000450022819447
0.00046819196653
0.000515150837964
0.000533699573174
0.000541278401565
0.000544988593345
0.000547573329777
0.00055004158521
0.000449796765323
0.000467911588037
0.000514936125288
0.000533559427384
0.00054119958677
0.000544955524241
0.00054757676666
0.000550076025737
0.000552846184688
0.000556169737975
0.00044935612668
0.000467431317018
0.000514500736786
0.000533193769512
0.000540899647766
0.000544709094398
0.000547375436707
0.00054991522705
0.000552722770829
0.000556078684498
0.000448706519828
0.000466744982525
0.000513834155141
0.000532593902495
0.000540372437038
0.000544245063142
0.00054696690577
0.00054955927553
0.000552419170501
0.000555826555911
0.000447853982215
0.00046584976353
0.000512930960477
0.00053175434614
0.000539612902895
0.00054356013131
0.000546349690973
0.000549007870122
0.000551936919156
0.000555423451725
0.000446787961479
0.000464735830959
0.000511781373544
0.000530666219589
0.000538615882624
0.000542651914578
0.00054552385328
0.000548263366368
0.00055128127734
0.000554883150057
0.000445481091868
0.000463378578874
0.000510375130546
0.00052932503217
0.000537378442559
0.00054151911666
0.000544490359104
0.000547329903885
0.000550460760727
0.000554221748118
0.00044391868143
0.000461777495092
0.000508707772342
0.000527727483424
0.000535898164772
0.000540160403538
0.00054324962169
0.000546210450699
0.000549481151725
0.000553445194254
0.000442097460496
0.000459933671028
0.00050677662228
0.000525869800799
0.000534171883508
0.000538573963267
0.000541801539026
0.000544905308816
0.000548340355098
0.000552538947201
0.000440011968774
0.000457842545147
0.000504579757139
0.000523749241568
0.000532196986601
0.00053675830759
0.000540145210446
0.000543413572365
0.000547031945204
0.000551473735508
0.00043765572295
0.000455500437254
0.000502116651241
0.000521365360575
0.000529972305397
0.000534712687717
0.000538281329728
0.000541736333995
0.000545554778143
0.000550234678311
0.000435026378615
0.000452912733966
0.000499390454892
0.000518720088233
0.000527499663402
0.000532438964662
0.00053621287274
0.000539878557734
0.000543916972249
0.000548832352023
0.00043212407035
0.000450085126129
0.000496409714097
0.000515820161892
0.00052478368513
0.000529941466864
0.000533945508939
0.000537849225663
0.000542130509338
0.000547286430708
0.000428964500722
0.00044702934043
0.000493186970482
0.000512676636285
0.000521833073418
0.000527228161959
0.000531489083361
0.000535659905678
0.00054021007316
0.000545603532332
0.000425545223796
0.000443766109606
0.000489745565426
0.000509307776565
0.00051866300881
0.000524310887207
0.000528853217678
0.000533322607579
0.000538164390165
0.0005438070003
0.000421912196219
0.000440336927245
0.000486119984261
0.000505746352823
0.000515289770223
0.000521197406633
0.000526037889969
0.000511737821377
)
;
    }
    atmosphere
    {
        type            inletOutlet;
        inletValue      nonuniform List<scalar> 0();
        value           nonuniform List<scalar> 0();
    }
    floatingObject
    {
        lowReCorrection 0;
        blending        stepwise;
        n               2;
        type            epsilonWallFunction;
        value           nonuniform List<scalar> 0();
    }
    procBoundary4to0
    {
        type            processor;
        value           nonuniform List<scalar> 8(0.000449843290578 0.000468165230715 0.000514938930938 0.000533326305084 0.00054079307176 0.000544430616903 0.000546965351161 0.000549394734665);
    }
    procBoundary4to3
    {
        type            processor;
        value           nonuniform List<scalar> 
13
(
0.000530836358539
0.000536027949923
0.000541952625051
0.000418084368023
0.000436784117551
0.0004823603213
0.000502020912932
0.00051787789621
0.000530836358539
0.000523005901256
0.000502020912932
0.00051787789621
0.000508006475883
)
;
    }
    procBoundary4to5
    {
        type            processor;
        value           nonuniform List<scalar> 
18
(
0.000552539106763
0.000552785199554
0.000552785199554
0.000556091512575
0.000560633718577
0.000560554591606
0.000560354028185
0.000560064634323
0.000559732015343
0.000559393846161
0.000559044519684
0.000558612646482
0.000557986600012
0.000557096039871
0.000555962428873
0.000554633289416
0.000553091812658
0.000551335911876
)
;
    }
}


// ************************************************************************* //
