/*--------------------------------*- C++ -*----------------------------------*\
| =========                 |                                                 |
| \\      /  F ield         | OpenFOAM: The Open Source CFD Toolbox           |
|  \\    /   O peration     | Version:  v2012                                 |
|   \\  /    A nd           | Website:  www.openfoam.com                      |
|    \\/     M anipulation  |                                                 |
\*---------------------------------------------------------------------------*/
FoamFile
{
    version     2.0;
    format      ascii;
    class       volVectorField;
    location    "2.9";
    object      ddtCorrDdt0(U);
}
// * * * * * * * * * * * * * * * * * * * * * * * * * * * * * * * * * * * * * //

dimensions      [0 1 -2 0 0 0 0];


internalField   nonuniform List<vector> 
164
(
(0.168254736495 -0.0626908444927 2.78342611492e-23)
(0.170427791809 -0.0726516143655 -2.09248502843e-24)
(0.172278335177 -0.0834650200821 -9.33439538307e-24)
(0.173588091491 -0.0951375118273 4.0056346413e-23)
(0.174162367541 -0.107583307876 2.16514654914e-23)
(0.173919812971 -0.120770004712 -3.53319101316e-23)
(0.173070441774 -0.134934382463 -1.75152034393e-22)
(0.172642556318 -0.149939072761 -3.45997948416e-21)
(0.173288596942 -0.159309788154 -4.66772053202e-21)
(0.163363856751 -0.129786162486 7.22257652413e-21)
(0.160673754569 -0.177267895663 3.95731658481e-20)
(-0.395615684912 0.577944903613 1.55557033319e-19)
(0.17792175293 -0.0600986880246 6.2580254809e-23)
(0.180941079174 -0.0702668923574 3.02606388152e-23)
(0.183675874805 -0.0814910534253 1.3190458023e-23)
(0.18588484724 -0.0937735200807 8.06436353495e-23)
(0.187298481212 -0.107046517167 -6.84866735053e-23)
(0.187628423029 -0.121037342396 -4.28727309914e-22)
(0.186973566331 -0.135358190935 1.77656066635e-23)
(0.186262044288 -0.149054547055 -3.94574694353e-21)
(0.186485418386 -0.151492282763 1.71136342716e-20)
(0.198868855213 -0.113609158482 3.64470807202e-20)
(0.472570467747 -0.231489781364 -6.15270149657e-19)
(-1.66020679512 -0.478021985215 -3.25160920336e-19)
(0.195609730445 -0.0785039755158 1.50858006102e-23)
(0.199004040091 -0.0914859402406 1.39926706592e-22)
(0.201460853013 -0.105804703374 -2.72012269498e-23)
(0.202469568133 -0.121160279839 3.35060883417e-23)
(0.20137781501 -0.136697147086 -4.30794477696e-23)
(0.197960325754 -0.150732237975 -4.40889007172e-23)
(0.19103867327 -0.145962200521 9.77513591001e-21)
(0.205281713614 -0.107413495793 2.86871259318e-20)
(0.529128227753 -0.0886135477602 3.04662348839e-18)
(0.431636747257 0.392709017601 1.66337062794e-18)
(0.20802984295 -0.0741770479813 -4.92386313425e-23)
(0.2130491 -0.0878941346028 3.67408088431e-22)
(0.217137242661 -0.103563785204 -1.83480971549e-22)
(0.21943513432 -0.121202150407 -3.15133619024e-22)
(0.218401012453 -0.140077532433 -1.42617368716e-21)
(0.211102147164 -0.158900670535 2.79234394761e-21)
(0.1909014311 -0.153468350137 5.00885985825e-21)
(0.16262745772 -0.104081426227 3.05279443779e-20)
(-0.0757638212006 -0.169040548269 4.417875222e-19)
(-7.03754154882 3.52323702168 3.07681806673e-18)
(0.220807056804 -0.0680667266725 4.78516563528e-23)
(0.228022130135 -0.0823479994948 2.12944689536e-23)
(0.234656965995 -0.0994183838864 -3.31752381122e-22)
(0.239764918431 -0.11998351076 1.59597021555e-22)
(0.241385682867 -0.144647607014 -2.09356906267e-21)
(0.234141857343 -0.175612186982 -1.09275939011e-20)
(0.206875694223 -0.188767036906 1.02175592368e-20)
(0.138435309749 -0.149753012365 2.61552991697e-21)
(-0.144442837246 -0.229619116625 -4.11369223187e-19)
(-2.91190264647 -2.88096887716 1.65418895556e-19)
(0.23362716333 -0.0596854377823 5.0456564139e-24)
(0.243585464489 -0.0740182379103 -4.87815130749e-23)
(0.253766876207 -0.0918575100286 -1.31456315634e-22)
(0.263711745342 -0.114592132809 -1.15647364252e-22)
(0.272024173769 -0.144465602018 3.01836668584e-22)
(0.273666266592 -0.18804600833 3.02816832274e-21)
(0.258409587673 -0.224241680478 3.20171679125e-21)
(0.192446714658 -0.191693884142 -4.89793686479e-20)
(0.161523031982 -0.387702996005 -5.25551965286e-19)
(-2.11809480404 -1.4356033996 -4.31839806278e-19)
(0.245918190661 -0.0486422733454 5.08479494543e-23)
(0.2589458108 -0.0622079587056 1.06547888363e-22)
(0.273273816069 -0.0794760731596 -3.39696432744e-22)
(0.289314050863 -0.102001922668 1.09993861279e-22)
(0.307410677789 -0.132903659074 -8.31161088531e-22)
(0.325080004169 -0.180908571732 1.17432545646e-20)
(0.337727861424 -0.225536973496 -5.84945589334e-21)
(0.298961202089 -0.209677094078 -3.34816073706e-20)
(0.616431212035 -0.382489635698 -3.56717947737e-19)
(-0.528765871178 -2.20800904244 1.2338349802e-18)
(0.25702527459 -0.0348457750947 1.17986830397e-22)
(0.273130601315 -0.0467424195787 -2.00988573357e-24)
(0.291442261968 -0.0619529472229 6.89542857713e-22)
(0.312912330172 -0.0814116884813 2.10106598535e-21)
(0.339670379162 -0.106948574672 3.02146906796e-21)
(0.371914113253 -0.145761265723 -1.6726386284e-20)
(0.411834297461 -0.195583605857 -3.79011922036e-20)
(0.419801882154 -0.203310779499 2.59018235611e-21)
(1.07978950965 -0.346234427625 -1.0258805899e-19)
(1.24136373571 -1.05117376128 -1.8702532342e-19)
(0.266425072878 -0.0183490489577 -6.65937749946e-23)
(0.2852980505 -0.027902057808 6.75479080241e-23)
(0.306950386737 -0.040224212758 9.79936897859e-22)
(0.332047350455 -0.0550520979951 3.31512726987e-21)
(0.36423322752 -0.0729661002756 -1.68442258435e-21)
(0.401976975146 -0.100523567868 -2.23223649707e-20)
(0.451708301014 -0.143625757033 -8.72118840368e-20)
(0.536287939218 -0.164366808023 -1.30428337084e-19)
(1.1816680793 -0.212651541821 -2.90916732496e-19)
(0.750969926473 0.205470284071 -4.61684155006e-19)
(0.27329424947 0.000580592859342 2.002406442e-22)
(0.294606681561 -0.00615142191319 2.50156896511e-22)
(0.31926188585 -0.0153991820465 1.42320913521e-21)
(0.348101039052 -0.0249541333963 5.36177963882e-21)
(0.381491330497 -0.0383391306317 5.94274524382e-21)
(0.421737207136 -0.0584544258403 -2.62060210327e-20)
(0.472355632629 -0.0728189420601 -7.46422974828e-20)
(0.599252290937 -0.0850755730737 -1.87165323354e-19)
(0.898282867265 -0.102749326255 -2.3849564411e-19)
(0.684241959317 0.335725867059 -5.48923059821e-20)
(0.277438193713 0.0213509113026 -1.38082431143e-22)
(0.300664114682 0.0179584606019 3.83317878284e-22)
(0.327562587255 0.0128606233969 1.55951384621e-21)
(0.358953068226 0.00604675165166 8.95520416984e-21)
(0.393368594306 -0.00242670111208 1.91814601639e-20)
(0.434849096254 -0.01498377138 1.41145879687e-20)
(0.477785811403 -0.0135642862981 -3.46451440296e-20)
(0.593584899219 -0.0206398735316 -1.07230768858e-19)
(0.635997048335 0.0342588148839 -2.07005819962e-19)
(0.515400657334 0.345423856702 -6.28971810293e-20)
(0.278512398148 0.0437446475486 -4.5316248615e-22)
(0.303192821157 0.0435705159326 1.14952874076e-22)
(0.331480599734 0.0419877195642 1.30902590525e-21)
(0.363797511807 0.0392947877975 1.05488521824e-20)
(0.401018342767 0.0355344272407 3.52568395904e-20)
(0.4410048069 0.0293798516674 8.95251959031e-20)
(0.469253497209 0.0308663981318 8.39136411026e-20)
(0.54686212467 0.0170534175785 2.10128138894e-19)
(0.488371179754 0.00747125628736 2.48604293491e-19)
(0.292564117346 0.249855472092 7.57559970749e-19)
(0.276298417368 0.0676597369578 3.56534323385e-22)
(0.302315426492 0.0712415869524 5.83436909428e-22)
(0.332064275279 0.0739280567592 8.01459555731e-22)
(0.365753650587 0.0757999398231 2.87674575204e-21)
(0.402992595195 0.0773938824573 2.25203416432e-21)
(0.440342787741 0.0816856538648 2.2258558072e-20)
(0.46173004249 0.0780371608584 5.76043635304e-20)
(0.526571482362 0.0577545004178 1.8347598403e-19)
(0.605569648161 0.107142644534 2.51429470451e-19)
(0.080909547369 0.203246559157 2.58609317495e-19)
(0.270412051157 0.0923211151447 -4.26694797036e-22)
(0.29709742083 0.099513704478 -1.13296172975e-22)
(0.327473486138 0.106094296908 -1.73114174157e-21)
(0.361659050099 0.112076799229 -1.8239926253e-21)
(0.399816393801 0.117439449621 -3.56384770739e-21)
(0.440273439193 0.123335653748 5.55084221965e-22)
(0.468087223254 0.113576775815 9.69601348885e-21)
(0.545131628666 0.102934895083 -6.48934549984e-21)
(0.551510452165 0.114957612476 -3.68434186869e-20)
(0.0850037033396 0.101740889124 -2.63422030887e-19)
(0.261107716074 0.11746728977 2.19653004997e-22)
(0.288306671694 0.128110164501 4.18076283685e-22)
(0.31896732 0.138035201657 -3.12166843473e-22)
(0.35288460862 0.146916648807 1.17187822249e-21)
(0.391350274534 0.154621787687 1.64577361085e-21)
(0.442654081324 0.161935360694 -7.7022798781e-21)
(0.477988936649 0.13600392953 -4.98365437337e-20)
(0.587401171019 0.128353916984 -6.17707074774e-20)
(0.528225692766 0.121053863303 -1.00339989816e-19)
(0.0388083275475 0.113131859054 -2.61986421879e-20)
(0.248349314032 0.143061700541 -3.88110065294e-22)
(0.276237870777 0.157168406567 -5.01297923095e-22)
(0.307897333979 0.170310817041 -1.49127493786e-21)
(0.34316499396 0.182082885085 7.26292479047e-22)
(0.3833237902 0.194789852503 3.27155782448e-21)
(0.43462175462 0.202143011791 -8.3460351088e-21)
(0.478080413881 0.165507274484 -6.02699809886e-21)
(0.64098727981 0.169289164177 1.49788986028e-20)
(0.513583927202 0.224515530803 -1.69971811388e-20)
(-0.0191287558877 0.178814848222 1.44136716277e-19)
)
;

boundaryField
{
    back
    {
        type            calculated;
        value           uniform (0 0 0);
    }
    sides
    {
        type            calculated;
        value           nonuniform List<vector> 0();
    }
    bottom
    {
        type            calculated;
        value           nonuniform List<vector> 0();
    }
    front
    {
        type            calculated;
        value           uniform (0 0 0);
    }
    atmosphere
    {
        type            calculated;
        value           nonuniform List<vector> 
16
(
(-0.368319589071 0.577944903613 1.53323021928e-19)
(-2.34598040111 -0.478021985215 -4.60939051398e-21)
(6.87989010241 0.392709017601 2.34119266737e-18)
(-5.82071500939 3.52323702168 1.00289162645e-18)
(-4.56560839626e-31 -2.88096887716 -7.5386918062e-51)
(0.204050882048 -1.4356033996 2.54007974392e-19)
(-0.679229467782 -2.20800904244 1.14086887289e-18)
(1.76235825746 -1.05117376128 -2.15159335774e-18)
(-1.06126516131 0.205470284071 7.63752701381e-19)
(-0.21168694277 0.335725867059 2.71319358695e-19)
(-0.0291874194909 0.345423856702 6.89752362939e-20)
(0.26964376505 0.249855472092 1.03645550142e-18)
(0.0552082195315 0.203246559157 2.44948957265e-19)
(0.000479724477656 0.101740889124 7.45111995266e-22)
(-0.000141981147192 0.113131859054 2.95267927499e-23)
(0.00741390048113 0.178814848222 -9.54478030585e-21)
)
;
    }
    floatingObject
    {
        type            calculated;
        value           nonuniform List<vector> 0();
    }
    procBoundary5to0
    {
        type            processor;
        value           nonuniform List<vector> 
12
(
(0.158722422335 -0.0645711487973 8.72751805089e-24)
(0.160220374804 -0.0742938637008 1.79427760413e-24)
(0.161382008558 -0.0846609791124 2.46052644631e-23)
(0.162013217197 -0.0956894166951 7.81174589468e-23)
(0.161906582654 -0.107426394076 -7.37209113213e-24)
(0.160966129615 -0.119900108788 -3.14071270266e-22)
(0.15912540917 -0.133580683618 -3.76665310059e-22)
(0.156520835293 -0.14953854681 -1.08901138288e-21)
(0.15185816382 -0.164042252987 1.13748743796e-20)
(0.131690256533 -0.135642858831 1.11215920038e-21)
(-0.123273360493 -0.199730653764 -4.40643013207e-19)
(3.47578874307 0.000889682179725 -8.89725569216e-19)
)
;
    }
    procBoundary5to3
    {
        type            processor;
        value           nonuniform List<vector> 10((0.231783414137 0.169520389877 -4.36705997805e-22) (0.260333286476 0.188034568039 -1.20727869354e-21) (0.292864837561 0.206129997131 -3.49295988447e-22) (0.32938578356 0.22420604967 -6.56672924045e-22) (0.372866324556 0.241918222173 3.0939481192e-21) (0.418568347668 0.254366838234 7.59745965592e-21) (0.474976347434 0.205927220045 4.11454388781e-20) (0.668306096748 0.214675666208 9.45885470641e-20) (0.491359199347 0.360013960964 -1.96843618313e-21) (-0.039385049194 0.313568683535 -2.52948020436e-19));
    }
    procBoundary5to4
    {
        type            processor;
        value           nonuniform List<vector> 
18
(
(0.165954764739 -0.0535099767861 -5.29379333302e-24)
(0.174835699064 -0.0508851167186 5.1085660715e-24)
(0.187616885816 -0.0565875009013 4.2389169084e-24)
(0.19170508096 -0.0668926475945 -1.71474400584e-23)
(0.19170508096 -0.0668926475945 -1.71474400584e-23)
(0.202631105997 -0.062267841762 1.90335354054e-23)
(0.21355464845 -0.0560854052074 6.16987001942e-23)
(0.224185185298 -0.048037324601 5.90538759093e-23)
(0.234104930345 -0.0378899059513 8.77229290446e-24)
(0.242816168436 -0.0255781788598 -6.94732723809e-23)
(0.249916082389 -0.0111193711533 -8.04276628735e-23)
(0.254866863691 0.00520909233974 -1.87917041745e-22)
(0.257328265822 0.0232189755283 -4.39033840805e-23)
(0.257056140139 0.042621252131 7.00323346804e-23)
(0.253771159433 0.0632120533508 -7.20711288599e-23)
(0.247223461354 0.0845075546291 7.67335668764e-23)
(0.237431698555 0.106288692512 -5.02705160086e-23)
(0.224273832008 0.128388500014 9.73710598191e-23)
)
;
    }
}


// ************************************************************************* //
