/*--------------------------------*- C++ -*----------------------------------*\
| =========                 |                                                 |
| \\      /  F ield         | OpenFOAM: The Open Source CFD Toolbox           |
|  \\    /   O peration     | Version:  v2012                                 |
|   \\  /    A nd           | Website:  www.openfoam.com                      |
|    \\/     M anipulation  |                                                 |
\*---------------------------------------------------------------------------*/
FoamFile
{
    version     2.0;
    format      ascii;
    class       volScalarField;
    location    "4.3";
    object      ddt0(k);
}
// * * * * * * * * * * * * * * * * * * * * * * * * * * * * * * * * * * * * * //

dimensions      [0 2 -3 0 0 0 0];


internalField   nonuniform List<scalar> 
167
(
-0.000964356476101
-0.000986894473181
-0.00104641744375
-0.00121435811515
-0.00178252088956
-0.00358844032207
-0.00659722059496
0.0282965612034
0.115429977357
-0.000990940006188
-0.00105807662505
-0.00125034774717
-0.00191685228133
-0.00408774520428
-0.00923529192254
-0.00230341655987
0.203063201865
-0.000997514026139
-0.0010765234522
-0.00130409719043
-0.00208291544517
-0.00456918647681
-0.0109742224215
-0.0258893716907
0.25030006992
-0.000970421203879
-0.00100626001526
-0.00110194519592
-0.00137952123884
-0.00228776446388
-0.00502793393193
-0.011704239842
-0.0309224038491
-0.0268472537357
-0.000973992082138
-0.00101526197125
-0.00112610218633
-0.00145001618601
-0.0024741941524
-0.00540686359487
-0.0125332123006
-0.0265458166768
-0.0552345718098
-0.000977859258093
-0.00102316327082
-0.00114313313522
-0.0014949077379
-0.00258916752121
-0.00561334107349
-0.012877265104
-0.0299731623861
-0.00805883503623
-0.000963399264147
-0.00098166602141
-0.00103013972911
-0.00115537155666
-0.00151983956603
-0.0026564975145
-0.0057588402282
-0.012887651138
-0.0297488362874
0.133437423279
-0.000958511110596
-0.000965572544387
-0.00098569141741
-0.00103685802272
-0.00116603864662
-0.00153840504347
-0.00271213568093
-0.00593142411482
-0.0129415546666
-0.0171182620922
0.0746488167765
-0.00096007617583
-0.00096806647744
-0.000989808100393
-0.00104403809278
-0.00117933782317
-0.00156813418719
-0.00279412429009
-0.00612951514346
-0.0124976832837
0.0103009325067
0.0329415744857
-0.000970434541263
-0.000993748487816
-0.00105120572439
-0.0011938546071
-0.00160261902181
-0.00288100099327
-0.00628392158613
-0.0123053941204
0.00502867912681
-0.0645410478298
-0.000972242163253
-0.000997018623787
-0.00105745905118
-0.00120661215788
-0.00163090482829
-0.00293860952358
-0.00634467197017
-0.0122152704048
-0.00592734019659
-0.0649149503317
-0.000972708339244
-0.000998764464094
-0.0010619988375
-0.00121675547182
-0.00164839597255
-0.00295272819275
-0.00633871738703
-0.0122692883798
-0.00118591515741
-0.00277946753516
-0.000969958846796
-0.000997011336744
-0.00106261092924
-0.00122159042602
-0.00165323782691
-0.00293303148988
-0.00631986010019
-0.012715358967
-0.000397030902685
0.269591079034
-0.000959742218924
-0.000987045811877
-0.00105371221299
-0.00121438834944
-0.00164415797818
-0.00291553848689
-0.00632636077393
-0.0133122230674
-0.0236433058885
0.0425060155343
-0.000922556821244
-0.000932249027043
-0.000958521122684
-0.00102346728803
-0.00118041233991
-0.00160194138113
-0.00287302664763
-0.00630048596251
-0.0126911112213
-0.0214320172291
0.18260151003
-0.00085652233156
-0.000864801142127
-0.000888056998092
-0.000946490858234
-0.00108834513741
-0.00147898413941
-0.00272005616244
-0.00612830728383
-0.0120614457738
-0.0190518975101
0.257792231395
-0.000669025228421
-0.000673795578499
-0.000689250380098
-0.000729661330133
-0.000828258281257
-0.00110434943189
-0.00206709884757
-0.00515770636253
-0.0115482214729
-0.00625762963015
0.249128702018
)
;

boundaryField
{
    back
    {
        type            calculated;
        value           nonuniform List<scalar> 
167
(
-0.000964356476101
-0.000986894473181
-0.00104641744375
-0.00121435811515
-0.00178252088956
-0.00358844032207
-0.00659722059496
0.0282965612034
0.115429977357
-0.000990940006188
-0.00105807662505
-0.00125034774717
-0.00191685228133
-0.00408774520428
-0.00923529192254
-0.00230341655987
0.203063201865
-0.000997514026139
-0.0010765234522
-0.00130409719043
-0.00208291544517
-0.00456918647681
-0.0109742224215
-0.0258893716907
0.25030006992
-0.000970421203879
-0.00100626001526
-0.00110194519592
-0.00137952123884
-0.00228776446388
-0.00502793393193
-0.011704239842
-0.0309224038491
-0.0268472537357
-0.000973992082138
-0.00101526197125
-0.00112610218633
-0.00145001618601
-0.0024741941524
-0.00540686359487
-0.0125332123006
-0.0265458166768
-0.0552345718098
-0.000977859258093
-0.00102316327082
-0.00114313313522
-0.0014949077379
-0.00258916752121
-0.00561334107349
-0.012877265104
-0.0299731623861
-0.00805883503623
-0.000963399264147
-0.00098166602141
-0.00103013972911
-0.00115537155666
-0.00151983956603
-0.0026564975145
-0.0057588402282
-0.012887651138
-0.0297488362874
0.133437423279
-0.000958511110596
-0.000965572544387
-0.00098569141741
-0.00103685802272
-0.00116603864662
-0.00153840504347
-0.00271213568093
-0.00593142411482
-0.0129415546666
-0.0171182620922
0.0746488167765
-0.00096007617583
-0.00096806647744
-0.000989808100393
-0.00104403809278
-0.00117933782317
-0.00156813418719
-0.00279412429009
-0.00612951514346
-0.0124976832837
0.0103009325067
0.0329415744857
-0.000970434541263
-0.000993748487816
-0.00105120572439
-0.0011938546071
-0.00160261902181
-0.00288100099327
-0.00628392158613
-0.0123053941204
0.00502867912681
-0.0645410478298
-0.000972242163253
-0.000997018623787
-0.00105745905118
-0.00120661215788
-0.00163090482829
-0.00293860952358
-0.00634467197017
-0.0122152704048
-0.00592734019659
-0.0649149503317
-0.000972708339244
-0.000998764464094
-0.0010619988375
-0.00121675547182
-0.00164839597255
-0.00295272819275
-0.00633871738703
-0.0122692883798
-0.00118591515741
-0.00277946753516
-0.000969958846796
-0.000997011336744
-0.00106261092924
-0.00122159042602
-0.00165323782691
-0.00293303148988
-0.00631986010019
-0.012715358967
-0.000397030902685
0.269591079034
-0.000959742218924
-0.000987045811877
-0.00105371221299
-0.00121438834944
-0.00164415797818
-0.00291553848689
-0.00632636077393
-0.0133122230674
-0.0236433058885
0.0425060155343
-0.000922556821244
-0.000932249027043
-0.000958521122684
-0.00102346728803
-0.00118041233991
-0.00160194138113
-0.00287302664763
-0.00630048596251
-0.0126911112213
-0.0214320172291
0.18260151003
-0.00085652233156
-0.000864801142127
-0.000888056998092
-0.000946490858234
-0.00108834513741
-0.00147898413941
-0.00272005616244
-0.00612830728383
-0.0120614457738
-0.0190518975101
0.257792231395
-0.000669025228421
-0.000673795578499
-0.000689250380098
-0.000729661330133
-0.000828258281257
-0.00110434943189
-0.00206709884757
-0.00515770636253
-0.0115482214729
-0.00625762963015
0.249128702018
)
;
    }
    sides
    {
        type            calculated;
        value           nonuniform List<scalar> 
11
(
-0.000669025228421
-0.000673795578499
-0.000689250380098
-0.000729661330133
-0.000828258281257
-0.00110434943189
-0.00206709884757
-0.00515770636253
-0.0115482214729
-0.00625762963015
0.249128702018
)
;
    }
    bottom
    {
        type            calculated;
        value           nonuniform List<scalar> 0();
    }
    front
    {
        type            calculated;
        value           nonuniform List<scalar> 
167
(
-0.000964356476101
-0.000986894473181
-0.00104641744375
-0.00121435811515
-0.00178252088956
-0.00358844032207
-0.00659722059496
0.0282965612034
0.115429977357
-0.000990940006188
-0.00105807662505
-0.00125034774717
-0.00191685228133
-0.00408774520428
-0.00923529192254
-0.00230341655987
0.203063201865
-0.000997514026139
-0.0010765234522
-0.00130409719043
-0.00208291544517
-0.00456918647681
-0.0109742224215
-0.0258893716907
0.25030006992
-0.000970421203879
-0.00100626001526
-0.00110194519592
-0.00137952123884
-0.00228776446388
-0.00502793393193
-0.011704239842
-0.0309224038491
-0.0268472537357
-0.000973992082138
-0.00101526197125
-0.00112610218633
-0.00145001618601
-0.0024741941524
-0.00540686359487
-0.0125332123006
-0.0265458166768
-0.0552345718098
-0.000977859258093
-0.00102316327082
-0.00114313313522
-0.0014949077379
-0.00258916752121
-0.00561334107349
-0.012877265104
-0.0299731623861
-0.00805883503623
-0.000963399264147
-0.00098166602141
-0.00103013972911
-0.00115537155666
-0.00151983956603
-0.0026564975145
-0.0057588402282
-0.012887651138
-0.0297488362874
0.133437423279
-0.000958511110596
-0.000965572544387
-0.00098569141741
-0.00103685802272
-0.00116603864662
-0.00153840504347
-0.00271213568093
-0.00593142411482
-0.0129415546666
-0.0171182620922
0.0746488167765
-0.00096007617583
-0.00096806647744
-0.000989808100393
-0.00104403809278
-0.00117933782317
-0.00156813418719
-0.00279412429009
-0.00612951514346
-0.0124976832837
0.0103009325067
0.0329415744857
-0.000970434541263
-0.000993748487816
-0.00105120572439
-0.0011938546071
-0.00160261902181
-0.00288100099327
-0.00628392158613
-0.0123053941204
0.00502867912681
-0.0645410478298
-0.000972242163253
-0.000997018623787
-0.00105745905118
-0.00120661215788
-0.00163090482829
-0.00293860952358
-0.00634467197017
-0.0122152704048
-0.00592734019659
-0.0649149503317
-0.000972708339244
-0.000998764464094
-0.0010619988375
-0.00121675547182
-0.00164839597255
-0.00295272819275
-0.00633871738703
-0.0122692883798
-0.00118591515741
-0.00277946753516
-0.000969958846796
-0.000997011336744
-0.00106261092924
-0.00122159042602
-0.00165323782691
-0.00293303148988
-0.00631986010019
-0.012715358967
-0.000397030902685
0.269591079034
-0.000959742218924
-0.000987045811877
-0.00105371221299
-0.00121438834944
-0.00164415797818
-0.00291553848689
-0.00632636077393
-0.0133122230674
-0.0236433058885
0.0425060155343
-0.000922556821244
-0.000932249027043
-0.000958521122684
-0.00102346728803
-0.00118041233991
-0.00160194138113
-0.00287302664763
-0.00630048596251
-0.0126911112213
-0.0214320172291
0.18260151003
-0.00085652233156
-0.000864801142127
-0.000888056998092
-0.000946490858234
-0.00108834513741
-0.00147898413941
-0.00272005616244
-0.00612830728383
-0.0120614457738
-0.0190518975101
0.257792231395
-0.000669025228421
-0.000673795578499
-0.000689250380098
-0.000729661330133
-0.000828258281257
-0.00110434943189
-0.00206709884757
-0.00515770636253
-0.0115482214729
-0.00625762963015
0.249128702018
)
;
    }
    atmosphere
    {
        type            calculated;
        value           nonuniform List<scalar> 
17
(
0.728952668393
2.35730781024
2.00941831664
-0.495094202722
-0.0418203374202
0.120786717924
1.82405750523
2.15580058084
0.627148276483
0.722733791325
-0.00406607782862
0.617667142615
-1.16892397541
0.215319103374
-1.27655860571
1.67494894805
0.249293277766
)
;
    }
    floatingObject
    {
        type            calculated;
        value           nonuniform List<scalar> 0();
    }
    procBoundary11to9
    {
        type            processor;
        value           nonuniform List<scalar> 9(-0.000964385846507 -0.000984033087878 -0.00103620138912 -0.00117955783741 -0.00164725717473 -0.00304830220803 -0.00425362644181 0.0299439984226 0.0677873299834);
    }
    procBoundary11to10
    {
        type            processor;
        value           nonuniform List<scalar> 
23
(
-0.000956903284719
-0.000965066442426
-0.000965066442426
-0.000967060927537
-0.000967060927537
-0.000957530989026
-0.000959049137336
-0.000961007497137
-0.000961007497137
-0.000956896338669
-0.000956896338669
-0.000956089457179
-0.000957323379874
-0.000961701366708
-0.000961701366708
-0.000962831409443
-0.000962759980353
-0.000959755768751
-0.00094949767822
-0.00094949767822
-0.000919485107646
-0.000854152432541
-0.000668231248924
)
;
    }
}


// ************************************************************************* //
