/*--------------------------------*- C++ -*----------------------------------*\
| =========                 |                                                 |
| \\      /  F ield         | OpenFOAM: The Open Source CFD Toolbox           |
|  \\    /   O peration     | Version:  v2012                                 |
|   \\  /    A nd           | Website:  www.openfoam.com                      |
|    \\/     M anipulation  |                                                 |
\*---------------------------------------------------------------------------*/
FoamFile
{
    version     2.0;
    format      ascii;
    class       volScalarField;
    location    "0.3";
    object      k_0;
}
// * * * * * * * * * * * * * * * * * * * * * * * * * * * * * * * * * * * * * //

dimensions      [0 2 -2 0 0 0 0];


internalField   nonuniform List<scalar> 
167
(
0.0421907015617
0.0455314524162
0.0459016174023
0.0459442638636
0.0459579908704
0.0459694881968
0.0459805947962
0.0459913605076
0.0455431315079
0.0516556832875
0.0524104634462
0.0524994228493
0.052516367753
0.0525272113751
0.0525375885448
0.05254781886
0.0459302117085
0.0524387448375
0.0532603640403
0.0533567740111
0.0533732488379
0.0533829842835
0.0533922857878
0.053401475868
0.0459773066502
0.0525353580523
0.0533651592189
0.0534615887839
0.0534770754443
0.0534858801417
0.0534943837801
0.0535028769092
0.0535112458502
0.0459927491389
0.0525538279654
0.0533835624482
0.0534790979501
0.0534936530293
0.0535016404799
0.0535094541031
0.0535173696236
0.0535252516199
0.0535329717197
0.0460061507427
0.0525654737005
0.0533944233727
0.0534891381965
0.0535028856014
0.0535101315435
0.0535172931555
0.0535246487506
0.0535320554381
0.0535393732624
0.0460198661757
0.0525769967913
0.0534052192306
0.0534992625216
0.0535123261165
0.053518911094
0.05352546473
0.0535322789245
0.0535392131969
0.0535461243149
0.0460340929745
0.0525889350243
0.0534165116695
0.0535100054571
0.0535224949438
0.0535285017462
0.0535345028408
0.0535408084576
0.0535472868364
0.0535537963329
0.0460488871801
0.0526013467752
0.0534283303551
0.0535213677376
0.0535333757983
0.0535388827199
0.0535443911711
0.0535502307456
0.0535562810303
0.0535624062197
0.0460642993585
0.0526142670408
0.0534406882472
0.0535333405041
0.0535449443695
0.0535500222467
0.0535550975886
0.0535605180786
0.0535661759524
0.053571942348
0.0460803807964
0.0526277351178
0.053453610024
0.0535459328094
0.0535571971362
0.0535619091831
0.0535666083095
0.0535716583836
0.0535769635701
0.0535824035546
0.0460971823216
0.0526417934935
0.0534671286468
0.0535591666279
0.0535701464722
0.053574549244
0.0535789259892
0.0535836543162
0.0535886497833
0.053593799666
0.0461147529861
0.0526564859133
0.0534812818707
0.0535730721626
0.0535838155742
0.0535879605153
0.053592065983
0.0535965212206
0.0536012515042
0.0536061519949
0.046133138754
0.0526718558616
0.0534961098195
0.0535876845721
0.0535982348329
0.0536021697805
0.0536060533167
0.0536102842325
0.0536147963761
0.0536194912829
0.046152381044
0.05268794522
0.0535116531376
0.0536030415625
0.0536134390117
0.0536172098676
0.0536209204683
0.0536249768219
0.0536293200677
0.0536338568137
0.0461725152494
0.0527047931035
0.0535279514247
0.0536191813274
0.053629465337
0.0536331177454
0.0536367042474
0.0536406382016
0.0536448636746
0.0536492965072
0.0461935679853
0.0527224336524
0.0535450415055
0.0536361413813
0.05364635096
0.0536499307703
0.0536534451134
0.0462155548683
0.0527408951482
0.0535629560771
0.0536539543675
0.0536641310738
0.0535817205486
0.0536726494709
)
;

boundaryField
{
    back
    {
        type            kqRWallFunction;
        value           nonuniform List<scalar> 
167
(
0.0421907015617
0.0455314524162
0.0459016174023
0.0459442638636
0.0459579908704
0.0459694881968
0.0459805947962
0.0459913605076
0.0455431315079
0.0516556832875
0.0524104634462
0.0524994228493
0.052516367753
0.0525272113751
0.0525375885448
0.05254781886
0.0459302117085
0.0524387448375
0.0532603640403
0.0533567740111
0.0533732488379
0.0533829842835
0.0533922857878
0.053401475868
0.0459773066502
0.0525353580523
0.0533651592189
0.0534615887839
0.0534770754443
0.0534858801417
0.0534943837801
0.0535028769092
0.0535112458502
0.0459927491389
0.0525538279654
0.0533835624482
0.0534790979501
0.0534936530293
0.0535016404799
0.0535094541031
0.0535173696236
0.0535252516199
0.0535329717197
0.0460061507427
0.0525654737005
0.0533944233727
0.0534891381965
0.0535028856014
0.0535101315435
0.0535172931555
0.0535246487506
0.0535320554381
0.0535393732624
0.0460198661757
0.0525769967913
0.0534052192306
0.0534992625216
0.0535123261165
0.053518911094
0.05352546473
0.0535322789245
0.0535392131969
0.0535461243149
0.0460340929745
0.0525889350243
0.0534165116695
0.0535100054571
0.0535224949438
0.0535285017462
0.0535345028408
0.0535408084576
0.0535472868364
0.0535537963329
0.0460488871801
0.0526013467752
0.0534283303551
0.0535213677376
0.0535333757983
0.0535388827199
0.0535443911711
0.0535502307456
0.0535562810303
0.0535624062197
0.0460642993585
0.0526142670408
0.0534406882472
0.0535333405041
0.0535449443695
0.0535500222467
0.0535550975886
0.0535605180786
0.0535661759524
0.053571942348
0.0460803807964
0.0526277351178
0.053453610024
0.0535459328094
0.0535571971362
0.0535619091831
0.0535666083095
0.0535716583836
0.0535769635701
0.0535824035546
0.0460971823216
0.0526417934935
0.0534671286468
0.0535591666279
0.0535701464722
0.053574549244
0.0535789259892
0.0535836543162
0.0535886497833
0.053593799666
0.0461147529861
0.0526564859133
0.0534812818707
0.0535730721626
0.0535838155742
0.0535879605153
0.053592065983
0.0535965212206
0.0536012515042
0.0536061519949
0.046133138754
0.0526718558616
0.0534961098195
0.0535876845721
0.0535982348329
0.0536021697805
0.0536060533167
0.0536102842325
0.0536147963761
0.0536194912829
0.046152381044
0.05268794522
0.0535116531376
0.0536030415625
0.0536134390117
0.0536172098676
0.0536209204683
0.0536249768219
0.0536293200677
0.0536338568137
0.0461725152494
0.0527047931035
0.0535279514247
0.0536191813274
0.053629465337
0.0536331177454
0.0536367042474
0.0536406382016
0.0536448636746
0.0536492965072
0.0461935679853
0.0527224336524
0.0535450415055
0.0536361413813
0.05364635096
0.0536499307703
0.0536534451134
0.0462155548683
0.0527408951482
0.0535629560771
0.0536539543675
0.0536641310738
0.0535817205486
0.0536726494709
)
;
    }
    sides
    {
        type            kqRWallFunction;
        value           nonuniform List<scalar> 8(0.0421907015617 0.0455314524162 0.0459016174023 0.0459442638636 0.0459579908704 0.0459694881968 0.0459805947962 0.0459913605076);
    }
    bottom
    {
        type            kqRWallFunction;
        value           nonuniform List<scalar> 
18
(
0.0421907015617
0.0455431315079
0.0459302117085
0.0459773066502
0.0459927491389
0.0460061507427
0.0460198661757
0.0460340929745
0.0460488871801
0.0460642993585
0.0460803807964
0.0460971823216
0.0461147529861
0.046133138754
0.046152381044
0.0461725152494
0.0461935679853
0.0462155548683
)
;
    }
    front
    {
        type            kqRWallFunction;
        value           nonuniform List<scalar> 
167
(
0.0421907015617
0.0455314524162
0.0459016174023
0.0459442638636
0.0459579908704
0.0459694881968
0.0459805947962
0.0459913605076
0.0455431315079
0.0516556832875
0.0524104634462
0.0524994228493
0.052516367753
0.0525272113751
0.0525375885448
0.05254781886
0.0459302117085
0.0524387448375
0.0532603640403
0.0533567740111
0.0533732488379
0.0533829842835
0.0533922857878
0.053401475868
0.0459773066502
0.0525353580523
0.0533651592189
0.0534615887839
0.0534770754443
0.0534858801417
0.0534943837801
0.0535028769092
0.0535112458502
0.0459927491389
0.0525538279654
0.0533835624482
0.0534790979501
0.0534936530293
0.0535016404799
0.0535094541031
0.0535173696236
0.0535252516199
0.0535329717197
0.0460061507427
0.0525654737005
0.0533944233727
0.0534891381965
0.0535028856014
0.0535101315435
0.0535172931555
0.0535246487506
0.0535320554381
0.0535393732624
0.0460198661757
0.0525769967913
0.0534052192306
0.0534992625216
0.0535123261165
0.053518911094
0.05352546473
0.0535322789245
0.0535392131969
0.0535461243149
0.0460340929745
0.0525889350243
0.0534165116695
0.0535100054571
0.0535224949438
0.0535285017462
0.0535345028408
0.0535408084576
0.0535472868364
0.0535537963329
0.0460488871801
0.0526013467752
0.0534283303551
0.0535213677376
0.0535333757983
0.0535388827199
0.0535443911711
0.0535502307456
0.0535562810303
0.0535624062197
0.0460642993585
0.0526142670408
0.0534406882472
0.0535333405041
0.0535449443695
0.0535500222467
0.0535550975886
0.0535605180786
0.0535661759524
0.053571942348
0.0460803807964
0.0526277351178
0.053453610024
0.0535459328094
0.0535571971362
0.0535619091831
0.0535666083095
0.0535716583836
0.0535769635701
0.0535824035546
0.0460971823216
0.0526417934935
0.0534671286468
0.0535591666279
0.0535701464722
0.053574549244
0.0535789259892
0.0535836543162
0.0535886497833
0.053593799666
0.0461147529861
0.0526564859133
0.0534812818707
0.0535730721626
0.0535838155742
0.0535879605153
0.053592065983
0.0535965212206
0.0536012515042
0.0536061519949
0.046133138754
0.0526718558616
0.0534961098195
0.0535876845721
0.0535982348329
0.0536021697805
0.0536060533167
0.0536102842325
0.0536147963761
0.0536194912829
0.046152381044
0.05268794522
0.0535116531376
0.0536030415625
0.0536134390117
0.0536172098676
0.0536209204683
0.0536249768219
0.0536293200677
0.0536338568137
0.0461725152494
0.0527047931035
0.0535279514247
0.0536191813274
0.053629465337
0.0536331177454
0.0536367042474
0.0536406382016
0.0536448636746
0.0536492965072
0.0461935679853
0.0527224336524
0.0535450415055
0.0536361413813
0.05364635096
0.0536499307703
0.0536534451134
0.0462155548683
0.0527408951482
0.0535629560771
0.0536539543675
0.0536641310738
0.0535817205486
0.0536726494709
)
;
    }
    atmosphere
    {
        type            inletOutlet;
        inletValue      nonuniform List<scalar> 0();
        value           nonuniform List<scalar> 0();
    }
    floatingObject
    {
        type            kqRWallFunction;
        value           nonuniform List<scalar> 0();
    }
    procBoundary2to0
    {
        type            processor;
        value           nonuniform List<scalar> 
14
(
0.0536573110237
0.0536614782896
0.053665863073
0.05366768757
0.0536573110237
0.0536711821123
0.046238478452
0.0527601971155
0.05366768757
0.0536828360663
0.0527601971155
0.0536013486246
0.0536828360663
0.0536922460188
)
;
    }
    procBoundary2to1
    {
        type            processor;
        value           nonuniform List<scalar> 
18
(
0.0460017306463
0.0525578514929
0.053410467799
0.053410467799
0.0535193728748
0.0535193728748
0.0535404187638
0.0535464861585
0.0535528902735
0.0535602136463
0.0535684839006
0.0535776989914
0.0535878642367
0.0535989957942
0.0536111192841
0.0536242707825
0.0536384954662
0.0536538432711
)
;
    }
}


// ************************************************************************* //
