/*--------------------------------*- C++ -*----------------------------------*\
| =========                 |                                                 |
| \\      /  F ield         | OpenFOAM: The Open Source CFD Toolbox           |
|  \\    /   O peration     | Version:  v2012                                 |
|   \\  /    A nd           | Website:  www.openfoam.com                      |
|    \\/     M anipulation  |                                                 |
\*---------------------------------------------------------------------------*/
FoamFile
{
    version     2.0;
    format      ascii;
    class       volVectorField;
    location    "0.3";
    object      U;
}
// * * * * * * * * * * * * * * * * * * * * * * * * * * * * * * * * * * * * * //

dimensions      [0 1 -1 0 0 0 0];


internalField   nonuniform List<vector> 
167
(
(0.00123153436695 -0.00123255519437 1.1556945936e-23)
(0.00136066301639 -0.00332969392414 1.10519356116e-22)
(0.00135895252483 -0.00572675920677 -1.99936910794e-23)
(0.00133489715166 -0.00805111610459 -3.67196055463e-24)
(0.0013106917794 -0.0103285574869 -2.05721073711e-23)
(0.00128420559917 -0.0125661754119 -1.23031050403e-23)
(0.00125384678623 -0.0147575894269 -6.0584279832e-23)
(0.00121901052888 -0.0168953844859 1.01783362402e-22)
(0.00333186605486 -0.00136958614319 5.09012853571e-24)
(0.00346047599661 -0.00347579547466 4.50585900275e-23)
(0.00344437118879 -0.00585340660153 2.94529768209e-24)
(0.00339721481915 -0.00820462323747 -2.27217518375e-23)
(0.00334399071573 -0.0105127082714 -2.44191368901e-22)
(0.00328207289504 -0.0127855277286 -9.22246003558e-23)
(0.00320941652554 -0.0150134438567 -1.91040988866e-22)
(0.00312515219486 -0.0171875453343 -7.97061666847e-23)
(0.00575108397099 -0.00138718052054 1.65356890537e-23)
(0.00584753297232 -0.00350480927234 3.83612276759e-22)
(0.00582112174714 -0.00590397818994 3.36112238203e-23)
(0.00575824976112 -0.00827446578857 -6.78026230761e-25)
(0.00567483299795 -0.0105991398565 -2.0215625074e-23)
(0.00557174212844 -0.0128892880756 1.28424494125e-23)
(0.0054485613879 -0.0151351244169 -1.03493312868e-23)
(0.00530492120787 -0.0173274597536 3.20928272272e-23)
(0.00813993622999 -0.00139232742855 5.23132126581e-23)
(0.0082511333932 -0.0035277443403 1.27062075597e-22)
(0.00821274213071 -0.00596148729918 1.89075411949e-23)
(0.00812931006356 -0.00836062175299 2.11528817537e-24)
(0.00801504077065 -0.0107107382618 -1.00829301926e-25)
(0.00787153586883 -0.0130257960068 1.5357325655e-23)
(0.00769887454304 -0.0152966061439 2.10988368391e-23)
(0.00749689037059 -0.0175140956206 -2.55617288527e-24)
(0.00726540666749 -0.0196695215309 -7.53950623587e-24)
(0.0105364810664 -0.00140696159179 -8.82694293012e-23)
(0.0106679019352 -0.00356827631683 3.54549258503e-22)
(0.0106152838123 -0.00603913202685 6.13545785875e-23)
(0.0105085741241 -0.00847347889172 5.28125311089e-24)
(0.0103627448799 -0.0108574237921 4.82474066961e-25)
(0.0101791099142 -0.0132060357914 1.98008444213e-24)
(0.00995764694537 -0.0155104496113 2.10956321966e-24)
(0.00969815502641 -0.0177616982869 -1.81232474714e-25)
(0.00940040928299 -0.0199510194995 -7.8199495269e-25)
(0.00906429284718 -0.0220695851323 2.32527655724e-24)
(0.0129653414329 -0.00142906860475 -5.82574121342e-23)
(0.0131228475003 -0.00362382698724 2.48938088273e-22)
(0.0130569097193 -0.00613758956713 5.27946052302e-23)
(0.0129264260416 -0.00861431866916 4.22305455621e-24)
(0.0127487538838 -0.0110401495619 -4.85087477465e-25)
(0.0125249885003 -0.0134307684635 1.06426872048e-24)
(0.0122548656348 -0.0157774171979 5.87251549631e-25)
(0.0119380141927 -0.0180711640947 4.1842990792e-25)
(0.0115740854924 -0.020303190156 1.1927216126e-24)
(0.0111628388847 -0.0224645326155 1.98265044995e-24)
(0.0154360637293 -0.00145694433883 -1.72159462859e-24)
(0.0156227991844 -0.0036922377615 5.21762205573e-23)
(0.0155444808036 -0.00625631524306 -1.20567896287e-23)
(0.0153904870668 -0.00878309738812 -1.12472340169e-25)
(0.0151811860199 -0.0112588388128 4.0046370961e-24)
(0.0149175815023 -0.0136998219429 2.33913483274e-25)
(0.0145991359577 -0.0160973067148 1.33823974831e-24)
(0.0142252335002 -0.0184423470736 1.42998264928e-24)
(0.0137953111654 -0.0207260394163 -5.52864588496e-25)
(0.0133089431209 -0.0229392499404 4.75287491839e-24)
(0.0179571415486 -0.0014898943474 -3.93351330885e-23)
(0.018175045383 -0.00377249146655 3.72129548175e-22)
(0.0180851237194 -0.00639470253021 5.62929806276e-23)
(0.0179081761232 -0.00897937689277 4.43706678068e-24)
(0.0176677942265 -0.0115130533229 1.05381674438e-24)
(0.017364937635 -0.0140127277454 7.78855627309e-25)
(0.0169987661432 -0.0164696614434 1.12845772926e-24)
(0.0165683538388 -0.0188748733173 2.13054277417e-24)
(0.0160728389743 -0.0212193534252 -3.71516882228e-25)
(0.015511519955 -0.0234937678207 2.28585308733e-24)
(0.020536518525 -0.00152756282252 1.27857500457e-23)
(0.020787281118 -0.00386392698919 2.00820822034e-22)
(0.0206865207046 -0.00655209494643 2.56963747001e-23)
(0.020487373418 -0.00920248485009 -3.65584328278e-24)
(0.0202167399443 -0.0118020819293 -3.83334707762e-25)
(0.0198755227345 -0.014368752413 -1.44126384604e-24)
(0.0194625268356 -0.0168937790021 2.32176500977e-24)
(0.0189764387326 -0.0193681503254 4.54303505625e-26)
(0.01841600407 -0.0217827382232 7.39038729574e-25)
(0.0177801430337 -0.0241279840465 1.35011888986e-24)
(0.0231816542304 -0.0015696966146 -1.0588107498e-23)
(0.023467018767 -0.00396596471544 3.94253731821e-22)
(0.0233562672529 -0.00672772986975 5.68247601352e-23)
(0.0231358873006 -0.00945151447901 3.48752033884e-24)
(0.0228361350063 -0.0121249135311 5.01162851878e-25)
(0.0224578037615 -0.0147668344759 1.04187465866e-24)
(0.0219992654093 -0.0173686236782 7.30707634609e-25)
(0.0214587206756 -0.0199212609375 5.3703271925e-26)
(0.020834410129 -0.0224155022312 -2.92947307382e-25)
(0.0201247548172 -0.0248415418254 1.68611590203e-24)
(0.0258995853241 -0.00161605294877 -8.34636488303e-23)
(0.0262214637178 -0.00407798056283 -1.35911328866e-22)
(0.0261017267903 -0.00692067332681 -3.73346326564e-23)
(0.0258613485969 -0.00972527891518 -1.61059640227e-23)
(0.0255339740352 -0.012480179645 -2.41653773093e-25)
(0.025120208509 -0.0152055068026 1.11248475651e-24)
(0.0246178865052 -0.0178927298495 7.24980764981e-25)
(0.0240246002693 -0.0205328588591 7.64609040292e-25)
(0.0233379479178 -0.0231165448105 1.9416801487e-24)
(0.0225557046277 -0.0256337198046 2.39154989735e-24)
(0.0286968868214 -0.00166635251082 -1.56325583103e-22)
(0.0290574179963 -0.00419922863352 2.24196094048e-22)
(0.0289299259123 -0.00712975079486 1.82803466457e-23)
(0.028671124639 -0.0100222405902 -5.82953730375e-24)
(0.0283180740511 -0.012866072033 7.23893866681e-25)
(0.0278710904154 -0.0156827977443 1.08103322542e-24)
(0.0273273410879 -0.0184640889015 2.4164867708e-24)
(0.026683659331 -0.021201040338 2.72879523771e-24)
(0.025936833647 -0.0238842248562 3.91834429838e-24)
(0.0250838141261 -0.0265033023107 3.31705242803e-24)
(0.0315795760988 -0.00172025035259 -1.49416438733e-22)
(0.0319811619931 -0.00432878306718 4.5287848557e-22)
(0.0318474344588 -0.00735347370134 7.41815933196e-23)
(0.0315722127421 -0.0103404224644 4.58340087045e-24)
(0.0311959892699 -0.013280235974 3.54472488643e-24)
(0.0307186684828 -0.0161961059101 2.10275367725e-24)
(0.0301365939236 -0.0190800062088 2.50629182066e-24)
(0.0294456583771 -0.0219231931991 3.5924403217e-24)
(0.0286416382158 -0.0247162012308 5.46110559974e-24)
(0.0277204410109 -0.027448419919 3.20132628303e-24)
(0.0345529764526 -0.00177731224537 -1.95396705342e-22)
(0.0349983101803 -0.00446548426711 5.35189716606e-23)
(0.034860224936 -0.00758995857843 5.22693802329e-24)
(0.0345711131043 -0.0106773022243 -1.92677486603e-23)
(0.0341749049247 -0.0137196409469 4.20371674867e-25)
(0.0336709477507 -0.016742048222 2.46301027246e-24)
(0.0330545751609 -0.0197369302643 2.51281240091e-24)
(0.0323205221437 -0.0226958055592 9.47190592386e-25)
(0.031463311708 -0.0256092343384 3.70837553356e-24)
(0.0304775427868 -0.0284663494302 2.8702927284e-24)
(0.0376215424509 -0.00183699128944 -1.2149144211e-22)
(0.0381136343536 -0.00460788268972 2.22961850426e-22)
(0.0379735029358 -0.0078368360585 -6.41653973509e-23)
(0.0376736743932 -0.011029689055 -1.68627156464e-23)
(0.0372615064209 -0.014180426971 -2.67317868876e-24)
(0.0367356162281 -0.0173162780157 8.07946479317e-25)
(0.036090109751 -0.02043024563 1.40333025851e-24)
(0.0353183122225 -0.0235142458352 -2.89341572215e-25)
(0.0344131982366 -0.0265589513646 1.31984006406e-24)
(0.0333677485921 -0.0295532721327 2.04833426436e-24)
(0.0407886440678 -0.00189860385123 -2.25126697943e-22)
(0.0413308468176 -0.00475417869201 -2.25566487255e-22)
(0.0411915006554 -0.00809114914323 -6.21920094303e-23)
(0.0408849074095 -0.0113935826185 -1.79532679201e-23)
(0.0404618116794 -0.0146577268399 -1.57643878408e-24)
(0.0399199097025 -0.0179132725475 1.06917452889e-24)
(0.0392518301083 -0.0211540294431 1.86838185619e-24)
(0.0384491812454 -0.0243724872542 9.32281873651e-25)
(0.0375030532877 -0.0275595521071 2.37344966071e-24)
(0.0364044197126 -0.0307039747728 2.799877009e-24)
(0.044056308242 -0.00196129770979 -2.22574855149e-22)
(0.0446523433781 -0.00490214780624 -3.48645778875e-23)
(0.0445172313015 -0.00834923192697 -1.01524919189e-23)
(0.0442087460931 -0.0117640059944 -1.57764903306e-23)
(0.0437809714826 -0.0151454505421 -1.68068580887e-24)
(0.043230451638 -0.0185260754066 1.08771027954e-24)
(0.0425480433806 -0.0219007575367 1.83500409058e-24)
(0.0474249125305 -0.00202402272744 -8.99975832848e-23)
(0.0480788945411 -0.00504906681864 1.58100765394e-22)
(0.0479521831715 -0.00860657550431 1.30394471819e-23)
(0.0476477826383 -0.0121348101087 -9.90234838156e-25)
(0.047223018876 -0.0156360470226 1.47068618126e-24)
(0.0514959681359 -0.00885768495241 2.35870989348e-23)
(0.0512029202146 -0.0124984824744 -2.43507197967e-23)
)
;

boundaryField
{
    back
    {
        type            noSlip;
    }
    sides
    {
        type            noSlip;
    }
    bottom
    {
        type            noSlip;
    }
    front
    {
        type            noSlip;
    }
    atmosphere
    {
        type            pressureInletOutletVelocity;
        value           nonuniform List<vector> 0();
    }
    floatingObject
    {
        type            movingWallVelocity;
        value           nonuniform List<vector> 0();
    }
    procBoundary2to0
    {
        type            processor;
        value           nonuniform List<vector> 
14
(
(0.0417232986663 -0.0252627780034 1.77919205885e-24)
(0.040745016767 -0.0286034548238 1.62590462822e-24)
(0.0396017092079 -0.0319114735298 2.20529561206e-24)
(0.0466730249233 -0.0191460108695 1.39804966109e-24)
(0.0417232986663 -0.0252627780034 1.77919205885e-24)
(0.0459865675232 -0.0226609664762 1.68052036235e-24)
(0.0508928148503 -0.0020854993022 1.56797115614e-23)
(0.0516092700037 -0.00519163040793 3.14748742344e-22)
(0.0466730249233 -0.0191460108695 1.39804966109e-24)
(0.050790549362 -0.0161202372364 3.60737193496e-26)
(0.0516092700037 -0.00519163040793 3.14748742344e-22)
(0.0551459136948 -0.0090958939624 -5.54890820338e-23)
(0.050790549362 -0.0161202372364 3.60737193496e-26)
(0.0548729692067 -0.0128458832047 -3.3308640863e-23)
)
;
    }
    procBoundary2to1
    {
        type            processor;
        value           nonuniform List<vector> 
18
(
(0.00117945919648 -0.0189716604921 6.87450600164e-23)
(0.00302887044541 -0.0192993169014 7.03709644269e-23)
(0.00514057346379 -0.0194575855279 1.94163358983e-23)
(0.00514057346379 -0.0194575855279 1.94163358983e-23)
(0.00700433230144 -0.0217541501551 1.73851905939e-23)
(0.00700433230144 -0.0217541501551 1.73851905939e-23)
(0.00868984613764 -0.0241084831384 2.6449494658e-25)
(0.0107042479074 -0.0245460818725 7.7232677485e-25)
(0.0127659387606 -0.025072616728 1.6001932522e-24)
(0.0148839601692 -0.0256884598969 2.55483562114e-24)
(0.0170680737681 -0.0263938938684 -6.05052364101e-25)
(0.019328505767 -0.0271890030718 5.75645739412e-25)
(0.0216760047409 -0.0280735785295 6.15316827962e-25)
(0.0241219342945 -0.0290469921704 -3.28454105507e-25)
(0.0266783725668 -0.0301080504051 1.14786473499e-24)
(0.029358220882 -0.0312547945022 -9.94719543439e-25)
(0.0321753193953 -0.0324842713928 -1.75599833677e-24)
(0.0351445894211 -0.033792217653 -4.14538583159e-24)
)
;
    }
}


// ************************************************************************* //
