/*--------------------------------*- C++ -*----------------------------------*\
| =========                 |                                                 |
| \\      /  F ield         | OpenFOAM: The Open Source CFD Toolbox           |
|  \\    /   O peration     | Version:  v2012                                 |
|   \\  /    A nd           | Website:  www.openfoam.com                      |
|    \\/     M anipulation  |                                                 |
\*---------------------------------------------------------------------------*/
FoamFile
{
    version     2.0;
    format      ascii;
    class       volScalarField;
    location    "3.6";
    object      p;
}
// * * * * * * * * * * * * * * * * * * * * * * * * * * * * * * * * * * * * * //

dimensions      [1 -1 -2 0 0 0 0];


internalField   nonuniform List<scalar> 
164
(
5096.59948429
4612.40780324
4129.05400051
3646.5711262
3165.02889263
2684.18358755
2204.11596172
1724.82732671
1246.33620065
766.969727909
317.476529081
44.5572578854
-9.65106737189
8510.90493323
8021.953549
7533.60695205
7045.91427107
6072.61955574
5587.0950628
5102.3690343
4618.51043866
4135.55839485
3653.5183598
3172.42466372
2692.07691111
2212.39455754
1733.40652138
1255.24812837
775.720759341
323.754150514
46.2917652417
-9.64832090747
8515.09559287
8026.17543702
7537.86438035
7050.22757751
6563.30317124
6077.14121084
5591.80035337
5107.27548318
4623.75504518
4141.2097231
3659.62620932
3179.03996225
2699.28061764
2219.9518838
1741.12619167
1262.97211828
783.505936179
329.346034366
48.2078000293
-9.63704100603
8518.7032846
8029.75771092
7541.44856863
7053.82987044
6566.93662683
6080.84114387
5595.73387134
5111.49794168
4628.39949493
4146.19452631
3665.03669015
3184.8363179
2706.00167654
2226.96686049
1748.151552
1269.73147742
790.483265702
334.228832486
51.0572843028
-9.6449491694
8521.59130692
8032.66781648
7544.34473458
7056.70802562
6569.7713862
6083.53228487
5598.27108558
5114.19199498
4631.3175194
4149.58787192
3668.89394243
3189.20148062
2712.77725368
2233.68844268
1754.82244399
1276.26619807
797.289400902
338.697246782
53.7177962269
-9.66278037948
8523.83460401
8034.92931364
7546.55758654
7058.88835529
6571.97220863
6085.85629005
5600.11031407
5115.74959917
4633.68934665
4152.2108661
3671.78146591
3192.19900027
2719.718245
2240.15567088
1761.16239051
1282.74863137
803.593049359
344.816638184
55.596522975
-9.66017249253
8525.49052356
8036.53365715
7548.06048237
7060.21020823
6573.08772858
6086.75592563
5601.14158743
5116.08830171
4634.53075677
4154.23877495
3674.0551927
3193.4825633
2727.47668901
2246.4007865
1767.85313271
1289.63880553
810.719747069
352.675629673
60.5269693246
-9.77851010661
8526.57368689
8037.52137638
7548.96758845
7060.89148354
6573.42002637
6086.24185388
5597.86671237
5110.09698146
8527.09902125
8037.97899239
7549.35149953
7061.16143215
6573.6323196
6086.18062106
5598.39395371
5110.99563677
8527.13158671
8038.02062117
7549.38233189
7061.19916664
6573.68140972
6086.24240923
5598.45995648
5111.0796842
8526.66157386
8037.61453984
7549.08170238
7061.01642475
6573.56192358
6086.41255002
5598.04878825
5110.29248543
)
;

boundaryField
{
    back
    {
        type            calculated;
        value           nonuniform List<scalar> 
164
(
5096.59948429
4612.40780324
4129.05400051
3646.5711262
3165.02889263
2684.18358755
2204.11596172
1724.82732671
1246.33620065
766.969727909
317.476529081
44.5572578854
-9.65106737189
8510.90493323
8021.953549
7533.60695205
7045.91427107
6072.61955574
5587.0950628
5102.3690343
4618.51043866
4135.55839485
3653.5183598
3172.42466372
2692.07691111
2212.39455754
1733.40652138
1255.24812837
775.720759341
323.754150514
46.2917652417
-9.64832090747
8515.09559287
8026.17543702
7537.86438035
7050.22757751
6563.30317124
6077.14121084
5591.80035337
5107.27548318
4623.75504518
4141.2097231
3659.62620932
3179.03996225
2699.28061764
2219.9518838
1741.12619167
1262.97211828
783.505936179
329.346034366
48.2078000293
-9.63704100603
8518.7032846
8029.75771092
7541.44856863
7053.82987044
6566.93662683
6080.84114387
5595.73387134
5111.49794168
4628.39949493
4146.19452631
3665.03669015
3184.8363179
2706.00167654
2226.96686049
1748.151552
1269.73147742
790.483265702
334.228832486
51.0572843028
-9.6449491694
8521.59130692
8032.66781648
7544.34473458
7056.70802562
6569.7713862
6083.53228487
5598.27108558
5114.19199498
4631.3175194
4149.58787192
3668.89394243
3189.20148062
2712.77725368
2233.68844268
1754.82244399
1276.26619807
797.289400902
338.697246782
53.7177962269
-9.66278037948
8523.83460401
8034.92931364
7546.55758654
7058.88835529
6571.97220863
6085.85629005
5600.11031407
5115.74959917
4633.68934665
4152.2108661
3671.78146591
3192.19900027
2719.718245
2240.15567088
1761.16239051
1282.74863137
803.593049359
344.816638184
55.596522975
-9.66017249253
8525.49052356
8036.53365715
7548.06048237
7060.21020823
6573.08772858
6086.75592563
5601.14158743
5116.08830171
4634.53075677
4154.23877495
3674.0551927
3193.4825633
2727.47668901
2246.4007865
1767.85313271
1289.63880553
810.719747069
352.675629673
60.5269693246
-9.77851010661
8526.57368689
8037.52137638
7548.96758845
7060.89148354
6573.42002637
6086.24185388
5597.86671237
5110.09698146
8527.09902125
8037.97899239
7549.35149953
7061.16143215
6573.6323196
6086.18062106
5598.39395371
5110.99563677
8527.13158671
8038.02062117
7549.38233189
7061.19916664
6573.68140972
6086.24240923
5598.45995648
5111.0796842
8526.66157386
8037.61453984
7549.08170238
7061.01642475
6573.56192358
6086.41255002
5598.04878825
5110.29248543
)
;
    }
    sides
    {
        type            calculated;
        value           nonuniform List<scalar> 0();
    }
    bottom
    {
        type            calculated;
        value           nonuniform List<scalar> 10(8755.71392431 8759.90442513 8763.51202712 8766.39995034 8768.64309114 8770.29884585 8771.38182905 8771.9069337 8771.93933795 8771.46926722);
    }
    front
    {
        type            calculated;
        value           nonuniform List<scalar> 
164
(
5096.59948429
4612.40780324
4129.05400051
3646.5711262
3165.02889263
2684.18358755
2204.11596172
1724.82732671
1246.33620065
766.969727909
317.476529081
44.5572578854
-9.65106737189
8510.90493323
8021.953549
7533.60695205
7045.91427107
6072.61955574
5587.0950628
5102.3690343
4618.51043866
4135.55839485
3653.5183598
3172.42466372
2692.07691111
2212.39455754
1733.40652138
1255.24812837
775.720759341
323.754150514
46.2917652417
-9.64832090747
8515.09559287
8026.17543702
7537.86438035
7050.22757751
6563.30317124
6077.14121084
5591.80035337
5107.27548318
4623.75504518
4141.2097231
3659.62620932
3179.03996225
2699.28061764
2219.9518838
1741.12619167
1262.97211828
783.505936179
329.346034366
48.2078000293
-9.63704100603
8518.7032846
8029.75771092
7541.44856863
7053.82987044
6566.93662683
6080.84114387
5595.73387134
5111.49794168
4628.39949493
4146.19452631
3665.03669015
3184.8363179
2706.00167654
2226.96686049
1748.151552
1269.73147742
790.483265702
334.228832486
51.0572843028
-9.6449491694
8521.59130692
8032.66781648
7544.34473458
7056.70802562
6569.7713862
6083.53228487
5598.27108558
5114.19199498
4631.3175194
4149.58787192
3668.89394243
3189.20148062
2712.77725368
2233.68844268
1754.82244399
1276.26619807
797.289400902
338.697246782
53.7177962269
-9.66278037948
8523.83460401
8034.92931364
7546.55758654
7058.88835529
6571.97220863
6085.85629005
5600.11031407
5115.74959917
4633.68934665
4152.2108661
3671.78146591
3192.19900027
2719.718245
2240.15567088
1761.16239051
1282.74863137
803.593049359
344.816638184
55.596522975
-9.66017249253
8525.49052356
8036.53365715
7548.06048237
7060.21020823
6573.08772858
6086.75592563
5601.14158743
5116.08830171
4634.53075677
4154.23877495
3674.0551927
3193.4825633
2727.47668901
2246.4007865
1767.85313271
1289.63880553
810.719747069
352.675629673
60.5269693246
-9.77851010661
8526.57368689
8037.52137638
7548.96758845
7060.89148354
6573.42002637
6086.24185388
5597.86671237
5110.09698146
8527.09902125
8037.97899239
7549.35149953
7061.16143215
6573.6323196
6086.18062106
5598.39395371
5110.99563677
8527.13158671
8038.02062117
7549.38233189
7061.19916664
6573.68140972
6086.24240923
5598.45995648
5111.0796842
8526.66157386
8037.61453984
7549.08170238
7061.01642475
6573.56192358
6086.41255002
5598.04878825
5110.29248543
)
;
    }
    atmosphere
    {
        type            calculated;
        value           nonuniform List<scalar> 7(-9.81113990119 -9.81118425211 -9.81073140212 -9.81046009344 -9.81062638884 -9.81032716166 -9.81116610583);
    }
    floatingObject
    {
        type            calculated;
        value           nonuniform List<scalar> 8(4634.53075677 4154.23877495 3674.0551927 3193.4825633 4865.28843305 4866.18687611 4866.27065378 4865.48330811);
    }
    procBoundary3to4
    {
        type            processor;
        value           nonuniform List<scalar> 
13
(
5090.02346991
4605.46627733
4121.69065246
8506.08217409
8017.09743542
7528.69423066
7040.91300399
6067.32658723
5581.58678973
5581.58678973
6558.90463064
6558.90463064
6558.90463064
)
;
    }
    procBoundary3to5
    {
        type            processor;
        value           nonuniform List<scalar> 10(3638.72813983 3156.59773906 2675.43902967 2195.01954925 1715.42676448 1236.60622801 757.616448584 310.594007146 42.6030364674 -9.64363358511);
    }
    procBoundary3to6
    {
        type            processor;
        value           nonuniform List<scalar> 8(2739.96269025 2254.9076244 1773.9132358 1295.64716084 818.677603458 361.467517986 65.0096158275 -10.166709935);
    }
    procBoundary3to8
    {
        type            processor;
        value           nonuniform List<scalar> 8(8525.62687837 8036.67484965 7548.22638703 7060.40488662 6573.32485091 6087.04857154 5601.49109524 5116.59475733);
    }
}


// ************************************************************************* //
