/*--------------------------------*- C++ -*----------------------------------*\
| =========                 |                                                 |
| \\      /  F ield         | OpenFOAM: The Open Source CFD Toolbox           |
|  \\    /   O peration     | Version:  v2012                                 |
|   \\  /    A nd           | Website:  www.openfoam.com                      |
|    \\/     M anipulation  |                                                 |
\*---------------------------------------------------------------------------*/
FoamFile
{
    version     2.0;
    format      ascii;
    class       surfaceScalarField;
    location    "2.7";
    object      phi;
}
// * * * * * * * * * * * * * * * * * * * * * * * * * * * * * * * * * * * * * //

dimensions      [0 3 -1 0 0 0 0];
oriented        oriented;


internalField   nonuniform List<scalar> 
305
(
-8.05946984831e-07
8.04711970281e-07
-3.36274816091e-06
2.55548380106e-06
-6.7176225834e-06
3.3535900106e-06
-1.02763290241e-05
3.5575778098e-06
-1.38977561617e-05
3.62059816576e-06
-1.76563170627e-05
3.75856394133e-06
-2.17558392717e-05
4.1005766528e-06
4.52598391663e-06
-2.63114679833e-06
3.43459328129e-06
-5.41712384622e-06
5.34020364973e-06
-8.54525328581e-06
6.48056170336e-06
-1.20564804018e-05
7.06786970059e-06
-1.58027865132e-05
7.36634090347e-06
-1.99257370582e-05
7.88177001351e-06
-2.43217233434e-05
8.4978793186e-06
9.34129092864e-06
-3.29021578973e-06
6.72374432646e-06
-6.29396304824e-06
8.34297025907e-06
-9.63524949016e-06
9.82101173121e-06
-1.32295302748e-05
1.06615649686e-05
-1.71629493702e-05
1.1299559535e-05
-2.13864485497e-05
1.21058227976e-05
-2.58708392806e-05
1.298371159e-05
1.42729782946e-05
-3.20827224816e-06
9.93133314034e-06
-6.3217742246e-06
1.14559404646e-05
-9.66683633144e-06
1.31657184022e-05
-1.32146262436e-05
1.42092523128e-05
-1.708881418e-05
1.51739911136e-05
-2.11359364367e-05
1.61536288217e-05
-2.55853666363e-05
1.74345869992e-05
-3.03023509118e-05
1.89922959723e-05
2.08860933413e-05
-2.89106376945e-06
1.2822216553e-05
-5.97360835845e-06
1.45385147773e-05
-9.24060800302e-06
1.64329440034e-05
-1.26410017825e-05
1.76100972245e-05
-1.6239428178e-05
1.87731197174e-05
-2.00905235676e-05
2.00056469029e-05
-2.41520015884e-05
2.14971716141e-05
-2.8428624351e-05
2.32702996889e-05
-3.3207705301e-05
2.56664653728e-05
2.85565565616e-05
-2.57956667633e-06
1.54021694335e-05
-5.27865689413e-06
1.72382431478e-05
-8.34863455753e-06
1.95037566631e-05
-1.16587785712e-05
2.09212404492e-05
-1.50246456196e-05
2.21400720353e-05
-1.86077433885e-05
2.3589762284e-05
-2.22866853522e-05
2.51768475419e-05
-2.62616138137e-05
2.7245316268e-05
-3.0343410362e-05
2.97468654936e-05
3.28650423173e-05
-2.19381646013e-06
1.75969385406e-05
-4.83089373169e-06
1.98765394764e-05
-7.56699451316e-06
2.22412481612e-05
-1.05423198925e-05
2.38980196893e-05
-1.36446784023e-05
2.52437510713e-05
-1.68053308756e-05
2.67512912706e-05
-2.01953687314e-05
2.85669402049e-05
-2.37127490902e-05
3.07610962485e-05
-2.7131856413e-05
3.31610810338e-05
3.64540248959e-05
-1.92614383579e-06
1.95245283216e-05
-4.14451512253e-06
2.20966007413e-05
-6.6749421501e-06
2.4773480454e-05
-9.34789028856e-06
2.65726968069e-05
-1.2167901245e-05
2.80650921504e-05
-1.49601366804e-05
2.95439870122e-05
-1.7951659218e-05
3.15575619867e-05
-2.09273499107e-05
3.37329672272e-05
-2.40962515281e-05
3.63216597337e-05
3.94418713813e-05
-1.60090871203e-06
2.11272214476e-05
-3.47573180753e-06
2.3973385235e-05
-5.70103312516e-06
2.70007681797e-05
-8.06164119757e-06
2.89350479516e-05
-1.04937157798e-05
3.049821932e-05
-1.31145457395e-05
3.21646069399e-05
-1.56340040912e-05
3.40748867459e-05
-1.83617642838e-05
3.64548022128e-05
-2.08971706181e-05
3.88448088966e-05
4.19463343758e-05
-1.24848944225e-06
2.23775951386e-05
-2.89993083999e-06
2.56267733323e-05
-4.74894984742e-06
2.88516388396e-05
-6.75616079823e-06
3.09436851931e-05
-8.87144539785e-06
3.26139854494e-05
-1.10696174391e-05
3.4361638913e-05
-1.3380429394e-05
3.63823265896e-05
-1.56020833924e-05
3.86683532637e-05
-1.80426392237e-05
4.12710117613e-05
4.40434913125e-05
-9.14423570786e-07
2.32936913123e-05
-2.14813501427e-06
2.68620638845e-05
-3.70998353243e-06
3.04148294241e-05
-5.41488899158e-06
3.26493434892e-05
-7.18416027047e-06
3.43828678799e-05
-9.0438593346e-06
3.62192157282e-05
-1.09899205148e-05
3.83238795726e-05
-1.30654433564e-05
4.07347818288e-05
-1.50279575963e-05
4.32179237544e-05
4.62047935729e-05
-6.07300458705e-07
2.39020982005e-05
-1.44219761688e-06
2.76977934178e-05
-2.61645960269e-06
3.15895431884e-05
-3.96822334385e-06
3.40008488047e-05
-5.41949600218e-06
3.58327102243e-05
-6.95444718307e-06
3.77510567274e-05
-8.56704402754e-06
3.99313273605e-05
-1.03013549294e-05
4.24597884252e-05
-1.22640553029e-05
4.51670890149e-05
4.8157434008e-05
-2.23444456465e-07
2.41257416348e-05
-7.14049893205e-07
2.81881513015e-05
-1.50820853729e-06
3.23829569426e-05
-2.47802498351e-06
3.49691847167e-05
-3.56157609254e-06
3.69137368351e-05
-4.75689445356e-06
3.89426168139e-05
-6.10392056792e-06
4.12731584606e-05
-7.53069976655e-06
4.38788987778e-05
-9.27243675785e-06
4.68990205861e-05
5.00947103138e-05
1.8334122037e-07
2.3941450595e-05
4.24201453116e-08
2.83275592683e-05
-3.27991084768e-07
3.27513115489e-05
-9.01463013418e-07
3.5539955183e-05
-1.60529163203e-06
3.76141834062e-05
-2.43075469369e-06
3.97641051241e-05
-3.40630774342e-06
4.22443242413e-05
-4.63121768506e-06
4.50988100366e-05
-6.08822716253e-06
4.83525850565e-05
5.18963111398e-05
5.94311981033e-07
2.33450067823e-05
9.0266151048e-07
2.80165027692e-05
8.51983853202e-07
3.27987898884e-05
7.63508268062e-07
3.56248302918e-05
4.63922071105e-07
3.79100517427e-05
4.29825114998e-08
4.01810246265e-05
-5.47909590736e-07
4.28315557859e-05
-1.38241154951e-06
4.59327914791e-05
-2.53749589489e-06
4.95124105777e-05
5.35052494693e-05
1.02382598511e-06
2.23174635631e-05
1.76125241977e-06
2.72748974199e-05
2.20769643969e-06
3.23482936852e-05
2.42968691002e-06
3.53989511863e-05
2.62765484734e-06
3.77062861772e-05
2.68843056925e-06
4.01158961175e-05
2.55441726076e-06
4.29645392562e-05
2.17981366115e-06
1.47752395347e-06
1.45343101847e-06
2.08587388371e-05
2.63692419435e-06
2.60864468745e-05
3.5296294848e-06
3.14508073676e-05
4.27455164121e-06
3.46462926599e-05
4.93368105748e-06
3.70421322633e-05
5.47700452e-06
1.88506739441e-06
3.54330233043e-06
4.9100162057e-06
3.00765353977e-05
6.16787354018e-06
3.33831949024e-05
6.32305394423e-06
)
;

boundaryField
{
    back
    {
        type            calculated;
        value           uniform 0;
    }
    sides
    {
        type            calculated;
        value           uniform 0;
    }
    bottom
    {
        type            calculated;
        value           uniform 0;
    }
    front
    {
        type            calculated;
        value           uniform 0;
    }
    atmosphere
    {
        type            calculated;
        value           nonuniform List<scalar> 0();
    }
    floatingObject
    {
        type            calculated;
        value           nonuniform List<scalar> 0();
    }
    procBoundary2to0
    {
        type            processor;
        value           nonuniform List<scalar> 
14
(
4.63102847182e-05
5.02212984384e-05
5.47279034211e-05
3.95686857539e-05
5.91822344307e-06
4.25217760809e-05
1.89679137385e-05
2.4422309795e-05
7.36635387506e-06
3.58370207273e-05
-4.46293548399e-06
2.82085204853e-05
8.1007323165e-06
3.15995121731e-05
)
;
    }
    procBoundary2to1
    {
        type            processor;
        value           nonuniform List<scalar> 
18
(
-2.62799837849e-05
-2.91344707895e-05
-3.08000084534e-05
-1.58448401423e-05
-3.53394024089e-05
-2.35448323754e-05
-3.82171454489e-05
-3.4654759621e-05
-3.07277877536e-05
-2.70959434473e-05
-2.34172053674e-05
-2.0158455946e-05
-1.72074978147e-05
-1.42324135274e-05
-1.12192378402e-05
-7.89097979833e-06
-4.13889015956e-06
2.69619551681e-07
)
;
    }
}


// ************************************************************************* //
