/*--------------------------------*- C++ -*----------------------------------*\
| =========                 |                                                 |
| \\      /  F ield         | OpenFOAM: The Open Source CFD Toolbox           |
|  \\    /   O peration     | Version:  v2012                                 |
|   \\  /    A nd           | Website:  www.openfoam.com                      |
|    \\/     M anipulation  |                                                 |
\*---------------------------------------------------------------------------*/
FoamFile
{
    version     2.0;
    format      ascii;
    class       surfaceVectorField;
    location    "2.7";
    object      Uf;
}
// * * * * * * * * * * * * * * * * * * * * * * * * * * * * * * * * * * * * * //

dimensions      [0 1 -1 0 0 0 0];


internalField   nonuniform List<vector> 
305
(
(4.91364030503e-05 -0.000161189396966 7.90716961999e-22)
(0.000160942394056 -6.65118215502e-05 6.71280601174e-22)
(0.000242537100962 -0.000672549632181 7.55445463776e-22)
(0.000511096760212 -0.000577847234083 1.21216910358e-21)
(0.000300518368281 -0.00134352451668 7.23036570285e-23)
(0.000670718002119 -0.00120608015279 4.85892042298e-22)
(0.000292745813241 -0.00205526580481 -6.40904435313e-22)
(0.000711515561959 -0.0018637273769 -4.14485604199e-22)
(0.000286140754039 -0.00277955123233 -9.12668513009e-22)
(0.000724119633152 -0.00258730185806 -1.05997865282e-21)
(0.000303797259388 -0.00353126341254 -7.50733153881e-22)
(0.000751712788267 -0.00335473422105 -1.06957132923e-21)
(0.000336160405122 -0.00435116785434 -2.16584016415e-22)
(0.000820115330561 -0.00416527040924 -8.00488841593e-22)
(0.000905196783326 -0.00505056193808 -3.13628684752e-23)
(0.000590478473942 -0.000526229359666 1.09273274276e-21)
(0.000686918656257 -0.000239481402978 1.23007996223e-21)
(0.000899869435413 -0.00108342476924 9.42615682106e-22)
(0.00106804072995 -0.00088075277579 1.8363521028e-21)
(0.00105202037968 -0.00170905065716 -8.97218929359e-25)
(0.00129611234067 -0.00150699910555 8.4261568222e-22)
(0.00111249877532 -0.00241129608036 -8.3355982171e-22)
(0.00141357394012 -0.00215517580782 -2.31286315474e-22)
(0.00116484011153 -0.00316055730265 -1.21688146905e-21)
(0.00147326818069 -0.00289735640004 -8.86987510704e-22)
(0.00125060290484 -0.00398514741163 -1.11932701694e-21)
(0.0015763540027 -0.00369527711784 -9.01378281998e-22)
(0.0013698810055 -0.00486434466867 -6.15267693653e-22)
(0.00169957586372 -0.00455273579044 -7.07021456172e-22)
(0.00186825818573 -0.00548678906513 -1.33959017921e-22)
(0.00121005294618 -0.000658043157946 1.97369932227e-21)
(0.00134474886529 -0.000269743994758 1.51115792022e-21)
(0.00152809713653 -0.00125879260965 1.73635210292e-21)
(0.00166859405181 -0.000975854987315 2.17796150815e-21)
(0.00173411276495 -0.00192704989803 6.12226585676e-22)
(0.00196420234624 -0.00161903280438 1.2267656551e-21)
(0.00185312380475 -0.00264590605496 -2.84714004469e-22)
(0.00213231299371 -0.00227226570485 1.99526812786e-22)
(0.00196267067687 -0.00343258987404 -5.71484323657e-22)
(0.00225991190699 -0.00302030185574 -3.3907441215e-22)
(0.00210449441397 -0.00427728970993 -4.89072721228e-22)
(0.00242116455952 -0.00382213116738 -3.55586753986e-22)
(0.00229642045165 -0.00517416785613 -2.2571278044e-22)
(0.00259674231799 -0.00467667046877 -3.31260430167e-22)
(0.00285459565892 -0.00560942984521 3.40164622099e-23)
(0.00181875989263 -0.000641654449632 1.7154201061e-21)
(0.00198626662807 -0.00023070195643 1.19942536315e-21)
(0.00213006899423 -0.00126435484492 1.66837506033e-21)
(0.00229118809293 -0.000944850094916 1.91092145044e-21)
(0.00239088526281 -0.00193336726629 8.14065882206e-22)
(0.00263314368044 -0.00156554721463 1.33579815212e-21)
(0.00256969304418 -0.00264292524872 1.45166405105e-22)
(0.00284185046255 -0.00221425972161 4.4231915092e-22)
(0.00273683416779 -0.003417762836 -1.2317684248e-22)
(0.00303479822272 -0.00294706662058 2.31849894715e-23)
(0.00293793962973 -0.00422718728734 -1.97774462925e-22)
(0.00323072576433 -0.00372116748419 -7.57870264975e-23)
(0.00319330037257 -0.00511707332725 -7.15311875172e-23)
(0.00348691739985 -0.00453729062479 -1.05204861704e-22)
(0.00352740383301 -0.00606047018236 1.0474643591e-22)
(0.00379845919446 -0.0054093516664 4.83026634726e-23)
(0.00417721866826 -0.00634902863011 7.79698473836e-23)
(0.00244326386382 -0.000578212753891 1.39492670749e-21)
(0.0025644433106 -0.000178321877246 8.82966665225e-22)
(0.00278108337796 -0.00119472167169 1.57834454222e-21)
(0.00290770295546 -0.000864195381558 1.60253599798e-21)
(0.00308015366759 -0.0018481216006 9.64051420829e-22)
(0.00328658880068 -0.00144983052206 1.27225930312e-21)
(0.00330094524051 -0.00252820035651 3.20337735286e-22)
(0.0035220194449 -0.00207276526348 4.80736471535e-22)
(0.00351575688228 -0.00324788563561 7.05748054538e-23)
(0.00375462394349 -0.00276873912385 1.21325378039e-22)
(0.00377075995586 -0.00401810471352 1.67825747242e-23)
(0.00400112938058 -0.00349468011366 2.31991052078e-23)
(0.00409256014036 -0.00483040031767 1.46289892862e-23)
(0.00429943432281 -0.00424613417429 1.16865430067e-23)
(0.00449377515426 -0.00568572487019 2.15260749465e-23)
(0.00465405993778 -0.00504381785217 1.01271659926e-23)
(0.00498047083044 -0.00664154106021 9.99284368349e-24)
(0.00513329307457 -0.00590467963083 4.65724620387e-24)
(0.00571131131233 -0.00681122081569 4.39310132051e-24)
(0.00301295672111 -0.000515913335266 1.09057595571e-21)
(0.0030804338867 -0.0001361501915 6.65484720723e-22)
(0.00339683542619 -0.00105573137883 1.29645075888e-21)
(0.00344764862956 -0.000772095965666 1.40344721794e-21)
(0.00372800941276 -0.00166972691151 7.8894435383e-22)
(0.00390075133263 -0.00132257774812 9.67484776525e-22)
(0.00398139410004 -0.00233175571424 2.81724114288e-22)
(0.00418424808984 -0.00189659127012 3.71188297418e-22)
(0.00423589002083 -0.00300492912392 7.39496777935e-23)
(0.00442801440706 -0.00253661413602 1.06384926178e-22)
(0.00453547453114 -0.0037215486777 1.81030734902e-23)
(0.00471795245679 -0.00320331840796 2.21585098045e-23)
(0.00490012800793 -0.00445733707044 7.18471971309e-24)
(0.00503536950839 -0.00388712352228 1.76653384372e-24)
(0.00533558412353 -0.00525232276275 -6.74166274999e-24)
(0.00544906325359 -0.00461500515546 -3.35574238974e-24)
(0.00587790781761 -0.0060686820724 -9.42496159113e-25)
(0.00594937309872 -0.00537207084582 -1.87391547468e-23)
(0.00657300846345 -0.00614190846638 1.07731688807e-23)
(0.00351724759873 -0.000438763292026 9.78355982953e-22)
(0.00351938770811 -9.79556368049e-05 7.85123425472e-22)
(0.0039546836035 -0.000966178746338 1.07448123559e-21)
(0.00397530789527 -0.000678850111908 1.44981735511e-21)
(0.00433209843177 -0.00151339890263 5.49728720112e-22)
(0.00444824963224 -0.00118337703447 9.804739229e-22)
(0.00461960493617 -0.0021084639785 1.95849109308e-22)
(0.00477960393786 -0.00169662848082 3.76221280474e-22)
(0.00489798860523 -0.00272893568045 5.45937581892e-23)
(0.00504875021427 -0.00228016464636 1.01644997275e-22)
(0.00522501398371 -0.00336106617512 5.82197015797e-24)
(0.00535025825413 -0.00288048122126 2.17487451393e-23)
(0.00561481505996 -0.00403907374628 -8.77392825911e-24)
(0.00571338804099 -0.0034974623093 -2.03155971612e-25)
(0.00608782533521 -0.00474254981804 -1.53532343865e-23)
(0.00615221924971 -0.00414199828015 -4.09650260514e-24)
(0.00666389359475 -0.00542637128261 -7.02348970694e-24)
(0.00663221620676 -0.00479721702168 -1.36446843728e-23)
(0.00729080497919 -0.00545664066846 4.64095864773e-24)
(0.00395722559158 -0.000385228767158 1.25658479762e-21)
(0.00390490566432 -6.10806739501e-05 9.13568002832e-22)
(0.00445387974266 -0.000828903024506 1.35581004242e-21)
(0.00441932014827 -0.000582040946093 1.53508051051e-21)
(0.00487859664253 -0.00133498843002 8.06966483262e-22)
(0.00495469609081 -0.00103447802439 1.10562072957e-21)
(0.00519499610607 -0.00186957805771 2.82017168441e-22)
(0.00531453936137 -0.0014811349381 4.57641728142e-22)
(0.00549945337555 -0.00243358024899 6.87999842256e-23)
(0.00561301843008 -0.00200047116508 1.15476878525e-22)
(0.0058416385442 -0.00299202733607 1.57236190097e-23)
(0.00590879740243 -0.00254231105627 3.46191475082e-23)
(0.00624922241006 -0.0035903318436 4.47426968236e-24)
(0.00631151239734 -0.003089135505 1.79284066849e-23)
(0.00674070009636 -0.00418546998213 -2.38795259137e-24)
(0.00674659344544 -0.00364934856618 -7.34591424152e-25)
(0.00731665817065 -0.00481925030561 -1.9802360181e-24)
(0.00726433194675 -0.00422105668284 5.10557506236e-25)
(0.00788837427627 -0.00478335150071 9.24006184277e-24)
(0.00433610848269 -0.000320181742406 1.19206371572e-21)
(0.00422544428951 -2.78667238419e-05 7.41363567776e-22)
(0.00489560766251 -0.000695146361506 1.28489119767e-21)
(0.004794677047 -0.00047827014977 1.26149047595e-21)
(0.00536881523937 -0.00114020662503 7.56295974454e-22)
(0.00540015363594 -0.000875281065714 9.51672991983e-22)
(0.00570681251729 -0.00161232823951 2.91101438226e-22)
(0.00578700959032 -0.00125822748166 4.15515230225e-22)
(0.00602907598133 -0.00209874315596 8.12960418078e-23)
(0.00609964386401 -0.00170677765844 1.02510462584e-22)
(0.00639173368788 -0.0026229091479 3.68239351833e-23)
(0.00643292138797 -0.00218446487562 3.27409894344e-23)
(0.0068121129086 -0.00312680081824 1.27195455783e-23)
(0.00681497734919 -0.00266800293005 1.56564434935e-23)
(0.00730309575623 -0.00367235285677 2.16391867345e-24)
(0.00729096044256 -0.00315676181114 -6.72978929487e-25)
(0.00786739019356 -0.00417943412363 1.17308553671e-23)
(0.00776896177932 -0.00365641620221 6.7935621854e-24)
(0.00838926687516 -0.00413884993724 2.17903566772e-23)
(0.00465420648133 -0.000249697888451 8.10790328001e-22)
(0.00447551902772 8.15357870912e-06 2.16057038207e-22)
(0.00527325924145 -0.000579986167998 9.28272270261e-22)
(0.00512535466646 -0.000370513790998 7.95664231172e-22)
(0.00579179697123 -0.000949789969483 6.10892247754e-22)
(0.00577032776791 -0.000708743470056 5.72543451631e-22)
(0.00615439595958 -0.00135123215965 2.26924254583e-22)
(0.00618873703862 -0.00102497668478 3.22399663087e-22)
(0.00648447570395 -0.00177428907957 5.3955410211e-23)
(0.00652279708988 -0.00140913518945 6.96040771202e-23)
(0.0068604814311 -0.00221392348781 1.15734977445e-23)
(0.00687232778259 -0.0018139691193 1.21027343385e-23)
(0.00729709124104 -0.00267608587881 2.26391898566e-24)
(0.00727646531791 -0.00223068645057 1.62726377208e-24)
(0.00779246321758 -0.00312041667848 3.95666458246e-24)
(0.00773367065275 -0.00265993694607 -1.08321923828e-24)
(0.0083493099798 -0.00360852784474 1.68530634955e-23)
(0.00825420235226 -0.00309952513627 6.29373406343e-24)
(0.0088086982625 -0.00353697073453 1.92658778676e-23)
(0.00490942888133 -0.000182884714157 2.00930941378e-22)
(0.00465873826246 4.82418010193e-05 -1.46935544486e-22)
(0.00558588907361 -0.000429627002854 4.39935412542e-22)
(0.0053724127769 -0.000260467761666 6.65423103309e-22)
(0.00614487263354 -0.000741996706486 2.84050866964e-22)
(0.00608296588482 -0.000539325510077 4.48012437514e-22)
(0.00653372980665 -0.00108297779832 1.65079485624e-22)
(0.00652986869783 -0.000779622123693 2.91464724327e-22)
(0.00688119602655 -0.00143683205409 2.77514012477e-23)
(0.00687657357598 -0.00109799480517 4.93610938758e-23)
(0.00726551464342 -0.00180877186692 2.15650036607e-24)
(0.00724384314564 -0.00143595850242 3.60983968331e-24)
(0.00771057731031 -0.00219798410296 -1.71987445187e-24)
(0.00766477591453 -0.00178496477491 9.80394275129e-25)
(0.00821409098745 -0.00261308867127 1.25385024269e-24)
(0.00814695636577 -0.00215488498137 -2.75532544128e-24)
(0.00876842086928 -0.00300559151926 8.70654843554e-24)
(0.00864358475089 -0.00254484635507 5.36050620033e-24)
(0.00924095871458 -0.00295145232582 1.82957670469e-23)
(0.00508864754326 -0.000121460091741 3.17556617445e-22)
(0.0047804196401 8.95583750925e-05 -5.34350588185e-23)
(0.00582535233906 -0.000288439523376 6.73500128281e-22)
(0.00553955868356 -0.000145046668185 7.8493271188e-22)
(0.00642875355856 -0.000523291920538 4.55426294876e-22)
(0.00631790863768 -0.000362991819091 6.98406968949e-22)
(0.00684168023268 -0.000793644668769 1.75746332579e-22)
(0.00680016976093 -0.000524570586261 3.13664655593e-22)
(0.00720924883492 -0.00108389920044 2.52195323114e-23)
(0.00716654204485 -0.000770712579993 5.24719303779e-23)
(0.00761127864766 -0.00139088943661 2.43373359236e-24)
(0.00755021134548 -0.0010410805048 3.74599152666e-24)
(0.00806871996297 -0.00171340880551 -5.50567142807e-26)
(0.0079862654721 -0.00132708833509 2.97390440611e-24)
(0.00858653640133 -0.00206027098588 1.35133051637e-24)
(0.00849195768505 -0.00163576847455 7.87638347735e-24)
(0.0091493520863 -0.00245281106058 1.49497248117e-23)
(0.00903341780298 -0.00198155679253 1.37686620456e-23)
(0.0096314868016 -0.00236393818663 1.22136980951e-23)
(0.00518940578138 -4.46888912931e-05 4.13941035617e-22)
(0.00482514832695 0.000132110463384 -1.87854526292e-22)
(0.00598648771713 -0.000142809978641 8.09839552548e-22)
(0.00563763026029 -2.43107190156e-05 6.21644725124e-22)
(0.00663879507554 -0.000301641707459 5.56645329665e-22)
(0.00647659138852 -0.00017496652097 5.24990560583e-22)
(0.00707924840249 -0.000495604996701 1.90390253392e-22)
(0.00699383694333 -0.000255576517596 2.82858821117e-22)
(0.0074669577197 -0.000712315218507 3.09983895932e-23)
(0.00738274736702 -0.000427048825881 4.98304607502e-23)
(0.00789184448207 -0.000951378890712 4.2861623404e-24)
(0.00778852336279 -0.000624402718103 4.03007458219e-24)
(0.00837618140214 -0.00122078411358 1.09053445977e-23)
(0.00825463169213 -0.000842701859944 4.13479881707e-24)
(0.00891718644162 -0.00150613995331 2.02937150066e-23)
(0.00877577975556 -0.00109340691588 1.9093152073e-24)
(0.00950998283362 -0.00185448735157 1.1032635329e-23)
(0.00937980411722 -0.00138772854707 4.21736532175e-24)
(0.0100189420628 -0.00173787916589 -5.96477467829e-24)
(0.00521653780946 3.66682440741e-05 1.98491632159e-23)
(0.004788290119 0.000170162511486 -4.76969620013e-22)
(0.00607508838233 8.48402906232e-06 3.3679573316e-22)
(0.00566551185367 0.000103603171235 1.20593528399e-22)
(0.00677601685491 -6.55982169537e-05 2.51204052034e-22)
(0.00655026230978 2.55322996768e-05 1.46646132095e-23)
(0.00724232528871 -0.000180292602684 1.42299028475e-22)
(0.0071079910366 2.58549390161e-05 9.32026074908e-23)
(0.00765295703869 -0.000321058326406 2.28621457392e-23)
(0.00752283668124 -6.43853583081e-05 7.93009389101e-24)
(0.00810329734109 -0.000486150938738 3.87871105885e-24)
(0.00795282102482 -0.000182809545342 -4.67152031396e-24)
(0.00862134140342 -0.000681261548683 -4.86123057338e-24)
(0.00844886484826 -0.000323940313235 3.00159338943e-24)
(0.00920638915661 -0.000926243537012 -1.41670344776e-23)
(0.00901976200733 -0.000506281175429 -1.35986368429e-23)
(0.00985139175248 -0.00121764543251 -1.27800446856e-23)
(0.0096705170113 -0.000740849748616 -7.82352564811e-24)
(0.010379262228 -0.00104417062123 -4.83693859778e-24)
(0.00517053677043 0.000118862396207 -3.76225254829e-22)
(0.00466900135646 0.000206561393982 -8.73314465019e-22)
(0.00608799143793 0.000180532302096 -2.01537591551e-22)
(0.00560330055385 0.000237063029759 -4.36817618151e-22)
(0.00684010399427 0.00017039677064 -1.43336831334e-22)
(0.00655975797767 0.000240725189994 -3.61035018854e-22)
(0.00733383194296 0.000152701653612 -4.1166327093e-23)
(0.00712496605837 0.000320302426687 -1.0764401246e-22)
(0.00776321248661 9.27844142211e-05 -1.96035721621e-23)
(0.00758201034854 0.000312986450069 -4.64334156587e-23)
(0.00824030209253 8.59650229997e-06 -5.54863798338e-24)
(0.00803620492529 0.000285094759859 -9.28196642265e-24)
(0.00879427383132 -0.000109581918147 -5.73581288011e-24)
(0.00856631115718 0.000231044021649 3.3044318494e-24)
(0.00943089204939 -0.000276482309902 -7.25512801345e-24)
(0.00918655829582 0.0001334523638 -4.98683507172e-24)
(0.0101480977518 -0.000507499178977 1.19580439681e-25)
(0.00990248211554 -2.01893943478e-05 9.32597998103e-24)
(0.0107010498939 -0.000252549041704 1.62255690475e-23)
(0.00504102618365 0.000204765197022 -9.3390682834e-22)
(0.00446349271261 0.000243415135747 -1.1205904546e-21)
(0.006013544737 0.000352250483955 -5.96315045454e-22)
(0.00545497948398 0.000371347067201 -5.96511115543e-22)
(0.00680971305299 0.000441539287938 -3.2534219998e-22)
(0.00646965873703 0.000463203182398 -3.82550395031e-22)
(0.00733357441873 0.000485937382005 -1.12911101026e-22)
(0.00707979023727 0.000630831499278 -1.23762940521e-22)
(0.00778899997189 0.000525530969469 -3.61118099193e-23)
(0.00754125723545 0.000711900105853 -4.98635088855e-23)
(0.00829520872088 0.000537686113851 -4.28896589868e-25)
(0.0080231792235 0.000780759409897 2.28654942365e-24)
(0.0088896982906 0.000510883452152 4.05340965779e-24)
(0.00859290785124 0.000826999075383 1.84228954555e-23)
(0.00958411957309 0.000435962732229 1.15942729228e-23)
(0.0103811584836 0.000295504790694 2.54319685888e-23)
(0.00481742111646 0.000290686203695 -7.83194741807e-22)
(0.00417174776743 0.000280685979778 -7.55558410521e-22)
(0.00584525601523 0.00052738483887 -3.8274646512e-22)
(0.0052172893749 0.000507061875332 -1.90818080011e-22)
(0.00667969975127 0.000705925896961 -1.80971135572e-22)
(0.00629016147351 0.000688709710012 -1.16826668498e-22)
(0.00722994619337 0.000854910328243 -6.07153483808e-23)
(0.00692925853199 0.000953461148895 -3.59980484034e-23)
(0.00771463040685 0.000986736211495 -1.14651495426e-23)
(0.00740842645265 0.00113562470329 -3.3411230225e-23)
(0.00825315720463 0.001095400904 2.11383414691e-23)
(0.00449984564219 0.000377013478883 -1.63181748725e-22)
(0.00558317626886 0.000708660466085 7.51017166114e-23)
(0.0064585074937 0.000982003241139 2.81464186711e-23)
(0.00601530707954 0.000920161351655 1.50272195785e-22)
(0.0070303516773 0.00123357470804 -8.69393024769e-24)
(0.00667663898048 0.00128443958358 1.10802848632e-22)
(0.00614625953918 0.00126461078885 2.32928625746e-22)
)
;

boundaryField
{
    back
    {
        type            calculated;
        value           uniform (0 0 0);
    }
    sides
    {
        type            calculated;
        value           uniform (0 0 0);
    }
    bottom
    {
        type            calculated;
        value           uniform (0 0 0);
    }
    front
    {
        type            calculated;
        value           uniform (0 0 0);
    }
    atmosphere
    {
        type            calculated;
        value           nonuniform List<vector> 0();
    }
    floatingObject
    {
        type            calculated;
        value           nonuniform List<vector> 0();
    }
    procBoundary2to0
    {
        type            processor;
        value           nonuniform List<vector> 
14
(
(0.00926205694363 0.000832375347532 7.22323742786e-24)
(0.0100442596877 0.000781206637399 1.33440200086e-23)
(0.0109455806842 0.000651882428407 2.34378640803e-23)
(0.00791373715077 0.00130822875103 1.2367456042e-24)
(0.00888849401627 0.00118364468861 2.15927232256e-23)
(0.00850435521618 0.00146379500868 1.79809829947e-23)
(0.0037935827477 0.000323990937264 -1.67685957385e-22)
(0.00488446195901 0.000646403421012 3.76206635751e-22)
(0.00753145827742 0.00147327077501 -2.07093350783e-23)
(0.00716740414547 0.0015717342669 -7.10882502347e-24)
(0.00523773762647 0.000892587096797 4.51377114924e-22)
(0.00564170409707 0.00115039301766 1.5527256295e-22)
(0.00673023096245 0.0016201464633 1.12387953856e-22)
(0.00631990243462 0.00161393025784 1.55261509011e-22)
)
;
    }
    procBoundary2to1
    {
        type            processor;
        value           nonuniform List<vector> 
18
(
(0.000389862358949 -0.00525599675697 5.60471115472e-22)
(0.00152320706226 -0.0058268941579 -7.17207845983e-23)
(0.00253879897858 -0.00616000169069 9.1428190689e-23)
(0.00316896802846 -0.00661153230252 1.62158164389e-22)
(0.00394180348624 -0.00706788048177 -1.59249370616e-23)
(0.00470896647507 -0.00736941339728 -8.39019407617e-23)
(0.00558668862424 -0.00764342908977 -4.1557917756e-24)
(0.00655984725083 -0.00693095192421 1.06716995272e-24)
(0.00735213135676 -0.00614555755073 3.25761135971e-25)
(0.00799118420029 -0.00541918868946 -2.5358626525e-24)
(0.00851336164346 -0.00468344107348 6.20230701126e-24)
(0.00895263465148 -0.0040316911892 9.15586272507e-24)
(0.00935514311365 -0.00344149956294 5.0928199047e-25)
(0.00973733719293 -0.00284648270549 4.56225354448e-24)
(0.0101359051567 -0.00224384756804 -1.13190526903e-23)
(0.0105440064367 -0.00157819595967 -2.08167854826e-23)
(0.0109368544869 -0.000827778031911 -8.68781867417e-24)
(0.0112817323834 5.39239103363e-05 5.95146082564e-24)
)
;
    }
}


// ************************************************************************* //
