/*--------------------------------*- C++ -*----------------------------------*\
| =========                 |                                                 |
| \\      /  F ield         | OpenFOAM: The Open Source CFD Toolbox           |
|  \\    /   O peration     | Version:  v2012                                 |
|   \\  /    A nd           | Website:  www.openfoam.com                      |
|    \\/     M anipulation  |                                                 |
\*---------------------------------------------------------------------------*/
FoamFile
{
    version     2.0;
    format      ascii;
    class       surfaceScalarField;
    location    "5.2";
    object      alphaPhi0.water;
}
// * * * * * * * * * * * * * * * * * * * * * * * * * * * * * * * * * * * * * //

dimensions      [0 3 -1 0 0 0 0];
oriented        oriented;


internalField   nonuniform List<scalar> 
3840
(
-1.82284922494e-05
1.82275005155e-05
-3.75543571149e-05
1.93247177428e-05
-5.78505743703e-05
2.02953293498e-05
-7.88322625856e-05
2.09808080629e-05
-0.000100515222837
2.16821096899e-05
-0.000123091473913
2.25764758003e-05
-0.000146921764504
2.3831810694e-05
-0.000172267013125
2.53475305398e-05
-0.000199475741608
2.72130148347e-05
-0.000228909111152
2.94362101297e-05
-0.000260832593888
3.19273943606e-05
-0.000295861289818
3.50342570463e-05
-0.000334227570527
3.83732921134e-05
-0.000375741886956
4.15149366202e-05
-0.000420876635095
4.51351575833e-05
-0.000467789445111
4.69125386592e-05
-0.000487523304387
3.7053331422e-05
1.91675360039e-05
4.02275719884e-05
-1.92653080294e-06
4.87179137718e-07
2.13169517011e-07
-1.90496241863e-05
3.72760319383e-05
-3.86579252046e-05
3.89320020157e-05
-5.87538408444e-05
4.03903590901e-05
-7.95605749194e-05
4.17866507006e-05
-0.000101208556305
4.33295102158e-05
-0.000123841335549
4.52095412959e-05
-0.000147620895182
4.76128122039e-05
-0.000172926804115
5.06562087657e-05
-0.000200053655366
5.4344280338e-05
-0.000229346228997
5.87322349451e-05
-0.000261324706735
6.3910514365e-05
-0.000296398367217
7.01131052898e-05
-0.000335175165223
7.71571777624e-05
-0.000378744266397
8.50845775411e-05
-0.000429306856836
9.56982025541e-05
-0.000488783767591
0.000106389737595
-0.000543495686302
0.000103448193787
5.28750005087e-05
6.34463531765e-05
-1.55617445102e-07
1.06677862672e-07
5.75533328932e-08
-1.94166746036e-05
5.66917416862e-05
-3.88766398568e-05
5.83910084976e-05
-5.87956381245e-05
6.03085497245e-05
-7.93543201955e-05
6.23447141312e-05
-0.000100683635191
6.46582433168e-05
-0.000123008106593
6.75342671412e-05
-0.000146447802039
7.10535327435e-05
-0.000171279744887
7.54908862164e-05
-0.000197851300649
8.09207538296e-05
-0.000226521830881
8.7405622629e-05
-0.000257764295871
9.51567742424e-05
-0.000292173529735
0.000104527370382
-0.00033076367403
0.00011575329506
-0.000374855467261
0.000129177199377
-0.000426934324589
0.000147777239302
-0.000488043793674
0.00016749934692
-0.000547383408238
0.000167652793738
5.79599444075e-05
8.66104434604e-05
-5.72342432088e-08
-7.57657722638e-09
2.31221156275e-10
-1.91051199849e-05
7.57960196675e-05
-3.82676406763e-05
7.75527239304e-05
-5.78146316272e-05
7.98548658742e-05
-7.7926210906e-05
8.24557721716e-05
-9.87540417106e-05
8.54856501851e-05
-0.000120414768655
8.91949329149e-05
-0.000143156083718
9.37956019669e-05
-0.000167137085582
9.94737532736e-05
-0.000192631373967
0.000106421148271
-0.00022007010196
0.00011484933107
-0.000249895365641
0.000124983939475
-0.000282611106045
0.000137245200201
-0.000319226691374
0.000152373587891
-0.000361493888843
0.000171443688214
-0.000410823447469
0.000197106964362
-0.000468635650341
0.000225312300021
-0.000530775495999
0.000229801978389
1.54846256563e-05
0.000113250801714
3.21256974111e-11
-6.04826458585e-07
-9.83035981898e-12
-1.84177718378e-05
9.42131356442e-05
-3.70028182124e-05
9.61371545511e-05
-5.59538449281e-05
9.88053563893e-05
-7.54053731964e-05
0.000101906906272
-9.54671691094e-05
0.000105547166049
-0.000116273589231
0.000110001299574
-0.000137985733381
0.000115507937067
-0.000160774086484
0.000122263216321
-0.00018484835234
0.000130498064772
-0.000210492292565
0.000140498696171
-0.000238075066807
0.000152568801833
-0.000268063844142
0.00016723155549
-0.000301090475358
0.000185403135211
-0.000337838698767
0.000208190692025
-0.000379135762823
0.000238404390932
-0.000425445913654
0.000271623052531
-0.000477460088919
0.000281826267141
-5.70571579364e-05
0.000150181074433
2.96361424813e-10
-1.97942055493e-06
2.29487748546e-12
-1.75545572285e-05
0.000111767254725
-3.53556779278e-05
0.000113937880204
-5.35061099216e-05
0.000116955444561
-7.20934093075e-05
0.000120493952225
-9.11964013373e-05
0.000124650024671
-0.000110928776379
0.000129733577463
-0.000131394095811
0.000135973255324
-0.000152746414154
0.00014361609908
-0.000175101973776
0.000152854881335
-0.000198633662489
0.000164030431805
-0.000223503223889
0.000177440967186
-0.00024985782725
0.00019358379497
-0.00027744633804
0.000212992192692
-0.000305941515007
0.000236685419737
-0.000334006737866
0.000266470118312
-0.000362190284474
0.000299806243283
-0.000399919919827
0.000319563115889
-0.000101188369609
0.000202680491239
-5.74328667717e-11
-7.80233986781e-07
-6.88811260381e-12
-1.65886486497e-05
0.000128355689241
-3.34519484885e-05
0.000130801007527
-5.06484273565e-05
0.000134151776176
-6.82243561039e-05
0.000138069773182
-8.62266917258e-05
0.000142652309445
-0.00010471455155
0.000148221309349
-0.000123790248825
0.000155048835306
-0.000143517175685
0.000163342915082
-0.000164002572592
0.000173340098047
-0.000185263003035
0.000185291520969
-0.000207339594273
0.000199516187663
-0.000230048614989
0.000216290917258
-0.000252918082427
0.000235858803212
-0.000274423135573
0.000258189958756
-0.00029237494679
0.000284423170545
-0.000307763747076
0.000315195299418
-0.000333711416955
0.000345514696266
-9.39960627749e-05
0.000254499188898
-8.80599896921e-09
2.30324427279e-06
8.35511671924e-10
-1.55494042489e-05
0.000143905089103
-3.1363630839e-05
0.000146615267854
-4.74974198639e-05
0.000150285607733
-6.39506302812e-05
0.00015452299245
-8.07375559105e-05
0.00015943920515
-9.78980804584e-05
0.00016538171709
-0.000115480471218
0.000172630826177
-0.00013353167776
0.000181393154259
-0.000152080372119
0.000191886945262
-0.000171128459109
0.000204339938777
-0.000190584857467
0.000218969681347
-0.000210251328901
0.000235957798717
-0.000229714439747
0.000255317936598
-0.000248316000616
0.000276787726796
-0.000265083964041
0.000301190842355
-0.000279725755463
0.000329833460232
-0.000294253931069
0.000360041997162
-7.86292727089e-05
0.000277285301253
-8.58885246925e-10
6.00433409533e-06
-1.69725570307e-11
-1.44399079871e-05
0.000158345162332
-2.91344674282e-05
0.000161310007075
-4.41294335547e-05
0.000165280745328
-5.9386410549e-05
0.00016978013569
-7.48971192248e-05
0.000174949918909
-9.06624248621e-05
0.000181146854502
-0.000106701310907
0.000188669203999
-0.00012303865717
0.000197729199172
-0.000139650571206
0.000208496947067
-0.00015654054948
0.000221230829255
-0.000173645380975
0.00023607160806
-0.000190799898416
0.000253112191885
-0.00020784975561
0.000272366712054
-0.000224866192238
0.000293802680377
-0.000241703580781
0.000318027122621
-0.000257814137648
0.000345944146381
-0.000264384036654
0.000366613778
-6.46033123963e-05
0.000275330266083
8.01906207174e-11
8.52637563591e-06
-3.85953663807e-12
-1.32765361199e-05
0.000171621957598
-2.68587610326e-05
0.000174892532803
-4.06269404914e-05
0.0001790492111
-5.46103206777e-05
0.000183763701296
-6.87861781942e-05
0.000189125798061
-8.31326697151e-05
0.000195493090571
-9.76369098363e-05
0.000203172805704
-0.000112282262664
0.000212373138965
-0.000127049663879
0.000223262841919
-0.00014188462806
0.000236066624764
-0.000156776678145
0.000250960784005
-0.000171553167036
0.000267886384512
-0.000186042636793
0.000286854607589
-0.000200522718261
0.000308281647477
-0.000215413255096
0.000332916964479
-0.000228275841562
0.00035880659267
-0.000231489202022
0.000369827795326
-5.28665874366e-05
0.000260520679997
-6.41056232671e-08
9.2037621574e-06
2.50262957854e-09
-1.20873969639e-05
0.000183709695747
-2.44232709235e-05
0.000187228741796
-3.69750587409e-05
0.000191601287076
-4.96932485751e-05
0.000196482098191
-6.25348224441e-05
0.000201967405322
-7.54632898279e-05
0.000208421148234
-8.84372877662e-05
0.000216146448466
-0.000101479550759
0.000225414849688
-0.000114519898921
0.00023630189781
-0.000127455226784
0.00024899924582
-0.00014013184541
0.000263632733032
-0.000152460779818
0.000280212819873
-0.000164317571643
0.000298710348019
-0.000175597022606
0.000319560600272
-0.000186256221788
0.000343576023977
-0.000193787601181
0.00036633756807
-0.000193041077444
0.000369081145623
-4.37192764016e-05
0.000245269521948
-2.43799188295e-09
8.79150438287e-06
7.02355134012e-11
-1.08752304618e-05
0.000194585227648
-2.19682129431e-05
0.000198322009553
-3.32683838046e-05
0.000202901689726
-4.47136793229e-05
0.000207927487617
-5.62077576008e-05
0.00021346145522
-6.77530899128e-05
0.00021996643425
-7.93053808036e-05
0.000227697675969
-9.07362184333e-05
0.000236844643206
-0.000102057650087
0.0002476212118
-0.000113118152123
0.00026005890583
-0.000123810388721
0.000274324417662
-0.000133895797147
0.000290296807616
-0.000143118299439
0.000307932206579
-0.000151037222633
0.000327479895982
-0.000156801125759
0.000349340035836
-0.00015897126449
0.000368507610721
-0.000157052567923
0.00036716269061
-3.82674599258e-05
0.000238512023688
-1.41163769583e-07
7.93060941742e-06
3.0865258235e-09
-9.66332291663e-06
0.000204248769011
-1.95032735191e-05
0.000208162146782
-2.9545013446e-05
0.000212943548985
-3.97128613414e-05
0.000218095285479
-4.99158650897e-05
0.000223664202581
-6.00551471072e-05
0.000230105891525
-7.01270276562e-05
0.000237769685971
-8.00758871604e-05
0.000246792148503
-8.98140923961e-05
0.000257357996232
-9.91810048593e-05
0.000269424244591
-0.000107987593404
0.000283128823361
-0.000116123837428
0.000298432634295
-0.000123209140331
0.000315017900662
-0.000128479783598
0.000332752198055
-0.000130676575336
0.000351537151306
-0.000129550272185
0.00036738123042
-0.000129099535321
0.000366712020918
-3.55990843912e-05
0.000240986556075
-8.55955654149e-09
7.93744764377e-06
2.52448604735e-08
-8.42301993808e-06
0.000212671795
-1.70284835123e-05
0.000216767593446
-2.5831716596e-05
0.000221746699338
-3.4708674226e-05
0.00022697218257
-4.36010223256e-05
0.000232556340279
-5.2433400067e-05
0.000238937725081
-6.11583771553e-05
0.000246494021037
-6.96960603069e-05
0.000255329170345
-7.78873708869e-05
0.000265548404031
-8.57229197726e-05
0.000277259272608
-9.30049848911e-05
0.000290410253747
-9.94827785022e-05
0.000304911205863
-0.000104884637293
0.000320421372511
-0.000108560456761
0.000336430898878
-0.000109449456359
0.000352435555544
-0.000107464099073
0.000365395849829
-0.00010725993718
0.00036650777354
-3.37931646172e-05
0.000249882925519
-3.78718700931e-07
9.85474656262e-06
4.5969155665e-09
-7.18274119263e-06
0.000219854959163
-1.45911242497e-05
0.000224176275541
-2.21289017816e-05
0.000229284484076
-2.97574648289e-05
0.000234600619514
-3.73838034518e-05
0.000240182346274
-4.49220721192e-05
0.000246475325339
-5.22669314779e-05
0.000253838059633
-5.94331799903e-05
0.00026249474813
-6.63210087507e-05
0.000272435962861
-7.28335212935e-05
0.000283771740703
-7.86806762895e-05
0.000296258299624
-8.3873436961e-05
0.000310105683801
-8.80645347535e-05
0.000324615025931
-9.0836968393e-05
0.000339206717947
-9.15400314254e-05
0.000353146978161
-9.01294102896e-05
0.000363985014297
-8.96219125364e-05
0.000366000349797
-2.98938617519e-05
0.000257807386182
-1.36154107394e-07
1.33006154994e-05
1.17903915118e-08
-5.97536333216e-06
0.000225830453073
-1.21309917096e-05
0.000230332153105
-1.84435978617e-05
0.00023559737239
-2.48158173572e-05
0.000240972250878
-3.11509437938e-05
0.00024651645422
-3.74003788529e-05
0.000252723163489
-4.35056011745e-05
0.000259942299629
-4.9419585758e-05
0.000268408025584
-5.49998639129e-05
0.000278015804325
-6.02758724346e-05
0.000289048068431
-6.50737582219e-05
0.000301057079793
-6.91818492546e-05
0.000314215542237
-7.24463273313e-05
0.000327881995501
-7.45921057189e-05
0.000341355557081
-7.53371248294e-05
0.000353898450495
-7.45145605372e-05
0.000363162250509
-7.36769525785e-05
0.00036516249922
-2.54815897746e-05
0.000263486618831
-1.02200379345e-07
1.74944044669e-05
2.93448873902e-11
-4.78421125597e-06
0.00023061466737
-9.71365297176e-06
0.0002352613762
-1.47613623749e-05
0.000240644762299
-1.98571214174e-05
0.000246067880122
-2.49240690515e-05
0.00025158342802
-2.99128093325e-05
0.000257711658826
-3.48073488259e-05
0.000264834728246
-3.94785273152e-05
0.000273078194059
-4.4012467851e-05
0.000282549394041
-4.80985305218e-05
0.000293133740696
-5.1801982917e-05
0.00030476070987
-5.49088157535e-05
0.000317323247422
-5.74278574652e-05
0.000330402679824
-5.88631304097e-05
0.000342792811876
-5.93234795761e-05
0.00035436319203
-5.80718852371e-05
0.000361911802154
-5.81256704445e-05
0.000365216330298
-2.21368849013e-05
0.000270425084707
1.34156177221e-10
2.15773598137e-05
4.64317545181e-10
-3.60282068683e-06
0.000234217407103
-7.32337840212e-06
0.000238981852175
-1.11769889248e-05
0.000244497840653
-1.50511009333e-05
0.000249942380765
-1.88909133146e-05
0.000255423235737
-2.26655130884e-05
0.000261486253472
-2.63532920988e-05
0.000268523745235
-2.99075945418e-05
0.000276632362481
-3.3168032158e-05
0.000285809457019
-3.60741217191e-05
0.000296039099363
-3.86174197645e-05
0.000307302888843
-4.06602888146e-05
0.000319364986633
-4.22314486251e-05
0.000331972678087
-4.32003721798e-05
0.000343760568199
-4.24162931244e-05
0.000353579228283
-4.14159564976e-05
0.000360911557273
-4.25204224008e-05
0.000366320886475
-1.92316969514e-05
0.000280044119172
-1.57741852783e-08
2.36204188828e-05
-4.12016843571e-09
-2.41175849379e-06
0.000236629159481
-5.00039611222e-06
0.000241570630517
-7.69771127509e-06
0.000247195987014
-1.04227480798e-05
0.000252668464349
-1.31177964437e-05
0.000258118310317
-1.57750256753e-05
0.000264143147193
-1.82741929866e-05
0.000271025360271
-2.0546672996e-05
0.000278905002416
-2.25306001892e-05
0.000287793191752
-2.42674689321e-05
0.00029777535157
-2.56167234557e-05
0.000308650983887
-2.67000438015e-05
0.00032044679544
-2.72204880441e-05
0.000332491304843
-2.74884510912e-05
0.000344026620875
-2.66346281981e-05
0.000352723850177
-2.43732607757e-05
0.000358648797327
-2.66408921924e-05
0.000368588431865
-1.48150301165e-05
0.000290316441068
-6.57764718932e-09
2.46390325321e-05
-3.07509755849e-09
-1.31070274534e-06
0.000237940169589
-2.79748868054e-06
0.000243058019168
-4.38738284896e-06
0.000248786787724
-6.06192631698e-06
0.000254344080798
-7.65227260239e-06
0.000259712206819
-9.12828868402e-06
0.000265623329183
-1.04616407869e-05
0.000272359811323
-1.15681052058e-05
0.000280011499546
-1.24368613987e-05
0.000288661909546
-1.30112824696e-05
0.000298349275184
-1.3403769623e-05
0.000309042350868
-1.33931425414e-05
0.000320434435896
-1.31228315589e-05
0.000332218700095
-1.2531295803e-05
0.000343432489631
-1.15030203091e-05
0.000351692731037
-1.05123068954e-05
0.000357661757689
-1.29546321206e-05
0.000371030714728
-9.42642045622e-06
0.000299341150028
1.09995599741e-09
2.46682078252e-05
-1.44960294362e-09
-2.78649696516e-07
0.000238219071843
-7.07433789934e-07
0.00024348721113
-1.25442707234e-06
0.000249334569142
-1.83057790601e-06
0.000254921197759
-2.31546808618e-06
0.000260197616046
-2.6807008696e-06
0.000265989088834
-2.84898133864e-06
0.000272528701161
-2.84506919816e-06
0.000280008097091
-2.61525660824e-06
0.000288432166666
-2.16035389626e-06
0.000297893793946
-1.39795069193e-06
0.000308278554866
-5.34212275592e-07
0.000319568369713
5.51068019642e-07
0.000331130157354
1.76875011427e-06
0.000342210858594
2.60909618129e-06
0.000350847607031
1.60339900451e-06
0.000358664590187
-1.9851981843e-06
0.000374619412777
-4.14022728393e-06
0.000305343856925
-2.54341854703e-08
2.47562012576e-05
-1.37440074052e-09
7.37714160171e-07
0.000237481764364
1.36050482062e-06
0.00024286488586
1.87868780709e-06
0.000248816959248
2.37874597973e-06
0.000254421627894
2.93571338229e-06
0.000259640937573
3.67269562594e-06
0.000265252612912
4.60269479713e-06
0.000271599421611
5.73642522376e-06
0.000278875428907
6.98956044852e-06
0.000287179047216
8.46026552335e-06
0.000296422300752
1.00994526867e-05
0.000306637434728
1.1968741227e-05
0.000317695800287
1.38449684737e-05
0.000329249227313
1.52612134808e-05
0.000340788684385
1.49685971344e-05
0.000351133161573
1.20188395202e-05
0.000361609277203
6.51024485028e-06
0.000380128241732
1.50624116913e-06
0.000305706681759
-1.14576059438e-08
2.50170366291e-05
-9.58949874693e-09
1.73901697866e-06
0.000235743494039
3.3703998107e-06
0.000241234335869
4.91176084446e-06
0.000247276365714
6.47558392004e-06
0.00025285872358
8.10321650494e-06
0.000258014585729
9.85734861813e-06
0.000263499444128
1.17885339111e-05
0.000269669023782
1.39343886495e-05
0.000276730268288
1.63295430317e-05
0.0002847839499
1.89016674202e-05
0.000293849261412
2.15798316326e-05
0.000303956491333
2.44059204119e-05
0.000314864662292
2.69788446294e-05
0.000326668724642
2.88767400139e-05
0.000338880905731
2.86158068014e-05
0.000351382319536
2.46058338944e-05
0.00036560931753
2.00601788725e-05
0.000384669604756
7.70316438929e-06
0.00029951289232
-9.16612615968e-09
2.59245290815e-05
1.30954465292e-08
2.72239009941e-06
0.000233022067734
5.32429013444e-06
0.000238633544878
7.86558391143e-06
0.000244736366807
1.04189997851e-05
0.000250306774526
1.3082476066e-05
0.000255353042868
1.58935151335e-05
0.000260690819793
1.88979469889e-05
0.000266665372391
2.21059454349e-05
0.000273522093743
2.55579694805e-05
0.000281330776358
2.9232092825e-05
0.000290172787351
3.31010503822e-05
0.000300082548105
3.68596887563e-05
0.000311096977875
4.04939216705e-05
0.000323023313172
4.34141949545e-05
0.000335943133555
4.42663201665e-05
0.000350510993185
4.17198822062e-05
0.000368141423332
3.95279009845e-05
0.00038685542065
1.45409002809e-05
0.000289220460628
7.2305358137e-08
2.54179046472e-05
4.40024195964e-08
3.6546936587e-06
0.000229368378865
7.21565385258e-06
0.000235073769015
1.07191876958e-05
0.000241234275163
1.42602567623e-05
0.000246767482842
1.79261931998e-05
0.000251688978236
2.18019225079e-05
0.000256817003436
2.58916379548e-05
0.000262578195377
3.01801384613e-05
0.000269235610795
3.46784442919e-05
0.00027683308973
3.94224789454e-05
0.000285425312593
4.43862896281e-05
0.000295111888933
4.93808356545e-05
0.000306091247178
5.42817315439e-05
0.000318103334071
5.86192789091e-05
0.000331583529088
6.14050702245e-05
0.000347705193775
6.11053697246e-05
0.000368425862795
5.96625934371e-05
0.000388291190346
1.89835998899e-05
0.00028312885651
3.62080141869e-07
2.26225784639e-05
2.36480671454e-07
4.56198155776e-06
0.000224807595018
9.03183849819e-06
0.000230605329459
1.34594562602e-05
0.000236808446479
1.79420422067e-05
0.000242287161359
2.25405457109e-05
0.000247093230866
2.73926332311e-05
0.000251968013895
3.24943909663e-05
0.000257480794505
3.78483202068e-05
0.000263886499156
4.3464812511e-05
0.000271219439237
4.93753065128e-05
0.000279511963882
5.55888400963e-05
0.000288891146671
6.20931560345e-05
0.000299572848146
6.83901922068e-05
0.000311785258274
7.42745550851e-05
0.00032567381972
7.87598927712e-05
0.000343194199358
8.09073670005e-05
0.000366257079011
8.06276839837e-05
0.000388561959201
2.22441360541e-05
0.0002832578063
1.11278677492e-06
2.18083981918e-05
2.59423107174e-07
5.43468636135e-06
0.000219373282008
1.07675737426e-05
0.000225272889554
1.60687366348e-05
0.000231507966081
2.14331634366e-05
0.000236923723772
2.69515859607e-05
0.000241576069372
3.26920235677e-05
0.000246229326538
3.87307153976e-05
0.000251443569876
4.5139259662e-05
0.000257479929734
5.18941318392e-05
0.000264467225003
5.8995517812e-05
0.000272408579408
6.65386897907e-05
0.00028134319257
7.45021220771e-05
0.000291603826178
8.27999795583e-05
0.000303480293363
9.08105077542e-05
0.000317653422703
9.7746528643e-05
0.00033624877807
0.000102535684975
0.000361462277422
0.000105546503911
0.000385550435559
2.99368089482e-05
0.000283888976963
1.456265509e-06
2.08931622187e-05
3.88027203195e-07
6.23467547018e-06
0.000213138619451
1.23852086337e-05
0.000219122365613
1.85187819506e-05
0.000225374582931
2.47337580763e-05
0.000230709213704
3.11217209138e-05
0.000235188854326
3.77626070466e-05
0.000239589491351
4.47422544692e-05
0.0002444653544
5.21439383276e-05
0.000250079328701
6.0049862621e-05
0.000256563901437
6.84368141426e-05
0.000264026909039
7.7292980081e-05
0.000272481480106
8.67754234222e-05
0.000282120888448
9.68977691115e-05
0.000293353542017
0.000107470491734
0.000307074661775
0.00011749061346
0.000326224772913
0.000126519863819
0.000352431576518
0.000136955694817
0.000375119846548
4.12259986112e-05
0.000275523527793
4.16368828714e-07
1.84620542496e-05
4.21541472647e-07
6.98119797703e-06
0.000206156974323
1.38870010298e-05
0.000212216048613
2.07979875895e-05
0.000218463226983
2.78173421424e-05
0.000223689752138
3.50256291576e-05
0.000227980779581
4.25132207342e-05
0.0002321024791
5.03658386176e-05
0.000236613758905
5.86615568142e-05
0.000241784882477
6.74989096347e-05
0.000247729605026
7.70276512187e-05
0.000254503545192
8.72891622302e-05
0.000262237184155
9.84273771827e-05
0.000270983903444
0.000110567991586
0.000281212817176
0.000123476018406
0.000294167787586
0.000136225227019
0.000313480223825
0.000148574847621
0.000340085920587
0.000163057455679
0.00036064269698
4.81332006648e-05
0.000266978581251
-4.58032987081e-07
1.86096433253e-05
-3.65899662204e-08
7.65991463552e-06
0.000198496064869
1.52778503273e-05
0.000204597001364
2.29204487338e-05
0.000210819634446
3.0659409972e-05
0.000215950059131
3.86180698951e-05
0.00022002176816
4.68799267833e-05
0.000223840800282
5.55317572079e-05
0.000227962839708
6.46794859072e-05
0.00023263942348
7.44410942042e-05
0.000237973273901
8.49378235097e-05
0.000244014837851
9.64085297095e-05
0.000250780869129
0.000109016766083
0.000258387710115
0.000122984109218
0.000267253462122
0.000138196122161
0.000278968186668
0.000153569019974
0.000298120449663
0.000168213276582
0.000325450851232
0.000185843654846
0.0003429952554
5.33989608756e-05
0.00025827178
5.05278507608e-08
2.1452381144e-05
3.75013765575e-08
8.2652072028e-06
0.000190229295006
1.65156149692e-05
0.000196344878287
2.48026259706e-05
0.000202531000353
3.32292957518e-05
0.000207522028988
4.18765677098e-05
0.000211373582748
5.08335953824e-05
0.00021488357412
6.01908029074e-05
0.000218606531697
7.00565664133e-05
0.000222776913438
8.05537674927e-05
0.000227484458834
9.18553189008e-05
0.000232726591955
0.000104211726629
0.000238444903652
0.000117912670449
0.000244706925158
0.000133257791327
0.000251931780386
0.000149975137834
0.000262276946123
0.000166704858896
0.000281414235684
0.000183604640784
0.000308564883999
0.000202847150242
0.000323741798142
5.89532083778e-05
0.000247121597158
-5.98566790312e-07
2.34639114582e-05
3.11821423831e-07
8.79855145082e-06
0.000181428670227
1.76323004592e-05
0.000187508882922
2.6528050172e-05
0.000193633068153
3.55660285847e-05
0.000198482118328
4.48238067652e-05
0.000202114365334
5.43814854511e-05
0.000205325323264
6.432260205e-05
0.000208666262855
7.47365073548e-05
0.000212367130152
8.57605451847e-05
0.000216471141939
9.75498018964e-05
0.000220956333698
0.000110324886821
0.00022569241944
0.000124423775983
0.000230633754904
0.00014005690817
0.000236321389979
0.00015684829052
0.000245511726043
0.000173764325355
0.000264524557507
0.000190996514131
0.000291351630236
0.000210023330265
0.000304754571581
6.25016497297e-05
0.00023101963369
-2.17427562106e-06
2.32895511178e-05
5.40422006275e-07
9.3161118679e-06
0.000172110102548
1.8654553403e-05
0.000178167806905
2.80869315673e-05
0.000184198083188
3.76737388854e-05
0.000188892918026
4.74697503855e-05
0.000192316454578
5.75421356564e-05
0.000195251977538
6.79537246832e-05
0.000198255331127
7.87791328569e-05
0.000201546239979
9.00942663447e-05
0.000205167996516
0.000102039695318
0.000209028202339
0.000114742515263
0.000213019947709
0.000128368329489
0.00021703547775
0.000142951809924
0.000221760542279
0.000158190077533
0.000230314498061
0.000174304828125
0.000248445777964
0.000191627615543
0.000274047743744
0.000208619468286
0.000287803934305
6.45761898031e-05
0.000206765845136
-3.95838292433e-06
1.50796373289e-05
-4.43521322473e-07
9.77504175801e-06
0.000162332403756
1.95797858337e-05
0.000168360233149
2.94950020648e-05
0.000174280018247
3.95720890827e-05
0.000178813130848
4.98482613679e-05
0.000182038019549
6.03722190134e-05
0.000184726667969
7.11642220291e-05
0.000187463610554
8.23048488239e-05
0.000190409893327
9.38101515453e-05
0.000193674027045
0.000105702882545
0.000197151312665
0.000118038371046
0.00020071065764
0.000130750164485
0.000204357687762
0.00014365627067
0.000208881246799
0.000157024623555
0.000216983944205
0.000172574928859
0.000232923603257
0.000192144632739
0.000254494852141
0.000211961281218
0.000267946880594
5.98223396619e-05
0.000185303345788
1.78272650679e-06
9.14291000402e-06
-7.94556912778e-07
1.01695040498e-05
0.000152160251751
2.04053225768e-05
0.00015812160859
3.07629794227e-05
0.000163919481421
4.12804889681e-05
0.000168292801338
5.19928299885e-05
0.000171323190389
6.29037413802e-05
0.000173814053302
7.40925810454e-05
0.000176274536795
8.55156265518e-05
0.000178990216267
9.71915685964e-05
0.000182007147185
0.00010907084962
0.000185286002206
0.000121008407266
0.000188798874771
0.000132795276427
0.000192597880618
0.000144420405375
0.000197294503562
0.000156850652019
0.000204583828274
0.000173060686491
0.000216738009717
0.00019552288197
0.000232046916543
0.000220649321542
0.000242704965783
5.97096636867e-05
0.00016297422356
-6.19870462177e-07
8.2033784809e-06
-2.47187455486e-07
1.05099466311e-05
0.0001416478782
2.11252022269e-05
0.000147503788272
3.1889941296e-05
0.000153152051176
4.28111383642e-05
0.000157368876379
5.39276063418e-05
0.000160204187622
6.52585700474e-05
0.000162481135468
7.67875002805e-05
0.000164744814561
8.8518897428e-05
0.000167260825514
0.000100422602325
0.000170109771403
0.000112394639059
0.000173324556269
0.000124267822729
0.000176951322321
0.000135889836777
0.00018099622732
0.000147316825098
0.000185889321853
0.000159923442327
0.000192002142191
0.000177049302976
0.000199633169735
0.000201080176658
0.000208027129412
0.000229245661966
0.000214460023861
5.70406218915e-05
0.000144632743142
3.34868898174e-07
8.97527360471e-06
2.42854030454e-07
1.08031228783e-05
0.00013084273791
2.17441731384e-05
0.000136560604813
3.28697171767e-05
0.000142024209112
4.41942627041e-05
0.000146041904108
5.57013274049e-05
0.000148694738451
6.74085350137e-05
0.000150771883625
7.93101094285e-05
0.000152842034951
9.13924770935e-05
0.000155179024721
0.000103622530397
0.000157883372612
0.000115888216619
0.000161065954855
0.000128225924467
0.000164629078439
0.000140459449689
0.000168777721377
0.000152736615134
0.000173628144272
0.00016606730177
0.000178689300928
0.000183367314267
0.000182348870093
0.000206554515662
0.000184847576591
0.000231834657233
0.000189170212349
5.33750231012e-05
0.000129863808729
-1.25158508003e-07
9.25685165492e-06
1.22772539175e-07
1.10342804001e-05
0.000119806990049
2.22632644291e-05
0.000125330059633
3.37184826085e-05
0.000130567238802
4.53994105428e-05
0.000134359022386
5.72879758793e-05
0.000136804127029
6.93871535223e-05
0.000138670782847
8.16874024846e-05
0.000140540338729
9.41716832804e-05
0.000142694249773
0.000106796171523
0.000145260149584
0.000119557274908
0.000148307978942
0.000132428628298
0.000151766259502
0.000145461240634
0.000155754122384
0.000158828762777
0.00016026895732
0.0001734296065
0.000164097079934
0.000190712370484
0.000165075304267
0.000211025521017
0.000164538919215
0.000232070733995
0.000168142739245
4.97759411453e-05
0.000116082578639
-7.33475911231e-09
8.58384251318e-06
1.34914378999e-07
1.1206727571e-05
0.000108599404537
2.26657195438e-05
0.000113870139018
3.44092435952e-05
0.000118822582026
4.64261726018e-05
0.000122340711682
5.86941885452e-05
0.000124534532065
7.12046861236e-05
0.000126158649702
8.39502121361e-05
0.000127793384326
9.690258884e-05
0.000129740853992
0.000109960544338
0.000132201976063
0.000123194750507
0.000135074724092
0.000136600289019
0.000138364495973
0.000150359765084
0.000142000457696
0.000164500519091
0.000146135967538
0.000179634557804
0.000148968428368
0.000196670687508
0.000148042773719
0.00021504048876
0.000146169345032
0.000233010933026
0.000150204666163
4.58893116446e-05
0.000104301191437
2.99123857153e-07
9.24631160095e-06
2.77016043211e-07
1.1321505933e-05
9.7277824043e-05
2.29514486045e-05
0.000102240036678
3.49344824426e-05
0.00010683919853
4.72601145564e-05
0.000110014548475
5.98991099234e-05
0.000111894576646
7.28441628012e-05
0.000113212593046
8.60916332192e-05
0.000114545277799
9.95135440272e-05
0.000116318040138
0.000113130201094
0.000118585370884
0.000126908629846
0.000121295427764
0.00014104047676
0.00012423336541
0.000155655837626
0.000127386628707
0.000170931120847
0.000130861159757
0.000186710620049
0.000133192078821
0.000203171168221
0.000131581968512
0.000218686877823
0.000130650596749
0.000234103412685
0.000134856222014
4.3782888278e-05
9.19290043941e-05
1.84418073314e-06
8.61696580957e-06
7.06259426326e-07
1.1368407423e-05
8.59101506682e-05
2.30987441775e-05
9.05103858739e-05
3.52693886949e-05
9.46692291106e-05
4.78603516298e-05
9.74235502221e-05
6.085441401e-05
9.89010602165e-05
7.42335676574e-05
9.98337924048e-05
8.80200373293e-05
0.00010075849704
0.00010203281441
0.000102305526783
0.000116117433871
0.00010449972533
0.000130336403422
0.000107077021088
0.000145192575245
0.000109375566603
0.000161072662403
0.000111508564862
0.000177810321344
0.000114120972704
0.000194125876513
0.000116873995548
0.000208950682249
0.000116756667038
0.000220905557775
0.000118691223501
0.000233483476194
0.00012239776224
4.26268748239e-05
7.49351104133e-05
1.63125220244e-07
2.1723390517e-06
-2.17762755415e-07
1.13221722751e-05
7.45891840227e-05
2.30788471506e-05
7.87549406949e-05