/*--------------------------------*- C++ -*----------------------------------*\
| =========                 |                                                 |
| \\      /  F ield         | OpenFOAM: The Open Source CFD Toolbox           |
|  \\    /   O peration     | Version:  v2012                                 |
|   \\  /    A nd           | Website:  www.openfoam.com                      |
|    \\/     M anipulation  |                                                 |
\*---------------------------------------------------------------------------*/
FoamFile
{
    version     2.0;
    format      ascii;
    class       volScalarField;
    location    "5.2";
    object      ddt0(epsilon);
}
// * * * * * * * * * * * * * * * * * * * * * * * * * * * * * * * * * * * * * //

dimensions      [0 2 -4 0 0 0 0];


internalField   nonuniform List<scalar> 
1984
(
-0.000200088121772
-0.000224324427003
-0.000242045219047
-0.000248743253964
-0.000251086157994
-0.000251711082234
-0.000251549846633
-0.000250837826274
-0.000249386075846
-0.000246300477621
-0.000239092602561
-0.000219340644171
-0.000153544627294
0.000103429303514
0.00124617315565
0.00679245830518
0.0312176106998
0.103173574109
0.207940747356
0.0596496053233
-0.000226376286166
-0.000234699107094
-0.000259171814449
-0.000268974578701
-0.000272933580688
-0.000274662127552
-0.000275556723347
-0.000276018630002
-0.000275925111057
-0.000274348179044
-0.00026865526755
-0.000249542102244
-0.000182082509502
7.73375344075e-05
0.00122238236142
0.00683661953061
0.0310177245141
0.089240519115
0.0924425656894
0.0211306761822
-0.00023873332916
-0.000251519033446
-0.000279245131307
-0.000290400508295
-0.000294766629745
-0.000296454912779
-0.000297095373138
-0.000297197622213
-0.00029658803963
-0.000294265857646
-0.000287254607136
-0.000265457810068
-0.000191956665366
8.1273080448e-05
0.00126636251138
0.00704483411405
0.0316837969521
0.0890655137279
0.0859901344687
0.00556444813632
-0.000242046089102
-0.000256377704486
-0.000285105064454
-0.00029663666625
-0.000301022949685
-0.000302546366174
-0.000302921819261
-0.000302667928502
-0.000301701354941
-0.000298918739517
-0.000291350478619
-0.000269142671282
-0.000196776668
6.36361770195e-05
0.00115348574462
0.00630824058475
0.028004493278
0.0814876090097
0.102341552117
0.0207427104231
-0.000243204953369
-0.00025792515172
-0.000286866629911
-0.000298438921938
-0.000302760452734
-0.0003041619344
-0.000304377479
-0.000303961042886
-0.00030277385413
-0.000299973806233
-0.000292655746623
-0.000271712182102
-0.00020557852772
2.21563668977e-05
0.000921395091221
0.00502290273032
0.0226380730024
0.0727310333835
0.129310778131
0.0435893340907
-0.000244093197458
-0.000258859253273
-0.000287764857382
-0.000299268768792
-0.000303522380264
-0.00030486171509
-0.000305022648177
-0.000304570593364
-0.000303398394265
-0.000300707365531
-0.000294121382338
-0.000275620071967
-0.000218948732317
-3.51824866462e-05
0.000638233147601
0.00366708667845
0.0178318259155
0.0649537647627
0.123770478171
0.0455599487169
-0.000245107187553
-0.000259856374093
-0.000288641219518
-0.000300044735754
-0.000304241484188
-0.000305560390838
-0.000305730243426
-0.000305320397972
-0.000304273803579
-0.000301901254279
-0.000296181151802
-0.000280324357456
-0.000232513809315
-8.33183444301e-05
0.000433682840374
0.00272645215355
0.0139749735764
0.0535932806287
0.0962799893483
0.0344321316861
-0.000246273595275
-0.000261010947118
-0.000289643090348
-0.000300933208932
-0.000305079522418
-0.000306400670416
-0.000306613210922
-0.000306291379035
-0.000305412780852
-0.000303421922929
-0.000298587274438
-0.00028513890649
-0.000243812209706
-0.000111886660324
0.000349126022916
0.00230797638879
0.0108995760164
0.037037789456
0.0637701964448
0.0185892687022
-0.000247543165074
-0.00026228751583
-0.000290753274573
-0.000301919577832
-0.000306016775692
-0.000307348988403
-0.000307621303818
-0.000307404719892
-0.00030672382959
-0.000305113956511
-0.000301151643973
-0.000289958619257
-0.000254515247286
-0.000136532867313
0.000290679336563
0.00206280410335
0.00883508807024
0.0238104762901
0.0308060953363
0.00299108564005
-0.000248884232112
-0.000263630252258
-0.000291929707672
-0.00030296599605
-0.000307010884129
-0.00030835785737
-0.000308693974458
-0.000308593052926
-0.00030810268378
-0.000306874490957
-0.000303734028193
-0.000294751810873
-0.000265723285529
-0.000166891637862
0.000198448146964
0.00172929471858
0.00735576903883
0.016279522481
0.00244031800921
-0.0137402120608
-0.000250275700512
-0.000265007170624
-0.000293142537118
-0.000304041896794
-0.000308031651118
-0.000309391975751
-0.000309793206342
-0.000309802998252
-0.000309504001631
-0.000308621074289
-0.00030626446357
-0.000299366813595
-0.000276789334448
-0.000199904288421
8.13933882152e-05
0.00128011103746
0.00597066257029
0.0133737974513
-0.0154922586182
-0.0260935958586
-0.000251697526925
-0.000266431695393
-0.000294380459555
-0.000305132852138
-0.00030906217612
-0.000310432523703
-0.000310895360084
-0.000311015195887
-0.000310891634729
-0.000310339778501
-0.000308685014163
-0.000303688028068
-0.00028714948946
-0.000231572758167
-3.32887502348e-05
0.000848688195486
0.0048121713462
0.0128605290278
-0.0176857735737
-0.0277085715155
-0.000253125217164
-0.000267854512099
-0.000295624329913
-0.000306228445277
-0.000310092570315
-0.000311468359425
-0.000311989234602
-0.000312212344637
-0.000312262433088
-0.000312008783771
-0.000310996151868
-0.000307633752097
-0.000296149210045
-0.000258033888137
-0.000127764011835
0.000475400970195
0.00362258754716
0.0117053534367
-0.00834750840926
-0.0179898912288
-0.000254570868844
-0.000269288526048
-0.000296869723914
-0.000307320368307
-0.000311115136637
-0.000312494246061
-0.000313067819913
-0.000313392495369
-0.000313595744794
-0.00031362214977
-0.000313168654058
-0.000311208823601
-0.000303798331401
-0.000278672945303
-0.000196824208419
0.000191601791845
0.00251037421926
0.0101005776689
0.00538526630881
-0.00414045186413
-0.0002560292007
-0.000270705711124
-0.000298102779934
-0.000308400951296
-0.000312125758185
-0.000313506681942
-0.00031412897055
-0.000314541634314
-0.000314891025034
-0.000315148489369
-0.000315203898402
-0.000314452276423
-0.000310459844715
-0.000295411655169
-0.000247121668696
-7.32441880874e-06
0.00156512290257
0.00733391330889
0.0126494320057
0.00474724538153
-0.000257487881308
-0.000272129739067
-0.000299328288823
-0.000309469951363
-0.000313124429165
-0.000314501844739
-0.000315171775861
-0.000315660188331
-0.000316124370076
-0.000316604635988
-0.000317071033011
-0.000317383508532
-0.000316387662405
-0.000310235347864
-0.000289643814635
-0.000158699320029
0.000860917283915
0.00398609444237
0.00946996121675
0.0132343823791
-0.000258942625446
-0.00027354190417
-0.000300547904366
-0.000310532459464
-0.000314114842735
-0.000315487861156
-0.000316190970499
-0.000316736963472
-0.00031731643441
-0.000317965011641
-0.000318798029765
-0.000319973483854
-0.000321484945788
-0.000322982266928
-0.000325926341613
-0.000281504253062
0.000342404544744
0.000361105465315
0.000743471486743
0.265145571047
-0.000260385938902
-0.000274927370053
-0.000301750590404
-0.000311588556511
-0.000315096092501
-0.000316453987038
-0.000317191440559
-0.000317807395342
-0.000318468404747
-0.000319273709062
-0.000320390509243
-0.000322248513219
-0.00032568467516
-0.000332960007584
-0.00035655397861
-0.000404572817666
-0.000244611296629
-0.00188601300785
-0.0231115825967
0.600177535022
-0.000261817210275
-0.000276297150843
-0.000302939546101
-0.000312625958387
-0.000316059485955
-0.000317416628544
-0.000318177591737
-0.000318847701661
-0.00031959623233
-0.000320538625517
-0.000321918418263
-0.000324403784531
-0.000329724009852
-0.000343305705508
-0.00038764808541
-0.000519665771953
-0.000713066222025
-0.00345320295004
-0.0391629634971
0.0922720534712
-0.000263499655149
-0.000277546253001
-0.00030404255344
-0.000313605153366
-0.000316994752097
-0.000318343447534
-0.000319138872561
-0.00031987307734
-0.000320714078696
-0.000321793790235
-0.000323437668649
-0.000326562085061
-0.000333519158226
-0.00035153761419
-0.000407584187752
-0.000577683877106
-0.0010690267819
-0.0045495974841
-0.0346886549629
-0.193570601299
-0.000264892477729
-0.000278848950262
-0.000305167514238
-0.000314576271352
-0.000317896680171
-0.000319247016484
-0.000320072417522
-0.000320853341207
-0.00032175626815
-0.000322915259868
-0.00032467009162
-0.000327967197271
-0.000335495989112
-0.000355895175881
-0.000420991418369
-0.000640289252052
-0.00144219256933
-0.00490420714086
-0.0111490091212
-0.591159502576
-0.000265789340926
-0.000280206401244
-0.000306369576198
-0.000315603387309
-0.000318819864922
-0.000320142399825
-0.000320982789948
-0.000321798077925
-0.000322749401435
-0.000323970965254
-0.000325806618451
-0.000329257122405
-0.000337306507156
-0.000359823620441
-0.00043424528013
-0.000706340364265
-0.00179100282803
-0.00505366812573
0.00768495654712
0.0811782566097
-0.000266660417222
-0.000281531716962
-0.000307547458964
-0.000316612023781
-0.00031972779161
-0.000321015570272
-0.000321865976248
-0.000322714272646
-0.000323708407912
-0.000324981328991
-0.000326878804206
-0.000330454845021
-0.000338967480863
-0.000363301485482
-0.000445047143229
-0.000762759519239
-0.00213445958911
-0.00547471919881
0.0320092772768
0.339760873631
-0.000267471657306
-0.000282794065907
-0.000308681724789
-0.000317587247103
-0.000320608268645
-0.000321861628238
-0.000322720367931
-0.000323600789469
-0.000324635182987
-0.000325953906793
-0.000327898565833
-0.000331584250898
-0.000340468207768
-0.000366340211135
-0.000454535905695
-0.000812480047516
-0.00242773680682
-0.00642507924128
0.0250963733444
0.29183489387
-0.000268274252245
-0.000284001648186
-0.000309764745116
-0.000318519622341
-0.000321450623322
-0.0003226761611
-0.000323547291744
-0.000324459685491
-0.000325536904415
-0.000326902622735
-0.000328901040397
-0.000332671273564
-0.000341883312674
-0.000369295977252
-0.000465166072366
-0.000867131764995
-0.00271994767768
-0.00883890889321
0.00306172543288
0.761355308716
-0.000269022215016
-0.000285139639553
-0.000310786790214
-0.000319402782694
-0.000322255031645
-0.000323463004928
-0.000324353502812
-0.000325302217767
-0.000326424904874
-0.000327837969012
-0.00032988868616
-0.000333721422271
-0.000343212912646
-0.000372075667965
-0.000476213882384
-0.00092432712244
-0.00298026812206
-0.0107226827325
-0.0318888964028
0.00352526693089
-0.000269729270988
-0.000286206296988
-0.000311734613542
-0.000320219757807
-0.000323002485374
-0.000324199309269
-0.000325118139411
-0.000326117317006
-0.000327294171363
-0.000328777718819
-0.000330911443006
-0.000334874647
-0.000344736009238
-0.000375179126875
-0.000487388986386
-0.000980952104114
-0.00322899752306
-0.0112095857029
-0.0281545483053
-0.0886302995799
-0.000270409048046
-0.000287185825993
-0.000312596056089
-0.000320964432178
-0.000323692337406
-0.000324890559864
-0.000325849577493
-0.000326907136344
-0.000328150157237
-0.000329700030119
-0.000331917768973
-0.00033608016334
-0.000346483513197
-0.000379042846147
-0.000500555913918
-0.00104138131246
-0.00347177776188
-0.0114496852918
-0.0179731882082
0.409012136633
-0.000271039542257
-0.000288046726455
-0.000313346256068
-0.000321618812858
-0.000324310546227
-0.000325524938592
-0.000326535218295
-0.000327668742303
-0.000329014710714
-0.000330687065335
-0.000333023003398
-0.000337467030008
-0.000348720370555
-0.000384302484935
-0.000517765266504
-0.00111115502139
-0.00371829775538
-0.0113664550831
-0.0118488966959
0.0641530888505
-0.000271617399242
-0.000288771524789
-0.000313964540576
-0.000322167393895
-0.000324847054442
-0.00032609529826
-0.000327170239028
-0.000328392161644
-0.000329850598409
-0.000331668363272
-0.000334222250191
-0.000339138571751
-0.000351666648256
-0.000390625850268
-0.000532841472519
-0.00116311883468
-0.00397510010436
-0.0120541091528
0.00383610189485
0.238311621953
-0.000272157034974
-0.000289348961329
-0.000314432330713
-0.000322591652086
-0.000325287304337
-0.000326588943559
-0.000327743233027
-0.000329069852314
-0.000330662456375
-0.00033266752789
-0.000335547210003
-0.0003412572108
-0.000355932023158
-0.000400040738845
-0.000552562077352
-0.00121551773143
-0.00424453628714
-0.0135360082035
-0.00778507556684
0.252519552895
-0.000272605809417
-0.00028975156158
-0.000314736252558
-0.000322880976512
-0.000325619148996
-0.000326992822569
-0.000328242011816
-0.000329689683317
-0.00033143889947
-0.000333672782011
-0.000337006893416
-0.000343954500972
-0.000362163810854
-0.000415194191713
-0.00058663467854
-0.00129002935213
-0.00446852862163
-0.0145314174525
-0.025583152584
-0.0535192415699
-0.000272908965911
-0.00028997277511
-0.000314872740552
-0.000323030605839
-0.000325833673843
-0.000327296018601
-0.000328653273759
-0.000330231642102
-0.000332150129507
-0.0003346431459
-0.000338544009479
-0.000347141618166
-0.000370215052641
-0.000436045103701
-0.000636995843865
-0.00139807385779
-0.00468116138204
-0.0157572283199
-0.0299695934909
0.0364786267495
-0.000273069155883
-0.000290011249093
-0.000314834184914
-0.000323029733079
-0.00032591858598
-0.000327484853229
-0.000328958660717
-0.000330670165186
-0.00033275804803
-0.000335516248027
-0.000340017731965
-0.00035037699291
-0.000378640558904
-0.000457936875932
-0.000689976777654
-0.00151155114765
-0.00484582449174
-0.0161790650667
-0.0336900709364
0.306129637957
-0.000273084315004
-0.000289853547358
-0.000314610462257
-0.000322867674997
-0.000325862223344
-0.000327545016835
-0.000329138153429
-0.000330985307767
-0.000333236722715
-0.000336230179854
-0.000341234225192
-0.000353023606705
-0.000385386931128
-0.000474963862615
-0.000731101084399
-0.00160420428852
-0.00495903494521
-0.0155214295594
-0.0176776604726
0.630725545384
-0.000272929708099
-0.000289492363459
-0.000314193648642
-0.000322535372093
-0.000325652640348
-0.000327462028263
-0.000329186731172
-0.000331175840212
-0.000333581401775
-0.000336758089226
-0.000342061754186
-0.000354554933831
-0.000388741693339
-0.000482638695262
-0.000749661550715
-0.00165174496687
-0.00497099128931
-0.0140707784722
-0.00694715065764
0.26177826578
-0.000272585714304
-0.000288924246333
-0.000313579862151
-0.000322022939583
-0.000325283058565
-0.000327238621845
-0.000329109547036
-0.000331246374215
-0.000333802616407
-0.000337124836603
-0.000342566616267
-0.000355176709676
-0.000389345261869
-0.000482860568411
-0.000752038172661
-0.00167372098175
-0.00502463514085
-0.0144500189889
-0.0253942690812
0.575614673846
-0.000272045591539
-0.000288146577436
-0.000312768755343
-0.000321334957056
-0.0003247581289
-0.000326876835134
-0.000328906082338
-0.000331202423959
-0.000333916226509
-0.00033738240082
-0.000342989425525
-0.00035569319635
-0.000389471123901
-0.000481254775496
-0.000748326913265
-0.00168266124372
-0.00511118360302
-0.0152147778385
-0.0296960604126
0.833052230741
-0.000271288046317
-0.00028716112684
-0.000311766504635
-0.00032047481525
-0.0003240769325
-0.000326374216052
-0.000328577532045
-0.000331041254339
-0.000333916467971
-0.000337550907071
-0.000343341209293
-0.000356120987304
-0.000389548895271
-0.000480020275662
-0.000746075493776
-0.00169454427902
-0.00518226124722
-0.0156321928924
-0.0374172281348
0.58297587955
-0.00027034343483
-0.000285970128755
-0.000310573146669
-0.000319440099268
-0.000323239918052
-0.000325731960289
-0.000328112404157
-0.000330774639198
-0.000333812549796
-0.000337614183728
-0.000343369758837
-0.00035564444296
-0.00038736726601
-0.000474977099492
-0.00074127940597
-0.0017086400242
-0.00520672759795
-0.015434637551
-0.0538842820505
-0.292241215653
-0.000269134815335
-0.000284582441978
-0.000309198289496
-0.000318242253617
-0.000322241331516
-0.000324935397762
-0.000327555891981
-0.000330392543592
-0.00033366270512
-0.000337577701808
-0.000343218634334
-0.000354361034607
-0.000382969925489
-0.000466026719307
-0.000735023062964
-0.0017340255341
-0.00524960779909
-0.0151357186513
-0.0463653882668
-0.359387414575
-0.000267770502887
-0.000283017594516
-0.000307665572325
-0.00031687573517
-0.000321105063662
-0.000324030603917
-0.000326838451348
-0.000329889965967
-0.000333398567758
-0.000337606024462
-0.000343309665681
-0.000353671783054
-0.000379937520774
-0.000460651709742
-0.000740262089479
-0.0017885921326
-0.00533828826432
-0.0153490661785
-0.03925419261
0.265588731073
-0.000266185040379
-0.000281280874596
-0.000305972707001
-0.000315383368348
-0.000319803129697
-0.000322916013701
-0.000325950536522
-0.000329262928071
-0.000333042666672
-0.000337656580478
-0.000343790934077
-0.000354125532371
-0.000379479164829
-0.000459749018374
-0.000750123117715
-0.00184083192627
-0.00537140864669
-0.014809550285
-0.0359233398804
0.478291505447
-0.000264416541754
-0.000279435253595
-0.000304196575478
-0.000313766411927
-0.00031836394234
-0.000321631866487
-0.000324733321438
-0.000328080977829
-0.000332113361196
-0.000337392734843
-0.000344445088839
-0.000355788659788
-0.000382331058722
-0.000464444362282
-0.000763236314692
-0.00187869388928
-0.0053495194613
-0.0129865345028
-0.0126825440884
0.186069987829
-0.00026251728257
-0.000277508589693
-0.000302330227385
-0.000312028285267
-0.000316688794426
-0.000319850868826
-0.000322629892303
-0.000325540281231
-0.000329712386081
-0.000336022972271
-0.000344270265201
-0.000356948985209
-0.000387370714559
-0.000475802224846
-0.000781232976645
-0.00190919208428
-0.00539172466514
-0.012814403764
-0.00531542227716
0.20821570821
-0.000260615323964
-0.000275539507776
-0.000300433317683
-0.000310150044952
-0.000314581200538
-0.000317032435194
-0.000318453407199
-0.000319676928646
-0.00032305404158
-0.000330543648811
-0.000339713540719
-0.000353664706813
-0.000395869673237
-0.000500984357375
-0.000822899002646
-0.00196624182145
-0.00546306958777
-0.0145080632254
-0.0306089053962
0.103344975777
-0.000258722260121
-0.000273625900021
-0.000298567732246
-0.000308115147252
-0.000311711774813
-0.000311897104694
-0.0003089192096
-0.00030560311612
-0.000301009334971
-0.000310243868924
-0.000320566245438
-0.000342705862728
-0.000424133507416
-0.000552624339688
-0.000902188703771
-0.00206318484808
-0.0054666164832
-0.0138429489361
-0.033683557184
0.0282256399044
-0.000256917780272
-0.000271801586781
-0.000296766170772
-0.000305881549061
-0.00030770545989
-0.000302246429598
-0.000286216140784
-0.000266109362271
-0.00028293183256
-0.000305289071991
-0.000331756928708
-0.00045846689864
-0.0005005584167
-0.000655960085884
-0.00103357688518
-0.00219105729897
-0.00539571780827
-0.0123396616198
-0.0240711838618
0.627265996465
-0.000255196276713
-0.000270287697098
-0.000295140063024
-0.000303626673666
-0.000304131389826
-0.000297066525772
-0.000275839418178
-0.000288096717986
-0.000619655419029
-0.000730707319043
-0.00116781480986
-0.00228826413162
-0.0053380174851
-0.0115617864867
-0.0323885174615
0.045591328651
-0.00025424417906
-0.00026950407861
-0.000294428140602
-0.000302659590961
-0.000302210582229
-0.000292776210547
-0.00026679377415
-0.000259219729735
-0.000686328945194
-0.000872303666595
-0.00129838961489
-0.00232442584285
-0.0054412464789
-0.011777002364
0.0158709816511
0.462506970176
-0.000254304444529
-0.000269531387486
-0.000294444657837
-0.000302673580832
-0.000302228748449
-0.00029281062825
-0.00026680757822
-0.000259264443122
-0.000685836305491
-0.00086900608324
-0.00128601836773
-0.00228942975324
-0.00548474597465
-0.0130698500386
-0.00508334684507
1.02894010917
-0.00025528060603
-0.000270361005576
-0.000295188634074
-0.000303664956132
-0.000304168601654
-0.0002970924295
-0.000275825327353
-0.000288186625129
-0.000617409211102
-0.000724525633788
-0.00114218467913
-0.00223777004518
-0.005410441941
-0.0123346732354
-0.0218934127758
0.648646571824
-0.000256986481919
-0.000271893425696
-0.00029684223647
-0.000305949438301
-0.000307769366141
-0.000302291555415
-0.000286338650487
-0.000266373973782
-0.000283060411708
-0.000305535106466
-0.000332260086623
-0.000459004652651
-0.000499389742968
-0.000651690397203
-0.0010204091154
-0.00216709715959
-0.00537122127243
-0.011834971948
-0.0400313831447
-0.49099679203
-0.000258829761828
-0.000273723416821
-0.000298662793135
-0.000308211021053
-0.000311815167329
-0.000312016824966
-0.000309103047439
-0.000305947504871
-0.000301254721255
-0.000310528597012
-0.000321006695888
-0.000343550766856
-0.00042450037924
-0.000554798478172
-0.000914095992898
-0.00208949979441
-0.0054548703125
-0.0128600287356
-0.033718359832
-0.420053004661
-0.000260749804343
-0.000275645812955
-0.000300544279912
-0.000310269896769
-0.000314706642259
-0.000317162523594
-0.000318592778227
-0.000319831330966
-0.00032321305244
-0.000330779877022
-0.00034016004724
-0.000354530520744
-0.000397573736226
-0.000508034824029
-0.000851314083334
-0.00203197419382
-0.0055327547077
-0.0140721739573
-0.0245955623613
0.334641076655
-0.000262662981698
-0.000277619552991
-0.000302454058288
-0.000312156214636
-0.000316818156155
-0.000319982342294
-0.000322762993555
-0.00032566348254
-0.000329833620481
-0.000336182694192
-0.000344581020214
-0.000357685338715
-0.000389428516554
-0.000483905696737
-0.000812413116168
-0.00198352584026
-0.00547558092165
-0.0137680185985
-0.0202695916734
0.754098345306
-0.000264551058877
-0.000279554605264
-0.000304321663149
-0.000313902436846
-0.000318502792622
-0.000321754658954
-0.000324853296458
-0.000328191329633
-0.000332204764707
-0.000337486047565
-0.000344596655467
-0.000356206228382
-0.000383731223819
-0.000470031936139
-0.00078560014675
-0.00193866880481
-0.00538640724003
-0.0130684096909
-0.0241478068726
0.039070878847
-0.000266331685825
-0.000281402192083
-0.000306112025888
-0.000315519152541
-0.000319954093565
-0.000323069363901
-0.000326075980028
-0.000329354154504
-0.000333116702859
-0.000337713530395
-0.000343829064274
-0.000354230416702
-0.000379920336634
-0.000461790442708
-0.000761786286994
-0.00188601700239
-0.00538356097349
-0.0141582113296
-0.0291273044359
0.64347156
-0.000267934136824
-0.000283132684518
-0.000307790825143
-0.000317008891649
-0.000321226761088
-0.000324141092042
-0.000326941207307
-0.000330003076208
-0.000333480607026
-0.000337636081629
-0.000343290197839
-0.000353564282312
-0.000379841863104
-0.000461627496669
-0.000751517184281
-0.0018416160759
-0.00533164798455
-0.0135306506522
-0.015174169167
0.193350110149
-0.000269301861551
-0.000284702166599
-0.000309321067064
-0.000318351936947
-0.000322346799572
-0.000325035669698
-0.000327617985544
-0.000330446008503
-0.000333664879048
-0.000337555470042
-0.000343156409667
-0.000354277775194
-0.000383512830856
-0.000470822097327
-0.00076199761528
-0.00182600724409
-0.00532326706948
-0.0139249701121
-0.0349166965552
-0.1021906235
-0.000270505687431
-0.00028608744158
-0.000310686019516
-0.000319539977198
-0.000323323505662
-0.000325797574048
-0.000328168209917
-0.000330788625592
-0.000333807123419
-0.000337554260901
-0.000343304519942
-0.000355559256015
-0.000387975990548
-0.000480103484132
-0.00076773747216
-0.00179708460621
-0.00536247391721
-0.0154145380192
-0.0344551258326
0.0963939409984
-0.000271440817839
-0.000287271292097
-0.000311870939986
-0.000320565016234
-0.000324154285007
-0.000326434236683
-0.000328613352785
-0.000331052861089
-0.000333900919912
-0.000337503142033
-0.000343260473304
-0.000356009490672
-0.000389676927346
-0.000481915824472
-0.000757299324178
-0.00173874361372
-0.00526625018513
-0.0154291727363
-0.0396545190745
0.259457579188
-0.000272201473267
-0.000288249226068
-0.00031286665368
-0.000321420455918
-0.00032483309244
-0.000326937123196
-0.000328943579299
-0.000331217108683
-0.000333904848994
-0.000337341442037
-0.000342922822499
-0.000355512113131
-0.000388955262453
-0.000479522726292
-0.000744522165515
-0.00169453498382
-0.00522819705268
-0.0146093523988
-0.0185520585159
0.0823760166718
-0.000272754577475
-0.000289032527734
-0.000313682568445
-0.000322114051524
-0.00032536401264
-0.000327301949704
-0.000329147874913
-0.000331255919778
-0.000333789507364
-0.000337072892647
-0.000342502322013
-0.000354942534993
-0.000388558106505
-0.000479976722942
-0.000743627262692
-0.00167342342522
-0.00516334906815
-0.0141998622052
-0.00593974743985
-0.0345413555469
-0.000273077723725
-0.000289600436226
-0.000314293658802
-0.00032262001306
-0.000325726030628
-0.000327523084317
-0.000329231929725
-0.000331204239412
-0.000333559728678
-0.000336694867788
-0.000341951761993
-0.000354235886875
-0.000388031621354
-0.000480460995685
-0.000744193230933
-0.00164897472651
-0.00502758221816
-0.0146799487131
-0.0370281366084
-0.389090679126
-0.000273218807838
-0.00028995249778
-0.000314707583176
-0.000322952809317
-0.000325937174773
-0.000327611110077
-0.000329195160008
-0.000331035355416
-0.000333275667716
-0.000336241262852
-0.000341209257762
-0.000352774448463
-0.000384792984397
-0.000473601917859
-0.000727831817147
-0.00159718431011
-0.00494508174086
-0.0156311268001
-0.0337475065511
-0.141559223835
-0.000273191554712
-0.000290097974801
-0.000314926324829
-0.000323116519856
-0.000325999268505
-0.000327562721211
-0.000329036050218
-0.000330750959776
-0.000332843618081
-0.000335591973433
-0.000340097102579
-0.000350321727093
-0.000378330917289
-0.000456923886893
-0.000687594148689
-0.00150431004159
-0.00479909038681
-0.0153807852166
-0.0197291258112
0.0385103993012
-0.000273020636027
-0.000290053403611
-0.000314962662377
-0.000323121550047
-0.000325923837229
-0.00032738938477
-0.000328752257954
-0.000330345156071
-0.000332282837224
-0.000334784923248
-0.000338719931975
-0.000347233511883
-0.000370180743841
-0.000435521023811
-0.000634541007143
-0.00138787520098
-0.00458822715615
-0.0139292377742
0.00366888579223
-0.00959686094358
-0.00027271398809
-0.000289829526629
-0.000314827034496
-0.000322979030439
-0.000325721739563
-0.000327103853917
-0.00032836505167
-0.000329836122948
-0.00033161675407
-0.000333876656796
-0.000337265027391
-0.000344173654034
-0.000362353952009
-0.000415162934463
-0.000585603412359
-0.00128149671753
-0.00434674185729
-0.0134103912556
-0.0144529610805
-0.0927545340019
-0.000272267148622
-0.000289426008104
-0.000314524902002
-0.000322696537921
-0.000325403041285
-0.000326718029965
-0.00032789030415
-0.000329247289607
-0.000330880933569
-0.000332921734085
-0.000335865410438
-0.000341564056104
-0.000356282827185
-0.000400465102256
-0.000552736669253
-0.0012061366593
-0.00411086684486
-0.0128825368304
-0.0262670006868
-0.748270692769
-0.000271728369814
-0.000288852454769
-0.00031406208532
-0.000322278408759
-0.000324973690033
-0.000326240238449
-0.000327337979411
-0.000328595628485
-0.000330101560911
-0.00033196241712
-0.000334585889506
-0.000339498909196
-0.000352054884357
-0.000390820494943
-0.000530170104221
-0.00113692110074
-0.00384764314001
-0.0126764447093
-0.0360888763961
-0.311391214093
-0.000271151442691
-0.000288131312115
-0.000313448704082
-0.000321736236804
-0.000324445506484
-0.000325681648312
-0.000326719077398
-0.000327893474305
-0.000329292676041
-0.000331013782347
-0.000333422031279
-0.000337859487202
-0.000349083763905
-0.000383803668758
-0.000509582422742
-0.00106124787984
-0.00355753596602
-0.0110907866464
-0.0177500084281
-0.714155389194
-0.000270520847397
-0.000287277361936
-0.000312703447056
-0.000321086318646
-0.00032383306522
-0.000325056686167
-0.000326048023417
-0.000327153471478
-0.000328464748139
-0.000330079271001
-0.000332345184044
-0.000336510322958
-0.000346883972947
-0.00037855097344
-0.00049241187151
-0.000993161732418
-0.00330998938314
-0.0105471218045
-0.0218959401832
-0.703036718802
-0.000269834768417
-0.000286308497617
-0.000311848253722
-0.000320346213194
-0.000323148925719
-0.000324374453872
-0.000325331084401
-0.000326379058829
-0.000327617896832
-0.000329150692095
-0.000331322082358
-0.000335323445048
-0.00034519521244
-0.000375022539887
-0.000482488442805
-0.00095421396249
-0.00311523014782
-0.0103906080241
-0.0343787387656
-0.447459998861
-0.000269107926343
-0.000285246333554
-0.000310902635318
-0.00031952962033
-0.000322401933385
-0.000323639353074
-0.000324570129323
-0.000325570316652
-0.000326749934173
-0.000328219970582
-0.000330327877209
-0.000334245046782
-0.000343822139922
-0.000372611519255
-0.00047655443885
-0.00092769574189
-0.00295794632744
-0.0103510913418
-0.0373209699669
-0.181627505325
-0.000268345193668
-0.000284113959929
-0.00030988728454
-0.000318654469031
-0.000321607635242
-0.000322864960321
-0.000323774798087
-0.000324730217452
-0.000325850985008
-0.000327257931594
-0.000329303795697
-0.000333155083301
-0.000342505704778
-0.000370336464282
-0.000469391833645
-0.000890064159812
-0.00274308447091
-0.00869373457145
-0.016150838825
-0.0365202760651
-0.000267528580173
-0.000282914103117
-0.000308804404683
-0.000317714245279
-0.000320751174324
-0.000322031817414
-0.00032292671754
-0.00032384817917
-0.000324928114191
-0.0003262978634
-0.000328314437877
-0.000332106872405
-0.000341162211961
-0.000367462837034
-0.000458561072202
-0.000834341299544
-0.00245206322803
-0.00579847728769
0.0188466633969
-0.410497263941
-0.000266702985758
-0.000281656691794
-0.000307667975288
-0.000316730564561
-0.000319858256614
-0.000321167783384
-0.000322050410847
-0.000322936981192
-0.000323972715314
-0.000325294298591
-0.000327263131057
-0.000330946973382
-0.00033962864003
-0.000364274461638
-0.000447131030663
-0.000771246490465
-0.00210492627487
-0.00462343631361
0.0115527498216
0.0443043979183
-0.000265812845922
-0.000280331230458
-0.000306479958704
-0.000315705549741
-0.000318929134682
-0.000320270359685
-0.000321140972665
-0.000321990309867
-0.000322978680387
-0.000324244904043
-0.000326149353611
-0.000329705103044
-0.000337948779565
-0.000360846562467
-0.000435544337719
-0.000705319753927
-0.00174575766768
-0.00464939551508
-0.00308152999374
0.0110042492202
-0.000264898995146
-0.000278951669009
-0.000305251827781
-0.000314648872062
-0.000317974018464
-0.000319345229489
-0.000320200218917
-0.000321009486794
-0.00032194483455
-0.000323146019535
-0.000324962565176
-0.000328369135895
-0.000336153154168
-0.000357275745836
-0.000424181608636
-0.000644881817677
-0.00141841589172
-0.00502321861954
-0.018946859262