/*--------------------------------*- C++ -*----------------------------------*\
| =========                 |                                                 |
| \\      /  F ield         | OpenFOAM: The Open Source CFD Toolbox           |
|  \\    /   O peration     | Version:  v2012                                 |
|   \\  /    A nd           | Website:  www.openfoam.com                      |
|    \\/     M anipulation  |                                                 |
\*---------------------------------------------------------------------------*/
FoamFile
{
    version     2.0;
    format      ascii;
    class       volScalarField;
    location    "5.2";
    object      k;
}
// * * * * * * * * * * * * * * * * * * * * * * * * * * * * * * * * * * * * * //

dimensions      [0 2 -2 0 0 0 0];


internalField   nonuniform List<scalar> 
1984
(
0.00100589070583
0.00117660943611
0.0012373972993
0.00126383458625
0.00127840676939
0.00128909783665
0.0012987598818
0.00130853532067
0.00131917298126
0.00133185752646
0.00134946301507
0.00137934559214
0.00144254921109
0.00160797490941
0.00211569834309
0.0037557032466
0.0086234556282
0.0207251699016
0.0445069020298
0.0776461760965
0.00117881824471
0.0014482995569
0.00153697758263
0.00157351209755
0.0015914953466
0.00160308643673
0.00161267543952
0.00162207448905
0.00163236358118
0.00164525876474
0.00166480634627
0.00170102984648
0.00178256584012
0.00199765871246
0.00263765394843
0.00464180974021
0.0103844072473
0.0232209134761
0.044424422308
0.0779254596339
0.00124086585236
0.00154030858625
0.00163986548917
0.00168046149011
0.00169977289374
0.00171174534907
0.0017215062889
0.00173107151415
0.00174169168105
0.00175527521483
0.00177626467684
0.00181574935451
0.0019042832141
0.00213354984916
0.00279936809314
0.00484882039653
0.0106778197769
0.0236922136366
0.0452515064717
0.0781617921662
0.00126730445391
0.001578522073
0.00168257718162
0.00172474600459
0.00174438742657
0.00175626964127
0.00176589563339
0.00177539390921
0.00178608027713
0.00179986002488
0.00182125171639
0.00186151587821
0.00195114407402
0.00218000020651
0.00282989965216
0.00478847338027
0.0103290530403
0.0229276248637
0.0448414835421
0.0783153878703
0.00128092241459
0.00159690934493
0.0017028031715
0.00174544563386
0.00176495410542
0.00177651868428
0.00178582025422
0.00179506266367
0.00180554544125
0.00181918301449
0.00184029754117
0.00187982457736
0.00196716237635
0.00218666462662
0.00279247630352
0.00456675227397
0.00961794852486
0.02174548301
0.0445811447037
0.0785743944082
0.0012898582363
0.0016079640854
0.00171460972064
0.00175726595797
0.00177645425929
0.00178760179085
0.00179649431617
0.00180536693486
0.00181549062373
0.00182870443742
0.00184916694868
0.00188717640688
0.00197028696137
0.00217516886111
0.00272070531405
0.00427097554799
0.0088151313035
0.0207680599545
0.0446759967878
0.0787307369846
0.00129703321025
0.00161631968666
0.00172329269119
0.00176579775335
0.00178461481995
0.00179532519606
0.00180378411128
0.00181223891734
0.00182193738933
0.00183462551656
0.00185425279144
0.00189054492824
0.00196945598639
0.00216215670159
0.00266560519468
0.00406777375707
0.00823652633063
0.0197608482769
0.0436450607957
0.0783042496334
0.00130347058785
0.00162365040803
0.00173080240536
0.00177311723834
0.00179157316701
0.0018018675208
0.00180990451985
0.00181794059221
0.00182719327341
0.00183932768267
0.00185807824769
0.00189271981405
0.00196823800108
0.00215479076604
0.00265077634083
0.00404045941123
0.00806064258479
0.0187188781651
0.0411749481639
0.0771830237369
0.00130948744793
0.00163052435577
0.0017378203156
0.00177995459814
0.00179808306099
0.00180799821829
0.0018156448674
0.00182328225609
0.00183210422283
0.0018436869308
0.00186157088424
0.00189458142613
0.0019667183897
0.00214705055051
0.0026363340918
0.00402261201215
0.00791939632695
0.0176822349264
0.0382069151763
0.0757743886542
0.00131517745713
0.00163711281042
0.00174455405817
0.00178653432052
0.00180437506034
0.00181395336215
0.00182124791834
0.00182852050049
0.00183693637755
0.00184799498018
0.00186503202479
0.00189640304656
0.00196477012462
0.00213577341087
0.00260156819086
0.00392276758548
0.00762077220258
0.0167086950137
0.0356264705342
0.0745566603294
0.00132056504254
0.00164341585097
0.00175103927473
0.00179289966941
0.00181049237691
0.00181977575453
0.00182675795904
0.00183370353443
0.0018417496942
0.00185231203753
0.0018685375967
0.00189829856494
0.00196283567345
0.00212325896071
0.00255654491995
0.00377464737847
0.00721449860827
0.0159321877929
0.0343259991251
0.0740153603255
0.00132563753978
0.00164945734169
0.00175727432813
0.00179903961223
0.00181641796182
0.0018254453791
0.00183215379011
0.00183880749719
0.00184651624129
0.00185661052881
0.00187204688881
0.00190023388525
0.00196095826071
0.0021102860924
0.00250688250201
0.00360480313258
0.00676980252634
0.0153409753638
0.0341171309709
0.0740202037504
0.00133037566076
0.0016551987601
0.00176323082663
0.0018049253047
0.00182211901898
0.00183092148203
0.00183739243785
0.00184378742594
0.00185119170661
0.00186084432247
0.00187551231179
0.00190212619083
0.00195907115859
0.00209786804168
0.00246188034858
0.00345659401551
0.00637806437403
0.0148096488953
0.0341842750571
0.0742212358975
0.00133475398343
0.00166062366852
0.00176888277839
0.00181052364146
0.00182755822856
0.00183616566774
0.00184243009996
0.00184860112448
0.00185572778335
0.00186497604284
0.00187890479488
0.00190395958393
0.00195717222831
0.00208625997413
0.00242406363662
0.00334161967205
0.00605027974635
0.0142299491734
0.0342041928308
0.0744609141681
0.00133877163396
0.00166570887547
0.00177419830315
0.00181580447613
0.0018327026499
0.00184114184904
0.00184722468592
0.00185320184721
0.00186008546229
0.00186896480475
0.00188221186486
0.00190578103837
0.00195545534262
0.00207559407475
0.00239120928443
0.00324995876771
0.00577919129138
0.0135362972349
0.033419931031
0.0744274330506
0.00134243444241
0.00167044091348
0.00177915795082
0.00182074055497
0.00183752140334
0.00184581696426
0.00185174777403
0.00185755570787
0.00186422692427
0.00187277435594
0.00188540016982
0.00190764539135
0.00195420870797
0.00206655210134
0.00236263287609
0.00316861969012
0.00553450164317
0.0128437459785
0.0320704260026
0.073839054674
0.00134572892806
0.00167480672263
0.00178374527653
0.00182531079196
0.00184199599897
0.00185017052557
0.00185597204132
0.0018616307995
0.00186812048996
0.00187636097637
0.00188841758149
0.00190947334991
0.00195331442318
0.0020588480418
0.00233727338848
0.00309336018297
0.0053170053461
0.0122500531621
0.0301578516237
0.0711814680174
0.00134863745557
0.00167878242656
0.00178794800477
0.00182951346486
0.00184611311673
0.00185418551668
0.00185988677865
0.00186542521305
0.00187173991319
0.00187970572019
0.00189122918212
0.00191116107724
0.00195246701779
0.00205204046243
0.00231693308303
0.00304544136449
0.00519399712817
0.0118171004864
0.0279484002953
0.0665741095518
0.00135115578766
0.00168236874993
0.00179176019997
0.00183332973219
0.00184986385037
0.00185786811287
0.00186347752128
0.00186891030686
0.00187508017076
0.00188281307144
0.00189386751415
0.00191283081792
0.00195210536812
0.00204778831166
0.00230729357241
0.00303425913577
0.00517250212656
0.0115195410475
0.0259665811001
0.0602401442416
0.00135353273729
0.00168551373149
0.00179512279558
0.00183672584197
0.00185323205029
0.00186117789853
0.001866720673
0.00187207885703
0.00187814489379
0.00188570236765
0.00189640326643
0.00191462719598
0.00195252266953
0.00204629553348
0.00230689130031
0.00305530948666
0.00523438099793
0.0113266145939
0.0245888598562
0.0526742912421
0.00135583625905
0.00168819550397
0.00179800257913
0.00183966721138
0.00185617643568
0.00186409341268
0.0018696017377
0.00187491505072
0.00188091207243
0.0018883418449
0.00189878119431
0.00191647469695
0.00195354898215
0.00204720043942
0.00231468838512
0.00310212009813
0.00535979972955
0.0113151779708
0.0249566805382
0.053728098499
0.00135792863903
0.00169040878457
0.00180039715684
0.00184214567625
0.00185868744324
0.00186660987566
0.00187210747679
0.00187739969179
0.00188335856954
0.00189070159475
0.00190094612914
0.00191827049197
0.00195494291183
0.00204974861737
0.00232818577501
0.00316361402318
0.00549299796599
0.0112104649163
0.0252089763874
0.0686421125216
0.00135967778152
0.00169220002052
0.00180235031646
0.00184418839365
0.00186077633947
0.00186872362313
0.00187422910643
0.00187951904819
0.00188546314815
0.00189274981249
0.00190284845616
0.00191989002235
0.00195638703829
0.00205276111499
0.00234204671678
0.00321902618792
0.00558345360526
0.0108812319542
0.0237670460223
0.0692956972139
0.00136101658991
0.00169355548208
0.00180386469555
0.00184579651336
0.00186244516774
0.00187042769667
0.00187595629992
0.00188126055169
0.00188720514142
0.00189446013925
0.001904447966
0.00192127397823
0.00195765100133
0.00205531151385
0.00235289089172
0.00325872600437
0.00563304372667
0.0105903666304
0.0223944322481
0.0682148279277
0.00136195234336
0.00169449179644
0.0018049371094
0.00184696421775
0.0018636811774
0.0018717096013
0.00187727582145
0.00188261300194
0.00188857776108
0.00189582402605
0.00190573391741
0.00192238258926
0.00195858686083
0.00205706723041
0.00236067534115
0.00328744655644
0.00568081076306
0.0105111578697
0.0207865428272
0.0556363466808
0.00136245777628
0.00169498879949
0.00180555947085
0.00184768213381
0.00186447434789
0.00187256358992
0.00187818311189
0.00188356933875
0.00188957424486
0.00189683610162
0.00190669392455
0.00192316384921
0.0019590975411
0.00205787362227
0.00236575834452
0.00330966964013
0.00573514279052
0.0106178663972
0.0197223127206
0.0399164173609
0.00136253156766
0.0016950464319
0.0018057233896
0.00184793839513
0.00186481311532
0.0018729759432
0.00187866522582
0.00188412027469
0.00189018767867
0.00189749491073
0.00190733819752
0.00192366935268
0.00195931741966
0.00205796658806
0.00236815764138
0.00332351460643
0.00576906157677
0.0106633464023
0.0196159015906
0.0387377357709
0.00136219062126
0.00169467676102
0.00180542292693
0.00184772252625
0.00186468843578
0.00187293918811
0.00187871642585
0.00188425758428
0.00189040568571
0.00189778009272
0.0019076442362
0.00192392225156
0.00195941260982
0.00205805804958
0.00236991660077
0.00333465142772
0.00581012170657
0.0109244199649
0.0223501599033
0.059059152172
0.00136143663909
0.00169385108269
0.00180463461869
0.00184701603674
0.00186408612391
0.00187244360063
0.00187832852932
0.00188397905864
0.00189024151619
0.00189772618908
0.001907668873
0.00192403506358
0.00195971690623
0.00205908576461
0.00237372197787
0.00334888222753
0.00585819203681
0.0111984368596
0.0247020096488
0.0727923721522
0.00136027640392
0.00169255314179
0.00180333037297
0.00184579735145
0.00186299249788
0.0018714804101
0.00187749650363
0.00188328240559
0.00188968917105
0.00189733094228
0.00190746084193
0.00192417342112
0.00196063726076
0.00206155984881
0.00237847500796
0.00336084553259
0.00590449379326
0.0113639362616
0.0255502256127
0.076021273079
0.00135873053788
0.00169077151774
0.00180149365819
0.00184405069523
0.00186139434055
0.00187004121881
0.00187621656111
0.00188216755176
0.00188875653344
0.00189662278248
0.00190710318682
0.00192461561863
0.00196299749463
0.00206756153612
0.00238878115061
0.00337902279209
0.00596048110994
0.0115089831205
0.0255760329433
0.0749880567137
0.00135677117249
0.00168847428636
0.00179909847906
0.0018417540985
0.00185927856638
0.00186811910121
0.00187448761033
0.00188063917628
0.00188745569435
0.00189563063136
0.00190669722465
0.00192571586556
0.00196798260615
0.00208077330243
0.00241435427387
0.00341849282495
0.00601755616928
0.0114902429388
0.0242176190295
0.0679700646662
0.00135433687697
0.0016856012822
0.00179612132873
0.00183889798231
0.0018566381578
0.00186571020917
0.00187231003235
0.00187870237907
0.00188579789667
0.00189437917358
0.00190630712722
0.00192767819965
0.00197627434217
0.00210346511256
0.0024619662691
0.00349243450722
0.00608406136468
0.0113123274631
0.0216262124744
0.0491689674239
0.00135140582748
0.00168215738084
0.00179255251964
0.00183547375075
0.00185346618852
0.0018628099232
0.00186968183674
0.00187635820006
0.0018837861544
0.00189286361895
0.00190587649158
0.00193023696399
0.00198690555728
0.00213268598241
0.00252454985382
0.00359064778151
0.00616674467786
0.011206769547
0.0204483247904
0.0489644603946
0.0013479745208
0.00167813856825
0.00178838325494
0.00183147098262
0.00184975389943
0.00185941204854
0.00186659924748
0.00187360455221
0.00188141260426
0.0018910381693
0.0019051940016
0.00193258068656
0.00199719435038
0.00216091145054
0.00258497181754
0.00368525995942
0.00624673818369
0.0112633277018
0.0221571575187
0.0695123868436
0.00134402613178
0.00167352909217
0.00178360595305
0.00182688132154
0.00184549338904
0.00185551121103
0.00186306171406
0.00187044401201
0.00187866929242
0.00188883997035
0.00190398438624
0.0019336883434
0.00200392257494
0.00217975723203
0.00262534444162
0.00374856563637
0.00629942136926
0.0114085610324
0.024177312135
0.0734819157526
0.00133954181377
0.00166831690833
0.00177821665745
0.00182170060553
0.00184068115773
0.00185110887073
0.0018590764652
0.00186688633275
0.0018755646266
0.00188625825636
0.00190214635937
0.00193316640854
0.00200596619904
0.00218663246312
0.00264161068944
0.00377881925507
0.0063287596449
0.0113940980611
0.0235454445534
0.0688243495519
0.0013345140004
0.00166250895096
0.00177221941565
0.00181593356397
0.00183532359032
0.00184621239994
0.00185465362903
0.00186294824031
0.00187212741797
0.00188334522944
0.00189983836298
0.00193155042301
0.00200491936751
0.00218559550975
0.00264142611013
0.003787049919
0.00634936879685
0.011313010603
0.0222573381774
0.0643759908992
0.00132893402559
0.00165611180567
0.00176563115438
0.00180959445757
0.00182943071239
0.00184083191698
0.00184980763308
0.00185865131241
0.0018683834032
0.00188015149943
0.00189716908987
0.00192917606933
0.00200206384053
0.00218086701551
0.00263553479191
0.0037901912225
0.00637325186518
0.0113016645031
0.0215199612511
0.0619587983354
0.00132283847627
0.00164914556019
0.00175847338282
0.0018027024083
0.00182301914626
0.00183498358754
0.00184455762166
0.00185402300035
0.00186436363863
0.00187668580031
0.00189397610496
0.00192548118176
0.00199618001748
0.00217096123739
0.00262407907603
0.0037902318012
0.00639932042176
0.0114004415507
0.021246798717
0.0428167687113
0.00131619053096
0.00164164990547
0.00175079285115
0.00179529839842
0.00181611563733
0.00182869009387
0.00183893685893
0.00184908881387
0.0018601302351
0.00187298685935
0.00189032874815
0.00192047185855
0.00198725315506
0.00215630140066
0.0026099737499
0.00379324862914
0.00640709604325
0.0113023653381
0.0205569597866
0.0386262874816
0.001309109398
0.00163371557464
0.00174267027927
0.00178743644315
0.00180876989123
0.00182197314402
0.00183292221996
0.00184385660174
0.00185569168766
0.00186924849832
0.0018867332072
0.00191566694538
0.00197902438868
0.00214450633589
0.00260563192483
0.00381592421256
0.00642960662507
0.0111551382716
0.0198624189817
0.0489602782522
0.00130160013415
0.00162542942393
0.00173418875495
0.00177920548628
0.00180098982311
0.00181478826188
0.00182641944512
0.00183814174163
0.00185089936236
0.00186539425946
0.0018835399898
0.00191238788072
0.00197470872971
0.00214014431407
0.00261222428861
0.00385177310615
0.00648308202731
0.0112720800354
0.0212299192453
0.0621483844057
0.00129374739381
0.00161693478205
0.00172551992319
0.00177068800926
0.00179279950975
0.00180695506183
0.00181896347161
0.00183118095713
0.00184481815439
0.00186055085054
0.00187998229793
0.00191040776064
0.00197552418735
0.00214530251568
0.00262882784447
0.00389272545685
0.00654858831639
0.0115346054826
0.0239429626993
0.0704780289914
0.00128574033547
0.00160845215556
0.00171684188956
0.0017619848859
0.001784017087
0.00179780762125
0.00180906073396
0.00182055043239
0.00183450058447
0.00185173552741
0.00187293012844
0.00190632204674
0.00198025343567
0.00216202497525
0.00265936206625
0.00394445813504
0.00661637257726
0.0115571314831
0.0237913105473
0.0698411049569
0.0012778742379
0.00160029077878
0.00170839022091
0.00175313869551
0.0017741748125
0.00178566274807
0.00179274711898
0.00179908619505
0.00181043676395
0.00182880969404
0.0018515473136
0.00188942786847
0.00198663143214
0.00219761508199
0.002723575606
0.0040345449965
0.00669653788357
0.0113585434813
0.0201310407772
0.0432769737793
0.00127033109913
0.00159270720859
0.00170037009553
0.00174404139174
0.00176226702838
0.00176690478459
0.00175998896183
0.00174317686854
0.00173961676918
0.00175681710974
0.00178131956726
0.00182903160462
0.00198853382412
0.00226210296908
0.00284373971082
0.00418422964576
0.00678277784406
0.0111503671816
0.0187514598242
0.0345792369297
0.00126340069296
0.00158605043097
0.00169309583709
0.001734949639
0.00174807926275
0.00173907879973
0.00169781349858
0.00160234074117
0.0014785381576
0.00147662613662
0.00150682757624
0.00162386458085
0.0019711292531
0.00238825164957
0.00305591633865
0.00441076489395
0.0069009634554
0.0111558413144
0.0204283503268
0.0496278286706
0.00125724454858
0.00158025906126
0.00168681389594
0.0017268317493
0.00173555639188
0.00171620059687
0.00164496871289
0.00139123796934
0.00201182247387
0.00265064343504
0.00337011127187
0.00468270859038
0.00702633849395
0.0110877593063
0.0207260883726
0.058589699101
0.00125325625982
0.00157705682065
0.00168346062285
0.00172240644126
0.00172830686865
0.00170256599413
0.00161628914543
0.00132274201888
0.00215651083343
0.00288768545285
0.00362156511796
0.00486960038409
0.00711624487124
0.0108666720252
0.0198152091943
0.0636970336393
0.00125317025946
0.00157700006324
0.00168342050739
0.0017223798478
0.00172828732488
0.00170254519099
0.00161631323319
0.00132298063613
0.00215527082347
0.00288316650225
0.00361067437734
0.00485988734122
0.00715116502812
0.0109310574377
0.0189702420947
0.0605752306476
0.00125712858309
0.00158014120981
0.00168672929174
0.00172676423638
0.00173549417964
0.00171613413434
0.00164496040701
0.00139135484087
0.00200953198529
0.00264137523109
0.00335021760888
0.00466754986927
0.00708684240667
0.0113200874005
0.0213896286609
0.062910513304
0.001263286061
0.00158593573338
0.00169300729875
0.00173488789585
0.001748013863
0.00173894501102
0.00169741324568
0.00160175026665
0.00147833780901
0.00147634336938
0.00150675231131
0.00162435872353
0.00197105002624
0.00238500512533
0.00304917313054
0.00440788182719
0.00694727290404
0.011530271169
0.022317880907
0.0481804862856
0.00127029324735
0.00159267199728
0.00170032998007
0.00174401586279
0.00176225412875
0.00176689275057
0.00175998917176
0.00174291589719
0.00173965602945
0.00175695523896
0.00178174653234
0.00183002590229
0.00199029511417
0.00226744440385
0.00286012061609
0.00421020402432
0.0068050509096
0.0113204147679
0.0206124972931
0.0425542585578
0.00127787877727
0.0016002893649
0.00170837584162
0.00175312566853
0.00177418298398
0.001785700641
0.00179280870411
0.00179916990586
0.00181057756447
0.00182907854405
0.00185218223694
0.00189103457664
0.00199052349828
0.00220986534813
0.00275662483705
0.00408577403249
0.00671691330712
0.0112474791141
0.0203358687338
0.0580449342046
0.00128576023337
0.00160847198876
0.00171683895452
0.00176198487797
0.00178403020322
0.00179784875132
0.00180913681849
0.00182064857866
0.00183463270501
0.00185195366121
0.00187347109705
0.00190780761954
0.00198448396028
0.00217524624031
0.00269481636306
0.00400323404006
0.00666400756019
0.0115310662084
0.022869626469
0.0660370597359
0.00129375550212
0.0016169451661
0.00172551812896
0.00177068717818
0.00179281006174
0.00180698541843
0.00181902165336
0.0018312641008
0.0018449131603
0.00186069285009
0.00188031103636
0.0019113452001
0.0019784188572
0.00215452508762
0.00265475564949
0.00394065966195
0.006602428238
0.0116932556723
0.0244369689663
0.0684433809055
0.00130162109139
0.00162545140569
0.00173419557213
0.00177920132891
0.00180100556132
0.00181481234411
0.00182645859985
0.00183819215485
0.00185096036047
0.00186547974208
0.00188370868144
0.0019128381684
0.00197611847828
0.00214507076003
0.00262882788952
0.00388785101908
0.00652380135917
0.0114591574001
0.0227559244333
0.0632849949896
0.00130915111444
0.00163375232131
0.00174267794198
0.00178744014306
0.00180877410947
0.00182198898734
0.00183294561793
0.00184388293552
0.00185572928635
0.00186929399427
0.00188683273578
0.00191592674195
0.00198005740292
0.00214915275927
0.00262371118015
0.0038571289726
0.00646975301938
0.0114085520911
0.0233507847285
0.0677611970437
0.00131623255021
0.00164167955731
0.00175080305465
0.00179529809749
0.00181612446094
0.00182870670971
0.00183895020388
0.00184910768399
0.00186014375293
0.00187301560219
0.00189039114256
0.0019207206553
0.00198868367233
0.00216363166913
0.00263732991248
0.00385122893439
0.00644920162753
0.0113590848959
0.0227371793543
0.0662668031217
0.00132287307097
0.00164916074396
0.00175847888922
0.0018027062385
0.00182303183118
0.00183500659407
0.00184458652071
0.00185404843108
0.0018643925995
0.0018767034684
0.00189402053749
0.00192561227925
0.00199715921786
0.00217662746753
0.00264617467543
0.0038394126809
0.00643488184261
0.0112442087681
0.0204531658563
0.0461656519465
0.00132896210714
0.00165611845698
0.00176563854014
0.00180960662451
0.0018294565182
0.00184087042465
0.00184985284217
0.00185869962418
0.00186843227829
0.00188019118274
0.00189719572825
0.00192911519301
0.00200196423203
0.00218175667217
0.00264238441132
0.00381403467968
0.00642388643359
0.0114656535826
0.0225104020679
0.0641137116497
0.00133454737928
0.00166252319929
0.00177223578029
0.00181595743561
0.00183536372189
0.00184626760426
0.00185471850806
0.0018630227283
0.00187220409753
0.00188340782827
0.00189987148698
0.00193135255138
0.00200397826536
0.00218275010526
0.00263670255406
0.00379366647549
0.00641462924106
0.0116429705146
0.024539153368
0.0722231240937
0.00133957507469
0.00166833590918
0.00177823921007
0.00182173364508
0.0018407332071
0.00185117941425
0.00185916057977
0.00186698537972
0.00187567536777
0.00188635016186
0.00190220129996
0.00193294476945
0.00200489338085
0.00218314698703
0.00263430679689
0.00377845578753
0.00637725771017
0.0115811571008
0.0246781995612
0.0765624126013
0.00134403220675
0.00167350877137
0.00178360349911
0.00182689906862
0.00184553498711
0.00185557749182
0.00186315168422
0.00187056316483
0.00187880881097
0.00188897341851
0.00190408509582
0.00193353544961
0.0020031725513
0.00217749528314
0.00262091499407
0.00374691981283
0.00631661777534
0.0114223185868
0.0228683958904
0.0613659219425
0.00134796651294
0.0016780911094
0.00178836309281
0.00183148079614
0.00184979258852
0.00185947984195
0.00186669726558
0.00187374273358
0.00188159293043
0.00189124132712
0.00190540713952
0.0019326117327
0.00199689489991
0.00215999531373
0.00258333559749
0.00368381525084
0.00624628376192
0.0112332952384
0.020803404621
0.048179681123
0.0013513923314
0.00168210165726
0.00179252553036
0.0018354821462
0.00185350628273
0.00186288109758
0.00186978671748
0.00187651089377
0.00188399551108
0.00189311590486
0.00190618105488
0.00193047593521
0.00198704700439
0.00213266496675
0.00252455452138
0.00359033391779
0.00616106862739
0.0112330937444
0.0212116291142
0.0472975197573
0.00135432523159
0.00168554487267
0.00179609490359
0.00183890993784
0.00185668212706
0.0018657852437
0.00187241959097
0.00187886407205
0.0018860250316
0.00189466110042
0.00190666457301
0.00192802971691
0.00197668407695
0.00210396600877
0.00246236435497
0.00349018633129
0.0060656968899
0.0113641684123
0.0238576982936
0.0645642597502
0.00135677237847
0.00168841613939
0.00179907621017
0.00184177227117
0.00185932860611
0.00186819919296
0.00187460233605
0.00188080686028
0.00188769185607
0.00189592642934
0.00190707657645
0.001926111906
0.00196847463743
0.00208135142985
0.00241431732698
0.00341237586854
0.00597954945019
0.0114064328222
0.0245040933116
0.0637960879693
0.00135875192264
0.00169072874908
0.0018014829814
0.00184407674826
0.00186145309013
0.00187012940894
0.00187633787706
0.00188233987388
0.0018889970541
0.00189692388581
0.00190748446245
0.00192501223437
0.00196343314844
0.00206769367735
0.00238637002981
0.00336524298676
0.00591297251383
0.0113440335235
0.023875379326
0.0540043506709
0.00136031743904
0.00169252248592
0.00180333511643
0.00184583829533
0.0018630632648
0.00187157902381
0.00187762592797
0.00188345941248
0.00188993173695
0.00189763365456
0.00190783550219
0.00192455340308
0.00196094350911
0.00206084517185
0.00237202607518
0.00333683008617
0.00585905211584
0.011234900742
0.0230653807344
0.0517002249586
0.00136149631921
0.00169384504425
0.00180465179217
0.00184706831117
0.00186416948966
0.00187255415188
0.00187846757926
0.00188416127699
0.00189048410659
0.00189802428713
0.00190802923126
0.00192440086355
0.00195995148497
0.00205791429136
0.00236504601504
0.00332004865768
0.00582326184669
0.0112291942993
0.02417680067
0.0648912935319
0.00136226421885
0.00169468546925
0.00180545434176
0.00184778908085
0.00186478633887
0.00187306343629
0.00187886652538
0.00188444416483
0.00189064587542
0.00189806945825
0.00190797939506
0.00192427761409
0.00195970848187
0.00205745512231
0.00236452964918
0.00331777964117
0.00580728730889
0.0111385914338
0.0235019133903
0.0577147511109
0.00136261380437
0.00169506187007
0.00180576767549
0.00184802077474
0.00186492769238
0.00187311496646
0.00187882674196
0.00188430851529
0.0018904127651
0.00189775303379
0.00190763027845
0.00192400667531
0.00195969927522
0.00205831561126
0.00236848545879
0.00332686813078
0.00579873325969
0.0109605616601
0.0220445115749
0.0562863463502
0.00136254697917
0.00169500705479
0.00180561617429
0.00184778054051
0.00186460494622
0.00187271612166
0.00187835346166
0.00188375843532
0.00188978760678
0.00189707323885
0.00190695825657
0.00192348044832
0.00195953079354
0.00205887857726
0.00237054357399
0.00332897763038
0.00577830698078
0.0107398413224
0.0201413512547
0.0392710760509
0.0013620564395
0.00169452957662
0.00180501277559
0.00184708000252
0.00186382714679
0.00187187572614
0.00187745533464
0.00188280277139
0.00188877966448
0.00189603811651
0.00190596374297
0.00192264495348
0.00195895507356
0.002058100565
0.00236633119822
0.0033110931244
0.00572893749224
0.0105669605837
0.0198322327179
0.0379713197754
0.00136114043434
0.00169361410416
0.00180395702391
0.00184592380006
0.00186259867624
0.00187059650216
0.00187613389075
0.00188144418891
0.00188739531434
0.00189465901459
0.00190466267628
0.00192151911242
0.00195796379994
0.00205594071494
0.00235613998026
0.00327522489155
0.00568222529221
0.0107543583145
0.022357324186
0.0541564918084
0.00135982035964
0.00169227980648
0.00180245889512
0.00184432817939
0.00186094040843
0.0018688997912
0.00187440886964
0.00187969675678
0.00188563737611
0.00189292403033
0.00190303136653
0.0019201075808
0.00195668882382
0.00205320873897
0.00234316602064
0.00322714621435
0.00563887575007
0.011270557111
0.0256495944241
0.070688544488
0.00135808567953
0.00169050147314
0.00180051873855
0.00184229703807
0.00185886001124
0.00186679358404
0.00187229026317
0.00187757389881
0.00188352098537
0.00189085538421
0.00190110335977
0.00191847651923
0.00195533270349
0.00205059034354
0.00232990816829
0.00317115538221
0.00555724504641
0.0116507160406
0.0271524664069
0.0710910804126
0.00135599868224
0.00168829836445
0.00179814086
0.00183983536928
0.00185636456511
0.00186428687996
0.00186978873597
0.00187508887319
0.00188106791324
0.00188848105869
0.00189891901271
0.0019166818988
0.00195406798011
0.00204876210848
0.00231917813973
0.00311777100682
0.00544076672331
0.0117412807177
0.026928075903
0.059591737856
0.00135368449127
0.00168564899587
0.00179529575463
0.00183692473288
0.0018534451835
0.00186138594897
0.00186691605927
0.00187225475902
0.00187829534735
0.00188582507526
0.00189651601553
0.00191480326235
0.00195304481395
0.0020481638997
0.00231296354439
0.00307715912802
0.00532580905864
0.0116172899228
0.0250307004197
0.0439600553709
0.0013513096765
0.00168253282261
0.00179195598571
0.00183355014726
0.00185010172901
0.00185809829338
0.00186368746085
0.00186909172054
0.00187522504055
0.00188291810974
0.00189394412537
0.00191294202346
0.00195252262178
0.00204946503265
0.00231310969504
0.00305715349211
0.00526469626676
0.0116785133955
0.025184967023
0.0441891893804
0.00134878934193
0.001678955179
0.00178815437087
0.00182974191665
0.00184636009046
0.00185443673507
0.00186011368875
0.00186561571025
0.00187187970591
0.001879785077
0.00189125698024
0.00191116614138
0.00195265653739
0.00205319763303
0.00232160401148
0.0030647130485
0.00527408120457
0.0118988211311
0.0273515787936
0.0646179196807
0.0013458840944
0.0016749815018
0.00178394905864
0.00182554167904
0.00184224101597
0.0018504186994
0.00185620312575
0.00186182811714
0.00186825129148
0.00187642271543
0.00188837786075
0.00190933754244
0.00195312948067
0.00205909594524
0.00234035452696
0.0031091043155
0.00537049328553
0.0121836376151
0.0294167410798
0.0723766296245
0.00134260059472
0.00167061768281
0.00177935822601
0.00182096191234
0.00183775819214
0.00184605732599
0.00185197446422
0.00185774941663
0.00186436498928
0.00187283357356
0.00188534034224
0.00190738985328
0.00195360326966
0.00206566082739
0.00236410781567
0.00318549642095
0.00556686971857
0.0125615350297
0.0304893172015
0.073583090818
0.00133894489187
0.00166589639571
0.00177440236074
0.00181602463227
0.00183293505744
0.00184137921002
0.00184745438394
0.00185340562273
0.00186024272336
0.00186904455559
0.0018821580232
0.00190543006339
0.00195438662807
0.00207346589987
0.00239198516151
0.00327429777754
0.00581106301906
0.013142585134
0.0320391791615
0.0740552974698
0.00133493604313
0.00166081809012
0.00176909211458
0.0018107471097
0.00182779321169
0.00183640763963
0.0018426685761
0.00184882657297
0.00185591867881
0.00186509809903
0.00187888787782
0.00190355623082
0.00195571846057
0.00208258947033
0.00241996211478
0.00335093702556
0.00604074077874
0.013863242313
0.0335355708952
0.074409738845
0.001330566988
0.00165539096666
0.00176344148599
0.00180515127413
0.00182235845947
0.00183117096436
0.00183764736041
0.00184404187676
0.00185142081074
0.00186102254487
0.00187556925326
0.00190177137547
0.00195739892587
0.00209212634738
0.00244465415763
0.0034066045729
0.00624286506969