/*--------------------------------*- C++ -*----------------------------------*\
| =========                 |                                                 |
| \\      /  F ield         | OpenFOAM: The Open Source CFD Toolbox           |
|  \\    /   O peration     | Version:  v2012                                 |
|   \\  /    A nd           | Website:  www.openfoam.com                      |
|    \\/     M anipulation  |                                                 |
\*---------------------------------------------------------------------------*/
FoamFile
{
    version     2.0;
    format      ascii;
    class       volScalarField;
    location    "5.2";
    object      k_0;
}
// * * * * * * * * * * * * * * * * * * * * * * * * * * * * * * * * * * * * * //

dimensions      [0 2 -2 0 0 0 0];


internalField   nonuniform List<scalar> 
1984
(
0.0010171051347
0.00118969006236
0.00125116006819
0.00127783398182
0.00129246496245
0.00130314259192
0.00131275553194
0.00132245309917
0.001332969625
0.00134543186348
0.00136255035334
0.00139111027244
0.00144990784894
0.00159875803849
0.00204366331842
0.00347987945686
0.00788800499201
0.0194023767194
0.0430640603161
0.0774284122573
0.00119199622031
0.00146471156721
0.00155455602066
0.0015915375483
0.0016096820206
0.00162132352527
0.0016309190188
0.00164029645258
0.00165051944896
0.0016632281807
0.00168225164997
0.00171684950954
0.00179281725211
0.00198725582536
0.00254866537072
0.00429516764984
0.00950325795015
0.0220265716954
0.0442184204801
0.0782522723578
0.00125443456906
0.0015573951875
0.00165823734458
0.00169933115872
0.00171881825918
0.00173083673637
0.00174058998217
0.00175011439628
0.00176064130255
0.00177399856264
0.00179439344781
0.00183211561839
0.00191481577292
0.0021229645641
0.00270898680812
0.00449614651541
0.00978346888914
0.0224870571014
0.0449476720922
0.0784660162654
0.00128093039892
0.00159574323838
0.00170111394679
0.00174379202218
0.00176360788358
0.00177552699783
0.00178513122215
0.00179456983345
0.00180514426745
0.00181867493681
0.00183944780511
0.00187795587777
0.00196195587767
0.00217107312785
0.00274820472164
0.00446764154653
0.00948976136193
0.0216642448984
0.0441921782412
0.0784108788895
0.00129454675005
0.00161414294076
0.00172135386863
0.00176450476942
0.00178418427779
0.00179578020821
0.00180505242689
0.00181422722905
0.00182458747965
0.00183797906699
0.00185850028158
0.00189638634779
0.00197865403966
0.0021812136496
0.00272710330138
0.00430220292656
0.0088752179657
0.0204228384782
0.0434877312804
0.0784417051741
0.00130348690357
0.00162520380194
0.00173315928428
0.00177631935802
0.00179567603745
0.00180685313714
0.00181571493631
0.00182451960778
0.0018345234782
0.00184750222996
0.0018674270884
0.00190398707398
0.00198279857337
0.00217421465219
0.00267448417177
0.00406822458348
0.00817734681544
0.0194765889129
0.0435174722274
0.078516016003
0.00131068031646
0.00163358138512
0.00174185385746
0.00178485705038
0.00180384070144
0.00181458131878
0.00182301186222
0.00183140300275
0.00184099126085
0.00185346722405
0.00187261992894
0.00190765951858
0.00198295260825
0.00216485135258
0.00263375375178
0.0039149478334
0.00771933564296
0.0186515084889
0.0425109394552
0.0780411468697
0.00131714700429
0.00164094837521
0.00174938804261
0.00179219467665
0.00181081572704
0.00182114224256
0.00182915515538
0.00183713453377
0.00184628920165
0.00185823803433
0.00187657651656
0.00191013602125
0.00198249878466
0.00215955347272
0.00262571852301
0.0039177820771
0.00767308333715
0.0179270177704
0.0402700426885
0.0769397783692
0.00132319992184
0.00164786797985
0.00175643900753
0.00179905808081
0.00181735013859
0.00182729976019
0.00183492751727
0.00184251617435
0.00185125398618
0.00186267753698
0.00188020999973
0.00191229490005
0.00198167374583
0.00215343454866
0.00261546704595
0.00391769277937
0.00762194418762
0.0171634026495
0.0376131302634
0.0756007111275
0.00132893056483
0.00165450719427
0.00176321075867
0.0018056682934
0.00182367075242
0.00183328587155
0.00184056684878
0.00184779915085
0.00185614427677
0.00186706985925
0.00188381259438
0.00191441183056
0.00198045778036
0.00214412751098
0.00258626021112
0.00383491115476
0.00738044065417
0.0163741801419
0.0353774911596
0.0745064212993
0.00133436218672
0.00166086391035
0.00176973686501
0.00181206645516
0.00182981865895
0.00183914095819
0.00184611480459
0.00185302814938
0.00186101675517
0.00187146987919
0.00188745524624
0.00191659015976
0.00197925287831
0.0021338010076
0.00254828110504
0.00370738654679
0.00701728748511
0.0156937665261
0.0344414692962
0.0741378575841
0.00133948115513
0.00166696265644
0.00177601497722
0.00181824065336
0.00183577580807
0.00184484388873
0.00185154879773
0.00185817805994
0.00186584139396
0.00187584902705
0.00189109382992
0.0019187871049
0.00197805403985
0.00212292247853
0.00250553101596
0.00355708452917
0.00660329387933
0.01512533096
0.034430336501
0.0742438424592
0.00134426707508
0.00167276225159
0.00178201570211
0.00182416153864
0.00184150894588
0.00185035337155
0.00185682529674
0.00186320311846
0.00187057379059
0.00188016013068
0.0018946805841
0.00192091395973
0.00197674797444
0.00211223812305
0.00246624115262
0.0034259964275
0.00624044507682
0.0145857677739
0.0344200321818
0.0744057422111
0.00134869521545
0.00167824700052
0.0017877129055
0.00182979568022
0.00184698045849
0.00185563088278
0.00186190029071
0.00186806112484
0.00187516460252
0.00188436545191
0.00189818503869
0.0019229554576
0.00197533228747
0.00210195546779
0.00243258003381
0.00332440066779
0.0059406010574
0.0139879765217
0.0341879267476
0.0745142965937
0.00135276463809
0.00168339232242
0.00179307407549
0.0018351126471
0.0018521573371
0.00186064031008
0.00186673167952
0.00187270474136
0.00187957491608
0.00188842259745
0.00190159497747
0.0019249620854
0.0019740275023
0.00209233619147
0.00240269906187
0.00324248015265
0.00569777263952
0.0133134505352
0.0331849089204
0.0743583951031
0.0013564805272
0.00168818605642
0.00179808015363
0.00184008533692
0.00185700880617
0.00186534849313
0.0018712913354
0.00187710027651
0.00188376585988
0.00189229635012
0.00190487572721
0.00192699071398
0.00197314231127
0.00208420477326
0.00237658146846
0.00316860085207
0.00547657372686
0.0126682782762
0.0317006864786
0.0735882810401
0.00135982940181
0.00169261437887
0.00180271497962
0.00184469299422
0.00186151690257
0.00186973574823
0.00187555170219
0.00188121533575
0.0018877069546
0.00189594203026
0.00190797707045
0.00192896183454
0.00197255839596
0.0020772920255
0.00235336543699
0.00309959934254
0.00527816877733
0.0121377187135
0.0296593180124
0.0696160468497
0.00136279342789
0.00169665267136
0.00180696568977
0.00184893432777
0.00186566826591
0.00187378428422
0.0018795025048
0.00188505051477
0.001891372572
0.00189934344894
0.00191086525551
0.00193077423395
0.0019719689836
0.0020711265494
0.00233488973949
0.00305807586452
0.00517778589516
0.0117776206484
0.0275779704308
0.0629022973087
0.00136536841135
0.00170030223735
0.00181082674624
0.00185278963727
0.00186945358876
0.00187750189304
0.00188312978916
0.00188857565076
0.0018947585769
0.00190250586619
0.00191357696226
0.00193256135646
0.0019718517727
0.00206751702051
0.00232713851164
0.0030534981028
0.00518002739216
0.0115492093678
0.0259050321858
0.0535945854878
0.00136781527344
0.0017035056218
0.00181423517939
0.00185622319118
0.00187285661236
0.00188084591485
0.00188640936658
0.00189178461349
0.00189786957743
0.00190545046059
0.00191618588846
0.00193447392642
0.00197250687722
0.00206663470505
0.00232844622487
0.00308003017908
0.00526288598145
0.0114019605759
0.0248681557023
0.0462932927339
0.00137019579139
0.00170624292601
0.00181715847577
0.00185920043116
0.00187583431288
0.00188379573364
0.00188932717939
0.00189466104926
0.00190068190195
0.00190814262149
0.00191863110711
0.00193642285199
0.00197372892424
0.0020680100556
0.00233752402039
0.00313118744455
0.0054061223295
0.0114139521564
0.025405184564
0.055734712876
0.0013723300685
0.00170852231589
0.0018196060799
0.00186172078664
0.00187838161629
0.00188634758946
0.00189186956305
0.00189718463656
0.00190317052968
0.00191054893718
0.00192084890835
0.00193828354904
0.00197522331473
0.00207078802176
0.0023517323481
0.0031956973513
0.00555233600677
0.0113156379344
0.0251588962219
0.0685744782327
0.00137411136206
0.00171038234479
0.00182161584501
0.00186380868437
0.00188050912574
0.00188849762777
0.00189402799236
0.00189934271899
0.00190531650359
0.00191264205345
0.00192280092514
0.00193996226918
0.00197675613238
0.00207398889875
0.00236613717558
0.00325358147089
0.00565398943843
0.0109861691361
0.0233449645348
0.0676333063243
0.00137548095548
0.00171180523969
0.0018231866695
0.0018654622539
0.0018822170166
0.00189023830045
0.00189579207405
0.00190112290843
0.0019070996731
0.00191439660589
0.00192444829475
0.0019414020634
0.00197809907758
0.00207669973953
0.00237744118304
0.00329537450604
0.00571329153241
0.0107196028417
0.0219531333884
0.0663991581914
0.00137644872645
0.00171280787371
0.00182431474091
0.0018666750624
0.00188349194073
0.00189155697191
0.00189714873504
0.00190251428166
0.00190851369819
0.00191580490717
0.00192578238466
0.00194256510331
0.00197910959494
0.0020786114598
0.0023857365421
0.0033263225737
0.00577084983315
0.0106983545363
0.0206354212878
0.0542221359775
0.00137698561721
0.00171336944415
0.00182499162634
0.00186743754598
0.00188432398802
0.00189244811761
0.00189809388486
0.00190351025371
0.00190955220759
0.00191686197275
0.00192679097996
0.00194339971833
0.00197969104197
0.00207956664686
0.00239135817091
0.00335085177008
0.00583375464019
0.0108651059569
0.0201189686656
0.0391754730963
0.00137709057207
0.00171348942877
0.00182520782016
0.00186773665641
0.00188470052288
0.00189289696828
0.00189861375433
0.00190410150902
0.00191020868742
0.00191756782684
0.00192748743993
0.00194396627262
0.00197999540609
0.00207983188786
0.00239432155528
0.00336700307092
0.00587486360653
0.0109241675324
0.0201019328643
0.0388122762913
0.0013767817276
0.00171317963568
0.00182495729094
0.00186756198651
0.00188461260086
0.00189289622704
0.00189870265762
0.00190427936356
0.00191047069628
0.00191790035906
0.00192784592034
0.00194428391284
0.00198018758733
0.00208013694271
0.00239675183488
0.00338065140356
0.00592288074606
0.0111832218425
0.0227354161838
0.0604927107427
0.00137605964021
0.00171240940202
0.00182421513053
0.00186689408317
0.0018840453848
0.00189243569643
0.00189835205218
0.00190404187122
0.00191035304442
0.001917899412
0.00192792989401
0.00194447214339
0.0019806155396
0.00208145189339
0.0024014265213
0.00339775901186
0.00597776539667
0.0114487001924
0.0249060950564
0.0732913132663
0.00137493093699
0.00171116163114
0.00182295221627
0.00186571063316
0.00188298474471
0.00189150630346
0.00189755665947
0.00190338617959
0.00190984741424
0.00191755849669
0.0019277878711
0.00194470210394
0.00198169721365
0.00208426780189
0.00240695548688
0.0034119471945
0.00603131951236
0.0116177061308
0.0256090038841
0.0774811012478
0.00137341695888
0.00170942429766
0.0018211511269
0.00186399497991
0.00188141678851
0.00189009907119
0.00189631216688
0.00190231182301
0.00190896196855
0.00191690707435
0.0019275041433
0.00194526012559
0.00198428690444
0.00209076401546
0.00241823791329
0.00343229803658
0.00609500954692
0.0117911361561
0.0256985965456
0.0756982020456
0.00137148741865
0.00170716403527
0.00181878522637
0.00186172467525
0.00187932787727
0.00188820645521
0.00189461688522
0.00190082284209
0.00190770813397
0.001915973313
0.00192718000032
0.00194650649637
0.00198960154315
0.00210475283392
0.00244543121335
0.00347469529934
0.0061584611334
0.0118004522944
0.0244731635989
0.0635131067458
0.00136907838456
0.0017043204424
0.00181583096204
0.00185889002257
0.00187671061736
0.00188582409409
0.00189247052542
0.00189892325802
0.00190609550889
0.0019147796149
0.00192687618849
0.0019486395503
0.00199831213417
0.00212849190531
0.00249537137416
0.00355276440507
0.00623138150547
0.0116500700289
0.0220239078538
0.0475715335457
0.00136616831155
0.00170089859821
0.00181227837032
0.00185548193907
0.00187355750106
0.00188294669874
0.00188987016241
0.00189661276822
0.00190412508792
0.00191331781343
0.00192652865251
0.00195136961248
0.00200937336773
0.0021587849975
0.00256033813779
0.00365529041767
0.00631987307329
0.0115611155847
0.0208178317663
0.0466219349932
0.00136275372699
0.0016968936754
0.00180811812561
0.00185148946881
0.00186985919102
0.00187956735823
0.00188681100743
0.00189388828434
0.00190178771924
0.00191153893461
0.00192591603949
0.00195385196507
0.00201999740876
0.00218781479263
0.00262253941207
0.0037533231811
0.00640329915117
0.0115962755745
0.0221041441598
0.0642799393876
0.00135881668352
0.00169228944671
0.00180334220732
0.00184690378964
0.00186560718873
0.00187567998059
0.00188329228387
0.00189075241679
0.00189907539724
0.00190937904283
0.0019247568158
0.00195503984557
0.00202688419467
0.0022069972987
0.00266367342958
0.00381839560357
0.00645653801169
0.0117174809547
0.0243364735718
0.0741736319248
0.00135433743006
0.00168707364325
0.00179794641337
0.00184172021294
0.00186079765408
0.00187128619498
0.00187932156011
0.00188721527659
0.00189599726356
0.00190682914611
0.00192295442784
0.00195455383822
0.00202895264302
0.00221386527431
0.00268004504783
0.00384965546829
0.00648849626958
0.011712971291
0.0236440736235
0.067467675971
0.00134930808516
0.00168125294544
0.00179193469729
0.00183594367372
0.0018554372208
0.0018663935172
0.00187490897668
0.00188329390615
0.00189258307184
0.00190394447039
0.00192068083313
0.00195297431439
0.00202792106982
0.00221277025964
0.00267979121008
0.00385861857402
0.00651302962304
0.0116493786498
0.022242887331
0.0605909289905
0.00134371894215
0.00167483384419
0.00178532420273
0.00182958855679
0.00184953584258
0.00186101191637
0.00187006897137
0.00187900995627
0.00188885850696
0.00190077687799
0.00191804522612
0.00195063700418
0.00202509029345
0.00220803222991
0.00267396616399
0.00386270167464
0.00654042824063
0.0116547774456
0.0215270407631
0.0558216901042
0.00133760800101
0.00166783643207
0.00177813635439
0.0018226738629
0.00184311008619
0.00185515766741
0.00186482098337
0.00187439141752
0.00188485507044
0.00189733314328
0.00191487119325
0.00194693334526
0.0020191175458
0.00219793790705
0.00266248072342
0.00386373861914
0.00656851876588
0.0117728628807
0.02205153589
0.0435318745372
0.00133093455815
0.00166030054504
0.00177041818364
0.00181524084347
0.00183618685669
0.00184885355785
0.00185919855281
0.00186946319252
0.00188063619556
0.00189365320467
0.00191123390159
0.00194187526571
0.00200999222384
0.00218290617747
0.00264830490018
0.00386817315814
0.00657836404996
0.011671007401
0.0213660187366
0.0399732025285
0.00132382262147
0.00165231728703
0.00176225107124
0.00180734340804
0.00182881604484
0.00184212067191
0.00185317642597
0.00186423306069
0.00187620927491
0.00188993828015
0.0019076631754
0.00193705684399
0.00200164161723
0.00217092692498
0.00264440957412
0.00389326190917
0.00660412209922
0.0115168667234
0.0200917439713
0.0465408577196
0.00131627392663
0.00164397360478
0.0017537176478
0.00179907126114
0.00182100406544
0.00183491342079
0.00184665871958
0.0018585110707
0.00187142142881
0.00188610780056
0.0019045168509
0.00193383080566
0.00199735246606
0.00216661820865
0.00265164355073
0.00393129584442
0.00665870871275
0.0116176455117
0.0212228136024
0.0550697737877
0.00130837361885
0.00163541386022
0.00174499098513
0.00179050521726
0.00181277450756
0.00182704537188
0.00183917085468
0.00185151835616
0.00186531792274
0.00188127429759
0.00190101684357
0.00193196650843
0.0019983604281
0.00217208090635
0.00266895142416
0.00397372937352
0.00672289916177
0.0118428280594
0.0241435776738
0.0702883715899
0.00130031349535
0.00162686074923
0.0017362499877
0.0017817474754
0.00180394034386
0.00181784188241
0.00182919472546
0.00184078994058
0.00185490757246
0.00187241887849
0.00189398625777
0.00192797505051
0.00200340305302
0.00218942102996
0.00270033974176
0.00402659992129
0.00679172587374
0.0118585718234
0.0239090392353
0.0697114066751
0.00129239342997
0.00161862346197
0.00172773142447
0.0017728383903
0.00179402580252
0.00180559117748
0.00181270961432
0.00181907274102
0.00183055208581
0.00184926956521
0.00187242615917
0.00191097766626
0.00201035081984
0.00222632464107
0.00276636971647
0.00411857010949
0.00687467755258
0.0117058121472
0.0205524285445
0.0399044281938
0.00128479479466
0.00161096281334
0.00171964269026
0.00176366827912
0.00178200761502
0.00178661481368
0.00177952370886
0.00176255894123
0.00175870159183
0.00177637831434
0.00180137239472
0.0018500883676
0.00201404733079
0.0022934773454
0.00288982091105
0.00427105810814
0.00696032589554
0.0114915159492
0.0193120526284
0.0338200635108
0.00127780987388
0.00160422850866
0.00171229842699
0.00175449011975
0.00176764977561
0.00175833963951
0.0017162688841
0.00161997744433
0.00149301965593
0.00149226156787
0.00152363834536
0.00164627082295
0.00200161412275
0.00242495913688
0.00310704149555
0.00450071185761
0.00707479538175
0.0114607481425
0.020818783993
0.0499267495777
0.00127159902808
0.00159837246319
0.00170595028752
0.00174627897622
0.0017549790587
0.00173526971217
0.0016630421091
0.00140655721655
0.00203959673619
0.00268916766285
0.00342472977619
0.004773653452
0.00719657408739
0.0113759985724
0.020906927986
0.0528538679068
0.00126758515988
0.00159513870948
0.00170257112801
0.00174181716605
0.00174764757669
0.00172143796402
0.00163393239481
0.00133692203267
0.002186878817
0.00293096677977
0.00367957508298
0.00496018237898
0.00728776434866
0.0111406940466
0.0195551098571
0.0616709986785
0.00126750287097
0.00159508380953
0.00170253194172
0.0017417912398
0.0017476289686
0.00172141918475
0.00163395724483
0.00133716256489
0.0021856112892
0.00292633535618
0.00366822411418
0.00494940936747
0.00732440271262
0.0112299228352
0.0185401193117
0.0554830060895
0.00127148801938
0.00159825927958
0.00170586833192
0.00174621326188
0.00175491861302
0.00173520457043
0.00166303282282
0.0014066782346
0.00203724229374
0.00267963325049
0.00340384814934
0.00475692785303
0.00725897533916
0.0116145434328
0.0213981138194
0.0599610464253
0.00127769893088
0.00160411898547
0.00171221348653
0.00175443119904
0.00176758701819
0.00175820810183
0.00171587707961
0.00161940622703
0.00149283040808
0.00149199328028
0.00152359065838
0.00164679194504
0.0020014770844
0.0024215042625
0.00309973844627
0.00449697080544
0.0071201270971
0.0118377407517
0.0230970599427
0.0511068310089
0.00128476217601
0.00161093260178
0.00171960705927
0.00176364716821
0.00178199964924
0.00178660895946
0.00177953467851
0.00176232069532
0.00175875717771
0.00177653450016
0.00180182672354
0.00185113139271
0.00201582340825
0.0022989093222
0.00290666141027
0.004297785302
0.00698167368436
0.0116453871413
0.0212856120982
0.0439693766384
0.00129240410514
0.00161862695971
0.00172772195903
0.00177283072407
0.00179403977235
0.00180563541517
0.00181277856181
0.00181916548785
0.0018307027442
0.0018495533667
0.00187308842521
0.00191263469644
0.00201432829319
0.00223891443767
0.00280061157249
0.00417191649651
0.00689638434715
0.0115762855724
0.0202065875792
0.0497285901411
0.00130033980137
0.00162688541783
0.00173625232082
0.00178175292005
0.00180395913837
0.00181788911288
0.0018292774585
0.00184089486206
0.00185504728116
0.00187264793072
0.00189454800219
0.00192950592668
0.00200774775819
0.002203050018
0.00273714493004
0.00408782576335
0.00684170897842
0.0118487411106
0.0228614820636
0.063245679594
0.00130838745649
0.00163542944524
0.0017449943162
0.00179050984144
0.00181278979214
0.001827081089
0.00183923475198
0.00185160743331
0.00186541885895
0.00188142389129
0.0019013585756
0.00193293407732
0.00200133963994
0.00218159446887
0.00269585934632
0.00402361195644
0.0067773816715
0.0120075435074
0.0248078973765
0.0685319819023
0.00131630080037
0.00164400026937
0.0017537295396
0.00179907168063
0.00182102476916
0.00183494161761
0.00184670253747
0.00185856620124
0.00187148720597
0.00188619889431
0.00190469287996
0.00193429585826
0.00199879786948
0.00217165553967
0.00266874341079
0.00396876194807
0.00669872217851
0.0117866010771
0.0228586991907
0.059907802685
0.00132387145331
0.00165235921094
0.00176226398402
0.00180735223434
0.00182882465798
0.00184214078993
0.0018532035751
0.00186426253966
0.00187624996501
0.0018899864827
0.0019077666314
0.00193732296076
0.00200268907015
0.00217563956623
0.00266296974931
0.0039360859154
0.0066423613681
0.0117239559804
0.0235377743923
0.066567642909
0.00133098419157
0.00166033631313
0.00177043428623
0.00181524557368
0.00183619995712
0.0018488734538
0.00185921386841
0.00186948324064
0.0018806495213
0.00189368170283
0.00191129696646
0.00194213076745
0.00201146959947
0.00219049961482
0.00267686581888
0.00392923085301
0.00662112208863
0.0116900519327
0.0230038761487
0.0627002312507
0.00133765057848
0.00166785858983
0.00177814811244
0.00182268274975
0.00184312659181
0.00185518298746
0.00186485057933
0.00187441556866
0.00188488221575
0.00189734831638
0.00191491473673
0.00194706955747
0.0020201472353
0.00220389168358
0.0026857978496
0.00391603261701
0.0066074983628
0.0116018804662
0.0208159042153
0.0440057103235
0.00134375515985
0.00167484790761
0.00178533796461
0.0018296054739
0.0018495646916
0.00186105149459
0.00187011308795
0.0018790556876
0.00188890367176
0.00190081261143
0.00191806906614
0.00195057748372
0.00202501228979
0.0022090449224
0.00268136502829
0.00388812539152
0.00659269110369
0.0118132255141
0.0225854286606
0.0574999274437
0.00134935002236
0.00168127461415
0.00179195729043
0.00183597190468
0.00185547971419
0.00186644876856
0.00187497080004
0.00188336336821
0.00189265340626
0.00190400156396
0.00192071006876
0.00195277212682
0.00202696475506
0.00220986070207
0.00267494093374
0.00386570205136
0.00658068976014
0.0119697600124
0.0247618924959
0.0706621322205
0.00135438021363
0.00168710099356
0.00179797574868
0.00184175769754
0.001860851507
0.00187135482677
0.00187940012624
0.00188730534576
0.00189609702097
0.00190691238157
0.00192300410343
0.00195432314196
0.00202784708066
0.00221025215942
0.00267239892407
0.00384933938571
0.00654026485797
0.0118972035392
0.0248681804734
0.0730817984359
0.00135883064437
0.00169227701169
0.00180334583651
0.00184692515898
0.00186565000007
0.00187574486338
0.00188337808693
0.00189086496199
0.00189920202306
0.001909500333
0.00192484610125
0.00195486786963
0.00202610270723
0.00220463732366
0.00265902366757
0.00381667584989
0.00647547963017
0.0117609478173
0.0234726271241
0.0569131654291
0.00136275253728
0.00169685321108
0.00180810330141
0.00185150212748
0.00186989822128
0.0018796331146
0.0018869048243
0.00189402086354
0.00190196185091
0.00191173587153
0.00192612269461
0.00195386747129
0.0020196646463
0.00218683870901
0.00262078074061
0.00375169505001
0.00640267281475
0.0115824132851
0.0213361520406
0.0457905610398
0.00136616054442
0.00170084866412
0.00181225573553
0.00185549239079
0.00187359727522
0.00188301552982
0.00188997118403
0.00189676102543
0.00190433050016
0.00191356693325
0.00192683157483
0.00195160134937
0.00200949576716
0.0021587137475
0.0025602790353
0.00365496133864
0.00631369123809
0.0115718242602
0.0216017559763
0.048598298556
0.00136907140594
0.00170426896303
0.00181580809212
0.00185890349255
0.00187675399909
0.00188589693123
0.00189257689016
0.00189908197772
0.00190632098258
0.00191506152743
0.00192723635637
0.00194898965367
0.0019987130949
0.00212896606705
0.00249570786262
0.00355047722659
0.00621141949691
0.0116641482586
0.0241096630893
0.0701400085428
0.00137149259901
0.00170711010981
0.00181876598068
0.00186174418184
0.00187937750744
0.00188828495672
0.00189472959109
0.00190098940255
0.00190794518974
0.00191627232984
0.0019275659485
0.00194690659839
0.00199009392036
0.00210532501503
0.00244538319303
0.00346849924858
0.00611800290303
0.0116999867339
0.0249245505104
0.0701363688674
0.00137344196231
0.00170938528989
0.00182114317186
0.00186402240215
0.00188147564947
0.00189018664959
0.00189643298578
0.00190248513259
0.00190920607829
0.00191721445658
0.00192789541947
0.0019456652857
0.00198473086184
0.00209091104172
0.00241584679327
0.00341821601582
0.00604433072775
0.0116386177007
0.0246405241505
0.0597295268679
0.00137497530974
0.00171113461376
0.00182295976502
0.00186575322494
0.00188305632457
0.00189160547429
0.00189768721489
0.00190356627837
0.00191009611442
0.00191787039981
0.00192817584242
0.0019450942896
0.00198201484263
0.00208355416232
0.00240036427234
0.00338682895845
0.00598234745579
0.0115182917003
0.0236304257085
0.0503814651284
0.001376122528
0.00171240711903
0.0018242354004
0.00186694855715
0.00188413041608
0.00189254803763
0.00189849386593
0.00190422922319
0.00191060421383
0.00191820952111
0.00192830664861
0.00194485336048
0.00198086259142
0.00208024599519
0.00239233192936
0.00336681683446
0.00593737522631
0.0114797588727
0.0246436914746
0.0622153179091
0.00137685873893
0.0017131927973
0.00182499250297
0.00186763154477
0.00188471315078
0.0018930235085
0.00189885704586
0.0019044729103
0.00191072220952
0.00191820531414
0.00192819988495
0.00194465863224
0.00198050105443
0.002079500821
0.0023909388452
0.00336169592365
0.00591411307254
0.0113824593645
0.0241047604697
0.0578999803099
0.00137717629848
0.00171351048548
0.00182525687026
0.0018678229266
0.00188481865869
0.00189304003131
0.00189878068709
0.00190429771352
0.00191044575179
0.00191784131549
0.00192779822492
0.00194432591971
0.00198040134757
0.00208017087458
0.0023943974598
0.00336919269251
0.00590045192946
0.0112053079587
0.0225440504488
0.0508622721692
0.00137707740804
0.00171339368622
0.00182505351346
0.00186754033737
0.00188445879334
0.00189260543581
0.00189827055963
0.00190370826835
0.00190977802807
0.00191711547524
0.00192707637054
0.0019437443684
0.00198015972074
0.00208060557377
0.00239616725356
0.00337029076109
0.00587623413793
0.0109854976947
0.0207088828925
0.0377923373258
0.00137655526307
0.00171285259393
0.00182439652389
0.0018667959362
0.00188364247482
0.00189172786069
0.00189733404839
0.00190271171991
0.00190872603872
0.00191603301628
0.00192603110442
0.0019428536665
0.00197951487144
0.00207970780561
0.00239161705913
0.00335094455066
0.00582015425585
0.010767947454
0.0201076534598
0.0383917285211
0.00137560560001
0.00171187017513
0.00182328457959
0.00186559446581
0.00188237553368
0.00189041298454
0.00189597710913
0.00190131614137
0.00190730214928
0.00191461126227
0.00192468391275
0.0019416756321
0.00197845207512
0.00207739683966
0.00238091207521
0.00331279420734
0.0057629056458
0.0108818355766
0.0223635407623
0.054290274964
0.00137425382165
0.00171046835406
0.00182172964491
0.001863952883
0.00188067767141
0.00188867901436
0.00189421450319
0.00189952925562
0.00190550210621
0.00191283086277
0.00192300317709
0.0019402061276
0.00197709488621
0.00207449378666
0.00236737866957
0.00326204337593
0.00570796203886
0.0113675264045
0.0255259306678
0.0704275148725
0.00137248596922
0.00170862065684
0.00181973189405
0.00186187541483
0.00187855742511
0.00188653528451
0.00189205791388
0.0018973663142
0.00190334272319
0.00191071544303
0.00192102320615
0.00193851306854
0.00197564784693
0.00207168638815
0.00235353112061
0.00320318703604
0.00561488598463
0.0117532407076
0.0272674150463
0.0717091547518
0.00137036166944
0.00170634784542
0.00181729750817
0.00185936885352
0.00187602314264
0.00188399137371
0.00188951820729
0.00189484073773
0.00190084592617
0.00190829268482
0.00191878351621
0.00193665110867
0.00197428364837
0.00206965130372
0.00234219047317
0.00314704444198
0.00548769016451
0.011860764003
0.0275185744983
0.0660946195436
0.00136797144188
0.00170364101213
0.0018144070226
0.00185642046026
0.00187306839859
0.0018810540748
0.00188660663475
0.00189196432138
0.00189802613776
0.00190558282297
0.00191631505637
0.0019346834742
0.00197311369275
0.00206873603612
0.00233516463222
0.00310358944916
0.00536135727754
0.0117391729013
0.0257555041871
0.0464725514124
0.00136552314113
0.00170046592952
0.00181102050027
0.00185300719606
0.00186968912526
0.0018777300675
0.00188333904745
0.00188875816022
0.00189490679023
0.00190261784125
0.00191366821183
0.00193270525123
0.00197235729426
0.00206946360744
0.00233376742044
0.00307881981913
0.00528408657862
0.0117679741718
0.0257601974225
0.0449324596873
0.00136294475186
0.00169682406662
0.00180716921645
0.00184915889895
0.00186591137022
0.00187403228939
0.00187972642287
0.00188523894433
0.00189151225436
0.00189942683319
0.00191090479653
0.00193081253212
0.00197225475134
0.00207258133493
0.00234044057222
0.00308045906086
0.00527449615766
0.0119379603921
0.0273353590297
0.059961623223
0.00135998261027
0.00169278679599
0.00180291485056
0.00184491910723
0.00186175670834
0.00186997836209
0.0018757770993
0.00188140785326
0.00188783380159
0.00189600290427
0.00190794537444
0.00192885759388
0.00197247383383
0.00207785302152
0.00235736149706
0.00311850668474
0.00535033971996
0.0121650359605
0.0293265704847
0.0719509332187
0.00135664319774
0.00168835907707
0.00179827506783
0.00184030036585
0.00185723850369
0.00186558098068
0.00187150910727
0.00187728452768
0.00188389468906
0.00189234833862
0.00190481726253
0.00192676145402
0.00197263327637
0.00208359397217
0.00237877619899
0.00318841463832
0.00553100990706
0.0124926177416
0.0303542469959
0.0734736353188
0.00135293231082
0.0016835748953
0.00179327139589
0.00183532466385
0.00185238050677
0.00186086721518
0.00186694975049
0.00187289563135
0.00187971844663
0.00188849110473
0.00190153619638
0.00192463033848
0.00197304237646
0.00209043152235
0.00240403376668
0.00327039520427
0.00575682866462
0.0130086746821
0.0317867117168
0.0739260707412
0.0013488700248
0.00167843518286
0.00178791402653
0.00183000937915
0.00184720429084
0.00185586023686
0.00186212454777
0.00186827069561
0.00187533881404
0.00188447152679
0.00189815894408
0.00192256657268
0.00197395758215
0.00209854022875
0.00242943026203
0.00333956831206
0.00596045144201
0.0136636917025
0.0333202488736
0.0743181206693
0.00134444937868
0.00167294647809
0.00178221674006
0.00182437642402
0.00184173576785
0.00185058851541
0.00185706390394
0.00186343944364
0.00187078319556
0.00188031905627
0.00189472270203
0.00192056849499
0.00197517811083
0.00210697457533
0.00245112901224
0.00338451962454
0.00612528310862