/*--------------------------------*- C++ -*----------------------------------*\
| =========                 |                                                 |
| \\      /  F ield         | OpenFOAM: The Open Source CFD Toolbox           |
|  \\    /   O peration     | Version:  v2012                                 |
|   \\  /    A nd           | Website:  www.openfoam.com                      |
|    \\/     M anipulation  |                                                 |
\*---------------------------------------------------------------------------*/
FoamFile
{
    version     2.0;
    format      ascii;
    class       surfaceVectorField;
    location    "5.2";
    object      Uf;
}
// * * * * * * * * * * * * * * * * * * * * * * * * * * * * * * * * * * * * * //

dimensions      [0 1 -1 0 0 0 0];


internalField   nonuniform List<vector> 
3840
(
(0.00185145163135 -0.00364588048936 6.66180516025e-22)
(0.00364568306013 -0.00184448993914 7.8383078046e-22)
(0.00201750653632 -0.00751121007484 5.31482995255e-22)
(0.00386511618808 -0.00567123899937 8.50984199618e-22)
(0.00211941358774 -0.0115706316287 5.55133323054e-23)
(0.00405921532192 -0.00961897488637 4.39878893879e-22)
(0.00218481072844 -0.0157670936722 -4.70384644474e-22)
(0.00419628109882 -0.0137385601545 -1.99163957802e-22)
(0.00225609787711 -0.0201037307013 -7.04855343509e-22)
(0.0043364977406 -0.0179958683399 -6.13545013568e-22)
(0.00235164648282 -0.0246190771551 -5.88970597978e-22)
(0.00451530387983 -0.0224221970662 -7.03503249902e-22)
(0.00247951173978 -0.0293852936357 -2.36477467172e-22)
(0.0047662934898 -0.027061487636 -4.47302904181e-22)
(0.00264976604807 -0.0344545057762 1.96440353417e-22)
(0.00506937395663 -0.0319697936881 -5.92855420933e-23)
(0.00286668430982 -0.0398966134681 3.43711578446e-22)
(0.00544236462036 -0.0372123082949 2.51614066708e-22)
(0.00313097736252 -0.0457832891102 2.193947464e-22)
(0.00588689129733 -0.04285751755 2.27470836187e-22)
(0.00343588754598 -0.0521679753716 1.06154806462e-23)
(0.00638493160497 -0.0489768269466 4.36222826419e-23)
(0.0037769845658 -0.0591737460694 -2.66128643498e-22)
(0.00700603434576 -0.0556912854983 -1.42274793847e-22)
(0.00411128816387 -0.0668468800947 -9.14388496665e-22)
(0.00767339834142 -0.0630539041802 -4.47191864132e-22)
(0.00442631441309 -0.0751477999778 -1.51101204873e-21)
(0.00830117638334 -0.0707000631198 -1.6193861911e-21)
(0.00443171252014 -0.0841690097129 8.42838069444e-22)
(0.00902143320595 -0.0796838000251 -3.00965164647e-21)
(0.00373816027779 -0.0935445414371 9.7407486515e-21)
(0.00937568382359 -0.0931934257468 -2.75863230436e-21)
(0.00931324586489 -0.101039397822 3.98960434003e-20)
(0.00749490525177 -0.103085156434 2.66306910173e-21)
(0.062139593426 -0.116072326779 3.97251542294e-20)
(0.0150332593239 -0.106539289527 2.0031090862e-20)
(0.0598387127682 -0.17400914787 2.09806203782e-20)
(0.0579367190633 -0.106763064468 1.4633921848e-20)
(0.0175060232796 -0.149450488129 -9.35752650935e-22)
(0.00569284579889 -0.00381010220903 9.68634464053e-22)
(0.00745557253516 -0.00195607026341 1.12954113428e-21)
(0.00596823744639 -0.00773193239566 7.59380098242e-22)
(0.00778672735616 -0.00580989535732 1.11918664739e-21)
(0.00620101799444 -0.0117512809719 1.85201603771e-22)
(0.00807835886854 -0.00973343033607 6.68451149928e-22)
(0.00641851342041 -0.0159127369553 -3.42324326896e-22)
(0.00835756304252 -0.013810082045 -9.42354605229e-24)
(0.00666948914532 -0.0202424055232 -6.1219291996e-22)
(0.00866603914986 -0.0180272144343 -4.3424338229e-22)
(0.00698735080643 -0.0247690465969 -5.61835556105e-22)
(0.0090419106716 -0.0224237695967 -5.72337319788e-22)
(0.007389996613 -0.0295250668799 -2.70110979103e-22)
(0.00952240273999 -0.0270319148833 -3.82031121376e-22)
(0.00789020448591 -0.0345864434628 -4.11182880264e-24)
(0.0101308941558 -0.0318954970982 -1.17607279779e-22)
(0.00849535311485 -0.0400121225282 1.35373324449e-22)
(0.0108683574416 -0.0370802499326 4.34988155797e-23)
(0.00921593559483 -0.0458706912268 5.16983724297e-23)
(0.011745694353 -0.0426598769299 9.14618206575e-23)
(0.0100568458528 -0.05226652218 -1.09267991851e-22)
(0.0127810174677 -0.048707247731 -1.0663198367e-22)
(0.0110077232518 -0.0592813800422 -3.23338014481e-22)
(0.0140211637875 -0.0553434131186 -2.07694282951e-22)
(0.0120797051013 -0.0670372539424 -1.15218955857e-21)
(0.0154295507497 -0.0626828997135 -5.80741383858e-22)
(0.0134450316504 -0.0757498210005 -3.11802578884e-21)
(0.0170140077958 -0.0704839528751 -1.85537293548e-21)
(0.0150503499791 -0.0858637862585 -6.61112202027e-21)
(0.0191356323194 -0.0798793944965 -4.27546687799e-21)
(0.0153629924187 -0.097768911155 -9.83631185413e-21)
(0.0212809692309 -0.0949420015403 -9.51907092806e-21)
(0.0166664659197 -0.11096609219 -1.72018834366e-20)
(0.0206921235534 -0.106606297008 -1.2450970893e-20)
(0.0156851386069 -0.118875202663 -5.06014151938e-21)
(0.0229426171078 -0.108771931667 -4.49142374668e-20)
(0.0150906843744 -0.0808800188479 -7.28245118113e-21)
(0.0199416880344 -0.105930321787 1.42353395016e-20)
(0.0192813061741 -0.0925249757066 -5.17211751609e-20)
(0.00955018312961 -0.00388353102143 1.28009331762e-21)
(0.0113388985906 -0.00196566260716 1.32000193738e-21)
(0.00988726023567 -0.00777570964543 1.02825769908e-21)
(0.0116787004822 -0.00579694136361 1.29692215814e-21)
(0.0102303383938 -0.0117596883637 4.73826000105e-22)
(0.0120621477854 -0.0096745714612 8.9563347382e-22)
(0.0105928036639 -0.015871576196 -1.01342601446e-22)
(0.0124692910484 -0.013682559057 2.47348636985e-22)
(0.0110182320038 -0.020137521164 -3.94387782117e-22)
(0.0129318677058 -0.0178220813987 -1.83911357825e-22)
(0.0115533055782 -0.024602517159 -3.92532885059e-22)
(0.0135068766355 -0.0221290411886 -3.211647548e-22)
(0.0122270565083 -0.0292905627323 -2.29527422052e-22)
(0.0142104843171 -0.0266350081125 -2.42415162902e-22)
(0.0130560776952 -0.0342571469654 -6.99966353962e-23)
(0.0150976799667 -0.0313801459522 -8.09911255764e-23)
(0.0140543655187 -0.039571935369 -4.12688212189e-25)
(0.0161833652377 -0.036419445218 -1.32897304073e-25)
(0.0152431052328 -0.045306097514 -6.68685354417e-23)
(0.0174801485416 -0.0418249596002 -3.25424275728e-23)
(0.0166666874686 -0.0515547302977 -2.0505827477e-22)
(0.019029903555 -0.0476704143781 -1.08108662379e-22)
(0.018362847687 -0.0584368591671 -4.65097652328e-22)
(0.0209035610413 -0.0540783439719 -2.39779563889e-22)
(0.0203469219829 -0.066155359952 -1.28392476076e-21)
(0.0231483266209 -0.0612005990111 -5.52151942515e-22)
(0.0228616038205 -0.0749731220964 -3.01281402462e-21)
(0.0258320442478 -0.0688852080452 -1.45172602201e-21)
(0.0258507512345 -0.0853855516447 -7.18341578578e-21)
(0.0295483023727 -0.0781277760295 -2.67198029087e-21)
(0.0272040285947 -0.0975948972415 -1.21337299669e-20)
(0.0334904809453 -0.0929050506316 -7.31946531382e-21)
(0.0267481613554 -0.110423884225 -4.01633249233e-20)
(0.0335211619976 -0.104301410656 -1.29596601958e-20)
(0.0217707379963 -0.11783944766 -2.56187564458e-20)
(0.0303585848318 -0.104305405383 -4.91760694195e-20)
(0.0159347220827 -0.0990361384986 -3.02033844781e-20)
(0.00113801701026 -0.106133563973 -4.07470816859e-22)
(0.0118209708511 -0.108309174406 -5.44316896595e-20)
(0.013414190909 -0.00382124735125 1.33683077789e-21)
(0.0151599640582 -0.00190719516199 1.23054877742e-21)
(0.0137972570544 -0.00765396315364 1.16429793288e-21)
(0.0155112372457 -0.005654596826 1.25515901786e-21)
(0.0142407840168 -0.0115635659019 6.69156110699e-22)
(0.0159715857508 -0.00944092846124 9.76564004516e-22)
(0.0147403471002 -0.0155860727097 1.64779880606e-22)
(0.016491657852 -0.0133446108859 4.2984812644e-22)
(0.0153334246726 -0.019751786849 -1.10688330508e-22)
(0.0170974765771 -0.0173650899263 4.86716800367e-23)
(0.0160688955637 -0.024084065796 -1.71047032643e-22)
(0.0178391032294 -0.0215328123339 -9.60603100817e-23)
(0.0169845871881 -0.0286324507365 -9.38788664264e-23)
(0.0187589135276 -0.0258768316103 -9.64411680006e-23)
(0.0181099690304 -0.0334288334682 -1.11273874843e-23)
(0.0198941479537 -0.0304339373869 -1.68240655819e-23)
(0.0194742409188 -0.0385282845464 -3.22626366647e-23)
(0.0212832141998 -0.0352457261979 5.89441269361e-24)
(0.0211117476725 -0.0440165229479 -7.37825545106e-23)
(0.0229686636402 -0.0403722058043 -4.27398256704e-23)
(0.0230832150943 -0.0499816805891 -1.42829951499e-22)
(0.0249953308958 -0.0458847066086 -6.93095338027e-23)
(0.025482255838 -0.0565249850753 -3.26833854076e-22)
(0.0274471279795 -0.0518853937431 -2.09551507316e-22)
(0.0284199658999 -0.0638487472445 -7.19953203766e-22)
(0.03047236805 -0.058507899489 -5.60579193678e-22)
(0.0322407434252 -0.0723017751238 -1.11089228827e-21)
(0.0342853533658 -0.0656540140886 -1.25405114908e-21)
(0.0369136723395 -0.0821668828968 -2.80802981892e-21)
(0.0394136663018 -0.0739548528396 -1.43910106381e-21)
(0.0396154650971 -0.0937320200942 -8.14539554271e-21)
(0.0450557946985 -0.0867120349111 -3.33764081638e-21)
(0.0370433532775 -0.106218067914 -2.19724046921e-20)
(0.0460072745878 -0.0970650526542 -6.45899287568e-21)
(0.0120465931634 -0.114119876827 -2.39647837906e-20)
(0.0382604459967 -0.0951790201431 -2.28603849097e-20)
(0.00136796541854 -0.103512451854 -2.46357759983e-20)
(-0.00946933598747 -0.1063719024 -1.7366243923e-20)
(0.0152559828922 -0.121289489947 -2.3244136369e-20)
(0.0171841720118 -0.00368380947911 1.14887701739e-21)
(0.0188436246475 -0.00181796510865 1.03389945136e-21)
(0.0176150487921 -0.00740106477435 1.0674250895e-21)
(0.0192283484631 -0.00543097955424 1.09715910462e-21)
(0.0181485886579 -0.0111915114967 7.37256020257e-22)
(0.0197618991845 -0.0090783321164 9.33239699586e-22)
(0.0187681939974 -0.0150820556284 3.13739925871e-22)
(0.0203820859583 -0.0128382014333 4.87159002693e-22)
(0.0195104754218 -0.0190946344925 6.32997004626e-23)
(0.0211099631259 -0.0166975031908 1.60702888397e-22)
(0.0204243574656 -0.0232561349396 -2.14544454395e-23)
(0.0220005434156 -0.0206822368349 1.90868816521e-23)
(0.0215519446507 -0.0275987566287 -1.93863671561e-23)
(0.0231015298848 -0.0248157207547 -1.45496998309e-23)
(0.0229337514033 -0.0321566734327 1.97734595967e-25)
(0.0244521494785 -0.0291288739982 -2.55289831553e-24)
(0.0246148910146 -0.0369719734638 -4.58277631212e-24)
(0.026098665267 -0.0336532723462 8.30384439511e-25)
(0.0266464618882 -0.0421013899278 -3.82668049625e-23)
(0.028098486179 -0.0384282463578 -1.11314305818e-23)
(0.029101681787 -0.0476183498035 -1.3603108962e-22)
(0.0305126303364 -0.0435038782222 -6.15405425839e-23)
(0.0321108004732 -0.0536160460785 -4.43296846919e-22)
(0.0334450827019 -0.0489341518947 -2.03572060431e-22)
(0.0358861266627 -0.0602220985318 -1.09467713899e-21)
(0.0370787022962 -0.0547780449192 -7.94589192892e-22)
(0.0408284127804 -0.0675722326372 -1.58225992462e-21)
(0.0416357822091 -0.0609601685857 -1.81325170514e-21)
(0.046823461592 -0.0758340703774 -1.96871206128e-21)
(0.047675774227 -0.0675447319396 -2.32779622065e-21)
(0.0505629460668 -0.0851001699913 -1.65123814936e-21)
(0.0543220816516 -0.0764355819826 -2.55502022244e-21)
(0.0469435348847 -0.0955205503922 -7.34697309324e-21)
(0.0564276784886 -0.0843788957478 2.9071314258e-21)
(0.0139712073199 -0.106340615564 -1.62618450421e-20)
(0.0490824005577 -0.0821306990351 -9.17531620354e-22)
(0.00197371722755 -0.114891145658 -1.59746042938e-20)
(-0.000923301873687 -0.105416306939 4.26695307307e-21)
(0.0271941272912 -0.134011365217 1.35236118042e-21)
(0.0208046224951 -0.00351120136181 9.82181538582e-22)
(0.0223547162374 -0.00171668666785 8.69587954022e-22)
(0.0212928539579 -0.0070717095067 9.62973714701e-22)
(0.0227887524189 -0.0051621479945 1.03125621138e-21)
(0.021908173548 -0.0107020807176 6.83142682022e-22)
(0.0233921720316 -0.00863280197772 8.46436425366e-22)
(0.0226306251362 -0.0144198327043 3.34121965219e-22)
(0.0240997476706 -0.0122140554162 4.62016218418e-22)
(0.0234980445729 -0.0182407309267 1.16490069587e-22)
(0.0249307834467 -0.0158776878702 1.79563799179e-22)
(0.0245629971472 -0.0221874984391 2.59916272607e-23)
(0.025947249716 -0.0196435844764 5.41160990496e-23)
(0.0258698871213 -0.0262808503432 2.28376900967e-24)
(0.0271948504775 -0.0235296550345 5.12104292181e-24)
(0.027463781007 -0.0305516535864 -1.92024847198e-24)
(0.0287229976944 -0.0275584264966 -3.3447450615e-24)
(0.0293984816584 -0.0350232184117 -5.71826983015e-24)
(0.0305703606976 -0.0317516900289 -8.74989179953e-24)
(0.0317345682054 -0.0397299067919 -3.44051682032e-23)
(0.032805372558 -0.0361294491697 -1.2287773735e-23)
(0.0345502311136 -0.0447044303554 -1.29081513395e-22)
(0.035487475741 -0.0407154612421 -7.3265491564e-23)
(0.0379681952469 -0.0499751446224 -5.54864406405e-22)
(0.0387160529333 -0.0455156847591 -2.46465643304e-22)
(0.0421993328629 -0.0554933159375 -1.51316375904e-21)
(0.0425971632671 -0.0504879415848 -9.53034904965e-22)
(0.0476130616691 -0.0611928391751 -2.55878800117e-21)
(0.04733560996 -0.0555048339303 -2.22054455998e-21)
(0.05411226843 -0.0668078950592 -2.91410438182e-21)
(0.0532911081308 -0.0602800334135 -4.13291888998e-21)
(0.058905728859 -0.0724486961367 2.00334935272e-21)
(0.0599630744548 -0.0653314245546 -7.164893773e-21)
(0.058240654206 -0.0799811769874 9.33657289869e-21)
(0.0639601799996 -0.0705618972406 3.81049570886e-21)
(0.033579221752 -0.0957359681389 1.96112664948e-20)
(0.0648374223242 -0.0688764074383 1.32850897914e-20)
(0.0224347184821 -0.121652044584 2.15939185473e-20)
(0.0250128713491 -0.0968982232371 3.00413149094e-20)
(0.0425929333704 -0.140593055125 2.07663027483e-20)
(0.0242448356377 -0.00331805478192 9.18662626818e-22)
(0.0256727032423 -0.00160881969397 8.64989259296e-22)
(0.0247947991847 -0.00669103735561 9.14718922043e-22)
(0.026161672511 -0.00486453822331 9.66772905191e-22)
(0.025485205359 -0.0101306638402 6.25309961762e-22)
(0.0268317357121 -0.00813114112747 8.04738325003e-22)
(0.0262951923377 -0.0136461971362 3.07458052378e-22)
(0.0276152159967 -0.0115068194709 4.48712897413e-22)
(0.027265332673 -0.0172470334687 1.17189828642e-22)
(0.0285315546654 -0.0149486685669 1.82582478536e-22)
(0.0284520707846 -0.0209449787053 3.32455147107e-23)
(0.0296451353227 -0.0184702741983 6.30975845337e-23)
(0.0299017523099 -0.0247605039514 -5.07471149358e-25)
(0.031010331268 -0.022083993362 1.23419671194e-23)
(0.0316597487992 -0.02870627176 -1.0174388389e-23)
(0.0326687864274 -0.0258037092664 -3.54139739431e-24)
(0.033780058351 -0.032803720873 -1.53193957044e-23)
(0.0346679130574 -0.0296410367441 -9.97731153685e-24)
(0.036321907572 -0.0370564487273 -5.11480970958e-23)
(0.0370582851778 -0.0336032029763 -2.10032903326e-23)
(0.0393530362531 -0.0414718979258 -1.90649621473e-22)
(0.0399032238957 -0.037694920491 -9.37672508763e-23)
(0.0429470342401 -0.0460136332902 -6.44636141865e-22)
(0.0432580452921 -0.0418983788982 -3.0946940913e-22)
(0.0471825834171 -0.0505874551514 -1.6604157059e-21)
(0.0471712783389 -0.0461396043123 -9.24322387982e-22)
(0.0522358383497 -0.0548891321751 -3.79467544879e-21)
(0.0516375930505 -0.0502579549239 -1.93499422402e-21)
(0.0582613361303 -0.0584821710618 -8.38370828117e-21)
(0.0568844231333 -0.0539814911075 -3.99003055798e-21)
(0.0643148228813 -0.0615662099517 -5.35774741687e-21)
(0.0630473000151 -0.0575288081386 -1.07541748443e-20)
(0.0697662562838 -0.0667686619055 7.75901260153e-21)
(0.06916271668 -0.0616142087802 2.62632761583e-22)
(0.0593561672134 -0.0818053041933 2.37151382059e-20)
(0.0798737125367 -0.0586625531502 4.16930382415e-21)
(0.046835368085 -0.121195466159 2.92136991103e-20)
(0.0643995330237 -0.0803681835392 1.74108431813e-20)
(0.0529206458174 -0.125828041636 1.47285052196e-20)
(0.0274847780154 -0.00311023894502 9.13099537668e-22)
(0.0287829165231 -0.00149733220323 8.80824132506e-22)
(0.0280954437893 -0.00627344310423 8.56792308151e-22)
(0.0293248551393 -0.00454463856268 9.21888701126e-22)
(0.0288542094882 -0.00950057559364 6.28141260655e-22)
(0.030058839622 -0.00758746716708 7.88837175181e-22)
(0.0297369890864 -0.0127916180545 3.23837323571e-22)
(0.0309062169877 -0.0107390351598 4.52355820527e-22)
(0.0307884852983 -0.0161494325475 1.28490234428e-22)
(0.0318893153715 -0.0139404738742 1.93159446254e-22)
(0.0320683938934 -0.0195819868883 4.21940369424e-23)
(0.0330776295241 -0.0172012875707 7.25753215316e-23)
(0.0336251511484 -0.0230989149079 9.30804087448e-24)
(0.034527207115 -0.0205276367973 2.31343480581e-23)
(0.0355023931398 -0.0267095343104 -3.34432054212e-24)
(0.0362794078154 -0.0239261117914 2.4139677213e-24)
(0.03774792944 -0.0304195262896 -1.56612061651e-23)
(0.0383780025732 -0.0274002060553 -3.07924778777e-24)
(0.040412556875 -0.0342298566676 -6.36224441131e-23)
(0.0408687876788 -0.0309503896081 -2.2433887215e-23)
(0.0435436181296 -0.0381209486878 -2.12587038533e-22)
(0.0437946132393 -0.0345731679029 -9.40515857201e-23)
(0.0471749134905 -0.0420546024886 -5.89155655247e-22)
(0.0471919575666 -0.0382444042072 -3.01314060423e-22)
(0.0512873852141 -0.045946744937 -1.1989009061e-21)
(0.0510637115835 -0.041917800547 -7.33625988888e-22)
(0.0559092054616 -0.0496665560597 -2.13034933321e-21)
(0.0553577008448 -0.0454965131468 -1.30378338622e-21)
(0.0613359312777 -0.053019578185 -6.36049712111e-21)
(0.0602377064661 -0.0488173305426 -2.14040123917e-21)
(0.067633088426 -0.0559437325928 -5.13379466584e-21)
(0.0659716287352 -0.0525240403303 -6.8590475694e-21)
(0.0778600956982 -0.0588436415198 -3.3270760158e-21)
(0.0720627017176 -0.0567201280581 -3.68265182484e-21)
(0.0842760534331 -0.0649452665247 -2.13499120048e-21)
(0.0859752775413 -0.0514499232035 -8.92987910026e-21)
(0.0717263123079 -0.0930905989407 2.92564929049e-21)
(0.0925398551739 -0.0620878790371 -4.1071168965e-21)
(0.0622952131629 -0.0888416557604 -1.91217342604e-21)
(0.030509651094 -0.00288836836154 8.89613295963e-22)
(0.0316712993238 -0.00138393486615 7.36403261583e-22)
(0.0311775956701 -0.00582767077317 8.53933568156e-22)
(0.0322641744038 -0.00420620963277 7.89784599279e-22)
(0.0319967920379 -0.00882707768123 6.13051735053e-22)
(0.0330582496273 -0.00701195313638 7.02660337569e-22)
(0.032938030303 -0.011878923125 3.21677943209e-22)
(0.0339580426207 -0.00992764162038 4.15864143806e-22)
(0.0340502699574 -0.0149815443196 1.37244533357e-22)
(0.0349918927842 -0.0128764829496 1.79548479086e-22)
(0.0353966735467 -0.0181351074037 5.35156326474e-23)
(0.0362311333879 -0.0158666008014 6.74260063902e-23)
(0.03702661286 -0.0213433842317 1.62402749049e-23)
(0.0377354259412 -0.0188985845672 2.19780656062e-23)
(0.0389817527646 -0.0246112436121 2.67904047566e-24)
(0.0395472640574 -0.021972665104 4.39750333229e-24)
(0.0413042845945 -0.027933896429 -9.85192883766e-24)
(0.0417007433622 -0.0250875492753 -1.3443981521e-24)
(0.044036803617 -0.0313123856091 -5.28630288219e-23)
(0.0442474568203 -0.0282386821758 -1.65506512183e-23)
(0.0472105618301 -0.0347331395445 -1.8277860761e-22)
(0.0472156600503 -0.0314200168288 -8.33227909354e-23)
(0.0508375012408 -0.0381641035726 -4.45784394063e-22)
(0.0506231771998 -0.0346087871763 -2.63464389637e-22)
(0.0548978417596 -0.0415738647976 -8.38508469003e-22)
(0.0544737531304 -0.0377727444229 -5.57768368567e-22)
(0.0594314864723 -0.0449765492207 -1.31383529217e-21)
(0.0587606635543 -0.0408826230301 -9.8695598571e-22)
(0.0646466369324 -0.0483426336533 -2.63895168747e-21)
(0.0636040297806 -0.0438304771275 -1.52470283275e-21)
(0.07008578894 -0.0515596275356 -5.40790472839e-21)
(0.0691887804445 -0.0474343080198 -3.53902147932e-21)
(0.0795239471556 -0.0528805608644 -9.2854549093e-21)
(0.073383693078 -0.0515233530253 -6.36136590726e-21)
(0.0934895889814 -0.051229690659 -1.09020047963e-20)
(0.084324471963 -0.0455168282079 -1.39620670711e-20)
(0.0839887136273 -0.0604478210348 -8.94493961304e-21)
(0.101756983926 -0.0479249057226 -1.5081905397e-20)
(0.0669117509554 -0.049957321717 -1.02340375899e-20)
(0.0333097619247 -0.00265571668674 6.36574564899e-22)
(0.034327067097 -0.00126678946996 4.42359486929e-22)
(0.0340301397204 -0.00537257705164 6.38511368692e-22)
(0.0349810862019 -0.00385307716229 5.90344693516e-22)
(0.0348982860285 -0.00812665785742 5.05472746322e-22)
(0.0358123620406 -0.00641667407706 5.51776492783e-22)
(0.0358855811021 -0.0109238199962 2.73734679683e-22)
(0.036755204783 -0.00908570563859 3.40841875581e-22)
(0.0370403822499 -0.0137595153269 1.09729952119e-22)
(0.0378275549531 -0.0117752649047 1.46467775417e-22)
(0.0384293260896 -0.0166293590027 3.5888439349e-23)
(0.0391009197444 -0.0144902419285 4.75798606188e-23)
(0.0401029899017 -0.0195307432128 1.01352940335e-23)
(0.0406367513435 -0.0172267253019 1.23325810028e-23)
(0.0421000358632 -0.0224602350953 3.74064704535e-25)
(0.0424767480494 -0.0199824674327 7.07099863616e-25)
(0.0444605263981 -0.0254139224156 -8.04312053274e-24)
(0.0446545281736 -0.0227508758653 -1.26279519815e-24)
(0.0472228098675 -0.0283813665647 -4.70104133318e-23)
(0.0472150797337 -0.0255223433939 -1.32193928e-23)
(0.0504059632907 -0.0313594823704 -1.64008572962e-22)
(0.0501940777897 -0.0282854408779 -8.30970357343e-23)
(0.0540136698389 -0.0343145299948 -3.75448364141e-22)
(0.0535784754842 -0.0310119567085 -2.50013622836e-22)
(0.0580636661126 -0.0372123193628 -7.06215885274e-22)
(0.0573718088522 -0.033666163635 -5.08699567772e-22)
(0.0626593449782 -0.0401080619383 -1.19782352628e-21)
(0.0616566635966 -0.0362395895657 -8.89243726668e-22)
(0.0678200561578 -0.0430859723376 -2.4247726246e-21)
(0.0665821569501 -0.0386217155646 -1.55539285705e-21)
(0.0720966350347 -0.0456563737646 -4.49248265819e-21)
(0.0717593244119 -0.0413152426058 -1.68158468525e-21)
(0.077857408584 -0.0462956313788 -1.10379780691e-20)
(0.0740230051177 -0.0446705460872 -5.77379788137e-21)
(0.0914360509245 -0.0407577380047 -1.81419676719e-20)
(0.0787866403416 -0.0392611947706 -1.40818900328e-20)
(0.0838409820738 -0.0351899993159 -1.63710033739e-20)
(0.0961875119405 -0.0377965206387 -1.79298981274e-20)
(0.0643605559029 -0.0222278000387 -1.26760907409e-20)
(0.0358751623142 -0.00241790435835 3.96129615545e-22)
(0.0367450546932 -0.00114420525768 2.13627015502e-22)
(0.0366430436874 -0.00488551192688 5.03609817607e-22)
(0.0374487751484 -0.00348952874758 4.61397353288e-22)
(0.0375509600978 -0.00739633601743 3.87145622042e-22)
(0.0383232427 -0.00581025798347 4.54321555815e-22)
(0.0385730619584 -0.009940486453 2.13574971314e-22)
(0.0392993737198 -0.00822443421519 2.88508007951e-22)
(0.039755431755 -0.0125093576693 8.43176839159e-23)
(0.0403964043379 -0.0106521205574 1.21022426634e-22)
(0.0411671487973 -0.0150956267579 2.40240022726e-23)
(0.0416871381565 -0.0130923124229 3.56977669241e-23)
(0.042861260534 -0.0176910074658 2.90438683286e-24)
(0.0432320764808 -0.0155360206026 1.00981755562e-23)
(0.044874269487 -0.0202999276597 -9.29760039066e-25)
(0.0450856680483 -0.0179840397663 -8.32402128338e-24)
(0.0472398306385 -0.0229082616739 -6.43906746541e-24)
(0.0472629599914 -0.0204246578524 -5.23743041773e-24)
(0.0499918418684 -0.0254955116566 -4.93060152026e-23)
(0.0498025214413 -0.0228359757916 -1.26443922303e-23)
(0.0531425431712 -0.0280304237722 -1.69102085609e-22)
(0.0527292896284 -0.0251999109198 -9.02867854086e-23)
(0.0566904941441 -0.0304961476559 -3.83264826467e-22)
(0.0560444421475 -0.0274820719827 -2.24891845082e-22)
(0.0606857179248 -0.0328675638966 -6.91727409166e-22)
(0.0597434762412 -0.0296375015162 -4.45205069354e-22)
(0.0652702484546 -0.0351235309641 -1.24681305744e-21)
(0.0639128689779 -0.0316419587861 -8.23583212707e-22)
(0.070173708125 -0.0372554733 -8.12204917703e-22)
(0.0687142979703 -0.0333594421941 -1.81809146153e-21)
(0.0732644716782 -0.0387615508455 -2.96289990844e-21)
(0.0732655338635 -0.0347051551441 -1.3233314604e-21)
(0.0748072951781 -0.0385992128103 -8.81770984511e-21)
(0.0738607195498 -0.0370932345185 -6.99225706563e-21)
(0.0824987752205 -0.0330541415987 -1.38698204883e-20)
(0.0732416108084 -0.0324163677781 -1.20045216595e-20)
(0.0757955891987 -0.0200519679117 -1.42349854943e-20)
(0.0831836252544 -0.031159781237 -1.59573019272e-20)
(0.0590636357886 -0.0102032763084 -1.01476221585e-20)
(0.0381956724167 -0.00217547897276 2.78894753245e-22)
(0.0389206435508 -0.00101788800621 1.52343462723e-22)
(0.0390079249381 -0.00439451726614 4.12109091496e-22)
(0.039667919242 -0.00311910390049 3.29913697126e-22)
(0.039951916865 -0.00665503045158 3.55683941724e-22)
(0.0405838335555 -0.00519614239966 4.08010854116e-22)
(0.0409988668337 -0.00894461538842 1.9595546327e-22)
(0.0415889944457 -0.00735391164622 2.69758112086e-22)
(0.0421970560501 -0.011244005956 7.24025096417e-23)
(0.0426957869821 -0.00951947571115 1.11037448872e-22)
(0.043617469417 -0.0135537128782 2.17719402077e-23)
(0.0439968047348 -0.0116888563203 2.93099149518e-23)
(0.0453115428819 -0.0158647559592 -1.13023256001e-24)
(0.0455430745376 -0.0138500187309 1.05344629679e-23)
(0.0473171141639 -0.0181513838532 -1.2631691662e-23)
(0.0473723022837 -0.0159990493473 -1.00832228506e-23)
(0.0496596487742 -0.0204158732984 -1.14427551826e-23)
(0.0495275632052 -0.0181230525317 -5.35268554834e-24)
(0.0523618834665 -0.0226280865473 -5.36251624363e-23)
(0.0520149235085 -0.0201917750616 -1.58161123991e-23)
(0.0554333355623 -0.024766286511 -1.46076544882e-22)
(0.0548677975823 -0.0221826343869 -8.4262939099e-23)
(0.058869608702 -0.0267834743087 -2.8683208797e-22)
(0.058061865519 -0.0240614602546 -1.63547743157e-22)
(0.0627105219214 -0.0286281593156 -5.77060872895e-22)
(0.0615883991843 -0.0257749097067 -3.48464755385e-22)
(0.0670677484609 -0.0302122635078 -1.3948616168e-21)
(0.0654971967313 -0.0272690644819 -6.91751635083e-22)
(0.0714983343984 -0.0313656129622 -2.32921800423e-21)
(0.0698678333973 -0.0283661866828 -1.76665766538e-21)
(0.0736270355078 -0.0317997140638 -5.35268861759e-21)
(0.0736997606652 -0.0285465956996 -4.73614329188e-21)
(0.0724655558333 -0.0314019616752 -1.01790688801e-20)
(0.0734630198007 -0.0301815983681 -6.18078520263e-21)
(0.073033479102 -0.0284146989967 -1.40920030984e-20)
(0.0702543561747 -0.026087373665 -1.13401569409e-20)
(0.0652418255579 -0.0147986319007 -1.18699385913e-20)
(0.0695656649896 -0.0276950503364 -1.42903741656e-20)
(0.055636618594 -0.0119717019706 -7.78670998938e-21)
(0.0402689431238 -0.00193309718371 2.03362406604e-22)
(0.0408538704924 -0.000890978231821 4.0355968876e-23)
(0.0411222779745 -0.00390152957243 3.25815459746e-22)
(0.0416364753768 -0.00274546363021 2.06770551082e-22)
(0.0420998056821 -0.00591036033764 3.22085024479e-22)
(0.0425927588268 -0.00457738215345 3.03024030153e-22)
(0.0431646902466 -0.00794446223583 1.84840097688e-22)
(0.0436231486646 -0.00648069890603 2.17113454252e-22)
(0.0443676076817 -0.00998564763103 6.79448541823e-23)
(0.0447369805835 -0.00838893389621 8.90561376025e-23)
(0.0457847118351 -0.0120141323197 1.80724377119e-23)
(0.0460252656858 -0.0102935587341 2.39244785636e-23)
(0.0474637285534 -0.0140291142599 1.58147267733e-24)
(0.0475580260432 -0.0121819866499 8.52592851757e-24)
(0.0494398618724 -0.0160193336132 -2.8042167369e-24)
(0.0493625435375 -0.0140405447644 -1.09984451644e-23)
(0.0517345827629 -0.0179672606218 -9.7260427649e-24)
(0.0514756044762 -0.0158604365549 -5.73947630405e-24)
(0.05435944722 -0.0198408122228 -4.64538890618e-23)
(0.0538886720672 -0.01761559478 -1.47377901003e-23)
(0.0573213374019 -0.0216019980022 -1.01734137374e-22)
(0.0566292837002 -0.0192714024823 -8.16494200302e-23)
(0.0605993199503 -0.0232294460549 -2.25180410573e-22)
(0.0596895408478 -0.0208033011638 -1.34308708006e-22)
(0.0641849545874 -0.024646797456 -4.63155517573e-22)
(0.0630059779355 -0.0221582193991 -3.48967947778e-22)
(0.0681093769884 -0.0257014943485 -1.06354768366e-21)
(0.0665521074471 -0.0232604188801 -5.87599090741e-22)
(0.0719327216109 -0.0261418244676 -4.17358295304e-21)
(0.0703083432359 -0.0239340143678 -1.71389701782e-21)
(0.0735980722201 -0.0259180152989 -5.56423987692e-21)
(0.073476075147 -0.0234829196211 -3.43048742339e-21)
(0.0716611087169 -0.0258247349115 -7.34187326345e-21)
(0.0733697915882 -0.0247478807251 -3.64977719856e-21)
(0.0670653613979 -0.0256594813034 -1.15385280081e-20)
(0.0700890729528 -0.0210286299052 -7.47673727281e-21)
(0.0600207919402 -0.0180876554452 -1.02071455637e-20)
(0.0619930773922 -0.0259986235564 -8.87592774599e-21)
(0.0555050716602 -0.0236924044503 -5.62025822649e-21)
(0.0420962206905 -0.00168502816354 4.37641133545e-23)
(0.0425390401933 -0.000767162990854 -2.02949546661e-22)
(0.0429875669287 -0.00340655582178 1.83979121489e-22)
(0.0433581373116 -0.00237204035639 -2.12914777999e-23)
(0.0439951839651 -0.00516767844534 1.98052459926e-22)
(0.0443539880765 -0.00395868716885 1.00080340573e-22)
(0.0450727491744 -0.00694360314431 1.21329494166e-22)
(0.0453991407375 -0.00561244582765 9.47291744842e-23)
(0.0462727185025 -0.00872266530674 4.50357619839e-23)
(0.0465160685666 -0.00726791080461 3.55904002593e-23)
(0.0476750699532 -0.0104897475519 1.43779693693e-23)
(0.0477923411045 -0.00891121099463 8.56797311878e-24)
(0.049328837138 -0.0122353217339 -4.05398932416e-24)
(0.0493035848501 -0.0105315916333 2.80177763462e-24)
(0.051261495687 -0.0139433625414 -1.39337047315e-23)
(0.0510706165306 -0.0121161186434 -1.52908512229e-23)
(0.0534915674903 -0.0155819648599 -1.07512236394e-23)
(0.0531143382132 -0.0136546107964 -8.41908618695e-24)
(0.0560242478623 -0.0171493314807 -4.99333210687e-23)
(0.0554562480385 -0.0151286962764 3.47475890479e-24)
(0.0588590069524 -0.0186057691119 -1.14223990662e-22)
(0.0580860304288 -0.016491976483 -7.90484125791e-23)
(0.0619598466417 -0.019901626626 -2.58096245211e-22)
(0.0609856465618 -0.0177287566289 -9.90163542397e-23)
(0.0652604650417 -0.0209823729533 -4.73411520946e-22)
(0.06408697434 -0.018803866706 -2.69356099958e-22)
(0.0686969734454 -0.0217181702735 -1.23794842489e-21)
(0.0672881547584 -0.0196367489634 -3.23334815057e-22)
(0.0718939425685 -0.0218980536511 -9.70801488175e-22)
(0.0704884377434 -0.0201100303493 -8.11256036296e-22)
(0.073388107807 -0.0215017422123 -1.51602474503e-21)
(0.07307992366 -0.0194615241443 2.01313502645e-21)
(0.0721896523318 -0.0214644790202 -3.78464120792e-21)
(0.0733325985638 -0.020580440974 -1.4632354168e-21)
(0.0671875955657 -0.023315901293 -4.81413701072e-21)
(0.0719404673546 -0.0168449176066 -3.45067788646e-21)
(0.0589032090171 -0.0278050397461 -4.2890404088e-21)