/*--------------------------------*- C++ -*----------------------------------*\
| =========                 |                                                 |
| \\      /  F ield         | OpenFOAM: The Open Source CFD Toolbox           |
|  \\    /   O peration     | Version:  v2012                                 |
|   \\  /    A nd           | Website:  www.openfoam.com                      |
|    \\/     M anipulation  |                                                 |
\*---------------------------------------------------------------------------*/
FoamFile
{
    version     2.0;
    format      ascii;
    class       surfaceVectorField;
    location    "3.6";
    object      Uf_0;
}
// * * * * * * * * * * * * * * * * * * * * * * * * * * * * * * * * * * * * * //

dimensions      [0 1 -1 0 0 0 0];


internalField   nonuniform List<vector> 
300
(
(-0.0203950609617 0.000804684624115 -3.67277205751e-22)
(-0.0198720254722 0.000343864371153 -5.16468515995e-22)
(-0.0219461466581 0.00156741662746 -1.77283102686e-22)
(-0.0216796061882 0.00111583434268 -2.20150900575e-22)
(-0.0230378184566 0.00231654093478 -4.80078011024e-23)
(-0.0229423940165 0.00176877644255 -1.01467782187e-22)
(-0.0238578341521 0.00307808513677 2.28673917805e-23)
(-0.0238592812483 0.0024563245796 1.75906531545e-23)
(-0.0246001244501 0.00387501979456 1.16303119838e-23)
(-0.0246056651721 0.00315474267267 6.08809671335e-24)
(-0.0254243826466 0.00472414735111 2.81905436398e-24)
(-0.0253874631381 0.0038911737648 -4.58981466796e-24)
(-0.02640955387 0.00563729152528 7.59575893281e-25)
(-0.0263111126518 0.00467932871296 -4.30512219276e-24)
(-0.0275974132293 0.00662550545225 -8.51340791438e-25)
(-0.0274265906962 0.00552521846312 9.82325461081e-24)
(-0.0290231242938 0.00769893290414 3.67839449008e-24)
(-0.028765080354 0.00643715593833 -7.7159921598e-24)
(-0.0307228238686 0.0088633003421 1.46065035103e-23)
(-0.0303622658742 0.00742245767446 4.94165230772e-24)
(-0.0327376073732 0.010121690683 -1.56463935856e-24)
(-0.0322525657476 0.00847851448139 1.22364935071e-23)
(-0.0351085712159 0.0114679489641 -3.28747547647e-23)
(-0.0344860183486 0.00959315374179 -6.99876825869e-23)
(-0.0378592829748 0.0128999076119 -1.63889369258e-22)
(-0.0370850301273 0.0107432046741 -1.49012160115e-22)
(-0.0410872455636 0.0143489035801 -6.4624346414e-22)
(-0.0400583007734 0.0118914969978 -5.52632859978e-22)
(-0.0453027890253 0.0153282211498 -1.27666661687e-21)
(-0.043345581105 0.0127554285389 -1.59264162411e-21)
(-0.0512633054246 0.0157451718735 -5.83845283437e-21)
(-0.0479778958062 0.0153229731847 -1.37670628412e-21)
(-0.057508061371 0.014438808761 -1.54751219691e-20)
(-0.0541984755455 0.00873822413354 -8.62513844983e-21)
(-0.0557363520992 0.0121650762721 -2.05393133446e-20)
(-0.0592849424066 0.00672190680295 -2.2103748585e-20)
(-0.029149533373 0.0120396949325 -1.05841870867e-20)
(-0.0511680702904 0.0124951777866 -2.19236492211e-20)
(-0.00567261821948 0.00511528958545 -3.99716332376e-21)
(-0.0211070299964 0.000670640549095 -3.69342210819e-22)
(-0.0205425277154 0.000271373777179 -5.15225578736e-22)
(-0.0226288573021 0.00129021424805 -1.44335580076e-22)
(-0.0222990845187 0.000909283811814 -1.97678940949e-22)
(-0.0237177232255 0.00189318517156 -3.586932793e-23)
(-0.0235453595796 0.00141026406712 -8.90527964523e-23)
(-0.0245573885674 0.00250089822342 8.11358087357e-25)
(-0.0244671007517 0.00194422633335 -1.90718812835e-23)
(-0.0253374696898 0.00313292458465 -1.01320299384e-23)
(-0.0252379022195 0.00247852872855 -1.52218230991e-23)
(-0.0262116116061 0.00380048137505 -1.17139912247e-23)
(-0.0260552972173 0.0030377904924 -1.54602726222e-23)
(-0.0272561546488 0.00451615842461 4.75855652477e-24)
(-0.027027066271 0.00363230831755 -5.01205949805e-24)
(-0.0285093867337 0.00527817511135 2.95860324245e-24)
(-0.0281887927816 0.00426461283581 3.64240553921e-24)
(-0.030002576614 0.00609486952818 -6.45273434215e-24)
(-0.0295817659052 0.00493573125854 5.73061097966e-25)
(-0.0317701968478 0.00696299295457 2.57164230453e-24)
(-0.0312300890814 0.00564514598884 2.84782915013e-24)
(-0.0338452671605 0.00787830009328 -5.61865497212e-23)
(-0.0331672156448 0.0063853301392 -3.38411510149e-24)
(-0.0362553760193 0.00881156637557 -1.86125087937e-22)
(-0.0354182711407 0.00712878971901 -1.35855501246e-22)
(-0.0389971482063 0.00972448572509 -5.37755650834e-22)
(-0.037996666115 0.00783382324338 -3.41228313037e-22)
(-0.0420174043612 0.0105003242007 -1.49903101995e-21)
(-0.0408327585065 0.00849766360061 -1.08950996416e-21)
(-0.0454534412725 0.0109843106596 -1.69268129137e-21)
(-0.0438283088802 0.00883042450026 -2.66842450245e-21)
(-0.0501000154327 0.00969054135776 -4.16339189958e-21)
(-0.0466833427875 0.0104155063744 -2.17390638093e-21)
(-0.0552502009438 0.00715205625727 -1.52537650657e-20)
(-0.0516597763187 0.00337446095987 -4.82961153085e-21)
(-0.0542290819507 0.00393381252448 -2.34880844614e-20)
(-0.0560653639057 0.000963111498013 -1.90588610127e-20)
(-0.0280736047707 0.00277760423164 -1.53366254581e-20)
(-0.0500117951564 0.0057355270115 -1.91465202757e-20)
(-0.0045114858859 -0.00244088567871 -5.18264552861e-21)
(-0.0216793668167 0.000520408538394 -3.43562308867e-22)
(-0.0210627590875 0.000194679268797 -5.10058068859e-22)
(-0.0231658814117 0.000997853146892 -1.42396157325e-22)
(-0.022776372458 0.000693345399081 -2.0896120022e-22)
(-0.0242438491216 0.00144845953005 -7.22553498058e-23)
(-0.0239958624926 0.00103679689837 -1.45257052476e-22)
(-0.0250938390578 0.00189455862806 -3.510506247e-23)
(-0.0249131643261 0.00141023590924 -6.46960716479e-23)
(-0.0258997625223 0.00235471687946 -2.05500657829e-23)
(-0.0256980879608 0.00177357543391 -3.75653441262e-23)
(-0.0268064812919 0.00283178691584 -8.7583408956e-24)
(-0.0265324338765 0.00215264590597 -1.46895845242e-23)
(-0.0278864457079 0.00334215394119 -6.12821048361e-24)
(-0.0275374966146 0.00255132523345 -9.18631837386e-24)
(-0.0291768088479 0.00387938469596 1.25686339473e-24)
(-0.0287260258716 0.00296793446497 -2.82565845229e-24)
(-0.0307045111989 0.00444037378127 9.87362459025e-24)
(-0.0301426295327 0.00340076037614 1.12700783578e-23)
(-0.0324991611225 0.00501593823737 -3.10792825589e-24)
(-0.031805334654 0.00384169603085 1.82924100146e-24)
(-0.0345885778114 0.00559028305108 -8.30530666261e-23)
(-0.0337410016662 0.00427755209785 -9.76822657149e-25)
(-0.036977914708 0.0061466472032 -2.90958726346e-22)
(-0.0359738327713 0.00467853030332 -1.59177979284e-22)
(-0.0396109012736 0.0066202841049 -8.92982626358e-22)
(-0.0384693173075 0.0049985268221 -4.74608068271e-22)
(-0.0423376312659 0.00687798062043 -2.25890344665e-21)
(-0.0410894123031 0.00523534226778 -1.51038315131e-21)
(-0.0448026336754 0.00658995593803 -3.14964959201e-21)
(-0.0435393592035 0.00529635327179 -3.16892053426e-21)
(-0.047999530007 0.00505155541835 -2.84012601221e-21)
(-0.045144369736 0.00601664387537 -1.959112745e-21)
(-0.0520155150409 0.00203330160175 -8.63470747785e-21)
(-0.0486413598079 -0.00123394870968 -2.10156562844e-21)
(-0.0514775349548 -0.00193779727309 -1.47172968269e-20)
(-0.0520927271147 -0.00361751223581 -1.73823691118e-20)
(-0.0264145345092 -0.00409556852155 -8.99254034616e-21)
(-0.0478545656647 0.00123650706889 -1.73438768195e-20)
(-0.00303291986586 -0.00767723883019 -5.16579827964e-21)
(-0.0221024344867 0.000369380990843 -3.75456960212e-22)
(-0.0214319409162 0.000111313560661 -5.24761684062e-22)
(-0.0235516290839 0.000696837912077 -2.1182209537e-22)
(-0.0231036344469 0.000466453039934 -2.50513745109e-22)
(-0.0246090048681 0.000987802533324 -1.37697774318e-22)
(-0.0242866593072 0.000653729695656 -2.38964360378e-22)
(-0.0254589041161 0.00126654436245 -6.71563533042e-23)
(-0.0251917750863 0.000861781094102 -1.01547420918e-22)
(-0.0262762401206 0.00154822492992 -3.17048628675e-23)
(-0.0259796694756 0.00105212950597 -5.29345153601e-23)
(-0.0271996958823 0.00184551671413 -1.51175620024e-23)
(-0.0268296412421 0.00124977540822 -1.54507693691e-23)
(-0.0282975288131 0.00214690923474 -5.88376634254e-24)
(-0.0278387910409 0.0014533678036 -1.43757609537e-23)
(-0.02960312145 0.00245943442643 7.1875565108e-24)
(-0.0290384003257 0.00165767881843 5.94210342521e-24)
(-0.0311395172836 0.00277425030876 3.22569476903e-24)
(-0.0304571988253 0.00185864138766 -9.13342364403e-24)
(-0.0329301880272 0.00307458808544 3.9603466002e-24)
(-0.0321052856015 0.00204346530241 -1.96626660353e-23)
(-0.0349947356598 0.0033446249903 -7.71017353149e-23)
(-0.034010483667 0.00219472298192 3.30708203714e-24)
(-0.037319023569 0.00355106448284 -3.42827321208e-22)
(-0.0361795490635 0.00228826164783 -1.44494064993e-22)
(-0.0398083547983 0.00365637047364 -1.09200859322e-21)
(-0.0385737820213 0.00227437384067 -5.01480360262e-22)
(-0.0421751892105 0.0035792062713 -2.42040023892e-21)
(-0.0410113826779 0.0021649745413 -1.530583556e-21)
(-0.0438073423353 0.00299744977741 -1.97838368726e-21)
(-0.0429568547271 0.0019915660352 -2.83415235681e-21)
(-0.0457646504159 0.00145036404998 -1.22055236124e-21)
(-0.0435968203254 0.00189597428014 3.20501032471e-22)
(-0.0486187973935 -0.00120332673897 -1.08492272624e-20)
(-0.0459875404483 -0.00516574462688 -1.68954730816e-21)
(-0.0482217798265 -0.00478943010875 -2.00089491044e-20)
(-0.0485057903235 -0.00716525525617 -1.98970932239e-20)
(-0.0242926195441 -0.00735272461425 -1.3517134753e-20)
(-0.0452912882825 -0.00161386310687 -1.93403402446e-20)
(-0.00155092039517 -0.00879798917016 -6.23601931915e-21)
(-0.0223747052372 0.000226470848748 -3.99818468959e-22)
(-0.0216581998791 2.40581612635e-05 -4.98874448718e-22)
(-0.023779665451 0.000391912182928 -2.77656010117e-22)
(-0.0232688560981 0.000232656437104 -2.5110325858e-22)
(-0.0248099305192 0.000518770396029 -2.02814006978e-22)
(-0.0244133074009 0.000265937099118 -2.40567180073e-22)
(-0.0256508384576 0.000629061476462 -8.73255829736e-23)
(-0.0253018716541 0.000306370440613 -8.3109666293e-23)
(-0.0264689957816 0.000734349405798 -3.66804218617e-23)
(-0.0260847727102 0.000323987470541 -3.8565156092e-23)
(-0.0273975129721 0.000840763488818 -1.47089683203e-23)
(-0.0269358659311 0.000340210361672 -1.42926574776e-23)
(-0.0284988250046 0.000942691743838 -2.54989118591e-24)
(-0.0279405044457 0.000351523923277 -9.55680224228e-24)
(-0.0298008019037 0.00103753103266 -1.03788767296e-23)
(-0.0291329719137 0.000350986762329 8.70555327089e-25)
(-0.0313238842683 0.00111189396255 -3.20217844483e-23)
(-0.0305312124426 0.000329848338915 -2.13785985076e-23)
(-0.03308585275 0.00115624009353 -2.03159305983e-23)
(-0.0321491717805 0.000273531823687 -2.81020230076e-23)
(-0.035092750554 0.00113531600266 -6.40852476404e-23)
(-0.0339889757178 0.000168023189247 -2.69398856869e-23)
(-0.0373220704826 0.00104348315898 -3.03147104046e-22)
(-0.0360870160567 -1.36738637102e-05 -9.91247433265e-23)
(-0.0396616403396 0.000820220684575 -9.40055323044e-22)
(-0.0383497498356 -0.00033149861538 -3.59597718652e-22)
(-0.0417153876404 0.000402633481036 -1.94433567389e-21)
(-0.0405930268169 -0.000746936389439 -1.16512284602e-21)
(-0.0427330034747 -0.000385448525137 -5.35267637076e-22)
(-0.0421681254057 -0.00118653967908 -2.30181036424e-21)
(-0.0437847861946 -0.00171091547595 -1.48493914453e-22)
(-0.0422709531833 -0.00195423027968 -3.745829318e-22)
(-0.0458736673558 -0.00393549020054 -1.07374132697e-20)
(-0.0437628564058 -0.00839703712626 -4.95358599807e-21)
(-0.0455364865152 -0.0062724734869 -1.92284843641e-20)
(-0.0461680656357 -0.00986390579956 -1.56342346922e-20)
(-0.0225237947104 -0.00824577326708 -1.20592248108e-20)
(-0.043317978163 -0.00396392625241 -1.49283976911e-20)
(-0.000933584916077 -0.00794580666157 -3.24975090525e-21)
(-0.0224923419621 7.43012620137e-05 -3.50159238339e-22)
(-0.021732280654 -6.45039128922e-05 -3.48977559248e-22)
(-0.0238463999097 7.30022598926e-05 -2.14014428537e-22)
(-0.023267323759 -3.43642591186e-06 -1.09098632607e-22)
(-0.0248464044099 4.15811694117e-05 -1.20862839388e-22)
(-0.0243816537291 -0.000123329749885 -6.79789518422e-23)
(-0.0256723673404 -1.42688301665e-05 -3.43492394114e-23)
(-0.0252457602273 -0.000249658088418 8.34250054356e-24)
(-0.0264831486729 -8.32046635759e-05 -1.61773917079e-23)
(-0.0260155674518 -0.000402701806079 -1.38399415565e-24)
(-0.0274047171751 -0.000161672891594 -9.14049139951e-24)
(-0.0268571041824 -0.000564068929759 -1.31138538853e-23)
(-0.0284950013956 -0.000254146668316 -6.13635572929e-24)
(-0.0278477041242 -0.000739460059378 -7.89498080019e-24)
(-0.0297783455679 -0.000368286005273 -1.01291664509e-23)
(-0.0290184376565 -0.000937039834454 2.12618145144e-24)
(-0.0312691464461 -0.000514403345843 -1.74588370668e-23)
(-0.0303846260425 -0.00116655305391 -1.65231476932e-25)
(-0.0329760857498 -0.000719814284375 -3.47259780962e-23)
(-0.0319431905725 -0.0014416848542 -6.72209830096e-24)
(-0.0349013402239 -0.000979527467084 -6.1979381373e-23)
(-0.0337286336611 -0.00177797795419 -4.23863060242e-23)
(-0.0370183824529 -0.00135490744559 -1.55575357932e-22)
(-0.0357108371412 -0.00220861153495 -7.48120740557e-23)
(-0.0391940167074 -0.00187475216418 -5.84665241624e-22)
(-0.0378290579186 -0.0027990491628 -2.25529184895e-22)
(-0.0409751704376 -0.00259976156535 -1.52259753637e-21)
(-0.0398672023485 -0.0034952848048 -8.81375806023e-22)
(-0.041624117682 -0.0036294232362 -2.14112565897e-21)
(-0.0411377932395 -0.00422322112079 -2.13039891276e-21)
(-0.0421810412873 -0.00490967729788 -5.17967501542e-21)
(-0.0409902721509 -0.00539668764696 -2.49303888196e-21)
(-0.0440849473716 -0.00650490744329 -9.85040742064e-21)
(-0.0421674924339 -0.0109333536274 -7.18624491927e-21)
(-0.0439904056229 -0.00763756681752 -1.13341480193e-20)
(-0.0450347002022 -0.011961315049 -1.11129267739e-20)
(-0.0218149243193 -0.00869019618239 -6.11892378559e-21)
(-0.0422651377491 -0.00630788174678 -1.08764264236e-20)
(-0.00131079926677 -0.00759291063602 -1.70417611343e-21)
(-0.0224486177788 -8.15345452344e-05 -1.07916953517e-22)
(-0.0216505247272 -0.000153660803854 -1.71121790729e-22)
(-0.0237482454835 -0.000231014209366 3.69368440873e-23)
(-0.0231175811175 -0.000239236088858 1.01067985579e-22)
(-0.0247157308726 -0.000428015616243 6.12263880896e-23)
(-0.0241842822372 -0.000512367937988 1.00733198436e-22)
(-0.0255225821298 -0.000651642727351 4.13077457993e-23)
(-0.0250217865031 -0.000802233685608 6.97546331305e-23)
(-0.0263198613403 -0.000892040407906 1.67954366693e-24)
(-0.0257747951616 -0.00112155296665 -5.2457943361e-24)
(-0.0272267537425 -0.00114983912426 -1.1868343286e-23)
(-0.0265989190703 -0.00145506560659 -1.54202165598e-23)
(-0.0282954604858 -0.0014304848264 3.67556380539e-25)
(-0.0275665866577 -0.00180949435649 -5.04266592175e-24)
(-0.0295457837586 -0.00174035404842 1.20901164254e-23)
(-0.0287080548715 -0.00219246860122 1.34922308667e-23)
(-0.030986285056 -0.0020956171659 1.05715072889e-23)
(-0.0300287301389 -0.00261299370243 2.90034442754e-23)
(-0.0326215443286 -0.00250506470934 -1.4382426229e-23)
(-0.0315331210313 -0.00308568801978 1.01483784817e-23)
(-0.0344508944455 -0.0030051907329 -5.5218998707e-23)
(-0.0332274581826 -0.00362869953746 -2.51733043348e-23)
(-0.0364351330355 -0.00362803120563 -1.44765901018e-22)
(-0.0350870375062 -0.00427494810439 -7.43623581024e-23)
(-0.0384249481375 -0.00440960494684 -5.22239749295e-22)
(-0.0370464647955 -0.00509266743907 -2.24959387891e-22)
(-0.0399680357441 -0.0054156528446 -1.48917718242e-21)
(-0.038860274897 -0.00602019702733 -8.67641507998e-22)
(-0.0404549026534 -0.00663044882014 -2.48231213576e-21)
(-0.0399221945663 -0.00696649189968 -2.90581557527e-21)
(-0.0409503385639 -0.007738488582 -4.49960878581e-21)
(-0.0398817908443 -0.00830913988045 -5.15496026735e-21)
(-0.0430845099183 -0.00874292950288 -8.44876427251e-21)
(-0.0411629060515 -0.0128962671246 -6.09315427047e-21)
(-0.043294628903 -0.00924095617574 -1.06552051783e-20)
(-0.0445359369013 -0.0136060703809 -1.05792191452e-20)
(-0.0218397523988 -0.00972544203997 -6.46167875149e-21)
(-0.0417800454101 -0.00863595561542 -1.04271840429e-20)
(-0.00215082175718 -0.0086123407104 -1.93768892674e-21)
(-0.0222517448165 -0.000239259130125 3.78631483666e-23)
(-0.0214109286146 -0.000237799666225 -8.2768468058e-23)
(-0.0234919891833 -0.000542792343029 1.64864339927e-22)
(-0.0228136205338 -0.000469639704895 1.9563263111e-22)
(-0.0244235711346 -0.000898679231172 1.09261443476e-22)
(-0.0238280265191 -0.000897108517462 1.14955222852e-22)
(-0.02520723854 -0.00128375664516 2.32010929951e-23)
(-0.0259863485145 -0.0016913268582 -2.23455545628e-23)
(-0.0268726363193 -0.0021180572197 -8.5945391955e-24)
(-0.0279114002841 -0.00257723783864 8.08200856444e-24)
(-0.0291188041894 -0.00306690070644 3.04055587168e-23)
(-0.0305012564396 -0.00360646750001 2.85803154681e-23)
(-0.0320591607355 -0.0042089430597 -6.42499624165e-25)
(-0.0337808900358 -0.00490341820087 -4.43166637303e-23)
(-0.0356130591833 -0.00571717028765 -1.54555844975e-22)
(-0.0373984090839 -0.00671058231742 -5.70361146594e-22)
(-0.0387417015557 -0.00790667270543 -2.28427990085e-21)
(-0.0392844374704 -0.00919724427344 -5.57846370686e-21)
(-0.0400687230337 -0.0101043983305 -6.74850575201e-21)
(-0.0425377174464 -0.0106645080763 -8.22360914313e-21)
(-0.0429305868462 -0.0110834459659 -1.03511980098e-20)
(-0.0220692108541 -0.0114152987507 -5.90319421815e-21)
(-0.0219060553786 -0.000386835833596 7.50010146857e-23)
(-0.0210237117532 -0.000315863774457 -3.89878584863e-23)
(-0.0230849689439 -0.000847309682324 1.45723514035e-22)
(-0.0204883643236 -0.000392870471426 4.6797941573e-23)
(-0.0198094482933 -0.000468508852179 1.95626314241e-22)
)
;

boundaryField
{
    back
    {
        type            calculated;
        value           uniform (0 0 0);
    }
    sides
    {
        type            calculated;
        value           nonuniform List<vector> 0();
    }
    bottom
    {
        type            calculated;
        value           uniform (0 0 0);
    }
    front
    {
        type            calculated;
        value           uniform (0 0 0);
    }
    atmosphere
    {
        type            calculated;
        value           nonuniform List<vector> 8((-0.00707768901267 0.00714504090954 -9.07113305248e-22) (-0.00530851685591 0.00161693763752 -7.08721334227e-21) (0 -0.00557379162839 0) (0 -0.0088344008167 0) (0 -0.00886277221987 0) (0 -0.00831247773922 0) (0 -0.0088847868366 0) (0 -0.0104185095644 0));
    }
    floatingObject
    {
        type            calculated;
        value           nonuniform List<vector> 0();
    }
    procBoundary9to6
    {
        type            processor;
        value           nonuniform List<vector> 4((-0.0555058898725 0.0149635286117 -3.94974299311e-21) (-0.0615599624635 0.0135797536856 -1.64843537962e-20) (-0.0512952851732 0.0222395511837 -1.6697998152e-20) (-0.010569150002 0.0134975624843 -2.08382805123e-21));
    }
    procBoundary9to7
    {
        type            processor;
        value           nonuniform List<vector> 
16
(
(-0.0190673717323 0.000416225068617 -4.74271686447e-22)
(-0.0209167884029 0.00131129784257 -2.27464070104e-22)
(-0.0221929509546 0.00210622047127 -1.45493549464e-22)
(-0.0230971260419 0.00293857803127 4.2659032188e-23)
(-0.0238078454757 0.00379134480705 1.62603799612e-23)
(-0.0245372783266 0.00469585181714 -3.21830502774e-24)
(-0.0253969255683 0.00566902219563 -1.37985361257e-23)
(-0.0264375971939 0.00672261639797 5.29453776954e-24)
(-0.0276914116482 0.00787273870607 -7.91326646839e-24)
(-0.0291984348161 0.00913258512675 -9.50380810019e-24)
(-0.0309956292325 0.010510690705 2.24872455163e-23)
(-0.033142099392 0.0120126590829 1.38540533566e-23)
(-0.0356561207306 0.0136325904437 1.36382854738e-22)
(-0.0386127401436 0.015349536613 2.38426814569e-22)
(-0.0423697529954 0.016959390827 -5.36261516151e-22)
(-0.0475634269057 0.0206880253528 3.83294740967e-23)
)
;
    }
    procBoundary9to10
    {
        type            processor;
        value           nonuniform List<vector> 
15
(
(-0.0246362766591 -0.00134660238875 5.44147392209e-23)
(-0.0253668285874 -0.0018279584827 -2.86245751919e-23)
(-0.0261717268518 -0.00232738396648 -1.28101701948e-23)
(-0.0271069202438 -0.00284997466313 7.64793017564e-25)
(-0.0282177809011 -0.00340519743323 1.64027431918e-23)
(-0.0294885432541 -0.00400246494033 3.7828273562e-23)
(-0.0309295444127 -0.00465486854748 1.13283494147e-23)
(-0.0325321342681 -0.00537530783646 -1.67314877988e-23)
(-0.022352796819 -0.000694091986936 1.89165115387e-22)
(-0.0239762299297 -0.0013571263457 6.0108518596e-23)
(-0.0233177956039 -0.00127205898976 3.44587690291e-23)
(-0.0214083361417 -0.0005350327599 7.51762422154e-23)
(-0.0207622024218 -0.00067875970747 1.48798936675e-22)
(-0.0199759850063 -0.000814365759994 3.50468544863e-22)
(-0.0189949226868 -0.000539834598512 4.58846906366e-22)
)
;
    }
    procBoundary9to11
    {
        type            processor;
        value           nonuniform List<vector> 9((-0.0342719007503 -0.00619134087313 -5.84339875122e-23) (-0.0360520304624 -0.00716643657588 -2.46999839342e-22) (-0.0376631591454 -0.00821979405814 -1.02241785919e-21) (-0.0386309024746 -0.00921828677519 -3.6275952078e-21) (-0.0389741495948 -0.0105078660612 -6.79232088866e-21) (-0.0406026442979 -0.0142890351609 -8.5478357569e-21) (-0.0441163142462 -0.0149565830005 -1.30968558627e-20) (-0.0414473574221 -0.0109715998774 -1.2870219167e-20) (-0.00314699071896 -0.0112737788511 -2.25646436253e-21));
    }
}


// ************************************************************************* //
