/*--------------------------------*- C++ -*----------------------------------*\
| =========                 |                                                 |
| \\      /  F ield         | OpenFOAM: The Open Source CFD Toolbox           |
|  \\    /   O peration     | Version:  v2012                                 |
|   \\  /    A nd           | Website:  www.openfoam.com                      |
|    \\/     M anipulation  |                                                 |
\*---------------------------------------------------------------------------*/
FoamFile
{
    version     2.0;
    format      ascii;
    class       volScalarField;
    location    "0.6";
    object      k;
}
// * * * * * * * * * * * * * * * * * * * * * * * * * * * * * * * * * * * * * //

dimensions      [0 2 -2 0 0 0 0];


internalField   nonuniform List<scalar> 
166
(
0.0326043031408
0.0326162530163
0.0326291614088
0.0326428721055
0.0326572670075
0.0326726661101
0.0326926877796
0.032742197511
0.0329594441764
0.0339667479505
0.037928086058
0.050140009304
0.0786137153909
0.0326143119228
0.032624141429
0.0326350042347
0.0326470034153
0.0326600126186
0.0326738833749
0.032688511372
0.032704278031
0.032725209935
0.0327783588161
0.0330110613261
0.0340716392384
0.0381573186957
0.0504973352214
0.0787919249162
0.0264090596404
0.0314610446855
0.0326349071459
0.0326458719152
0.0326557973854
0.0326668031962
0.0326789972331
0.0326922628486
0.0327064580765
0.0327214916729
0.0327378162098
0.032759919897
0.0328172955576
0.0330672230472
0.034185659455
0.0384029881666
0.0508741233974
0.0789810540224
0.0264424881679
0.031492823764
0.0324635815307
0.0326367177371
0.0326670912418
0.0326782266067
0.0326883753529
0.0326996657334
0.0327122121684
0.0327259046371
0.0327406064524
0.0327562390709
0.0327733360579
0.0327969063469
0.0328591576741
0.0331281959094
0.0343091773677
0.0386652214465
0.0512697989211
0.0791815063806
0.0264757727115
0.0315248080678
0.0324959037805
0.0326692785033
0.0326998852796
0.0327113087874
0.0327218172281
0.0327335469721
0.0327466183112
0.0327609260816
0.0327763377611
0.0327927876889
0.0328109007025
0.0328362703729
0.0329041075848
0.03319423775
0.0344424603722
0.0389439125518
0.051685087487
0.0793968972151
0.0265086826852
0.0315568479416
0.032528501672
0.0327022411077
0.0327331929305
0.0327450317113
0.0327560485726
0.0327683878462
0.0327821747891
0.032797307897
0.0328136578596
0.032831172403
0.0328505785347
0.0328781218161
0.0329523133303
0.0332655834189
0.0345856796817
0.0392386198084
0.052116257146
0.0796240922018
0.0265409418674
0.0315887544821
0.0325612249683
0.03273547221
0.032766891796
0.0327792850316
0.0327909737317
0.0328041106891
0.0328188254806
0.0328350193454
0.0328525655063
0.0328714257449
0.0328924405387
0.0329225762751
0.0330039422549
0.0333424275959
0.0347388346272
0.0395486757316
0.0525645175358
0.0798672247473
0.0265722248818
0.0316202994814
0.032593888794
0.0327688064527
0.0328008297176
0.0328139308198
0.0328264720687
0.0328406159154
0.0328564959045
0.0328740152297
0.0328930493585
0.0329135749329
0.0329365570766
0.032969750238
0.0330591488271
0.0334248925934
0.034901755819
0.0398728890243
0.0530250617889
0.0801226067799
0.0266021526186
0.0316512109457
0.0326262697054
0.0328020425428
0.0328348207229
0.0328487995993
0.0328623940165
0.0328777782907
0.0328950891362
0.0329142316447
0.0329350838224
0.0329576380749
0.0329829943077
0.0330197552784
0.0331180525613
0.0335129188988
0.0350735408951
0.0402083522374
0.0534960537137
0.0803905838464
)
;

boundaryField
{
    back
    {
        type            kqRWallFunction;
        value           nonuniform List<scalar> 
166
(
0.0326043031408
0.0326162530163
0.0326291614088
0.0326428721055
0.0326572670075
0.0326726661101
0.0326926877796
0.032742197511
0.0329594441764
0.0339667479505
0.037928086058
0.050140009304
0.0786137153909
0.0326143119228
0.032624141429
0.0326350042347
0.0326470034153
0.0326600126186
0.0326738833749
0.032688511372
0.032704278031
0.032725209935
0.0327783588161
0.0330110613261
0.0340716392384
0.0381573186957
0.0504973352214
0.0787919249162
0.0264090596404
0.0314610446855
0.0326349071459
0.0326458719152
0.0326557973854
0.0326668031962
0.0326789972331
0.0326922628486
0.0327064580765
0.0327214916729
0.0327378162098
0.032759919897
0.0328172955576
0.0330672230472
0.034185659455
0.0384029881666
0.0508741233974
0.0789810540224
0.0264424881679
0.031492823764
0.0324635815307
0.0326367177371
0.0326670912418
0.0326782266067
0.0326883753529
0.0326996657334
0.0327122121684
0.0327259046371
0.0327406064524
0.0327562390709
0.0327733360579
0.0327969063469
0.0328591576741
0.0331281959094
0.0343091773677
0.0386652214465
0.0512697989211
0.0791815063806
0.0264757727115
0.0315248080678
0.0324959037805
0.0326692785033
0.0326998852796
0.0327113087874
0.0327218172281
0.0327335469721
0.0327466183112
0.0327609260816
0.0327763377611
0.0327927876889
0.0328109007025
0.0328362703729
0.0329041075848
0.03319423775
0.0344424603722
0.0389439125518
0.051685087487
0.0793968972151
0.0265086826852
0.0315568479416
0.032528501672
0.0327022411077
0.0327331929305
0.0327450317113
0.0327560485726
0.0327683878462
0.0327821747891
0.032797307897
0.0328136578596
0.032831172403
0.0328505785347
0.0328781218161
0.0329523133303
0.0332655834189
0.0345856796817
0.0392386198084
0.052116257146
0.0796240922018
0.0265409418674
0.0315887544821
0.0325612249683
0.03273547221
0.032766891796
0.0327792850316
0.0327909737317
0.0328041106891
0.0328188254806
0.0328350193454
0.0328525655063
0.0328714257449
0.0328924405387
0.0329225762751
0.0330039422549
0.0333424275959
0.0347388346272
0.0395486757316
0.0525645175358
0.0798672247473
0.0265722248818
0.0316202994814
0.032593888794
0.0327688064527
0.0328008297176
0.0328139308198
0.0328264720687
0.0328406159154
0.0328564959045
0.0328740152297
0.0328930493585
0.0329135749329
0.0329365570766
0.032969750238
0.0330591488271
0.0334248925934
0.034901755819
0.0398728890243
0.0530250617889
0.0801226067799
0.0266021526186
0.0316512109457
0.0326262697054
0.0328020425428
0.0328348207229
0.0328487995993
0.0328623940165
0.0328777782907
0.0328950891362
0.0329142316447
0.0329350838224
0.0329576380749
0.0329829943077
0.0330197552784
0.0331180525613
0.0335129188988
0.0350735408951
0.0402083522374
0.0534960537137
0.0803905838464
)
;
    }
    sides
    {
        type            kqRWallFunction;
        value           nonuniform List<scalar> 0();
    }
    bottom
    {
        type            kqRWallFunction;
        value           nonuniform List<scalar> 7(0.0264090596404 0.0264424881679 0.0264757727115 0.0265086826852 0.0265409418674 0.0265722248818 0.0266021526186);
    }
    front
    {
        type            kqRWallFunction;
        value           nonuniform List<scalar> 
166
(
0.0326043031408
0.0326162530163
0.0326291614088
0.0326428721055
0.0326572670075
0.0326726661101
0.0326926877796
0.032742197511
0.0329594441764
0.0339667479505
0.037928086058
0.050140009304
0.0786137153909
0.0326143119228
0.032624141429
0.0326350042347
0.0326470034153
0.0326600126186
0.0326738833749
0.032688511372
0.032704278031
0.032725209935
0.0327783588161
0.0330110613261
0.0340716392384
0.0381573186957
0.0504973352214
0.0787919249162
0.0264090596404
0.0314610446855
0.0326349071459
0.0326458719152
0.0326557973854
0.0326668031962
0.0326789972331
0.0326922628486
0.0327064580765
0.0327214916729
0.0327378162098
0.032759919897
0.0328172955576
0.0330672230472
0.034185659455
0.0384029881666
0.0508741233974
0.0789810540224
0.0264424881679
0.031492823764
0.0324635815307
0.0326367177371
0.0326670912418
0.0326782266067
0.0326883753529
0.0326996657334
0.0327122121684
0.0327259046371
0.0327406064524
0.0327562390709
0.0327733360579
0.0327969063469
0.0328591576741
0.0331281959094
0.0343091773677
0.0386652214465
0.0512697989211
0.0791815063806
0.0264757727115
0.0315248080678
0.0324959037805
0.0326692785033
0.0326998852796
0.0327113087874
0.0327218172281
0.0327335469721
0.0327466183112
0.0327609260816
0.0327763377611
0.0327927876889
0.0328109007025
0.0328362703729
0.0329041075848
0.03319423775
0.0344424603722
0.0389439125518
0.051685087487
0.0793968972151
0.0265086826852
0.0315568479416
0.032528501672
0.0327022411077
0.0327331929305
0.0327450317113
0.0327560485726
0.0327683878462
0.0327821747891
0.032797307897
0.0328136578596
0.032831172403
0.0328505785347
0.0328781218161
0.0329523133303
0.0332655834189
0.0345856796817
0.0392386198084
0.052116257146
0.0796240922018
0.0265409418674
0.0315887544821
0.0325612249683
0.03273547221
0.032766891796
0.0327792850316
0.0327909737317
0.0328041106891
0.0328188254806
0.0328350193454
0.0328525655063
0.0328714257449
0.0328924405387
0.0329225762751
0.0330039422549
0.0333424275959
0.0347388346272
0.0395486757316
0.0525645175358
0.0798672247473
0.0265722248818
0.0316202994814
0.032593888794
0.0327688064527
0.0328008297176
0.0328139308198
0.0328264720687
0.0328406159154
0.0328564959045
0.0328740152297
0.0328930493585
0.0329135749329
0.0329365570766
0.032969750238
0.0330591488271
0.0334248925934
0.034901755819
0.0398728890243
0.0530250617889
0.0801226067799
0.0266021526186
0.0316512109457
0.0326262697054
0.0328020425428
0.0328348207229
0.0328487995993
0.0328623940165
0.0328777782907
0.0328950891362
0.0329142316447
0.0329350838224
0.0329576380749
0.0329829943077
0.0330197552784
0.0331180525613
0.0335129188988
0.0350735408951
0.0402083522374
0.0534960537137
0.0803905838464
)
;
    }
    atmosphere
    {
        type            inletOutlet;
        inletValue      uniform 0.1;
        value           uniform 0.1;
    }
    floatingObject
    {
        type            kqRWallFunction;
        value           nonuniform List<scalar> 0();
    }
    procBoundary0to1
    {
        type            processor;
        value           nonuniform List<scalar> 10(0.0326133823098 0.03262769311 0.0326428870796 0.0326622260941 0.0327086290648 0.032912079962 0.0338705743844 0.0377151341437 0.0498032527085 0.078447858381);
    }
    procBoundary0to2
    {
        type            processor;
        value           nonuniform List<scalar> 
14
(
0.0325747117002
0.0325867426219
0.0325996886885
0.0325835889125
0.0325934443943
0.0325934443943
0.026375676281
0.0314295931398
0.0326034029661
0.0326034029661
0.0324316459667
0.0324316459667
0.0326046601486
0.0326046601486
)
;
    }
    procBoundary0to4
    {
        type            processor;
        value           nonuniform List<scalar> 8(0.0266302893196 0.0316811687322 0.0326581003888 0.0328349372601 0.0328686382327 0.0328836830188 0.0328985537502 0.0329154390029);
    }
    procBoundary0to5
    {
        type            processor;
        value           nonuniform List<scalar> 
12
(
0.0329344794524
0.0329555800188
0.0329786243018
0.0330036207958
0.0330318119288
0.0330726950788
0.0331807349505
0.0336063202806
0.0352531347549
0.0405521942928
0.0539691653619
0.0806572514337
)
;
    }
}


// ************************************************************************* //
