/*--------------------------------*- C++ -*----------------------------------*\
| =========                 |                                                 |
| \\      /  F ield         | OpenFOAM: The Open Source CFD Toolbox           |
|  \\    /   O peration     | Version:  v2012                                 |
|   \\  /    A nd           | Website:  www.openfoam.com                      |
|    \\/     M anipulation  |                                                 |
\*---------------------------------------------------------------------------*/
FoamFile
{
    version     2.0;
    format      ascii;
    class       volVectorField;
    location    "1.5";
    object      ddt0(rho,U);
}
// * * * * * * * * * * * * * * * * * * * * * * * * * * * * * * * * * * * * * //

dimensions      [1 -2 -2 0 0 0 0];


internalField   nonuniform List<vector> 
164
(
(-287.645375987 -42.6623317022 -7.42644198344e-20)
(-293.331397505 -50.930827126 -1.77392284208e-21)
(-299.082635453 -60.7325482939 1.71443562361e-19)
(-304.620324068 -72.5954929236 1.00699792464e-19)
(-309.598153436 -87.2953305614 6.52075545574e-19)
(-313.735757051 -105.260924364 4.44290964657e-19)
(-316.733905943 -130.392159542 -7.07742365577e-19)
(-318.411508505 -160.213261242 -8.27982724584e-19)
(-310.321880493 -218.453862476 -1.22284526468e-17)
(-301.294169119 -168.862170948 -7.23147222165e-19)
(-4.9967832398 -20.3413216055 -1.36846392541e-19)
(-0.224620454192 -0.465352018351 -4.40828788071e-20)
(-279.928042996 -47.6138122647 -7.62743634626e-20)
(-284.39745449 -55.8667615402 -7.77018951513e-21)
(-288.555753163 -65.3327753843 2.88321312111e-19)
(-291.94524219 -76.4138631458 -3.91543180878e-19)
(-293.944144833 -89.8619672172 8.24588400131e-20)
(-293.923847797 -105.596532522 -4.11702197405e-19)
(-290.828919909 -127.984232364 -1.42391192856e-18)
(-283.020705296 -155.107746594 8.26557450722e-18)
(-261.193289921 -204.953757735 4.60114388531e-17)
(-251.582165005 -164.869513451 -1.55192956001e-17)
(-5.71951250445 -7.96625791561 1.98309933099e-18)
(-0.184857208327 -0.40724229916 -4.04175850948e-20)
(-278.766597068 -68.2742788269 -1.21865027417e-20)
(-280.625486821 -77.9455762091 -3.66200913694e-19)
(-280.4917348 -89.1930583375 2.18978968896e-19)
(-277.357815366 -101.285219089 -8.4118783731e-19)
(-269.629415537 -117.964583805 -1.64972617811e-18)
(-253.536954867 -138.623553654 2.4407433305e-18)
(-220.774709969 -174.874984827 1.50538445967e-17)
(-202.018005063 -139.026753713 -1.49242650318e-17)
(-20.8945117151 10.0412408575 -3.56545103716e-18)
(-0.17431297021 -0.271335609512 -6.50134548583e-20)
(-270.125211929 -70.1735784968 2.56273363205e-20)
(-271.259522559 -78.1146330407 -1.75294775834e-19)
(-270.220197781 -86.4789529882 4.91519782457e-19)
(-265.714373635 -94.1258927798 4.88261008716e-19)
(-255.86920014 -103.171422112 1.3365775561e-18)
(-235.351440379 -112.166073793 -8.97761996412e-18)
(-193.112114695 -134.07548219 3.17737267199e-17)
(-173.605514624 -87.6651453414 -4.18025092958e-18)
(-44.8506372846 33.2302081046 1.16579823187e-17)
(-0.184845566241 -0.136322086902 -2.5205632764e-20)
(-262.79838321 -71.7795586498 7.66026974133e-20)
(-264.070106635 -78.0294380266 6.85554196997e-20)
(-263.538133965 -83.4859731115 1.11813909488e-18)
(-259.990929097 -86.6031936777 1.47043325232e-18)
(-251.57410877 -87.3754649271 2.93363862917e-18)
(-232.74589447 -82.3126972832 1.65227973219e-17)
(-191.554446997 -78.989423686 2.06199455111e-20)
(-181.325989617 -25.2605319603 1.20841222811e-17)
(-80.9264987332 56.5981565308 1.5747165905e-17)
(-0.189280643111 0.122657820129 -1.29834113937e-19)
(-256.558408457 -73.8386413096 2.36416413362e-20)
(-258.81663497 -78.84792812 2.51159546895e-19)
(-260.037065439 -82.2433626587 2.34083240943e-19)
(-259.592540388 -82.0043689349 2.27125295959e-18)
(-256.639679005 -76.3824493965 -3.3681066122e-18)
(-247.130679914 -59.4379714984 2.25510586213e-18)
(-219.468741324 -30.8818277216 -6.51155546442e-20)
(-219.862126174 24.6397334993 -2.76576186214e-17)
(-115.823340123 63.0357531378 -1.97302922883e-17)
(-0.160111847607 0.19844289527 -1.48765219414e-19)
(-250.959344624 -76.9140350187 -2.30079885695e-20)
(-254.66666814 -81.5100893717 1.28858200687e-19)
(-258.371531102 -84.1517885134 1.0883958142e-18)
(-262.269062431 -83.1581379253 1.55457110855e-18)
(-267.621113093 -75.7933634959 5.84553530173e-18)
(-274.586508687 -53.571842887 -8.62648560284e-18)
(-269.812620624 -15.5128829181 1.37604976003e-17)
(-278.064836755 35.0113515584 -3.86695659546e-17)
(-142.476991599 55.8025602161 7.77628440761e-18)
(-0.111855989855 0.180393050974 -2.85958354143e-19)
(-245.445359989 -81.220060566 -4.88613701031e-20)
(-250.514697927 -86.2559645888 2.36985783568e-19)
(-256.505186687 -89.7666737936 -2.0421884037e-19)
(-264.303840493 -91.045571257 8.30781784754e-19)
(-277.106530836 -89.0870659525 -1.37166292459e-18)
(-307.145654566 -69.2604108347 -3.29884169234e-18)
(-315.273045752 -41.8856255228 1.02447087291e-17)
(-331.120227942 3.9043305193 -2.16539361719e-17)
(-173.274062836 36.542747012 1.04609588423e-16)
(-0.056723130509 -0.13143511562 -1.43727216439e-20)
(-239.506809844 -86.5850766207 -7.49800848986e-21)
(-245.610847346 -92.5682752326 -7.93089733345e-20)
(-252.830217055 -97.9312565944 -1.02930871716e-19)
(-261.817167448 -103.355057216 -9.4718391738e-19)
(-268.630670267 -119.204208378 -1.36330608702e-18)
(-336.502161505 -100.585731801 -5.07623539609e-17)
(-299.527800567 -145.475677314 -1.73523475758e-17)
(-327.674874914 -139.990484005 -2.97603712309e-17)
(-218.943295646 -35.150046681 5.99962184418e-17)
(-0.535225513413 -0.308601466815 -1.04627770692e-18)
(-232.880994312 -92.7203933389 2.20511288371e-20)
(-239.589035235 -99.5718065871 1.51852385463e-19)
(-247.176787345 -106.05951707 2.54353079749e-19)
(-256.151783174 -106.463894728 -3.87538272857e-18)
(-256.701217606 -165.012287416 2.13954697376e-18)
(-319.020836385 -110.459022281 -9.5313609636e-18)
(-288.490023926 -181.691372714 1.38514097314e-17)
(-349.733820334 -234.9469876 -7.52698249875e-17)
(-444.379037212 -61.1366432317 -1.7948511062e-16)
(0.830222078401 -0.164294862916 -1.7068870858e-18)
(-225.542826436 -99.3052497454 1.63994321283e-19)
(-232.532771934 -106.859314982 -8.50015346329e-20)
(-239.801792049 -114.477796263 3.38630816173e-19)
(-246.854772976 -112.501857851 -1.73664987838e-17)
(-252.56124126 -179.361408083 2.1043791811e-17)
(-238.502346843 -142.243556068 4.9575875198e-17)
(-224.598156581 -258.100146307 3.38594287225e-17)
(-72.3266498953 -674.614582402 1.27689515618e-15)
(-452.667834531 -341.144385717 1.41700297008e-15)
(-101.526492997 -853.798766009 -5.77620090345e-16)
(-217.703352274 -106.219444149 -2.50080248448e-19)
(-225.139086278 -113.845998048 -3.97368677545e-19)
(-232.356140121 -120.529899726 4.5555261142e-19)
(-237.850595341 -119.551007429 8.67799355747e-19)
(-247.613528165 -157.816948067 2.93051483882e-17)
(-197.296398888 -94.6203509155 -1.57148033355e-17)
(-222.137291352 -73.9822043749 3.84298211655e-17)
(-105.234790709 52.8650346041 5.63255897517e-16)
(312.182540947 188.938275608 1.23252295425e-15)
(-0.131659614798 0.111097710534 2.99785657707e-20)
(-209.50896293 -113.820979163 -6.34928718399e-20)
(-217.968657126 -121.565926216 3.61522744417e-20)
(-226.775083112 -127.648845999 -1.87931383339e-18)
(-235.803832893 -128.773292668 -4.8373345948e-18)
(-249.97467727 -141.405207052 -1.78600266146e-17)
(-229.681198132 -101.749723747 -2.74770959681e-17)
(-285.618594058 -85.496304933 5.1036263118e-17)
(-316.147619116 -28.6091012918 5.62186162786e-17)
(-110.489460099 -53.8678140689 2.39986459887e-16)
(0.276311278691 0.400741433106 -2.83869338283e-18)
(-200.767047004 -122.560781674 2.36896096351e-19)
(-210.576673133 -131.151462675 4.22411310219e-19)
(-221.468609117 -138.465553289 6.31630537217e-19)
(-234.192159792 -143.416420703 -3.37809833263e-20)
(-252.377683323 -152.206457779 9.98793819093e-18)
(-269.276786911 -132.109891505 -1.34515381629e-17)
(-326.803539078 -142.438860426 -1.39499290301e-17)
(-403.149815268 -42.5314703953 -4.0870556189e-17)
(-319.214798315 -12.216869559 -6.07939090713e-16)
(-0.0437642292697 0.207540878174 -2.70293641365e-18)
(-191.106029416 -132.490038706 -2.75050656294e-19)
(-202.154076064 -142.299384701 -8.47771412252e-20)
(-214.3772189 -151.234690295 9.78587192173e-19)
(-227.979101873 -159.509401451 -2.81010526471e-19)
(-242.971913668 -174.895146523 -1.51620953235e-17)
(-259.534722151 -173.917562245 4.57571917273e-17)
(-293.964973279 -242.975505392 7.00776399436e-17)
(-360.507343434 -229.754447171 -9.0679692169e-17)
(-503.093895636 -296.635837817 -5.05573444222e-17)
(-48.5362837003 -589.837432425 -4.18608132082e-17)
(-180.295382129 -143.489448001 4.69193782091e-20)
(-192.477630049 -154.487920576 -6.55976355401e-20)
(-205.569425138 -164.483648459 1.46087803321e-18)
(-219.032080466 -173.11629998 1.33257735061e-18)
(-232.961986014 -185.211181074 -1.39175524791e-18)
(-243.523591414 -181.267003289 -1.79061728976e-17)
(-274.041355568 -212.263529263 7.00744185144e-18)
(-242.576332371 -216.273772176 2.54388210739e-17)
(-124.954583632 -70.0684566401 -1.20733523583e-16)
(-0.237408215064 -0.589922059901 -1.04316276214e-18)
)
;

boundaryField
{
    back
    {
        type            calculated;
        value           uniform (0 0 0);
    }
    sides
    {
        type            calculated;
        value           nonuniform List<vector> 0();
    }
    bottom
    {
        type            calculated;
        value           nonuniform List<vector> 0();
    }
    front
    {
        type            calculated;
        value           uniform (0 0 0);
    }
    atmosphere
    {
        type            calculated;
        value           nonuniform List<vector> 
16
(
(-5.95683695438e-05 -0.465351856903 4.96515460438e-25)
(8.06778133186e-05 -0.40724229916 1.48844951209e-24)
(2.43734686913e-05 -0.271335718563 5.17887492411e-25)
(-9.83496053519e-08 -0.13632217449 2.58057130621e-27)
(-7.15808671695e-09 0.122657827359 -1.22800695083e-28)
(3.02182187793e-06 0.19844289527 9.15979841046e-25)
(-2.95091819576e-11 0.180393037617 3.33246493719e-31)
(1.4943533196e-14 -0.13143511505 -1.55478883018e-34)
(-2.0464493298e-15 -0.308601466742 -4.0947563528e-35)
(1.04825478196e-15 -0.164294862917 4.7959621035e-35)
(-101.526492997 -853.798766009 -5.77620090345e-16)
(0 0.111097710532 0)
(2.57356292063e-20 0.400741433106 1.97111298529e-41)
(3.29997429185e-20 0.207540878174 1.10321988242e-39)
(-48.5362837003 -589.837432425 -4.18608132082e-17)
(0 -0.589922059456 0)
)
;
    }
    floatingObject
    {
        type            calculated;
        value           nonuniform List<vector> 0();
    }
    procBoundary5to0
    {
        type            processor;
        value           nonuniform List<vector> 
12
(
(-295.068289917 -36.5240367971 4.14772203407e-20)
(-302.166665173 -44.4353497829 -1.13963523903e-19)
(-309.78119 -54.0514284906 2.76466496005e-19)
(-317.810591434 -65.9339274655 -4.62056631572e-20)
(-326.169808793 -80.8322573705 4.82678794744e-19)
(-334.907375472 -99.4735113048 2.15843312254e-19)
(-344.437505085 -124.697440476 1.48660137059e-18)
(-355.19125059 -154.519989479 -2.39390744663e-18)
(-361.289918773 -212.668376373 3.07147820317e-17)
(-349.682678731 -155.884216402 4.33863563586e-18)
(-11.823480325 -25.0402129656 -4.39803666537e-18)
(-0.279743414693 -0.494781423519 -3.65593375595e-20)
)
;
    }
    procBoundary5to3
    {
        type            processor;
        value           nonuniform List<vector> 10((-168.284549247 -155.5922398 5.03536118683e-19) (-181.881414061 -167.58703152 3.24966226735e-19) (-196.400863653 -177.898576745 8.21431396413e-19) (-211.379902218 -185.966041842 2.68196201366e-19) (-225.691044273 -194.235781962 3.80458535063e-18) (-235.018578092 -200.557809682 1.25784024815e-18) (-263.615071497 -226.422746603 -1.8455176811e-17) (-256.540769671 -188.300263874 6.03924782474e-17) (-81.4433950389 -87.1717044723 -7.65537739389e-17) (0.401007638183 -0.346153985948 -2.61376439343e-18));
    }
    procBoundary5to4
    {
        type            processor;
        value           nonuniform List<vector> 
18
(
(-282.237187572 -35.5634081038 -6.73431607215e-21)
(-275.447681078 -40.3008882303 -1.28515654414e-20)
(-272.205183832 -51.6049995559 -1.07956130232e-19)
(-275.772015424 -59.5510250429 -1.38469128691e-20)
(-275.772015424 -59.5510250429 -1.38469128691e-20)
(-267.743733948 -62.4203848008 -1.87928469095e-19)
(-260.394833928 -64.9816824956 -1.02771918018e-19)
(-253.664316261 -67.7585752169 -1.90042454418e-20)
(-247.266375044 -71.0772447944 2.83792145714e-20)
(-240.835476651 -75.1526394388 7.3241513131e-21)
(-234.106626603 -79.9714033728 -1.85770530003e-20)
(-226.871968797 -85.4282347208 1.21164315221e-20)
(-219.045454204 -91.395444632 -4.04534740007e-20)
(-210.640508695 -97.8462017945 9.15255738902e-20)
(-201.646401997 -104.92398819 8.2227631525e-20)
(-191.922771839 -112.821837066 -1.45207603408e-19)
(-181.236555904 -121.621216685 1.84626286674e-19)
(-169.36140524 -131.332382785 -1.24418110349e-20)
)
;
    }
}


// ************************************************************************* //
