/*--------------------------------*- C++ -*----------------------------------*\
| =========                 |                                                 |
| \\      /  F ield         | OpenFOAM: The Open Source CFD Toolbox           |
|  \\    /   O peration     | Version:  v2012                                 |
|   \\  /    A nd           | Website:  www.openfoam.com                      |
|    \\/     M anipulation  |                                                 |
\*---------------------------------------------------------------------------*/
FoamFile
{
    version     2.0;
    format      ascii;
    class       surfaceScalarField;
    location    "6";
    object      alphaPhi0.water;
}
// * * * * * * * * * * * * * * * * * * * * * * * * * * * * * * * * * * * * * //

dimensions      [0 3 -1 0 0 0 0];
oriented        oriented;


internalField   nonuniform List<scalar> 
293
(
-0.000139808041461
-0.0001485309404
-0.000210733681924
-7.32625908247e-05
-0.000239455391873
-2.86138801554e-05
-0.000248252753085
-4.64297371294e-06
-0.000249798523253
2.0440874621e-06
-0.000150057872619
-4.99081347171e-06
-8.68721834051e-08
-3.56334375979e-06
-4.28721147468e-08
-0.000150129162414
1.59642658065e-06
-0.000224799397427
1.40463275915e-06
-0.000253757346722
3.39697126618e-07
-0.000256485134395
-1.91721346675e-06
-0.000248930617278
-5.50850911326e-06
-0.000144953457172
2.80972254671e-06
-5.64388866073e-08
7.20373355923e-08
-1.37788138466e-08
-0.000150528058823
0.000152120125859
-0.000226930340279
7.78023789357e-05
-0.000261960876353
3.53724974128e-05
-0.000276328777838
1.24553020677e-05
-0.000291020651845
9.19374886417e-06
-0.000168981966786
1.60561747361e-05
-1.74172970377e-06
-2.34132233202e-06
2.6376913229e-07
-0.000138910380142
-0.000211016174291
-0.000245477355104
6.98357145741e-05
-0.000266352988388
3.33490463197e-05
-0.000288604311171
3.1456374625e-05
-0.000176361025963
3.59521817368e-05
-3.28392201513e-07
4.66414734217e-06
3.83135329756e-08
-0.00021718662516
9.54857994713e-05
-0.000243734323315
5.99080213767e-05
-0.000272049690891
5.97963026168e-05
-0.000168133112964
5.09563260821e-05
-3.38153302574e-10
1.68970220016e-05
4.26656208513e-08
-0.000196746966797
0.000112869963339
-0.000221534161467
8.47111488548e-05
-0.000245683964229
8.39657855512e-05
-0.000146685546647
5.73580218222e-05
-1.13246191347e-07
2.28344592459e-05
7.31899906021e-09
-0.000176456341473
0.000122620025812
-0.000195294153503
0.000103563993522
-0.000213272601072
0.000101961988538
-0.000127574991258
6.66227870128e-05
-2.6379995608e-07
2.6971860875e-05
5.89203169849e-08
-0.000161295614307
0.000129482150585
-0.000175057099828
0.000117339018601
-0.000188496873114
0.00011541967989
-0.000116067232524
8.53389281206e-05
-1.29751435628e-07
3.68952372096e-05
-1.23506536376e-08
-0.000151660805098
0.000136189380185
-0.00016625526136
0.000131948054137
-0.000182754545484
0.000131938041186
-0.000105994130611
9.94236606629e-05
5.50092336419e-09
4.46596120976e-05
-1.86845408428e-09
-0.000145792408462
0.000144737048262
-0.000161011804844
0.00014718055992
-0.000178429760134
0.000149348877091
-9.35362838665e-05
0.000106688661981
-6.40909248861e-10
4.34520681749e-05
2.97321787299e-09
-0.000140070354662
0.0001532018078
-0.000152576066348
0.000159708200444
-0.0001651634309
0.000161934793236
-7.78362068484e-05
0.000107522011893
-6.801917645e-09
3.75004497658e-05
2.02874995894e-09
-0.000133656874484
0.000159556789991
-0.000139979199115
0.000166051011714
-0.000142422067757
0.000164483127025
-6.3763429181e-05
0.000108811801549
-3.1065119315e-07
3.4942015482e-05
5.4898036281e-10
-0.000130375954329
0.000165012091974
-0.000134234299438
0.000169898214521
-0.00013445571297
0.000164806414972
-5.69406350892e-05
0.000110608794501
-2.50320573128e-07
3.28114071186e-05
2.5155175206e-08
-0.00012923828124
0.000170831983894
-0.000134384355073
0.000175013636518
-0.000138933891312
0.000169349197044
-5.41129248926e-05
0.000109313860136
-5.40466119366e-08
2.8368010268e-05
1.52907037267e-09
-0.000127550539823
0.000176722095739
-0.000132369643204
0.000179833162404
-0.000138152192192
0.000175131221466
-5.20072329559e-05
0.000108259932314
-1.49412198757e-08
2.50590812151e-05
1.90075715521e-10
-0.000123091122603
0.000181987067891
-0.000125666194097
0.000182404243703
-0.000129040255536
0.000178496607665
-5.02731535105e-05
0.00011334966164
-5.36000329566e-08
2.52509476036e-05
5.37950611348e-09
-0.00011626714329
0.000186979907681
-0.00011696150474
0.000183090263049
-0.000117588034664
0.000179115744539
-4.7700757712e-05
0.000124278842629
-4.52144503578e-07
2.70295725489e-05
7.08343707559e-09
-0.000107934366918
0.000192222144323
-0.000108675087798
0.000183850354258
-0.000109676799515
0.000180124035916
-4.33478005844e-05
0.000134911238812
-7.08104025112e-09
2.76797554481e-05
1.71402844437e-11
-9.80719396136e-05
0.000197726645897
-0.000100635640606
0.000186418901979
-0.000103991767291
0.000183482570222
-3.88371639403e-05
0.000144127289497
-1.06996836253e-08
2.54540797056e-05
1.40927354835e-08
-8.84406379656e-05
0.000203935960338
-9.45374418102e-05
0.000192513169009
-0.000101592330104
0.000190535882743
-3.51420053505e-05
0.000152181339608
-4.35029769406e-07
2.14918450182e-05
1.17165342194e-07
-8.09001634265e-05
0.000211310290357
-9.1332891486e-05
0.000202942373939
-0.000102505355438
0.000201705071737
-3.21693665721e-05
0.000158859233833
-2.50396591347e-07
1.669904996e-05
4.60499255654e-09
-7.46822584402e-05
0.000219807377752
-8.68258092439e-05
0.000215081973336
-0.000101609788387
0.000216484195083
-2.97540578033e-05
0.000166013823921
-2.7500505339e-08
1.17190024736e-05
3.64500442648e-09
-6.86232157858e-05
0.000228599294329
-8.11304423467e-05
0.000227584950405
-9.68092377942e-05
0.000232158557973
-2.62086944864e-05
0.000171944960871
-3.37838214696e-09
6.87079649313e-06
2.66746281358e-10
-6.21281116347e-05
-7.4148719046e-05
-8.83928105675e-05
0.000246399327677
-2.14642973568e-05
0.000174835880351
-5.76737729191e-09
3.38700355756e-06
1.95814956408e-12
-7.75602055923e-05
0.000259225897709
-1.29267247616e-05
0.000171042705759
2.64868003177e-08
9.70735315848e-08
2.56500300897e-08
-6.71810399316e-05
0.000271271996607
-4.20692519209e-06
0.000167438607254
-2.31910585101e-08
2.10384338351e-07
3.35804445509e-09
-5.49324900722e-05
6.49971582425e-07
-4.87872072358e-09
)
;

boundaryField
{
    back
    {
        type            calculated;
        value           uniform 0;
    }
    sides
    {
        type            calculated;
        value           nonuniform List<scalar> 0();
    }
    bottom
    {
        type            calculated;
        value           nonuniform List<scalar> 0();
    }
    front
    {
        type            calculated;
        value           uniform 0;
    }
    atmosphere
    {
        type            calculated;
        value           nonuniform List<scalar> 
27
(
-1.28142788371e-08
1.62223861706e-08
-2.26868670984e-06
-5.79801170213e-08
-1.82437980328e-08
-7.8283588958e-08
-2.96854374561e-07
-4.32466124121e-08
-5.01892159058e-09
-5.49917795976e-09
-6.11802087451e-09
-3.04231167872e-07
-2.73625604515e-07
-3.0840046926e-08
-1.37231239637e-08
-5.8791482448e-08
-4.53843160265e-07
2.89375518777e-12
-2.47642079462e-08
-5.38099753451e-07
-1.37835951854e-07
-2.65398400404e-08
5.05473103428e-14
-5.50253234441e-09
8.38690346198e-10
-9.35366431361e-10
-1.07613922773e-09
)
;
    }
    floatingObject
    {
        type            calculated;
        value           uniform 0;
    }
    procBoundary6to3
    {
        type            processor;
        value           nonuniform List<scalar> 8(0.000288337391327 0.000144183256514 5.73305761111e-05 1.34400343622e-05 -4.983757524e-07 1.80417416216e-05 1.37439800007e-05 -6.64344295011e-09);
    }
    procBoundary6to7
    {
        type            processor;
        value           nonuniform List<scalar> 
11
(
9.25763815071e-05
8.22330500431e-05
7.35221650543e-05
6.61816497834e-05
5.98298577399e-05
5.35860835033e-05
0.000237143273208
0.000239610624409
6.55453295228e-05
5.66811197499e-05
4.66493139043e-05
)
;
    }
    procBoundary6to8
    {
        type            processor;
        value           nonuniform List<scalar> 
16
(
0.000291028717794
0.000149905183228
0.000191536604422
0.000179359763254
0.000166719313061
0.000154445610374
0.000144946790261
0.000137226948033
0.000131586513804
0.00012730075871
0.000124922898755
0.000123421511015
0.000121653647753
0.000117825045769
0.000111264475851
0.000102695438904
)
;
    }
    procBoundary6to9
    {
        type            processor;
        value           nonuniform List<scalar> 4(0.000281837635579 0.000167456798353 -1.38517578188e-08 -4.6360378243e-10);
    }
}


// ************************************************************************* //
