/*--------------------------------*- C++ -*----------------------------------*\
| =========                 |                                                 |
| \\      /  F ield         | OpenFOAM: The Open Source CFD Toolbox           |
|  \\    /   O peration     | Version:  v2012                                 |
|   \\  /    A nd           | Website:  www.openfoam.com                      |
|    \\/     M anipulation  |                                                 |
\*---------------------------------------------------------------------------*/
FoamFile
{
    version     2.0;
    format      ascii;
    class       surfaceVectorField;
    location    "6";
    object      Uf;
}
// * * * * * * * * * * * * * * * * * * * * * * * * * * * * * * * * * * * * * //

dimensions      [0 1 -1 0 0 0 0];


internalField   nonuniform List<vector> 
293
(
(-0.0343089854756 -0.0279646133948 4.11086973567e-18)
(-0.029693690302 -0.0184930498252 3.88487905871e-18)
(-0.0148187029992 -0.0421527704494 3.1020939223e-18)
(-0.014640811767 -0.037280035781 3.28821152785e-18)
(-0.00447845113561 -0.0478982290097 2.1626063718e-18)
(-0.00571263272767 -0.0476720631777 2.40383554576e-18)
(0.000163286523478 -0.0496599495175 1.56426313069e-18)
(-0.000920380449762 -0.0501229929348 1.8267698647e-18)
(-0.000589523915657 -0.0499746236406 1.24181447461e-18)
(0.000413082866014 -0.0502567309217 1.40015927383e-18)
(-0.00497700464784 -0.0529626198308 1.09631615572e-18)
(-0.0011695889963 -0.0415212529491 1.24395546657e-18)
(-0.00833128602424 -0.0651364707151 9.85998301294e-19)
(-0.0041082482162 -0.0530676865063 1.15700936216e-18)
(-0.00720388542883 -0.0684250596436 1.03441474142e-18)
(-0.0128716293349 -0.030030270871 3.06222085089e-18)
(0.000332400316946 -0.0200475063065 3.22659727238e-18)
(-0.0058234601951 -0.044967223729 2.58995315132e-18)
(0.00029243920453 -0.0386144075258 2.90810868164e-18)
(-0.0023433370967 -0.0507591290198 2.06799903867e-18)
(7.6921558893e-05 -0.0497945960335 2.29038275597e-18)
(-0.00142279909806 -0.0513053473169 1.66266600784e-18)
(-0.00037566007632 -0.0526428615933 1.83610833524e-18)
(-0.00122404934975 -0.0497966101216 1.40230026579e-18)
(-0.00109642945775 -0.0540491568475 1.4858320377e-18)
(-0.00159683420376 -0.0516574774156 1.30464867301e-18)
(0.000691049450128 -0.045883408305 1.34889619951e-18)
(-0.00234333676478 -0.0558685874162 1.20542580229e-18)
(0.000105035215723 -0.05745908186 1.34195439941e-18)
(-0.00217818205982 -0.0616457595058 1.13167281425e-18)
(0.0137471174476 -0.0301110769029 3.07248510312e-18)
(0.0304369627644 -0.018466044139 3.91950562121e-18)
(0.00659497690511 -0.045395480981 2.60853828629e-18)
(0.0155716393696 -0.0373587542982 3.30744503043e-18)
(0.00243877406504 -0.0524048721382 2.05849205254e-18)
(0.0070827239132 -0.0484026436502 2.42538943464e-18)
(0.000316108000342 -0.0552775979273 1.6592743651e-18)
(0.00249477234046 -0.0528805550774 1.79874926731e-18)
(0.000995034004531 -0.0582094394645 1.43242797141e-18)
(0.00183422382353 -0.0578810627704 1.42481441215e-18)
(-0.000149449125305 -0.0611985732727 1.38620192592e-18)
(0.00367971165011 -0.0477031669309 1.25513812926e-18)
(-0.000510415064831 -0.0582418800169 1.26820141137e-18)
(-0.00283554385625 -0.0616767310588 1.1726492171e-18)
(0.00317158286193 -0.06938250359 9.81505472421e-19)
(0.0351433554543 -0.0277890446152 4.15446554852e-18)
(0.0163541739347 -0.0422156592958 3.12429617878e-18)
(0.00727141827417 -0.0491124679072 2.16564664941e-18)
(0.0139740655707 -0.0440762121467 2.80381573229e-18)
(0.00442421761802 -0.0532931073687 1.56428931436e-18)
(0.00667206775105 -0.0491409524566 1.73782796934e-18)
(0.00566775052315 -0.0577559804788 1.24752456999e-18)
(0.00629545748372 -0.0563967862051 1.22149658449e-18)
(0.00328123174815 -0.0621624878027 1.04158542045e-18)
(0.00808583334456 -0.0434180273149 1.01357185729e-18)
(0.000385168974193 -0.0703635846613 8.8595327815e-19)
(0.00536517095423 -0.0581228175149 8.55939666396e-19)
(0.00555020745805 -0.0820955382098 7.61584472414e-19)
(0.0127072903668 -0.0434596352403 2.37599705222e-18)
(0.0190998010009 -0.0396646061171 3.00828623962e-18)
(0.00907479963992 -0.0487747393678 1.39503523946e-18)
(0.0119829535073 -0.0443003234177 1.52303062393e-18)
(0.00955369491378 -0.0544590231745 9.87543871786e-19)
(0.0119777444321 -0.0524372261082 9.1119603086e-19)
(0.0120647783207 -0.0577730118496 8.27926103237e-19)
(0.0113994747593 -0.0384187264848 7.1090327121e-19)
(0.0108616526038 -0.0720586107007 7.3157086066e-19)
(0.0196410422755 -0.0518226205429 6.26348547176e-19)
(0.00898952689025 -0.0798873618101 5.52856827815e-19)
(0.0182519084778 -0.0393740262744 2.15531981133e-18)
(0.0225739680012 -0.0357677631837 2.41657049623e-18)
(0.0144236691647 -0.0443393066598 1.03919141533e-18)
(0.0169435495188 -0.0395233294362 1.07694718507e-18)
(0.0127442851487 -0.04918665887 6.34555430284e-19)
(0.016822939545 -0.0467754673616 5.54009400151e-19)
(0.0167804285523 -0.0506649916614 5.09325715149e-19)
(0.0128773615328 -0.0332055092232 4.04789290557e-19)
(0.0177909522867 -0.0586131842511 4.47634514331e-19)
(0.027587591277 -0.0470188816626 3.53331887381e-19)
(0.0175727412317 -0.0702863855801 3.09108861672e-19)
(0.021298675574 -0.0353178957873 1.33819786997e-18)
(0.0245214937653 -0.0324714380448 1.31250788741e-18)
(0.0187208570832 -0.0390927418073 5.91765169891e-19)
(0.0207137811307 -0.0352942335961 5.49628959869e-19)
(0.0160415298328 -0.0427010581597 3.24243260424e-19)
(0.0204291974605 -0.0411833084732 2.57163954847e-19)
(0.0216179789199 -0.0449937604914 2.48795462789e-19)
(0.0151695880664 -0.028865101321 1.74134921687e-19)
(0.0258221533951 -0.0522822554029 2.14806234721e-19)
(0.0348804211122 -0.0446348134448 1.46836733259e-19)
(0.0284527178536 -0.0704475506749 1.26209363627e-19)
(0.0236541720757 -0.0322829091622 5.23938977315e-19)
(0.0258910986526 -0.030248100516 4.77280531409e-19)
(0.0219578641839 -0.0350406650988 2.15027744826e-19)
(0.0234675229567 -0.0325166898429 1.81192137251e-19)
(0.0195986046772 -0.0377396027197 1.0705561611e-19)
(0.023126413945 -0.0380730349883 7.48081597983e-20)
(0.0303246880011 -0.0422444345984 7.21761921563e-20)
(0.0196740762893 -0.0266705560434 4.03419989332e-20)
(0.0376391383389 -0.0588846571762 5.82398621646e-20)
(0.0515207728237 -0.0426307987684 1.12354643555e-20)
(0.0368378164139 -0.0731710806655 9.31116328303e-21)
(0.0256386853478 -0.0303497116465 1.34533691345e-19)
(0.0272311899264 -0.028683305539 1.19124054004e-19)
(0.0247232725067 -0.0332733287321 4.0972552224e-20)
(0.0263880998707 -0.030731139542 2.59151867902e-20)
(0.0230468306913 -0.0365839758272 8.09454262118e-21)
(0.0264358140422 -0.0368050059285 -8.9792894574e-21)
(0.0408017095308 -0.0402195996053 -2.05987288676e-20)
(0.0233095066163 -0.0261377885856 -2.35216518663e-20)
(0.0506068577062 -0.0582595822377 -3.76932345261e-20)
(0.0695583208146 -0.0404724091923 -5.31510328364e-20)
(0.0429361412835 -0.0641662406488 -4.61103201515e-20)
(0.02780159471 -0.029173670984 1.05055494487e-20)
(0.02894208807 -0.0275199023059 9.72152398559e-21)
(0.0278215709821 -0.0322218510345 -2.40366548912e-20)
(0.0294343240349 -0.0290799708773 -3.21872020379e-20)
(0.026167224331 -0.0357112071673 -4.05954839448e-20)
(0.0299243987876 -0.0351261004933 -5.14773292752e-20)
(0.048933899005 -0.0379776772621 -5.6073955835e-20)
(0.0255758522885 -0.0252686661539 -6.12766598898e-20)
(0.0607637266845 -0.0464223079276 -6.15681184618e-20)
(0.078005189284 -0.0381003596433 -7.94084190248e-20)
(0.0489316907875 -0.0464591239024 -6.74070492336e-20)
(0.0301231906692 -0.0280270755611 -3.2971227501e-20)
(0.0306383613484 -0.0265970712061 -2.41270438182e-20)
(0.0308322257301 -0.030535453664 -5.9627876422e-20)
(0.0319416866238 -0.027320369038 -6.28383161777e-20)
(0.0284618785712 -0.0330585829439 -7.21585052202e-20)
(0.0324471391515 -0.0319541178142 -8.10045297048e-20)
(0.0516542973147 -0.0338981346828 -8.46111230795e-20)
(0.0264153130052 -0.0230574976677 -9.14012898402e-20)
(0.0647347359666 -0.0327185530636 -8.52473497966e-20)
(0.0768302446592 -0.0350677374021 -1.04174205942e-19)
(0.0540531639163 -0.0360309856778 -8.52667317711e-20)
(0.0319481230064 -0.0267429566054 -5.39941324949e-20)
(0.0319105145349 -0.0258949632159 -3.87286594142e-20)
(0.032709775657 -0.0280148456998 -8.42149694606e-20)
(0.0332131772502 -0.0259844242044 -7.7776131317e-20)
(0.0298618919851 -0.0285275456408 -1.00247314325e-19)
(0.0329596764117 -0.029256908169 -9.95224599517e-20)
(0.0529401640959 -0.0294834582586 -1.10964372703e-19)
(0.0273711886147 -0.021230522016 -1.12061200926e-19)
(0.0663385463939 -0.0330378617182 -1.04193587917e-19)
(0.0803861991302 -0.0327963910268 -1.19014446184e-19)
(0.0554093408279 -0.0343716944267 -9.52623186155e-20)
(0.0330427523835 -0.0260834407204 -6.25106582363e-20)
(0.0330011482855 -0.0255247059264 -4.17226052286e-20)
(0.0333390911466 -0.0268501825442 -9.30836218081e-20)
(0.0339797543469 -0.0255263691698 -8.33481252607e-20)
(0.0304966031936 -0.0269155955088 -1.11336346553e-19)
(0.0330249862165 -0.0289297892438 -1.05138853626e-19)
(0.0553996005321 -0.0279153995716 -1.20111274407e-19)
(0.0283709668176 -0.0213193056349 -1.1789188691e-19)
(0.0694213405403 -0.0325280341497 -1.10083176883e-19)
(0.0850007220041 -0.0315625072883 -1.30321761519e-19)
(0.0561266419086 -0.0294243308399 -1.02720522144e-19)
(0.0340493581541 -0.0258563523755 -6.2560072253e-20)
(0.0341658968722 -0.0252870440119 -3.78536467878e-20)
(0.0340459396718 -0.0268811171499 -9.54033570782e-20)
(0.0350042825851 -0.0253872723768 -7.37479508232e-20)
(0.0311333111562 -0.0277904064817 -1.11694393983e-19)
(0.033934131618 -0.0291609272673 -9.36146153315e-20)
(0.0565606099047 -0.0279405312507 -1.28102374022e-19)
(0.0285210466019 -0.0216004991276 -1.07846374384e-19)
(0.0713787869907 -0.0250004521083 -1.2295910678e-19)
(0.0820632876932 -0.0307813466626 -1.24739890721e-19)
(0.0582493956287 -0.0258198781209 -9.8565699867e-20)
(0.0351597456818 -0.0255172731544 -4.9041525358e-20)
(0.0353458648629 -0.0248460069758 -3.03550002301e-20)
(0.0351526369654 -0.0264839039268 -7.19592090765e-20)
(0.0359704610562 -0.0248127912816 -5.45717950373e-20)
(0.0317479308404 -0.0276364267634 -8.97665957326e-20)
(0.035086430511 -0.0279813611107 -7.04398558415e-20)
(0.0549817198837 -0.0278334665508 -1.04483891082e-19)
(0.0287180467529 -0.0205672107784 -7.95340477626e-20)
(0.0698130475824 -0.0255085304655 -1.00346483808e-19)
(0.079738733006 -0.0305912439258 -9.13587487851e-20)
(0.0602219980139 -0.0336210407398 -7.36395687098e-20)
(0.0360939125044 -0.0246266648082 -3.58852699094e-20)
(0.036400198482 -0.0239130190655 -2.1039409644e-20)
(0.0359986738808 -0.0251423637285 -5.30524418022e-20)
(0.0364855231894 -0.0235945353554 -3.59466166921e-20)
(0.0326346836496 -0.0258098768335 -6.02073078714e-20)
(0.0357536654484 -0.0256529768147 -4.80366715996e-20)
(0.0564565188008 -0.0276849132433 -6.64089054652e-20)
(0.0305930521687 -0.0187623047975 -4.96965242969e-20)
(0.0718247123497 -0.0365426541204 -6.4651833687e-20)
(0.0885952825907 -0.030862780183 -5.64189813062e-20)
(0.0622386537484 -0.0477107516406 -4.04284402559e-20)
(0.0367285271704 -0.0232610743138 -2.11007564267e-20)
(0.0373994834547 -0.0224362191544 -1.35817186658e-20)
(0.0362356067772 -0.0233986129139 -3.09308464894e-20)
(0.0366222726077 -0.0220105695355 -2.09980227056e-20)
(0.0340699034806 -0.0235214092618 -3.75258880251e-20)
(0.0358761557888 -0.0235481065426 -3.00816435074e-20)
(0.0642415811353 -0.0271344330661 -3.97066001379e-20)
(0.0342060522482 -0.0173440149507 -3.29767868975e-20)
(0.0792818835938 -0.0455042716734 -3.21955878751e-20)
(0.106963291963 -0.0302167915572 -3.54631655602e-20)
(0.0674026776448 -0.0559291926349 -2.18428784408e-20)
(0.0372433279585 -0.0215916439114 -1.34789849447e-20)
(0.038444690544 -0.0205091123869 -8.23818162605e-21)
(0.0362172028957 -0.0217420442017 -2.01488197236e-20)
(0.0367719336723 -0.020291349063 -1.68312224803e-20)
(0.0358715321609 -0.0219479122052 -2.55325423799e-20)
(0.0360817592458 -0.022191915094 -2.17444129465e-20)
(0.0762069460044 -0.025745689512 -2.87333523199e-20)
(0.0380038026733 -0.0166286436173 -2.61427385361e-20)
(0.094240540097 -0.0466910382386 -2.51104561259e-20)
(0.127906099633 -0.0285858489206 -2.69916918225e-20)
(0.0730290749689 -0.0527054106926 -2.26894397091e-20)
(0.0379149851546 -0.0196189198827 -1.15904191617e-20)
(0.0395430306685 -0.0183870155042 -7.32922368414e-21)
(0.036548388202 -0.0201326479431 -1.84268157032e-20)
(0.0372851050072 -0.0185737893056 -1.3165590286e-20)
(0.0379458270469 -0.0208151525194 -2.23546091027e-20)
(0.0367640781903 -0.0213355363179 -1.54208997785e-20)
(0.0878836254429 -0.024468617142 -2.44010780387e-20)
(0.0416572429662 -0.016601336435 -1.92825489981e-20)
(0.106617716224 -0.0411576391967 -2.45706754057e-20)
(0.144592946025 -0.0272712468548 -1.83509442062e-20)
(0.0749473500866 -0.0451487296245 -1.13844237103e-20)
(0.0389495990368 -0.017689781331 -8.9043948085e-21)
(0.0407837897086 -0.0164432222018 -6.28006845404e-21)
(0.0374987308628 -0.0189082566558 -1.01596743613e-20)
(0.0385032548097 -0.0171944055809 -1.04272625977e-20)
(0.0403059358059 -0.0203184579242 -1.23488396739e-20)
(0.0381741800645 -0.0210677111866 -1.05623667687e-20)
(0.0973841023493 -0.0238938460805 -1.32324151656e-20)
(0.0452325885813 -0.0172580299174 -1.45271543358e-20)
(0.112137178066 -0.0377897496343 -5.16469251082e-21)
(0.158488333856 -0.0264669538231 -1.40943749265e-20)
(0.0749352689213 -0.0402690576796 -7.37770025526e-21)
(0.0404756065561 -0.0161795695098 -7.80293624327e-21)
(0.0422586293696 -0.0148015749801 -4.2912261741e-21)
(0.0392692205295 -0.0182647551187 -1.08299550052e-20)
(0.0405883177728 -0.0161322384278 -7.35184602087e-21)
(0.0430459810771 -0.0204888783781 -1.27406814306e-20)
(0.0403982690268 -0.0208573568481 -1.01772845299e-20)
(0.105650487932 -0.0238320392201 -1.53891140967e-20)
(0.0485756968719 -0.0180427429628 -1.64217363541e-20)
(0.120073861159 -0.0356502708632 -1.6307382671e-20)
(0.170307212691 -0.025853625633 -1.7120649835e-20)
(0.0744250376592 -0.0357334984306 -7.07353593391e-21)
(0.0424186445226 -0.0149353211078 -3.8401359517e-21)
(0.0439586471039 -0.0133810419387 -3.29455871239e-21)
(0.0417736792339 -0.0173630775512 -6.69917554563e-21)
(0.0430161736576 -0.0151230455953 -3.99578165861e-21)
(0.0460946723561 -0.0202975912109 -1.38583394535e-20)
(0.0433328263162 -0.0201278244212 -1.08085918664e-20)
(0.112648174516 -0.0239110328989 -1.81532720925e-20)
(0.052189100834 -0.0183398735211 -1.68671517774e-20)
(0.124509420153 -0.0335190542084 -7.88680309792e-21)
(0.17991520339 -0.0245709793129 -1.73898955484e-20)
(0.0707399663492 -0.0297049225049 -4.68615596054e-22)
(0.0445266403491 -0.0137221626651 -3.45020441929e-21)
(0.0457174941738 -0.0120588526989 -2.77052013712e-21)
(0.0445514245095 -0.0162227564391 -8.1051979794e-21)
(0.0455169702665 -0.014014434713 -5.45528065118e-21)
(0.0493317418694 -0.0193282871862 -1.38174041904e-20)
(0.046438471982 -0.018924353236 -9.1420912367e-21)
(0.118539539561 -0.0227618102573 -1.61037752334e-20)
(0.0556225556724 -0.0180723140031 -1.48564672051e-20)
(0.12558265005 -0.0296144882106 -9.97170804652e-21)
(0.186765048464 -0.0214328343649 -1.58764706404e-20)
(0.0641377778711 -0.0188214605905 -5.51895867037e-21)
(0.0466270616704 -0.012420723433 -4.77559636901e-21)
(0.0472703757755 -0.014824903903 -6.49217390849e-21)
(0.0523522224737 -0.0176702329176 -1.01811542514e-20)
(0.0492839774835 -0.0173082785691 -3.4789746725e-21)
(0.121279244358 -0.02031994782 -1.46291626121e-20)
(0.0582721988483 -0.0174906482146 -1.17638176753e-20)
(0.12243974999 -0.0163742725829 -1.14237212642e-20)
(0.182817112707 -0.012292740002 -1.38943389677e-20)
(0.0613185944764 0.0343676665023 -7.09076107079e-21)
(0.054677652839 -0.0156681422437 -5.06163809638e-21)
(0.0518512034112 -0.0155305189821 7.47781804143e-22)
(0.102946326589 -0.0162584991548 -1.10289940309e-20)
(0.0588630030118 -0.0166722537896 -6.9969651452e-21)
(0.11064756556 0.0630883728163 -9.56137877428e-21)
(0.103470273683 -0.0088041317329 -8.57226943539e-21)
(0.0831154742681 0.0686227839634 6.57456037386e-21)
(0.0561524833351 -0.0137654236227 -1.18754524468e-21)
(0.0542911282236 -0.0136877983366 4.13192747636e-21)
(0.069273299391 -0.0146825416969 -4.54024054967e-21)
(0.0597795888123 -0.0153238184462 -5.6196241855e-21)
(0.0741544007187 0.0277970394879 7.56366971275e-21)
(0.0609899642213 -0.0126917823218 -5.94344106634e-21)
(0.0579965147975 0.0310368575041 1.32838791597e-21)
(0.0580110344069 -0.0114559107259 -3.00151464457e-22)
(0.0587713507804 -0.0134568037927 -7.02282470217e-21)
(0.0541737718346 -0.00862848341195 -1.21787228631e-20)
)
;

boundaryField
{
    back
    {
        type            calculated;
        value           uniform (0 0 0);
    }
    sides
    {
        type            calculated;
        value           nonuniform List<vector> 0();
    }
    bottom
    {
        type            calculated;
        value           nonuniform List<vector> 0();
    }
    front
    {
        type            calculated;
        value           uniform (0 0 0);
    }
    atmosphere
    {
        type            calculated;
        value           nonuniform List<vector> 
27
(
(0 -0.0691784300932 0)
(0 -0.0608968705709 0)
(0 -0.0636071674302 0)
(0 -0.0727429001061 0)
(0 -0.0754898585575 0)
(0 -0.0671958505058 0)
(0 -0.0631672942844 0)
(0 -0.0672708246865 0)
(0 -0.0643564103443 0)
(0 -0.0524204709861 0)
(0 -0.0378446948888 0)
(0 -0.0343958237375 0)
(0 -0.0332473333095 0)
(0 -0.0271258500582 0)
(0 -0.0274817446298 0)
(0 -0.0385584309306 0)
(0 -0.0506667611292 0)
(0 -0.0523152242983 0)
(0 -0.0430740280485 0)
(0 -0.03777724299 0)
(0 -0.0351405795554 0)
(0 -0.0298337997868 0)
(0 -0.0230099623216 0)
(0 -0.013553508528 0)
(0.0741897198463 0.0412905109853 -6.75969817611e-21)
(0.0689982980391 0.0529148196851 1.99088189238e-20)
(0.05147623081 0.00903372480009 -1.72520430919e-20)
)
;
    }
    floatingObject
    {
        type            calculated;
        value           nonuniform List<vector> 4((0 0 0) (0 0 0) (-1.04083408559e-16 0 0) (0 0 0));
    }
    procBoundary6to3
    {
        type            processor;
        value           nonuniform List<vector> 8((-0.0576541805483 -0.0317642584031 6.70684464411e-18) (-0.0288252441725 -0.0360274579261 4.63944541795e-18) (-0.0114555575641 -0.0443769701309 2.79789915921e-18) (-0.00268076927092 -0.0486227364066 1.73980326256e-18) (9.89504825112e-05 -0.0529849001547 1.21918287296e-18) (-0.00415752010037 -0.043130231397 1.01931542384e-18) (-0.016281728242 -0.0560263230953 9.12790287937e-19) (-0.0112479114707 -0.0733637288049 8.13743424485e-19));
    }
    procBoundary6to7
    {
        type            processor;
        value           nonuniform List<vector> 
11
(
(0.0395299317016 -0.0185186557173 -5.16786716387e-21)
(0.040774160605 -0.0164479750572 -5.87026796827e-21)
(0.0420190746556 -0.0147043780229 -3.48510260161e-21)
(0.0433490649241 -0.0132354906568 -2.79074129006e-21)
(0.0447856146133 -0.0119638708709 -1.83120824368e-21)
(0.0462573741552 -0.0107142155508 -2.13758516853e-21)
(0.0474248167712 -0.0106889803724 -3.0195251744e-21)
(0.0479215961729 -0.0126980380903 -5.94225814863e-21)
(0.0497848217046 -0.0131016312303 -2.92905891264e-21)
(0.0520708169349 -0.011326949328 2.34916120401e-23)
(0.0541774831742 -0.00931622837614 3.53631976199e-21)
)
;
    }
    procBoundary6to8
    {
        type            processor;
        value           nonuniform List<vector> 
16
(
(0.0582178829979 -0.0314923629645 6.71980499143e-18)
(0.0299909706566 -0.0356471980136 4.64913944522e-18)
(0.0236552351346 -0.0383222883152 4.32865899873e-18)
(0.0269729192165 -0.0358871904582 4.04187417003e-18)
(0.0266821182173 -0.0333576742267 2.64534345667e-18)
(0.0267183217838 -0.0309018856925 1.08479005352e-18)
(0.0270522317265 -0.0290005962733 3.08011599965e-19)
(0.0278484641561 -0.0274566840044 5.96741320036e-20)
(0.0290485483229 -0.0263274729966 -2.56884663709e-21)
(0.0303380116167 -0.0254694820937 -2.146134908e-20)
(0.0315815036299 -0.024992469834 -2.91874984724e-20)
(0.0328111137977 -0.0246913023764 -2.7649293387e-20)
(0.0341051252337 -0.0243364546728 -2.50096310434e-20)
(0.0354714874863 -0.02357080844 -1.78817389908e-20)
(0.0368496306166 -0.0222593456323 -1.22206796366e-20)
(0.0382188425491 -0.0205442210497 -7.64814016818e-21)
)
;
    }
    procBoundary6to9
    {
        type            processor;
        value           nonuniform List<vector> 4((0.0564328715186 -0.0117801203243 1.1280846001e-21) (0.0617806840603 -0.013560351257 -7.13464117785e-21) (0.0561600106697 -0.0117877791878 -7.23636295153e-21) (0.0403331516343 -0.00334884829225 -7.45100833487e-21));
    }
}


// ************************************************************************* //
