/*--------------------------------*- C++ -*----------------------------------*\
| =========                 |                                                 |
| \\      /  F ield         | OpenFOAM: The Open Source CFD Toolbox           |
|  \\    /   O peration     | Version:  v2012                                 |
|   \\  /    A nd           | Website:  www.openfoam.com                      |
|    \\/     M anipulation  |                                                 |
\*---------------------------------------------------------------------------*/
FoamFile
{
    version     2.0;
    format      ascii;
    class       volScalarField;
    location    "0.2";
    object      k;
}
// * * * * * * * * * * * * * * * * * * * * * * * * * * * * * * * * * * * * * //

dimensions      [0 2 -2 0 0 0 0];


internalField   nonuniform List<scalar> 
164
(
0.0565124289849
0.0628642256248
0.0636076059366
0.0637244317642
0.0637833096195
0.0638452661903
0.0638221604827
0.0628629722017
0.0593981307295
0.0587508017537
0.0590796977039
0.0601259084689
0.063435286264
0.0653103046066
0.0565754485254
0.0629132171957
0.0636550277356
0.0637726536062
0.0638361223155
0.0639126734821
0.0640101641489
0.0640885284243
0.064035469533
0.0641654984126
0.0644376521976
0.0648532547866
0.0654288820764
0.0659335473929
0.0566393054879
0.0629686092236
0.0637061177607
0.0638219390567
0.06388505753
0.0639616695738
0.0640645744363
0.0642052250027
0.0643744279162
0.0645763075588
0.0648190683639
0.0651166475912
0.0654627830737
0.0658233062704
0.0567008312339
0.0630268630878
0.0637569061108
0.0638690275391
0.0639292466552
0.064001467298
0.0640962218459
0.0642209307911
0.0643783327829
0.0645607356462
0.0647721987831
0.0650199636365
0.0653061934536
0.0656284710416
0.0567572928197
0.0630844876653
0.0638042496495
0.0639112651935
0.0639672024298
0.0640333692454
0.0641183024253
0.0642262249816
0.0643600431397
0.0645171899662
0.0646995031435
0.064911164258
0.0651560351447
0.0654387416172
0.0568066374225
0.0631384757917
0.0638459322642
0.0639469613652
0.0639979473451
0.0640575084807
0.0641327386752
0.0642263327199
0.0643403385
0.0644746460791
0.0646305045943
0.0648106916251
0.0650188549918
0.0652612097098
0.0568475929258
0.0631865854765
0.0638806082466
0.0639752490084
0.0640210623675
0.0640739783164
0.0641400066368
0.0642209883836
0.0643182939835
0.0644325902947
0.0645648365697
0.0647172487972
0.0648928815479
0.0650977098289
0.0568795841981
0.0632273763649
0.0639076673672
0.0639959064035
0.0640366127322
0.0640831247506
0.064140610013
0.0642103540105
0.0642932673181
0.0643901612407
0.064501701214
0.0646298602312
0.064776646222
0.0649451977653
0.0569026055647
0.0632601616885
0.063927083463
0.0640091825875
0.0640450251677
0.0640855310842
0.0641352121219
0.0641949619113
0.0642653552382
0.0643471469194
0.0644410479076
0.0645481023521
0.0646685794789
0.0648037373461
0.0569172968675
0.063284888274
0.0639392406917
0.0640156399236
0.0640469665346
0.0640819539489
0.0641245803552
0.0641755127859
0.0642351800092
0.0643040110874
0.0643824205917
0.0644702115319
0.0645678854285
0.0646759299884
0.0569251826442
0.0633012331541
0.0639446088304
0.0640159848301
0.0640432256122
0.0640732714056
0.064109660701
0.0641528967479
0.0642032017094
0.0642605857745
0.0643252456455
0.0643970617568
0.0644759693641
0.0645618787752
0.0641696983753
0.0642173372925
0.0642705232123
0.0643290204496
0.0643925057934
0.0644605810916
0.0642660077337
0.0643169546998
0.0643708158414
0.0642912741614
)
;

boundaryField
{
    back
    {
        type            kqRWallFunction;
        value           nonuniform List<scalar> 
164
(
0.0565124289849
0.0628642256248
0.0636076059366
0.0637244317642
0.0637833096195
0.0638452661903
0.0638221604827
0.0628629722017
0.0593981307295
0.0587508017537
0.0590796977039
0.0601259084689
0.063435286264
0.0653103046066
0.0565754485254
0.0629132171957
0.0636550277356
0.0637726536062
0.0638361223155
0.0639126734821
0.0640101641489
0.0640885284243
0.064035469533
0.0641654984126
0.0644376521976
0.0648532547866
0.0654288820764
0.0659335473929
0.0566393054879
0.0629686092236
0.0637061177607
0.0638219390567
0.06388505753
0.0639616695738
0.0640645744363
0.0642052250027
0.0643744279162
0.0645763075588
0.0648190683639
0.0651166475912
0.0654627830737
0.0658233062704
0.0567008312339
0.0630268630878
0.0637569061108
0.0638690275391
0.0639292466552
0.064001467298
0.0640962218459
0.0642209307911
0.0643783327829
0.0645607356462
0.0647721987831
0.0650199636365
0.0653061934536
0.0656284710416
0.0567572928197
0.0630844876653
0.0638042496495
0.0639112651935
0.0639672024298
0.0640333692454
0.0641183024253
0.0642262249816
0.0643600431397
0.0645171899662
0.0646995031435
0.064911164258
0.0651560351447
0.0654387416172
0.0568066374225
0.0631384757917
0.0638459322642
0.0639469613652
0.0639979473451
0.0640575084807
0.0641327386752
0.0642263327199
0.0643403385
0.0644746460791
0.0646305045943
0.0648106916251
0.0650188549918
0.0652612097098
0.0568475929258
0.0631865854765
0.0638806082466
0.0639752490084
0.0640210623675
0.0640739783164
0.0641400066368
0.0642209883836
0.0643182939835
0.0644325902947
0.0645648365697
0.0647172487972
0.0648928815479
0.0650977098289
0.0568795841981
0.0632273763649
0.0639076673672
0.0639959064035
0.0640366127322
0.0640831247506
0.064140610013
0.0642103540105
0.0642932673181
0.0643901612407
0.064501701214
0.0646298602312
0.064776646222
0.0649451977653
0.0569026055647
0.0632601616885
0.063927083463
0.0640091825875
0.0640450251677
0.0640855310842
0.0641352121219
0.0641949619113
0.0642653552382
0.0643471469194
0.0644410479076
0.0645481023521
0.0646685794789
0.0648037373461
0.0569172968675
0.063284888274
0.0639392406917
0.0640156399236
0.0640469665346
0.0640819539489
0.0641245803552
0.0641755127859
0.0642351800092
0.0643040110874
0.0643824205917
0.0644702115319
0.0645678854285
0.0646759299884
0.0569251826442
0.0633012331541
0.0639446088304
0.0640159848301
0.0640432256122
0.0640732714056
0.064109660701
0.0641528967479
0.0642032017094
0.0642605857745
0.0643252456455
0.0643970617568
0.0644759693641
0.0645618787752
0.0641696983753
0.0642173372925
0.0642705232123
0.0643290204496
0.0643925057934
0.0644605810916
0.0642660077337
0.0643169546998
0.0643708158414
0.0642912741614
)
;
    }
    sides
    {
        type            kqRWallFunction;
        value           nonuniform List<scalar> 0();
    }
    bottom
    {
        type            kqRWallFunction;
        value           nonuniform List<scalar> 
11
(
0.0565124289849
0.0565754485254
0.0566393054879
0.0567008312339
0.0567572928197
0.0568066374225
0.0568475929258
0.0568795841981
0.0569026055647
0.0569172968675
0.0569251826442
)
;
    }
    front
    {
        type            kqRWallFunction;
        value           nonuniform List<scalar> 
164
(
0.0565124289849
0.0628642256248
0.0636076059366
0.0637244317642
0.0637833096195
0.0638452661903
0.0638221604827
0.0628629722017
0.0593981307295
0.0587508017537
0.0590796977039
0.0601259084689
0.063435286264
0.0653103046066
0.0565754485254
0.0629132171957
0.0636550277356
0.0637726536062
0.0638361223155
0.0639126734821
0.0640101641489
0.0640885284243
0.064035469533
0.0641654984126
0.0644376521976
0.0648532547866
0.0654288820764
0.0659335473929
0.0566393054879
0.0629686092236
0.0637061177607
0.0638219390567
0.06388505753
0.0639616695738
0.0640645744363
0.0642052250027
0.0643744279162
0.0645763075588
0.0648190683639
0.0651166475912
0.0654627830737
0.0658233062704
0.0567008312339
0.0630268630878
0.0637569061108
0.0638690275391
0.0639292466552
0.064001467298
0.0640962218459
0.0642209307911
0.0643783327829
0.0645607356462
0.0647721987831
0.0650199636365
0.0653061934536
0.0656284710416
0.0567572928197
0.0630844876653
0.0638042496495
0.0639112651935
0.0639672024298
0.0640333692454
0.0641183024253
0.0642262249816
0.0643600431397
0.0645171899662
0.0646995031435
0.064911164258
0.0651560351447
0.0654387416172
0.0568066374225
0.0631384757917
0.0638459322642
0.0639469613652
0.0639979473451
0.0640575084807
0.0641327386752
0.0642263327199
0.0643403385
0.0644746460791
0.0646305045943
0.0648106916251
0.0650188549918
0.0652612097098
0.0568475929258
0.0631865854765
0.0638806082466
0.0639752490084
0.0640210623675
0.0640739783164
0.0641400066368
0.0642209883836
0.0643182939835
0.0644325902947
0.0645648365697
0.0647172487972
0.0648928815479
0.0650977098289
0.0568795841981
0.0632273763649
0.0639076673672
0.0639959064035
0.0640366127322
0.0640831247506
0.064140610013
0.0642103540105
0.0642932673181
0.0643901612407
0.064501701214
0.0646298602312
0.064776646222
0.0649451977653
0.0569026055647
0.0632601616885
0.063927083463
0.0640091825875
0.0640450251677
0.0640855310842
0.0641352121219
0.0641949619113
0.0642653552382
0.0643471469194
0.0644410479076
0.0645481023521
0.0646685794789
0.0648037373461
0.0569172968675
0.063284888274
0.0639392406917
0.0640156399236
0.0640469665346
0.0640819539489
0.0641245803552
0.0641755127859
0.0642351800092
0.0643040110874
0.0643824205917
0.0644702115319
0.0645678854285
0.0646759299884
0.0569251826442
0.0633012331541
0.0639446088304
0.0640159848301
0.0640432256122
0.0640732714056
0.064109660701
0.0641528967479
0.0642032017094
0.0642605857745
0.0643252456455
0.0643970617568
0.0644759693641
0.0645618787752
0.0641696983753
0.0642173372925
0.0642705232123
0.0643290204496
0.0643925057934
0.0644605810916
0.0642660077337
0.0643169546998
0.0643708158414
0.0642912741614
)
;
    }
    atmosphere
    {
        type            inletOutlet;
        inletValue      nonuniform List<scalar> 0();
        value           nonuniform List<scalar> 0();
    }
    floatingObject
    {
        type            kqRWallFunction;
        value           nonuniform List<scalar> 4(0.0593981307295 0.0587508017537 0.0590796977039 0.0601259084689);
    }
    procBoundary8to3
    {
        type            processor;
        value           nonuniform List<scalar> 8(0.0564540437706 0.0628255944429 0.0635690648314 0.0636800875995 0.0637171613368 0.063702162733 0.0632035979541 0.0575601931992);
    }
    procBoundary8to6
    {
        type            processor;
        value           nonuniform List<scalar> 
16
(
0.0610487709301
0.0644323674734
0.066272125882
0.06640514229
0.0662374180454
0.0660176460944
0.0657870941148
0.0655600231759
0.0653494637655
0.0651442037195
0.0649609186246
0.0647986291125
0.0646572344338
0.0645345631323
0.0644282511789
0.0643359540077
)
;
    }
    procBoundary8to7
    {
        type            processor;
        value           nonuniform List<scalar> 
17
(
0.0569296054511
0.0633079937567
0.0639434737989
0.0640109834687
0.0640346743291
0.064060336156
0.0640912229211
0.0641276462233
0.0641276462233
0.0641355213017
0.0641749128043
0.0642185118631
0.0642185118631
0.0642078277186
0.0642486598786
0.0642486598786
0.0642206893614
)
;
    }
}


// ************************************************************************* //
