/*--------------------------------*- C++ -*----------------------------------*\
| =========                 |                                                 |
| \\      /  F ield         | OpenFOAM: The Open Source CFD Toolbox           |
|  \\    /   O peration     | Version:  v2012                                 |
|   \\  /    A nd           | Website:  www.openfoam.com                      |
|    \\/     M anipulation  |                                                 |
\*---------------------------------------------------------------------------*/
FoamFile
{
    version     2.0;
    format      ascii;
    class       surfaceScalarField;
    location    "0.2";
    object      phi;
}
// * * * * * * * * * * * * * * * * * * * * * * * * * * * * * * * * * * * * * //

dimensions      [0 3 -1 0 0 0 0];
oriented        oriented;


internalField   nonuniform List<scalar> 
300
(
4.42780086975e-05
-0.000124673259053
9.02162347653e-05
-0.000126089051078
0.000138637667314
-0.000123148846213
0.000192331591146
-0.000116649935371
0.000257682659918
-0.000104892207571
0.000343842571406
-8.30336315618e-05
0.000478154463903
-4.13097166886e-05
0.000696954466375
2.28473263023e-05
0.000845056107417
-0.000148103762765
0.00110213617544
-0.000257081991591
0.00146684200112
-0.000364706612257
0.00201850943757
-0.00055166674895
0.00173973449582
-0.00114606684659
-0.00148792541276
4.59004094984e-05
-0.000170572513513
9.39880377169e-05
-0.000174175510013
0.000145653256887
-0.00017481309587
0.000203991560236
-0.000174987682965
0.000273672854062
-0.000174573557073
0.000364231857356
-0.000173593449013
0.000497659142273
-0.000174738534865
0.000706849176819
-0.000186344724295
0.000860992070795
-0.000302248795215
0.00103442392877
-0.000430515635114
0.00125431027768
-0.000584593861287
0.00150564327714
-0.000802999542783
0.0015110588623
-0.00115148129363
-0.00152300844377
4.56558008961e-05
-0.000216227164967
9.36218057471e-05
-0.000222140382058
0.000145347206814
-0.000226537601764
0.000203712377923
-0.000233352400664
0.000272780245627
-0.000243641586262
0.000358709605252
-0.000259523691999
0.000469936667832
-0.000285967155195
0.000613665574904
-0.000330075629836
0.000741557563217
-0.000430142848955
0.000871444175076
-0.000560403939157
0.0010094511159
-0.000722601751996
0.00114024789024
-0.000933796267185
0.00120391175792
-0.00121514411538
-0.00154186435357
4.34809315241e-05
-0.000259706923198
8.90566162443e-05
-0.000267714946241
0.000137837877897
-0.000275318011007
0.000191994968562
-0.000287509094978
0.000254144280875
-0.000305791104917
0.000327338170083
-0.000332718460305
0.000414170020842
-0.000372800491578
0.000516046976272
-0.000431954450242
0.000612507552855
-0.000526605323074
0.000703405646031
-0.00065130358125
0.000788163570644
-0.000807360584056
0.000857355247076
-0.00100298791905
0.000888359086555
-0.0012461469544
-0.0015312752266
3.96817078863e-05
-0.000299387459955
8.10579920845e-05
-0.000309090139944
0.000124789189319
-0.000319048393039
0.000172264636106
-0.000334984165766
0.000224887260491
-0.000358413912321
0.000283843365359
-0.000391675350887
0.000349362339552
-0.000438320779987
0.000420277856986
-0.000502871602968
0.00048666435098
-0.000592993469548
0.000544418072027
-0.000709058651352
0.000589719182907
-0.000852662497393
0.000614677979521
-0.00102794668504
0.000606780172627
-0.00123824823576
-0.00148268381052
3.4706936414e-05
-0.000334093280494
7.06384306351e-05
-0.000345020614999
0.000108034103659
-0.000356443305521
0.000147598114015
-0.000374547808879
0.000189858520999
-0.000400674439851
0.000234910281974
-0.000436727747171
0.000281933010002
-0.000485344587577
0.00032878503953
-0.000549724979371
0.000369645846649
-0.000633855638208
0.00039981007155
-0.000739223990858
0.000414286562993
-0.000867139655758
0.000405975470987
-0.00101963555894
0.000365654727971
-0.00119792671854
-0.00140190305259
2.90167260764e-05
-0.00036310900642
5.87968027893e-05
-0.000374799793313
8.92434016887e-05
-0.000386889230002
0.000120523001615
-0.000405827062177
0.000152566590357
-0.000432718081627
0.00018483838362
-0.000469000010375
0.000216029670264
-0.000516536701755
0.000243760133551
-0.000577456486502
0.000263863966198
-0.000653960531698
0.000271929045519
-0.000747289942717
0.000262907990973
-0.000858119124666
0.000230224532995
-0.000986952068766
0.00016556636894
-0.00113326793841
-0.00129553526257
2.30225351874e-05
-0.000386130711176
4.6396235835e-05
-0.000398172761836
6.97873061666e-05
-0.000410279747448
9.29701644048e-05
-0.000429009620637
0.000115486608252
-0.000455234531093
0.000136450529339
-0.000489964254319
0.000154357265379
-0.000534444032912
0.000166886193243
-0.000589986176284
0.000170704985794
-0.000657780104352
0.000161871852168
-0.000738457453924
0.000135729486275
-0.000831977144994
8.68156479048e-05
-0.000938038199865
8.59575447825e-06
-0.00105504757892
-0.00118033285114
1.70525651075e-05
-0.000403182662334
3.41127376482e-05
-0.000415232401212
5.07065565572e-05
-0.000426873160251
6.63327992803e-05
-0.00044463563203
8.02963824024e-05
-0.000469198094395
9.15465527651e-05
-0.000501214627357
9.85601622186e-05
-0.000541458040139
9.91716936523e-05
-0.000590598229385
9.05629929063e-05
-0.000649171941687
6.93106818013e-05
-0.000717205588338
3.16649034334e-05
-0.000794331629907
-2.71377562155e-05
-0.000879235506765
-0.000112270882169
-0.000969914111518
-0.00106283915636
1.1317686858e-05
-0.000414499964543
2.24323259641e-05
-0.000426346704249
3.27397983173e-05
-0.000437180367112
4.15542571315e-05
-0.000453449925408
4.80688404336e-05
-0.000475712641212
5.11898505448e-05
-0.000504335746191
4.94225934926e-05
-0.000539691026533
4.08715636817e-05
-0.000582047532169
2.31773753933e-05
-0.000631478095682
-6.46452416896e-06
-0.000687563972005
-5.12585331393e-05
-0.000749537784085
-0.00011481068454
-0.000815683317958
-0.000201094625701
-0.000883629927303
-0.000949664152132
6.03363930656e-06
1.17263519666e-05
1.63501566263e-05
1.918645832e-05
1.93744984334e-05
1.58454739799e-05
7.23960519759e-06
-8.06167796018e-06
-3.20664317598e-05
-0.000607473541659
-6.70330620004e-05
-0.000652597510057
-0.00011551250303
-0.000701058430963
-0.000180163347858
-0.000751032438844
-0.000263778779764
-0.000800014330717
-0.000844426824524
-7.63152857533e-05
-0.00011421766334
-0.00016379930672
-0.000226960904602
-0.000687870812922
-0.000305514830525
-0.000721460306466
-0.000749011094803
-0.000258778894552
-0.000331007140134
-0.000663973197534
)
;

boundaryField
{
    back
    {
        type            calculated;
        value           uniform 0;
    }
    sides
    {
        type            calculated;
        value           nonuniform List<scalar> 0();
    }
    bottom
    {
        type            calculated;
        value           uniform 0;
    }
    front
    {
        type            calculated;
        value           uniform 0;
    }
    atmosphere
    {
        type            calculated;
        value           nonuniform List<scalar> 0();
    }
    floatingObject
    {
        type            calculated;
        value           uniform 0;
    }
    procBoundary8to3
    {
        type            processor;
        value           nonuniform List<scalar> 8(8.03972370392e-05 8.01528325866e-05 7.47291654219e-05 6.29571854488e-05 3.9541397479e-05 -3.12720643651e-06 -9.30042970412e-05 -0.000241650064616);
    }
    procBoundary8to6
    {
        type            processor;
        value           nonuniform List<scalar> 
16
(
0.0014248445234
0.00138448423998
0.00184317776268
0.00154614317828
0.0012227690683
0.000877771402819
0.000558190112891
0.000284875138786
5.91995166103e-05
-0.000106605945692
-0.00022976406117
-0.000314269270167
-0.000369015871626
-0.000400930417981
-0.00041604494821
-0.000419140402741
)
;
    }
    procBoundary8to7
    {
        type            processor;
        value           nonuniform List<scalar> 
17
(
-0.000420533403008
-0.000432039238898
-0.000441804020153
-0.000456286118956
-0.000475900639884
-0.00050080676542
-0.000531085295687
-0.000566746435516
4.81748912758e-05
-0.000579333303711
-0.000614695213529
-0.000651476836251
0.000198747864803
-0.000627839787748
-0.00064923203672
0.000344203886327
-0.000589036712399
)
;
    }
}


// ************************************************************************* //
