/*--------------------------------*- C++ -*----------------------------------*\
| =========                 |                                                 |
| \\      /  F ield         | OpenFOAM: The Open Source CFD Toolbox           |
|  \\    /   O peration     | Version:  v2012                                 |
|   \\  /    A nd           | Website:  www.openfoam.com                      |
|    \\/     M anipulation  |                                                 |
\*---------------------------------------------------------------------------*/
FoamFile
{
    version     2.0;
    format      ascii;
    class       volVectorField;
    location    "0.2";
    object      U;
}
// * * * * * * * * * * * * * * * * * * * * * * * * * * * * * * * * * * * * * //

dimensions      [0 1 -1 0 0 0 0];


internalField   nonuniform List<vector> 
164
(
(-0.0207709910315 0.00530290354143 2.62272640896e-22)
(-0.020753949437 0.0133022821003 -5.28991902598e-23)
(-0.0197433675766 0.0229710179012 -1.00254213457e-23)
(-0.0175202030568 0.0332358940596 1.34210960679e-22)
(-0.0129863043547 0.0450014202277 1.55348855138e-21)
(-0.0042678387496 0.0600550922364 3.74393174043e-21)
(0.0114426018525 0.0803327244309 3.65737487789e-20)
(0.038344721652 0.114333951448 7.19846697175e-19)
(-0.00144071154195 0.154199688382 1.00989121286e-17)
(-0.029520723977 0.198370114252 1.43568123952e-17)
(-0.0463274133132 0.250825627001 2.89785692409e-18)
(-0.0794490609588 0.361161340355 9.42939675445e-18)
(-0.242683686074 0.392419678976 4.65623467747e-18)
(-0.292629770854 0.352184072639 9.32441126374e-19)
(-0.0300483461564 0.00546294368778 3.14987533408e-22)
(-0.03043249207 0.0138075527908 -1.37646258872e-22)
(-0.0301699493362 0.0239797191555 -1.00067284831e-22)
(-0.0295360615642 0.035028936731 4.69660125874e-23)
(-0.0283895078618 0.0476974744455 4.75618143482e-22)
(-0.0267922824783 0.0634151319147 -7.17021795981e-22)
(-0.0252564453436 0.0843584166063 2.94366861676e-21)
(-0.0256609052077 0.120437168851 4.43291115032e-20)
(-0.0515963292676 0.158122554919 6.45448538565e-19)
(-0.0724695285539 0.192395605702 6.81770018511e-19)
(-0.100204933489 0.229492606179 1.8377990823e-19)
(-0.141799683305 0.282677175841 6.74643634712e-20)
(-0.236022177886 0.309217665085 -2.64236993577e-19)
(-0.302802964163 0.310586866434 -1.79163495396e-19)
(-0.0394659081991 0.00540410805556 1.04814212295e-21)
(-0.0402945388842 0.0137534160704 -2.16727104518e-22)
(-0.0408114872319 0.0239040998082 1.37352835318e-23)
(-0.0415756627652 0.0349895731788 1.40990468677e-22)
(-0.0427032500552 0.0476802584806 2.51484620482e-22)
(-0.044470746566 0.0631042983845 3.49625485049e-22)
(-0.0477117216634 0.0824229867646 1.83181281159e-21)
(-0.0538712011489 0.10939315574 2.03395782403e-21)
(-0.0754039267138 0.137354976211 2.75939221492e-20)
(-0.102383501451 0.163741063103 1.749694361e-20)
(-0.135744255728 0.190888330606 2.30985316741e-22)
(-0.181036058309 0.220906526229 -3.28654062896e-21)
(-0.245140885783 0.240918779655 2.63502286988e-20)
(-0.312766375822 0.248092315192 2.16601290888e-20)
(-0.0486215958615 0.00512433970328 9.01707440595e-22)
(-0.0498790997341 0.0131105373865 -1.46808556071e-22)
(-0.051120909716 0.022723677503 1.43768171343e-22)
(-0.0531363513226 0.0331278212395 6.98134742422e-23)
(-0.05619212512 0.0447823794974 1.15999916016e-22)
(-0.0608065413137 0.0583793567529 8.36012301348e-23)
(-0.0679981365959 0.0744380252267 -4.62110698189e-24)
(-0.0791415823972 0.0941246153741 -1.28996610714e-21)
(-0.0990665925423 0.114641937687 2.67610955771e-22)
(-0.125201426931 0.133947719651 7.01369200601e-23)
(-0.158013129743 0.152267813002 -5.15372792179e-22)
(-0.199746822403 0.169081232177 -1.76524887636e-21)
(-0.252859523634 0.1800045118 -2.89958699306e-21)
(-0.314587217642 0.18220455129 -4.6230334086e-23)
(-0.0571413023289 0.00466132613931 4.83350292632e-22)
(-0.0587606183676 0.0119695629821 -3.25097734224e-22)
(-0.0605683412252 0.0206551324852 9.08977791199e-23)
(-0.0635108062793 0.0299070287107 1.96351220335e-22)
(-0.067883748955 0.0399898872628 5.11598874126e-23)
(-0.0742014118165 0.0512739819186 2.05762380194e-24)
(-0.0832919033401 0.0639192252833 -8.35394140899e-23)
(-0.0962131100279 0.0780701507092 -3.32955258817e-22)
(-0.115117727415 0.0923355075823 -1.3981871697e-22)
(-0.139716900766 0.105269964625 -3.3103265588e-22)
(-0.170350811628 0.116233120472 -6.45557508413e-22)
(-0.208159268603 0.124113374623 -1.12761443513e-21)
(-0.254201635073 0.126612218407 8.64414931999e-23)
(-0.307855072673 0.121624823137 6.19745041523e-23)
(-0.0647360186179 0.00406665459706 3.9653765665e-22)
(-0.0666277951938 0.0104674735041 -4.1351033398e-22)
(-0.0688163368696 0.0179686671401 -4.69268739978e-24)
(-0.0723464604105 0.0258010346297 1.15489985824e-22)
(-0.0774865004821 0.0340796477949 -1.30322032794e-23)
(-0.0846715457766 0.0429563064084 -9.68041000516e-23)
(-0.094525285175 0.0523787078225 -1.82852645349e-22)
(-0.107813912435 0.0621213612144 -1.58111149485e-22)
(-0.125618452174 0.0713001164096 -3.72226160329e-22)
(-0.14817806821 0.0788312284327 -3.95610419442e-22)
(-0.175797213631 0.0837984143442 -1.97952528363e-22)
(-0.209032643554 0.0849716093469 -1.93216996503e-22)
(-0.248291792179 0.080660505918 -2.10193690986e-22)
(-0.293420140261 0.0689437516034 -1.7340823809e-22)
(-0.0712165126406 0.00339165424137 5.18148561704e-22)
(-0.0732878305557 0.00874648801507 -1.99096516334e-22)
(-0.0756829384028 0.0149247977153 1.17852980392e-22)
(-0.0795005416487 0.0212265131574 -5.39513792866e-24)
(-0.0849613660287 0.0276597808746 -6.64624787917e-23)
(-0.092402851672 0.0342309320598 -1.82375199861e-22)
(-0.102273150819 0.0407669956773 -1.98209948337e-22)
(-0.115095052067 0.0469213913167 -3.00089845279e-22)
(-0.13145567723 0.0520044606887 -6.51184392439e-22)
(-0.151634072588 0.055143731959 -5.15929755505e-22)
(-0.175822533338 0.0553939478005 -2.85879654557e-22)
(-0.204241661431 0.0515719513457 -2.50841053358e-22)
(-0.236899296721 0.0422125659837 -1.03327239987e-23)
(-0.273654048648 0.0255286136569 -1.00536874513e-22)
(-0.0764814671398 0.00268204266666 4.68749879266e-22)
(-0.0786493655452 0.00693373013888 -1.18502914422e-22)
(-0.0811055800381 0.0117455388185 5.7251147637e-23)
(-0.084970378746 0.0165163218162 -1.2644949454e-23)
(-0.090414451612 0.0211799623203 -5.55665185796e-23)
(-0.0976819622831 0.0256491190478 -1.43344159464e-22)
(-0.10707932199 0.0296889524104 -2.31119070802e-22)
(-0.118941156792 0.0329252488129 -1.7851289201e-22)
(-0.133591269715 0.0347631077503 -5.10663998028e-22)
(-0.151211429099 0.0344840198336 -4.2913144321e-22)
(-0.171823842056 0.0312178877254 -1.0318360268e-22)
(-0.195436796871 0.0239271250367 -7.6160532247e-23)
(-0.221805179416 0.0113784190115 -5.65219575526e-23)
(-0.250446515655 -0.00789968705117 -8.0424989967e-23)
(-0.0804971058114 0.00197233016333 1.53036273539e-22)
(-0.0827024496081 0.00513076238369 -2.01244413635e-22)
(-0.0851101110028 0.00860448402482 -3.01661351902e-23)
(-0.0888424887321 0.0119193894442 -5.0244118569e-23)
(-0.0940286908555 0.0149585831396 -7.91357743921e-23)
(-0.100833104348 0.0175762359077 -5.26085437306e-23)
(-0.109453491916 0.0195148407201 -1.11541362567e-22)
(-0.120078616503 0.0204115953814 3.05678265689e-23)
(-0.132861880845 0.0197404852807 -9.09529029798e-23)
(-0.147862243513 0.0169129017551 -1.22642103284e-23)
(-0.165028416337 0.0111522609172 3.11638075579e-23)
(-0.184172231592 0.00156625637469 -9.74395230139e-23)
(-0.204908879269 -0.0128124310158 7.59907934561e-23)
(-0.22656048339 -0.033164646405 6.16191504171e-23)
(-0.0833025119986 0.0012827719501 -1.6266463524e-23)
(-0.0855073115689 0.00340713624971 -2.60656703137e-22)
(-0.0877864459143 0.005627289358 -4.41282746045e-23)
(-0.0912585073839 0.00760920959744 -6.37464845226e-23)
(-0.0960249945223 0.00920471710349 -8.06559377375e-23)
(-0.102184893152 0.010236611365 -8.02557529262e-23)
(-0.109849688463 0.0104517933864 -1.06192560821e-22)
(-0.119104241423 0.00951812383714 -8.14651662721e-23)
(-0.130000049649 0.00697416806154 -1.18418686911e-22)
(-0.142484575847 0.00230720562106 1.07536681372e-23)
(-0.156444126035 -0.00510386523413 -7.4193851443e-23)
(-0.171527941008 -0.0159586434609 -4.00416553962e-23)
(-0.187285695573 -0.0310304958315 -1.38846857674e-22)
(-0.202972596955 -0.0511822153479 -4.59635972719e-23)
(-0.0850222760303 0.000658433708313 -6.27454017109e-23)
(-0.087176705421 0.00182050106816 1.93725490866e-23)
(-0.0892570901599 0.00289796757718 -4.80639971112e-23)
(-0.0923827565321 0.00369426124956 -1.03392241285e-22)
(-0.0966307566399 0.00404254316951 -9.18989155349e-23)
(-0.102051621451 0.00375683882356 -1.17792615406e-22)
(-0.108684853229 0.00259613090114 -1.10216326691e-22)
(-0.116553569798 0.000254851700002 -3.0909541576e-23)
(-0.125629405112 -0.00364934603646 -1.4383068237e-22)
(-0.135783685207 -0.00953617544481 -9.70647783061e-23)
(-0.146819381074 -0.0179045926013 6.65150069077e-23)
(-0.158376169284 -0.0292971669581 -5.09538228858e-23)
(-0.169945683305 -0.0442756163965 1.26154538328e-22)
(-0.180781965847 -0.0634223698863 -5.78220651251e-23)
(-0.12023044734 -0.0122647871391 -1.0056765567e-22)
(-0.128281422931 -0.0188972882895 -1.40011817693e-22)
(-0.13677384828 -0.0277099309982 -9.07722859123e-23)
(-0.145335587223 -0.0391009698818 -4.72024285875e-23)
(-0.153462771539 -0.053456761535 -7.54998327296e-23)
(-0.160465082472 -0.0711325931008 -7.4878038554e-24)
(-0.132811589049 -0.0459998103926 -4.03741371573e-24)
(-0.138183912826 -0.0594206221384 -2.09566450353e-23)
(-0.142240176836 -0.0754190633525 -6.1451729753e-24)
(-0.126111360126 -0.0771850568276 -1.26809350773e-23)
)
;

boundaryField
{
    back
    {
        type            noSlip;
    }
    sides
    {
        type            noSlip;
    }
    bottom
    {
        type            noSlip;
    }
    front
    {
        type            noSlip;
    }
    atmosphere
    {
        type            pressureInletOutletVelocity;
        value           nonuniform List<vector> 0();
    }
    floatingObject
    {
        type            movingWallVelocity;
        value           nonuniform List<vector> 4((0 -5.78819399818e-15 7.23524249772e-16) (0 -5.78819399818e-15 7.23524249772e-16) (0 0 0) (0 -1.15763879964e-14 7.23524249772e-16));
    }
    procBoundary8to3
    {
        type            processor;
        value           nonuniform List<vector> 8((-0.012065866317 0.00496694116882 2.79495291357e-22) (-0.0118975376932 0.0123005696973 9.45144989407e-22) (-0.0108506959704 0.0206844278138 8.19124626154e-23) (-0.00860971159518 0.0282467769268 -9.22895554622e-25) (-0.00407561450712 0.0342604342759 3.20319737741e-22) (0.00494452060381 0.0377143889555 7.36920041374e-21) (0.0208987224681 0.0337270830523 1.36718754975e-19) (0.0443337294449 0.0281125910211 1.35475711292e-18));
    }
    procBoundary8to6
    {
        type            processor;
        value           nonuniform List<vector> 
16
(
(-0.244065132965 0.223670044934 2.60287663092e-18)
(-0.257936082256 0.223613280253 3.81715449767e-19)
(-0.315140846052 0.387150158656 3.0199683648e-19)
(-0.363760194958 0.329889370146 -6.32326842994e-20)
(-0.382000428964 0.258102509176 8.75569953003e-21)
(-0.383653516452 0.181308419699 2.22190208466e-21)
(-0.369244136347 0.108846294773 1.46407586166e-21)
(-0.344366398259 0.0475490917809 -5.3288797105e-22)
(-0.314205669101 -0.00139669202246 4.97613576854e-22)
(-0.280503926571 -0.0359587666421 7.44223119143e-22)
(-0.248159946779 -0.0609309696185 6.36839814791e-22)
(-0.217521349899 -0.0773152709421 -2.26771257653e-22)
(-0.189867927086 -0.0872607819216 1.67675966836e-22)
(-0.165439439858 -0.092376063803 1.12792274523e-23)
(-0.144222957687 -0.0940564480829 -6.8145771027e-23)
(-0.125979377402 -0.0933759360049 1.10880109427e-23)
)
;
    }
    procBoundary8to7
    {
        type            processor;
        value           nonuniform List<vector> 
17
(
(-0.0858118297853 0.000109949002923 -1.35352242788e-23)
(-0.0878339706519 0.000397106915617 -6.17599961283e-23)
(-0.0896566866307 0.000461862403121 -3.63760682287e-23)
(-0.0923905253844 0.000233182593103 -6.28954669245e-23)
(-0.0960755043413 -0.000467507470754 -6.92643361148e-23)
(-0.100724884213 -0.00182356782835 -7.34330553759e-23)
(-0.106329704398 -0.0040571350321 -7.48511183111e-23)
(-0.112861275562 -0.00743287586311 -1.07572018114e-22)
(-0.112861275562 -0.00743287586311 -1.07572018114e-22)
(-0.114203135256 -0.0190797879921 -8.63104990757e-23)
(-0.120407982784 -0.0260902947846 -2.99187771338e-23)
(-0.126730000584 -0.0349712081674 4.89498868947e-23)
(-0.126730000584 -0.0349712081674 4.89498868947e-23)
(-0.121048984919 -0.0505647763118 -6.24695848293e-23)
(-0.124264350689 -0.0628966658562 8.20647297847e-23)
(-0.124264350689 -0.0628966658562 8.20647297847e-23)
(-0.111961227688 -0.0771423844256 4.87639303452e-23)
)
;
    }
}


// ************************************************************************* //
