/*--------------------------------*- C++ -*----------------------------------*\
| =========                 |                                                 |
| \\      /  F ield         | OpenFOAM: The Open Source CFD Toolbox           |
|  \\    /   O peration     | Version:  v2012                                 |
|   \\  /    A nd           | Website:  www.openfoam.com                      |
|    \\/     M anipulation  |                                                 |
\*---------------------------------------------------------------------------*/
FoamFile
{
    version     2.0;
    format      ascii;
    class       volVectorField;
    location    "2.1";
    object      ddtCorrDdt0(U);
}
// * * * * * * * * * * * * * * * * * * * * * * * * * * * * * * * * * * * * * //

dimensions      [0 1 -2 0 0 0 0];


internalField   nonuniform List<vector> 
164
(
(0.0204314078025 -0.00541997235593 -3.48690816501e-22)
(0.0209314900975 -0.0132440673727 1.88659913708e-21)
(0.0199475590668 -0.023496846472 7.07538479183e-21)
(0.0174241650041 -0.0341903766406 4.00598683186e-20)
(0.0124770503739 -0.0469153167394 1.92234706865e-19)
(0.000875445657091 -0.0628368966186 9.13801425835e-19)
(-0.014374562798 -0.0859766590956 4.2379956996e-18)
(-0.0285886708345 -0.126523615399 1.32205665349e-17)
(0.00451637457175 -0.159647281525 1.21537177367e-17)
(0.0159562893413 -0.188304660747 5.16269414102e-19)
(0.0319007445879 -0.234242501703 1.45410330525e-18)
(0.125090012642 -0.339263985129 -3.15645074848e-18)
(0.306207204761 -0.338685027697 -9.38229555367e-18)
(0.23435717894 -0.344624528618 -5.04317375343e-18)
(0.0295535110758 -0.00557750979379 -1.50881150887e-21)
(0.0306237716319 -0.0136867536337 1.47327907945e-21)
(0.0304869273713 -0.024381476752 2.71503944277e-21)
(0.0299322409349 -0.0353722176712 1.27864405172e-20)
(0.0291126382599 -0.0481161551314 6.32252605893e-20)
(0.0277881594467 -0.0646055600925 3.26067940213e-19)
(0.0262593629066 -0.0887064495775 1.35853257141e-18)
(0.0271077061586 -0.124998497463 3.93065359983e-18)
(0.0469196744195 -0.15956786054 7.24881085718e-18)
(0.0596536464141 -0.195994937014 5.87722986279e-18)
(0.0791600113634 -0.24965739433 2.84436833128e-18)
(0.123756217824 -0.300563888061 4.75581159391e-18)
(0.248095357406 -0.327833719859 8.43214557621e-18)
(0.275187640373 -0.354028848652 4.22522324227e-18)
(0.0387811787559 -0.00555922215854 -3.37080937056e-21)
(0.0404087403869 -0.0136168835114 1.00575063806e-21)
(0.04106150003 -0.0243190523124 5.28565252105e-22)
(0.0418041568185 -0.0353251850791 2.3770787894e-21)
(0.0429977989329 -0.0483236924878 1.43482963925e-20)
(0.044562842963 -0.0641411680072 7.54230122782e-20)
(0.0482107844302 -0.0844899934041 2.99298937663e-19)
(0.0542241838554 -0.111676998307 8.61504454001e-19)
(0.0714050164345 -0.139760833656 1.85529102777e-18)
(0.093768278855 -0.168600498179 1.9320767516e-18)
(0.125718810718 -0.205370994086 1.37189141581e-18)
(0.180346323995 -0.236604721649 1.43618027133e-18)
(0.249817551439 -0.253684622891 1.54880385708e-18)
(0.304639065268 -0.25621600611 8.04461716492e-19)
(0.047763710048 -0.00534195358162 -2.73573067885e-21)
(0.0499967545164 -0.0129615284043 1.45005434689e-21)
(0.0514164910893 -0.0231381070324 -1.73983016655e-23)
(0.0534020738997 -0.0334224768977 8.41783181383e-23)
(0.0565376881094 -0.0453631378072 2.5900157811e-21)
(0.0612062720796 -0.0592050444091 1.4331721067e-20)
(0.0686884008919 -0.0755331873253 5.80000706384e-20)
(0.0799760525393 -0.0950132938596 1.55213472424e-19)
(0.0987918302294 -0.116255420174 2.77748911501e-19)
(0.122765020664 -0.138585978865 3.62322950691e-19)
(0.155632566092 -0.163192867364 2.92526372096e-19)
(0.202712717336 -0.182047707505 2.57756658483e-19)
(0.259193587318 -0.195686966228 1.69679641511e-19)
(0.312818529104 -0.207751083187 4.58454140764e-20)
(0.0561191140163 -0.00495240923902 -1.4837144485e-21)
(0.0589002326432 -0.0117944445464 2.02004355135e-21)
(0.0609236403019 -0.0210436732352 7.90956284226e-23)
(0.0638602420069 -0.0301824095027 -1.31810719168e-21)
(0.0683003586798 -0.0405052763393 8.68580336296e-23)
(0.0747396870821 -0.0519885612129 1.96913823073e-21)
(0.0841135822796 -0.0648490481976 8.38090471749e-21)
(0.0972468221225 -0.0790401189291 2.38551204462e-20)
(0.115826856389 -0.0938172052974 4.40779122196e-20)
(0.140630261288 -0.108478742275 5.41584781838e-20)
(0.17293026198 -0.122842262161 3.7904030772e-20)
(0.215623023367 -0.1337250738 2.53178354677e-20)
(0.266589523267 -0.139565562205 9.80765574001e-21)
(0.322161022091 -0.143034853411 7.23848292024e-21)
(0.0635854517003 -0.00444112700306 -2.34500485325e-21)
(0.066820169605 -0.0102763729908 2.09171132613e-21)
(0.0692515069822 -0.0182929660616 1.75850752371e-22)
(0.0728155632316 -0.0260105518877 -1.09563522795e-21)
(0.0780512769991 -0.0344761526383 -1.02785529123e-22)
(0.08545786027 -0.0434374391261 1.93121088434e-22)
(0.0957249756028 -0.0529141113669 8.21832878841e-22)
(0.109615716123 -0.0625752764494 2.68386764184e-21)
(0.128089059512 -0.0718769098811 4.92935758902e-21)
(0.151891280932 -0.0801572628674 5.41742430238e-21)
(0.182210133563 -0.0865323727717 3.68469970625e-21)
(0.220410213667 -0.0899153689515 2.60148796335e-21)
(0.265988110491 -0.087639508254 -6.6961191336e-24)
(0.316003390266 -0.0822836464793 -4.12447231761e-21)
(0.0699716722475 -0.00384381304332 -2.30835866333e-21)
(0.0735555648328 -0.00853409811316 7.83475553914e-22)
(0.0762106761373 -0.0151670755207 -3.36780659938e-22)
(0.0800314071012 -0.0213518292581 -4.83104863524e-22)
(0.085637143686 -0.027874115889 -3.13564618146e-23)
(0.0933199409921 -0.0343734215265 -1.4737550047e-24)
(0.103571017564 -0.0407802231476 4.7184200967e-22)
(0.117026937734 -0.0466514895274 3.74375313372e-22)
(0.134343458035 -0.0513124383942 5.33429196386e-22)
(0.156242172699 -0.0539472297775 4.67004612948e-22)
(0.183724755914 -0.0537272949894 5.29035047228e-22)
(0.218211134358 -0.0504393667056 -3.57289905481e-22)
(0.261305230486 -0.0426335025505 -3.74261792641e-21)
(0.31574031136 -0.0447769965292 -5.1428905442e-21)
(0.07511937593 -0.00320160016813 -8.32887775719e-22)
(0.0789715653605 -0.00669717831655 1.87737392858e-21)
(0.0816862509949 -0.0119226061895 2.32326695917e-22)
(0.0855674410834 -0.0165319634912 -6.89973108992e-22)
(0.0911382031033 -0.0211752601189 -5.57260555507e-23)
(0.0986116666084 -0.0255092087697 3.32941659787e-23)
(0.108324381898 -0.0292311162277 5.9964490101e-23)
(0.120700611408 -0.0318272575551 9.61153611616e-23)
(0.136164340166 -0.0326526940323 1.24953456604e-22)
(0.155139250078 -0.0306823667515 2.95256580852e-22)
(0.178260290526 -0.0244570190542 -1.07432696524e-23)
(0.206797031699 -0.0121809626782 1.34523958201e-21)
(0.243459209883 0.0116566144079 6.29632346657e-22)
(0.294947789037 0.0455463173865 -8.91125365567e-21)
(0.0791092719133 -0.0025367555923 -1.61761373419e-23)
(0.083113027966 -0.00484778761941 2.28850732577e-21)
(0.0857574971394 -0.00866634917703 5.51738566212e-22)
(0.0894977852864 -0.0118209758886 -1.69369775065e-22)
(0.0947405183025 -0.0147928221861 -3.12306841465e-23)
(0.101670275629 -0.0171772652405 4.34000496586e-23)
(0.110506064068 -0.0187020806746 1.28100723708e-23)
(0.121369191345 -0.0188313066378 1.09600696197e-22)
(0.134471791328 -0.0168734107251 -1.36722380081e-22)
(0.149989073357 -0.0118207054075 3.36168951804e-23)
(0.16795749879 -0.00226608404327 3.22376833213e-22)
(0.188484403896 0.0141683443799 -2.41580670464e-21)
(0.211404526163 0.0444392655541 -1.93899949052e-21)
(0.236015173563 0.0964668606762 -5.37613894994e-21)
(0.0819586167379 -0.00190446569519 -3.9467771834e-22)
(0.086026649387 -0.00310581406979 1.44679802348e-21)
(0.0885081368149 -0.00560942577404 -1.91182487192e-22)
(0.0919010434427 -0.00743621146052 -6.54702450812e-22)
(0.0966740504638 -0.00895326590901 -9.07343540725e-23)
(0.102860126322 -0.00973723502826 -1.29371713974e-24)
(0.110511439127 -0.00953401800372 -9.39750827074e-24)
(0.119716559257 -0.0078611765044 1.43210134314e-23)
(0.130391309907 -0.00402223723743 -2.77837347886e-23)
(0.142401056392 0.00282144464326 -7.82015745353e-23)
(0.155373784927 0.0139389013318 2.1874856875e-22)
(0.168332289305 0.0312187722488 5.36252667667e-22)
(0.178522550031 0.0577465153724 6.46783273296e-21)
(0.179780742126 0.0955357574432 6.04157122134e-23)
(0.0836197386377 -0.00130098811815 -5.53398294014e-22)
(0.0877204499146 -0.00149766932043 -6.53481719585e-22)
(0.0899828026893 -0.00282453270719 -4.91276177097e-22)
(0.0930112881782 -0.00350702475245 -8.11638689255e-22)
(0.0972335771873 -0.00376900971077 -7.22843820359e-23)
(0.102597889005 -0.00331739752322 4.94960635615e-24)
(0.109062154707 -0.00183939586541 1.71562399154e-23)
(0.116591012045 0.00104538729197 2.79386821208e-23)
(0.124941728857 0.0058140936156 2.64747278609e-23)
(0.133767196024 0.0131969412857 -1.04979565718e-22)
(0.142411657857 0.0238969073061 -1.60618387974e-22)
(0.149531880021 0.0387111140164 -7.78401905238e-22)
(0.15230517156 0.0589376209656 1.13157851443e-21)
(0.1476282984 0.0837371166343 -7.39998555421e-21)
(0.118946495229 0.0131388715656 1.22140620001e-22)
(0.125219431293 0.0202638707061 6.59747003634e-22)
(0.130630450758 0.0296121805178 8.33459180674e-22)
(0.134056149237 0.0411216695806 5.48289022662e-22)
(0.133518381852 0.0545885326659 -1.33033622015e-21)
(0.127905923077 0.0638367723251 -6.78947218597e-21)
(0.122529170525 0.0417543271363 9.0385951099e-22)
(0.121729645665 0.0514550136641 5.56972019003e-22)
(0.116145579432 0.0573123916024 -1.22102803838e-20)
(0.109051005917 0.0476072836961 1.97168286084e-21)
)
;

boundaryField
{
    back
    {
        type            calculated;
        value           uniform (0 0 0);
    }
    sides
    {
        type            calculated;
        value           nonuniform List<vector> 0();
    }
    bottom
    {
        type            calculated;
        value           uniform (0 0 0);
    }
    front
    {
        type            calculated;
        value           uniform (0 0 0);
    }
    atmosphere
    {
        type            calculated;
        value           nonuniform List<vector> 0();
    }
    floatingObject
    {
        type            calculated;
        value           nonuniform List<vector> 4((0 1.26903514748e-20 -1.58629393435e-21) (0 1.26903514748e-20 -1.58629393435e-21) (0 0 0) (0 2.53807029496e-20 -1.58629393435e-21));
    }
    procBoundary8to3
    {
        type            processor;
        value           nonuniform List<vector> 8((0.0118782536944 -0.00501164761919 -3.11383694439e-22) (0.0120498493788 -0.0121067550188 -6.87533178721e-23) (0.0110014020086 -0.0207300681818 1.66199823531e-20) (0.00844855928655 -0.0281688233847 9.493988745e-20) (0.0033600775317 -0.032647348101 3.44093021016e-19) (-0.00808854045279 -0.0376380383534 1.28364635089e-18) (-0.0242471071875 -0.0266288049626 2.80568022992e-18) (-0.0421010939213 -0.0311783885041 9.02994579325e-19));
    }
    procBoundary8to6
    {
        type            processor;
        value           nonuniform List<vector> 
16
(
(0.245731518452 -0.131690111495 -4.2314564093e-18)
(0.174403583961 -0.24102823993 -4.22101557727e-18)
(0.194645338926 -0.367690630221 -1.82339471305e-18)
(0.317442975146 -0.408458767022 6.04898364847e-19)
(0.386984625637 -0.243169651126 5.45968068059e-19)
(0.369047690187 -0.232210084883 -2.43937941014e-20)
(0.392144301577 -0.147273791663 2.94674238118e-21)
(0.364619041887 -0.0797719605025 -1.19415928086e-20)
(0.394950876524 -0.0513846095638 -1.97194445258e-20)
(0.39044456161 0.121149632518 -2.7973444327e-20)
(0.265933325757 0.211232579276 -6.384670541e-20)
(0.155748959521 0.150163195636 -3.78351629519e-20)
(0.123157275337 0.119756186706 2.43375503243e-20)
(0.113615352857 0.0735189386095 -2.29346182488e-20)
(0.104497093647 0.0607647740238 -2.42802842519e-20)
(0.103147531663 0.0449133460137 5.8436603989e-21)
)
;
    }
    procBoundary8to7
    {
        type            processor;
        value           nonuniform List<vector> 
17
(
(0.0842596224642 -0.000747094704739 -4.07345367074e-23)
(0.0883793507242 -6.82663520912e-05 1.65737708008e-21)
(0.0903898750908 -0.000331568212675 3.84728732556e-23)
(0.0930201317913 -2.22754994924e-05 -9.20494784206e-23)
(0.0966444525942 0.000700876098377 8.10776905641e-23)
(0.101206325062 0.00211253289153 6.04711388928e-23)
(0.106591280132 0.00446487103418 3.5113088044e-23)
(0.112568778733 0.00801835950099 1.51839653059e-22)
(0.112568778733 0.00801835950099 1.51839653059e-22)
(0.113019504484 0.0184481666556 8.40182000802e-23)
(0.117468150191 0.0248583943214 9.70915752475e-23)
(0.120916739098 0.0326805988335 4.01505605073e-23)
(0.120916739098 0.0326805988335 4.01505605073e-23)
(0.113905652014 0.0408750636236 -9.4100039878e-23)
(0.113049380392 0.0467658022649 2.01126476176e-21)
(0.113049380392 0.0467658022649 2.01126476176e-21)
(0.107740584394 0.0566222921242 -6.47155704175e-21)
)
;
    }
}


// ************************************************************************* //
