/*--------------------------------*- C++ -*----------------------------------*\
| =========                 |                                                 |
| \\      /  F ield         | OpenFOAM: The Open Source CFD Toolbox           |
|  \\    /   O peration     | Version:  v2012                                 |
|   \\  /    A nd           | Website:  www.openfoam.com                      |
|    \\/     M anipulation  |                                                 |
\*---------------------------------------------------------------------------*/
FoamFile
{
    version     2.0;
    format      ascii;
    class       volScalarField;
    location    "2.1";
    object      p_rgh;
}
// * * * * * * * * * * * * * * * * * * * * * * * * * * * * * * * * * * * * * //

dimensions      [1 -1 -2 0 0 0 0];


internalField   nonuniform List<scalar> 
164
(
8691.87322028
8692.25405835
8693.10029265
8694.43809248
8696.33202107
8698.95468491
8702.33690041
8706.80509195
8714.26655081
8722.73816964
8732.79138496
8744.62587452
8772.26985337
8788.49612416
8690.59156263
8690.98391776
8691.85632034
8693.23775983
8695.17421385
8697.76291588
8701.11087571
8705.63670986
8712.64769158
8720.76533959
8730.6552237
8743.58324493
8761.42042583
8776.77774022
8688.84200182
8689.22828806
8690.09043434
8691.45864805
8693.38022843
8695.96158028
8699.34211909
8703.7648188
8709.62362755
8716.76742676
8725.4090196
8736.04053979
8749.0150843
8761.60912777
8686.62837319
8686.99042017
8687.80350609
8689.09228824
8690.8922388
8693.28361065
8696.36662131
8700.29570529
8705.23547705
8711.19163965
8718.23088755
8726.50793602
8735.9512876
8745.76511104
8683.97242044
8684.29411045
8685.02514242
8686.17882852
8687.77512867
8689.86639502
8692.51389261
8695.80143632
8699.79150344
8704.47732486
8709.85367952
8715.88645079
8722.43404234
8729.10275451
8680.91358345
8681.18368864
8681.80806578
8682.78932888
8684.13231268
8685.86358791
8688.00955071
8690.59650887
8693.62522279
8697.05554299
8700.81636909
8704.78764656
8708.78803837
8712.47464861
8677.50355275
8677.71499381
8678.21870394
8679.00762021
8680.0719345
8681.41576392
8683.0381672
8684.92582133
8687.03631957
8689.28875166
8691.56022014
8693.66804905
8695.42147723
8696.62718609
8673.80242727
8673.95262701
8674.33012685
8674.91922666
8675.69946272
8676.65854721
8677.77364345
8679.00371826
8680.27596803
8681.47556406
8682.42648088
8682.86245233
8682.43811071
8680.58281059
8669.87474311
8669.96432555
8670.21709205
8670.61126393
8671.11803372
8671.71467504
8672.3646676
8673.00860813
8673.55712826
8673.87807649
8673.76991079
8672.92342693
8670.89086197
8666.81525737
8665.78481448
8665.81669456
8665.951667
8666.16340213
8666.41911824
8666.6892776
8666.92967185
8667.07331397
8667.02561552
8666.6513255
8665.75262495
8664.03519915
8661.08541555
8656.25307861
8661.59233964
8661.57180264
8661.59976687
8661.64763644
8661.68059674
8661.66680938
8661.55922373
8661.29339874
8660.78057961
8659.8997828
8658.48833112
8656.32663354
8653.13860318
8648.58897722
8654.86263804
8653.6305769
8651.90974253
8649.56612549
8646.47545985
8642.55643206
8643.50551296
8640.5442445
8637.02258646
8631.8447531
)
;

boundaryField
{
    back
    {
        type            fixedFluxPressure;
        gradient        uniform 0;
        value           nonuniform List<scalar> 
164
(
8691.87322028
8692.25405835
8693.10029265
8694.43809248
8696.33202107
8698.95468491
8702.33690041
8706.80509195
8714.26655081
8722.73816964
8732.79138496
8744.62587452
8772.26985337
8788.49612416
8690.59156263
8690.98391776
8691.85632034
8693.23775983
8695.17421385
8697.76291588
8701.11087571
8705.63670986
8712.64769158
8720.76533959
8730.6552237
8743.58324493
8761.42042583
8776.77774022
8688.84200182
8689.22828806
8690.09043434
8691.45864805
8693.38022843
8695.96158028
8699.34211909
8703.7648188
8709.62362755
8716.76742676
8725.4090196
8736.04053979
8749.0150843
8761.60912777
8686.62837319
8686.99042017
8687.80350609
8689.09228824
8690.8922388
8693.28361065
8696.36662131
8700.29570529
8705.23547705
8711.19163965
8718.23088755
8726.50793602
8735.9512876
8745.76511104
8683.97242044
8684.29411045
8685.02514242
8686.17882852
8687.77512867
8689.86639502
8692.51389261
8695.80143632
8699.79150344
8704.47732486
8709.85367952
8715.88645079
8722.43404234
8729.10275451
8680.91358345
8681.18368864
8681.80806578
8682.78932888
8684.13231268
8685.86358791
8688.00955071
8690.59650887
8693.62522279
8697.05554299
8700.81636909
8704.78764656
8708.78803837
8712.47464861
8677.50355275
8677.71499381
8678.21870394
8679.00762021
8680.0719345
8681.41576392
8683.0381672
8684.92582133
8687.03631957
8689.28875166
8691.56022014
8693.66804905
8695.42147723
8696.62718609
8673.80242727
8673.95262701
8674.33012685
8674.91922666
8675.69946272
8676.65854721
8677.77364345
8679.00371826
8680.27596803
8681.47556406
8682.42648088
8682.86245233
8682.43811071
8680.58281059
8669.87474311
8669.96432555
8670.21709205
8670.61126393
8671.11803372
8671.71467504
8672.3646676
8673.00860813
8673.55712826
8673.87807649
8673.76991079
8672.92342693
8670.89086197
8666.81525737
8665.78481448
8665.81669456
8665.951667
8666.16340213
8666.41911824
8666.6892776
8666.92967185
8667.07331397
8667.02561552
8666.6513255
8665.75262495
8664.03519915
8661.08541555
8656.25307861
8661.59233964
8661.57180264
8661.59976687
8661.64763644
8661.68059674
8661.66680938
8661.55922373
8661.29339874
8660.78057961
8659.8997828
8658.48833112
8656.32663354
8653.13860318
8648.58897722
8654.86263804
8653.6305769
8651.90974253
8649.56612549
8646.47545985
8642.55643206
8643.50551296
8640.5442445
8637.02258646
8631.8447531
)
;
    }
    sides
    {
        type            fixedFluxPressure;
        gradient        nonuniform List<scalar> 0();
        value           nonuniform List<scalar> 0();
    }
    bottom
    {
        type            fixedFluxPressure;
        gradient        uniform 0;
        value           nonuniform List<scalar> 
11
(
8691.87322028
8690.59156263
8688.84200182
8686.62837319
8683.97242044
8680.91358345
8677.50355275
8673.80242727
8669.87474311
8665.78481448
8661.59233964
)
;
    }
    front
    {
        type            fixedFluxPressure;
        gradient        uniform 0;
        value           nonuniform List<scalar> 
164
(
8691.87322028
8692.25405835
8693.10029265
8694.43809248
8696.33202107
8698.95468491
8702.33690041
8706.80509195
8714.26655081
8722.73816964
8732.79138496
8744.62587452
8772.26985337
8788.49612416
8690.59156263
8690.98391776
8691.85632034
8693.23775983
8695.17421385
8697.76291588
8701.11087571
8705.63670986
8712.64769158
8720.76533959
8730.6552237
8743.58324493
8761.42042583
8776.77774022
8688.84200182
8689.22828806
8690.09043434
8691.45864805
8693.38022843
8695.96158028
8699.34211909
8703.7648188
8709.62362755
8716.76742676
8725.4090196
8736.04053979
8749.0150843
8761.60912777
8686.62837319
8686.99042017
8687.80350609
8689.09228824
8690.8922388
8693.28361065
8696.36662131
8700.29570529
8705.23547705
8711.19163965
8718.23088755
8726.50793602
8735.9512876
8745.76511104
8683.97242044
8684.29411045
8685.02514242
8686.17882852
8687.77512867
8689.86639502
8692.51389261
8695.80143632
8699.79150344
8704.47732486
8709.85367952
8715.88645079
8722.43404234
8729.10275451
8680.91358345
8681.18368864
8681.80806578
8682.78932888
8684.13231268
8685.86358791
8688.00955071
8690.59650887
8693.62522279
8697.05554299
8700.81636909
8704.78764656
8708.78803837
8712.47464861
8677.50355275
8677.71499381
8678.21870394
8679.00762021
8680.0719345
8681.41576392
8683.0381672
8684.92582133
8687.03631957
8689.28875166
8691.56022014
8693.66804905
8695.42147723
8696.62718609
8673.80242727
8673.95262701
8674.33012685
8674.91922666
8675.69946272
8676.65854721
8677.77364345
8679.00371826
8680.27596803
8681.47556406
8682.42648088
8682.86245233
8682.43811071
8680.58281059
8669.87474311
8669.96432555
8670.21709205
8670.61126393
8671.11803372
8671.71467504
8672.3646676
8673.00860813
8673.55712826
8673.87807649
8673.76991079
8672.92342693
8670.89086197
8666.81525737
8665.78481448
8665.81669456
8665.951667
8666.16340213
8666.41911824
8666.6892776
8666.92967185
8667.07331397
8667.02561552
8666.6513255
8665.75262495
8664.03519915
8661.08541555
8656.25307861
8661.59233964
8661.57180264
8661.59976687
8661.64763644
8661.68059674
8661.66680938
8661.55922373
8661.29339874
8660.78057961
8659.8997828
8658.48833112
8656.32663354
8653.13860318
8648.58897722
8654.86263804
8653.6305769
8651.90974253
8649.56612549
8646.47545985
8642.55643206
8643.50551296
8640.5442445
8637.02258646
8631.8447531
)
;
    }
    atmosphere
    {
        type            totalPressure;
        rho             rho;
        psi             none;
        gamma           1;
        p0              nonuniform List<scalar> 0();
        value           nonuniform List<scalar> 0();
    }
    floatingObject
    {
        type            fixedFluxPressure;
        gradient        uniform 0;
        value           nonuniform List<scalar> 4(8714.26655081 8722.73816964 8732.79138496 8744.62587452);
    }
    procBoundary8to3
    {
        type            processor;
        value           nonuniform List<scalar> 8(8692.70121039 8693.05276038 8693.82388684 8694.98149088 8696.42824737 8698.04722819 8699.71296904 8700.13085006);
    }
    procBoundary8to6
    {
        type            processor;
        value           nonuniform List<scalar> 
16
(
8795.79068848
8802.48046815
8804.09676697
8795.20432659
8774.97414142
8756.39250797
8735.73777333
8715.38247215
8697.57118004
8676.53342711
8658.97099076
8648.42156608
8642.34224036
8637.96628235
8633.29545301
8628.46960624
)
;
    }
    procBoundary8to7
    {
        type            processor;
        value           nonuniform List<scalar> 
17
(
8657.3545522
8657.28767791
8657.2212014
8657.12526026
8656.96540486
8656.71073786
8656.31680804
8655.72601834
8655.72601834
8649.2786745
8647.80849692
8645.90957047
8645.90957047
8637.94269179
8635.08929768
8635.08929768
8626.70897455
)
;
    }
}


// ************************************************************************* //
