/*--------------------------------*- C++ -*----------------------------------*\
| =========                 |                                                 |
| \\      /  F ield         | OpenFOAM: The Open Source CFD Toolbox           |
|  \\    /   O peration     | Version:  v2012                                 |
|   \\  /    A nd           | Website:  www.openfoam.com                      |
|    \\/     M anipulation  |                                                 |
\*---------------------------------------------------------------------------*/
FoamFile
{
    version     2.0;
    format      ascii;
    class       volScalarField;
    location    "4.7";
    object      p;
}
// * * * * * * * * * * * * * * * * * * * * * * * * * * * * * * * * * * * * * //

dimensions      [1 -1 -2 0 0 0 0];


internalField   nonuniform List<scalar> 
164
(
4863.71240141
4371.55526195
3879.09654558
3386.35809504
2893.36561312
2400.14740009
1906.71738451
1413.14832722
919.721542524
429.403973085
88.1301114188
-9.07085453338
-9.56295886078
8297.9459697
7808.0026771
7317.78982703
6827.27013202
5845.2963096
5353.83852817
4862.0952048
4370.0094795
3877.64863219
3385.03925741
2892.21772923
2399.23680526
1906.08102075
1412.83014145
919.557772274
430.013976578
88.8912060671
-9.07165917594
-9.56265879329
8296.29809578
7806.36873742
7316.18520017
6825.70751232
6334.92657955
5843.83928141
5352.43933566
4860.72411447
4368.73135245
3876.44660995
3383.9344725
2891.23543198
2398.47770594
1905.52736072
1412.5734718
919.636322506
430.592433237
89.431644192
-9.07205712411
-9.56253180388
8294.93463653
7805.02111506
7314.87199122
6824.44779688
6333.72225962
5842.70045916
5351.3745386
4859.73076472
4367.74471741
3875.48546264
3383.0239226
2890.33494586
2397.8542853
1905.0774184
1412.33521926
919.711285911
431.048126614
89.7645519446
-9.07226749647
-9.56310112329
8293.8397301
7803.94325393
7313.82979721
6823.49063942
6332.83534739
5841.91277508
5350.66957917
4859.05883085
4367.01619943
3874.71029053
3382.23561265
2889.48484378
2397.15328908
1904.47594741
1411.99931903
919.623996022
431.230587328
89.9173381503
-9.07147173115
-9.56508306287
8292.99845456
7803.11449949
7313.00855706
6822.65786303
6332.1109786
5841.30667352
5350.25952326
4858.82131387
4366.57559549
3874.17056628
3381.71901296
2889.11858877
2396.40259147
1903.67586488
1411.55659154
919.401762112
431.262595215
90.020181659
-9.07069005878
-9.56765950442
8292.4003636
7802.54184593
7312.50476289
6822.22274626
6331.75300737
5841.04853213
5350.08815366
4858.93341373
4366.22567066
3873.766021
3381.14846564
2887.68097043
2395.55327225
1902.31540445
1411.11434352
919.16860767
431.279944613
90.1638322648
-9.07111579323
-9.57247969766
8292.0157739
7802.17175318
7312.16768845
6821.97622553
6331.65968627
5841.22651988
5350.96429051
4860.61009085
8291.83347135
7802.00328999
7312.0206334
6821.87140652
6331.61062023
5841.25154032
5350.95427998
4860.80344183
8291.835355
7802.00436091
7312.02645715
6821.87776613
6331.6181279
5841.25456629
5350.95727133
4860.81227967
8292.02288818
7802.17761162
7312.1592639
6821.99614821
6331.67880281
5841.23783083
5350.9873157
4860.62958867
)
;

boundaryField
{
    back
    {
        type            calculated;
        value           nonuniform List<scalar> 
164
(
4863.71240141
4371.55526195
3879.09654558
3386.35809504
2893.36561312
2400.14740009
1906.71738451
1413.14832722
919.721542524
429.403973085
88.1301114188
-9.07085453338
-9.56295886078
8297.9459697
7808.0026771
7317.78982703
6827.27013202
5845.2963096
5353.83852817
4862.0952048
4370.0094795
3877.64863219
3385.03925741
2892.21772923
2399.23680526
1906.08102075
1412.83014145
919.557772274
430.013976578
88.8912060671
-9.07165917594
-9.56265879329
8296.29809578
7806.36873742
7316.18520017
6825.70751232
6334.92657955
5843.83928141
5352.43933566
4860.72411447
4368.73135245
3876.44660995
3383.9344725
2891.23543198
2398.47770594
1905.52736072
1412.5734718
919.636322506
430.592433237
89.431644192
-9.07205712411
-9.56253180388
8294.93463653
7805.02111506
7314.87199122
6824.44779688
6333.72225962
5842.70045916
5351.3745386
4859.73076472
4367.74471741
3875.48546264
3383.0239226
2890.33494586
2397.8542853
1905.0774184
1412.33521926
919.711285911
431.048126614
89.7645519446
-9.07226749647
-9.56310112329
8293.8397301
7803.94325393
7313.82979721
6823.49063942
6332.83534739
5841.91277508
5350.66957917
4859.05883085
4367.01619943
3874.71029053
3382.23561265
2889.48484378
2397.15328908
1904.47594741
1411.99931903
919.623996022
431.230587328
89.9173381503
-9.07147173115
-9.56508306287
8292.99845456
7803.11449949
7313.00855706
6822.65786303
6332.1109786
5841.30667352
5350.25952326
4858.82131387
4366.57559549
3874.17056628
3381.71901296
2889.11858877
2396.40259147
1903.67586488
1411.55659154
919.401762112
431.262595215
90.020181659
-9.07069005878
-9.56765950442
8292.4003636
7802.54184593
7312.50476289
6822.22274626
6331.75300737
5841.04853213
5350.08815366
4858.93341373
4366.22567066
3873.766021
3381.14846564
2887.68097043
2395.55327225
1902.31540445
1411.11434352
919.16860767
431.279944613
90.1638322648
-9.07111579323
-9.57247969766
8292.0157739
7802.17175318
7312.16768845
6821.97622553
6331.65968627
5841.22651988
5350.96429051
4860.61009085
8291.83347135
7802.00328999
7312.0206334
6821.87140652
6331.61062023
5841.25154032
5350.95427998
4860.80344183
8291.835355
7802.00436091
7312.02645715
6821.87776613
6331.6181279
5841.25456629
5350.95727133
4860.81227967
8292.02288818
7802.17761162
7312.1592639
6821.99614821
6331.67880281
5841.23783083
5350.9873157
4860.62958867
)
;
    }
    sides
    {
        type            calculated;
        value           nonuniform List<scalar> 0();
    }
    bottom
    {
        type            calculated;
        value           nonuniform List<scalar> 10(8542.7546994 8541.10688625 8539.74344463 8538.64852733 8537.80718339 8537.20895763 8536.82418136 8536.64164007 8536.64337798 8536.83085358);
    }
    front
    {
        type            calculated;
        value           nonuniform List<scalar> 
164
(
4863.71240141
4371.55526195
3879.09654558
3386.35809504
2893.36561312
2400.14740009
1906.71738451
1413.14832722
919.721542524
429.403973085
88.1301114188
-9.07085453338
-9.56295886078
8297.9459697
7808.0026771
7317.78982703
6827.27013202
5845.2963096
5353.83852817
4862.0952048
4370.0094795
3877.64863219
3385.03925741
2892.21772923
2399.23680526
1906.08102075
1412.83014145
919.557772274
430.013976578
88.8912060671
-9.07165917594
-9.56265879329
8296.29809578
7806.36873742
7316.18520017
6825.70751232
6334.92657955
5843.83928141
5352.43933566
4860.72411447
4368.73135245
3876.44660995
3383.9344725
2891.23543198
2398.47770594
1905.52736072
1412.5734718
919.636322506
430.592433237
89.431644192
-9.07205712411
-9.56253180388
8294.93463653
7805.02111506
7314.87199122
6824.44779688
6333.72225962
5842.70045916
5351.3745386
4859.73076472
4367.74471741
3875.48546264
3383.0239226
2890.33494586
2397.8542853
1905.0774184
1412.33521926
919.711285911
431.048126614
89.7645519446
-9.07226749647
-9.56310112329
8293.8397301
7803.94325393
7313.82979721
6823.49063942
6332.83534739
5841.91277508
5350.66957917
4859.05883085
4367.01619943
3874.71029053
3382.23561265
2889.48484378
2397.15328908
1904.47594741
1411.99931903
919.623996022
431.230587328
89.9173381503
-9.07147173115
-9.56508306287
8292.99845456
7803.11449949
7313.00855706
6822.65786303
6332.1109786
5841.30667352
5350.25952326
4858.82131387
4366.57559549
3874.17056628
3381.71901296
2889.11858877
2396.40259147
1903.67586488
1411.55659154
919.401762112
431.262595215
90.020181659
-9.07069005878
-9.56765950442
8292.4003636
7802.54184593
7312.50476289
6822.22274626
6331.75300737
5841.04853213
5350.08815366
4858.93341373
4366.22567066
3873.766021
3381.14846564
2887.68097043
2395.55327225
1902.31540445
1411.11434352
919.16860767
431.279944613
90.1638322648
-9.07111579323
-9.57247969766
8292.0157739
7802.17175318
7312.16768845
6821.97622553
6331.65968627
5841.22651988
5350.96429051
4860.61009085
8291.83347135
7802.00328999
7312.0206334
6821.87140652
6331.61062023
5841.25154032
5350.95427998
4860.80344183
8291.835355
7802.00436091
7312.02645715
6821.87776613
6331.6181279
5841.25456629
5350.95727133
4860.81227967
8292.02288818
7802.17761162
7312.1592639
6821.99614821
6331.67880281
5841.23783083
5350.9873157
4860.62958867
)
;
    }
    atmosphere
    {
        type            calculated;
        value           nonuniform List<scalar> 7(-9.81003253801 -9.81000693661 -9.80999991622 -9.81000011492 -9.81000002347 -9.8100002104 -9.8117435213);
    }
    floatingObject
    {
        type            calculated;
        value           nonuniform List<scalar> 8(4366.22567066 3873.766021 3381.14846564 2887.68097043 4615.80147531 4615.99462386 4616.00312998 4615.82016947);
    }
    procBoundary3to4
    {
        type            processor;
        value           nonuniform List<scalar> 
13
(
4865.65285958
4373.39968543
3880.82266657
8299.89277775
7809.93664356
7319.69832586
6829.14228212
5847.06942257
5355.53941295
5355.53941295
6336.44007261
6336.44007261
6336.44007261
)
;
    }
    procBoundary3to5
    {
        type            processor;
        value           nonuniform List<scalar> 10(3387.93192578 2894.73887361 2401.25425906 1907.4760386 1413.37656824 920.418061996 428.772656708 87.2545117289 -9.06866859285 -9.56311550185);
    }
    procBoundary3to6
    {
        type            processor;
        value           nonuniform List<scalar> 8(2393.16727898 1901.11892545 1410.37478689 918.881554986 431.355002691 90.3964249566 -9.07711981907 -9.58238453047);
    }
    procBoundary3to8
    {
        type            processor;
        value           nonuniform List<scalar> 8(8292.41312554 7802.55847268 7312.53347949 6822.285484 6331.77351033 5841.06578218 5350.1035705 4858.97040314);
    }
}


// ************************************************************************* //
