/*--------------------------------*- C++ -*----------------------------------*\
| =========                 |                                                 |
| \\      /  F ield         | OpenFOAM: The Open Source CFD Toolbox           |
|  \\    /   O peration     | Version:  v2012                                 |
|   \\  /    A nd           | Website:  www.openfoam.com                      |
|    \\/     M anipulation  |                                                 |
\*---------------------------------------------------------------------------*/
FoamFile
{
    version     2.0;
    format      ascii;
    class       surfaceVectorField;
    location    "4.7";
    object      Uf;
}
// * * * * * * * * * * * * * * * * * * * * * * * * * * * * * * * * * * * * * //

dimensions      [0 1 -1 0 0 0 0];


internalField   nonuniform List<vector> 
296
(
(0.00118539432386 0.000376321614569 1.03953537025e-20)
(0.000930444034422 0.000400673173049 2.58803585114e-20)
(0.00149964503282 0.00054576473951 1.29763838864e-20)
(0.00124482602088 0.000607229888767 3.72576664459e-20)
(0.00178566867372 0.000736919874158 1.424411519e-20)
(0.00157862109044 0.000658536657952 4.18240320512e-20)
(0.00201641952046 0.00121736004536 1.61124247602e-20)
(0.00163218629804 0.000826919411041 4.56535044701e-20)
(0.00247474695634 0.00226094568088 1.73672894925e-20)
(0.00150553051093 0.00169529105019 5.3813410844e-20)
(0.0034117266014 0.00362942374489 1.55934415367e-20)
(0.00195720856084 0.00343689585888 5.29154689527e-20)
(0.00454465736153 0.00456625307851 1.01469153949e-20)
(0.00342060093864 0.00515284626441 4.37238653745e-20)
(0.0060781488424 0.00445690814439 4.77516991371e-21)
(0.00515581283833 0.00548067749622 1.76108522891e-20)
(0.00864069353177 0.0030609954731 4.78376036694e-21)
(0.00782310770726 0.00545402877003 8.64837822819e-21)
(0.011468424503 0.00189368680826 7.57729150388e-21)
(0.0106635054373 0.00106464193849 8.54931834279e-21)
(0.0123527239389 0.0018172066063 8.70569662746e-21)
(0.0126018666096 0.00233908694555 9.05018966376e-21)
(0.00786883077143 0.00131723307055 4.27186246673e-21)
(0.0122053569457 0.00271405471292 9.01705175095e-21)
(0.00357400574463 0.00145953929693 7.03361319184e-22)
(-0.00122427729636 -0.000157222678631 9.83493678153e-22)
(-0.00154065066617 -0.000228204056737 1.4484320302e-21)
(-0.000444564180036 -0.000236116527398 4.48285479593e-22)
(-0.000789750864744 -0.000184892060195 7.41884506456e-22)
(0.000170559383316 -0.000241541404883 5.61314501341e-22)
(-5.08582771151e-05 -0.000237969468503 6.51748005816e-22)
(0.000368681432337 -0.000220795188565 1.99486448621e-21)
(0.000646381565988 0.000126682191421 1.52919776399e-20)
(0.000538269045883 3.71627569521e-05 2.33954240267e-20)
(0.000732853839475 0.000364287317141 3.26221747898e-20)
(0.000549565969293 0.000263888377531 6.07887942466e-20)
(0.000969805844772 0.000637256722867 5.27426712547e-20)
(0.000657636901033 0.000575197406836 1.19699487858e-19)
(0.00131785159622 0.000753060470728 6.61053146107e-20)
(0.00112931990395 0.000756181384162 1.72463550529e-19)
(0.00143940931905 0.000776991435997 7.32334213312e-20)
(0.00155508980705 0.000523772014587 1.93393936438e-19)
(0.00114409111676 0.00126385861567 8.33544905539e-20)
(0.00114581557069 0.000305453387336 2.19522149553e-19)
(0.00100453780713 0.00280497870338 8.93615903043e-20)
(-3.50679938226e-05 0.00129107651419 2.74639919444e-19)
(0.00200626342261 0.00500157592712 8.10458927905e-20)
(-0.000238886491388 0.00404763066215 2.62151467835e-19)
(0.00414010449008 0.00632472906557 5.11878022687e-20)
(0.00209785156351 0.00672974601829 1.97130288891e-19)
(0.00707708976277 0.00592561117373 2.14840606036e-20)
(0.00555521711616 0.0071429544691 7.64877557277e-20)
(0.010117562277 0.00403516002095 1.2413936204e-20)
(0.00971370893402 0.00658391074932 2.97228421936e-20)
(0.0121864417376 0.00273317053465 1.00222165027e-20)
(0.0119655275508 0.00189828840712 2.31029549651e-20)
(0.0126968417534 0.00238131785921 9.36154478725e-21)
(0.0129528759981 0.00295743429239 2.36243248387e-20)
(0.00797701889658 0.0018137271415 5.44855060341e-21)
(0.0127711377911 0.00291164932386 2.34335585668e-20)
(0.00309351277528 0.00130869377818 3.72495132309e-21)
(-0.00110813110407 -0.00016453110162 1.20682285851e-21)
(-0.00137600080317 -0.000231146965278 1.66081719636e-21)
(-0.000401368194232 -0.000249964079416 9.45347032679e-22)
(-0.000704220636707 -0.000199328213025 1.17438189341e-21)
(0.0001391117886 -0.000258620128596 2.08529799069e-21)
(-4.21317476451e-05 -0.000263646432425 2.01135523636e-21)
(0.000387929637558 -0.000196391764439 7.47373473166e-21)
(0.000306536289993 -0.00025619024146 7.41304323552e-21)
(0.000428488993736 -6.47673309089e-05 2.49957906152e-20)
(0.000388255489291 -0.000170326583396 2.83018774818e-20)
(0.000395755116376 0.000153154315902 6.88922406333e-20)
(0.000320419336197 -3.28519355988e-05 9.3638477708e-20)
(0.000436844468274 0.000448506568839 1.47866107315e-19)
(0.000254323368695 0.000173308827933 2.44523243642e-19)
(0.000780403548092 0.000714193542287 2.39420367133e-19)
(0.000392116023695 0.000504324511858 4.78734020884e-19)
(0.00130713491777 0.000607038648374 2.99752172357e-19)
(0.00123672867964 0.000529394226278 6.79473980364e-19)
(0.00119457785007 0.000124189122636 3.3968266466e-19)
(0.00203827790962 -0.00028957552851 7.45686570399e-19)
(-1.33978396159e-05 0.000281944738778 4.10807578444e-19)
(0.00098846420028 -0.00130009309832 8.55384408574e-19)
(-0.00125506371034 0.00241497838187 4.47429796975e-19)
(-0.00216767558162 -0.000479831342768 1.13476436073e-18)
(-0.000112861694565 0.00597366675694 3.78235863935e-19)
(-0.00379717442999 0.00385638852702 1.03650988973e-18)
(0.00363675609905 0.00770657937623 2.2243024235e-19)
(0.000365272511301 0.00807559497137 7.36380730586e-19)
(0.00833893335493 0.00716790655018 8.47265373177e-20)
(0.006094128891 0.00835187978186 2.89107453041e-19)
(0.0118509592544 0.00499589245534 4.04118609547e-20)
(0.0118858529436 0.00757028529377 1.08193149103e-19)
(0.0131583979593 0.00333651485502 3.67050633012e-20)
(0.0136249375451 0.002586549852 7.54274964209e-20)
(0.0132723996955 0.00240722038627 3.76963386183e-20)
(0.01388174 0.00330082518022 7.13216786701e-20)
(0.00808158025567 0.00154095068947 2.17099592865e-20)
(0.013636457192 0.00291732145386 7.072956866e-20)
(0.00302154970479 0.000231393529806 9.77606465175e-21)
(-0.000976485143472 -0.000173669789256 1.62837623126e-21)
(-0.00120222765892 -0.000238615285771 1.83482181667e-21)
(-0.000345343273189 -0.000282384535551 2.24039009709e-21)
(-0.000595410209777 -0.000228255217937 2.03078318579e-21)
(0.000121109312489 -0.000306587981483 7.3391004812e-21)
(-1.78524275971e-05 -0.000314036922097 6.01474740721e-21)
(0.000301933645341 -0.00027794813276 2.82411859857e-20)
(0.000277964216591 -0.000340254459009 2.47428877e-20)
(0.000264206519405 -0.0002021409203 9.69445645747e-20)
(0.000312513946867 -0.000319552006264 9.55683051586e-20)
(0.000154055606901 -6.39048535499e-05 2.69269480716e-19)
(0.000182262587625 -0.000310404312018 3.19938875261e-19)
(0.000193379702578 0.000181835446856 5.75391157211e-19)
(8.700584041e-06 -0.000306665166447 8.38002169456e-19)
(0.000887177070963 0.000394182269471 9.18787634115e-19)
(0.000179937135386 -7.70736469298e-05 1.63032606979e-18)
(0.00206223022052 -0.000232674267829 1.12540837841e-18)
(0.0018638232352 -0.000221815130712 2.26379712126e-18)
(0.00189794754193 -0.00168603009921 1.26138831431e-18)
(0.00349193525072 -0.00160653980897 2.34754927184e-18)
(-0.000983176067436 -0.00182076804691 1.57934119086e-18)
(0.00112355609992 -0.00374048101387 2.50596694043e-18)
(-0.00447249916472 0.000633719045533 1.72384445348e-18)
(-0.00462179738917 -0.0033438716047 3.24173110219e-18)
(-0.00321658794941 0.00626432833551 1.39465475638e-18)
(-0.00942743685345 0.00279819537218 2.9819263494e-18)
(0.00293127544035 0.00874692537894 8.03057941277e-19)
(-0.0021170308775 0.00905564844888 2.00937137341e-18)
(0.0097930194233 0.00811672803897 3.12574064826e-19)
(0.00672454119226 0.00852561108569 8.19864870044e-19)
(0.0138851495735 0.0058190321882 1.43208784569e-19)
(0.0141836691675 0.00789460688115 3.33236794462e-19)
(0.014660746783 0.00390920569594 1.1004411179e-19)
(0.0155347968081 0.00298736799653 2.16431636547e-19)
(0.0143898730849 0.00239315888408 1.04354908712e-19)
(0.0153974862111 0.00368963859522 1.93536028627e-19)
(0.00874396261315 0.00142007763124 5.87956740253e-20)
(0.0146090771038 0.00348875707992 1.91948412726e-19)
(0.0044940371563 -7.88929960109e-05 2.47550406525e-20)
(-0.000822818577238 -0.000200368295013 2.2372287712e-21)
(-0.00100176894951 -0.000259469515247 1.92640588206e-21)
(-0.000263518491756 -0.000331754637193 5.80514049592e-21)
(-0.000463935787882 -0.000273761325154 3.96813542663e-21)
(0.000159414599298 -0.000402105800888 2.3418534626e-20)
(5.25756701414e-05 -0.000373879004134 1.61400957589e-20)
(0.000344518900525 -0.000446687873212 9.20700068729e-20)
(0.000322616092931 -0.000438970103762 6.89403813397e-20)
(0.000329064132997 -0.000540850267553 3.18562615845e-19)
(0.000406747955104 -0.000529649113678 2.66016369302e-19)
(0.00015887374511 -0.000685605122466 8.88671564001e-19)
(0.000327104409646 -0.000836418232003 8.9943349925e-19)
(4.08753709627e-05 -0.000675565583642 1.89293708203e-18)
(-1.21983751654e-06 -0.0014980083075 2.35801169355e-18)
(0.00106658760178 -0.000529472020098 2.97533555693e-18)
(3.40080662509e-05 -0.00150251373091 4.47036049219e-18)
(0.00308780009021 -0.0014016633302 3.48593801469e-18)
(0.00273624000517 -0.00123766697571 6.09595377827e-18)
(0.00249907816007 -0.0035388196618 3.59212789796e-18)
(0.00562937414348 -0.00230188854673 6.03785224684e-18)
(-0.00299851796924 -0.00453820527539 4.16835685177e-18)
(0.00212326409857 -0.00426879665763 5.41326891218e-18)
(-0.00962294909329 -0.00199923393923 4.49981299811e-18)
(-0.00716043317445 -0.00402455091778 6.59427034744e-18)
(-0.0078765726762 0.00598331809454 3.59664296643e-18)
(-0.017409650129 0.00251929421245 5.58044722919e-18)
(0.00187494411515 0.00860004824755 2.02617830218e-18)
(-0.00473345247346 0.00897031780197 3.6608876461e-18)
(0.0112898544462 0.00774733640531 8.40527599679e-19)
(0.00757748737454 0.00681885874163 1.64543033958e-18)
(0.0159758954181 0.00569620305771 4.0645964644e-19)
(0.0162349389607 0.00677587622474 7.42924228502e-19)
(0.0163331839868 0.00423425428137 2.99923553384e-19)
(0.016996787774 0.00292212769173 4.94206616584e-19)
(0.0156597216862 0.0032497668419 2.81129532641e-19)
(0.0163817945102 0.00441123749256 4.25443654554e-19)
(0.0102362825146 0.00265404602203 1.57907779353e-19)
(0.0152043408253 0.0048851330022 4.21826504575e-19)
(0.00736046525911 0.00243224658107 8.12369227856e-20)
(-0.000643964480602 -0.000240658772103 3.65731253748e-21)
(-0.000761028917465 -0.000292082918633 2.23847760549e-21)
(-0.000167646437403 -0.000392647602985 1.43030906896e-20)
(-0.000311866395432 -0.000344466537794 8.09121957526e-21)
(0.000173310775131 -0.000455264886996 6.16619424726e-20)
(0.000115267408214 -0.000491534806022 3.61719834377e-20)
(0.000328516199376 -0.000603281398082 2.42886743769e-19)
(0.00047070296629 -0.000620995082128 1.52163210314e-19)
(0.000348772593275 -0.00097371585417 8.46887252707e-19)
(0.000777255597176 -0.000800546330029 5.75285689958e-19)
(0.000123885513643 -0.00188084415619 2.3687736288e-18)
(0.00123431865588 -0.00126112056212 1.89483704984e-18)
(3.12784041725e-06 -0.00267606337978 4.93543510371e-18)
(0.000794111337604 -0.00201222084008 5.0021902491e-18)
(0.00181324424873 -0.00181499475491 7.59097871353e-18)
(-0.000826896828971 -0.00165834610753 9.61271158785e-18)
(0.00564337386047 -0.00171006135949 8.64786801041e-18)
(0.00263153067266 0.000207548716981 1.44673470405e-17)
(0.00568983635226 -0.00322287154762 7.85899326105e-18)
(0.00714245746207 0.00127566366416 1.4092270632e-17)
(-0.000878210013219 -0.00297224839047 7.83918240785e-18)
(0.00187295086547 0.00725077611243 9.82689272864e-18)
(-0.0133373526828 8.30386333033e-05 7.67490457852e-18)
(-0.0102153626795 0.000837506511381 1.08962614818e-17)
(-0.0135250831545 0.00604303798924 5.64469190886e-18)
(-0.0233692434805 0.00160315451357 6.76080238413e-18)
(0.00111076517956 0.00660747643633 3.2801396835e-18)
(-0.00529752422383 0.0056022561625 4.5258945936e-18)
(0.012427499261 0.00547950752157 1.5478269684e-18)
(0.00870573625523 0.00226933169914 2.29540501101e-18)
(0.0171384244616 0.00462266598417 8.30671198647e-19)
(0.0170919450029 0.00385275419714 1.19286409097e-18)
(0.0169305567251 0.00460667921954 6.19726717755e-19)
(0.01701282679 0.00240484973267 8.45067229771e-19)
(0.0158635132107 0.00530319381165 5.66140626489e-19)
(0.0156850654718 0.00551977862051 7.28921387644e-19)
(0.0126301205609 0.00618269660362 3.45155648008e-19)
(0.0143241229657 0.00670124603382 7.23696304366e-19)
(0.0109036738582 0.0080117283577 1.87697875991e-19)
(-0.000397702693839 -0.000297167187168 6.67238464327e-21)
(-0.000463788044732 -0.000307374355053 3.25671255447e-21)
(4.94802723945e-05 -0.000512014440311 2.99601123233e-20)
(-9.69456883359e-05 -0.000344977184811 1.50534773982e-20)
(0.000488296165444 -0.000684246221551 1.26673251279e-19)
(0.000287568635641 -0.000441688216446 6.63117976977e-20)
(0.000977685288538 -0.000902275183307 4.84562156504e-19)
(0.000688798177024 -0.000446118132 2.62672889503e-19)
(0.00168739946697 -0.00122851804964 1.62323548709e-18)
(0.00110356528717 -0.000266107274145 9.21827810676e-19)
(0.00166408557245 -0.00175246495949 4.52825367014e-18)
(0.00175834080916 -0.000352095230948 2.81190936485e-18)
(-0.000533120517293 -0.00176202459611 9.67946673324e-18)
(0.000803776566532 0.000353347709251 6.8411406843e-18)
(-0.000264925408453 0.000884650720524 1.64890799148e-17)
(-0.00347343041328 -0.000609223158745 1.25313344723e-17)
(0.00359625844791 0.00351630582359 1.9911749662e-17)
(0.00255060239419 0.0106589103388 1.60601700996e-17)
(-0.00919873042148 0.0125320384128 1.28839718026e-17)
(-0.0218475348428 0.00231689913274 9.98215928739e-18)
(-0.0157309534685 0.00174520924561 5.64200506888e-18)
(0.00161278356109 0.00048241790851 3.54115992111e-18)
(0.0129142355309 0.00031947162171 1.94044213358e-18)
(0.0165553463185 0.00216467522444 1.2072601221e-18)
(0.0154972509045 0.00486185372028 9.5426189966e-19)
(0.0141912860641 0.00825605050405 8.86477065521e-19)
(0.0135004640855 0.0108296581317 5.66238532349e-19)
(-0.000189045751365 -0.00025343070837 1.16378053094e-20)
(-0.000210291807744 -0.000317937081228 5.15384434577e-21)
(0.000122700090369 -0.000318695872968 5.14051627726e-20)
(-3.16157295023e-05 -0.000331719730536 2.36217946331e-20)
(0.000470429789448 -0.00020629758055 2.02311435921e-19)
(0.000175231238362 -0.000354615028099 1.03241171378e-19)
(0.00090948627362 0.000119320330103 6.99938543675e-19)
(0.000363236336479 -0.000205692525933 3.91526003593e-19)
(0.00153303408985 0.000592962951363 2.11050168843e-18)
(0.000629976070453 0.000343556029311 1.26198617499e-18)
(0.00153937342162 0.00136919116349 5.12479637901e-18)
(0.000982170878343 0.000717292578147 3.76454851435e-18)
(-0.000910503688657 0.00125865291694 9.69300842336e-18)
(0.000914380550671 0.00233898072606 8.95601893014e-18)
(-0.0022147518539 0.000723964453521 1.84715968576e-17)
(-2.46783663265e-05 -0.000294279096902 1.71378336695e-20)
(8.40453217499e-05 -0.000331711331624 6.60505965151e-21)
(5.34218579541e-05 -0.000404857723613 7.54578032381e-20)
(7.90182078518e-05 -0.000359976780275 2.82491556872e-20)
(0.000105154657139 -0.000306285080863 2.92455739049e-19)
(7.67081695137e-05 -0.000406845788551 1.22950948819e-19)
(0.000128360950758 -1.0415230451e-05 9.53573634906e-19)
(6.74084705176e-05 -0.000281591791886 4.61864204629e-19)
(0.000133874466177 0.000553941622887 2.9160330009e-18)
(6.56531992368e-05 0.000251462398017 1.44562849734e-18)
(0.000111263213921 0.00147123573197 7.59577106548e-18)
(6.49080786247e-05 0.00077620671941 4.38733626721e-18)
(-0.00111492816602 0.00231152882123 1.77346073644e-17)
(7.41230351077e-05 0.00226773271757 1.08058108287e-17)
(9.67850036263e-05 0.00181353736566 2.46595793815e-17)
(0.000184947317338 -0.000290884619332 1.77163816693e-20)
(0.000374979277969 -0.000315663077186 6.18685373139e-21)
(9.53331297485e-05 -0.00039936712592 7.57423012681e-20)
(0.000187545488389 -0.000329512562699 2.41101749226e-20)
(3.63664809274e-05 -0.000311436545797 2.92359414398e-19)
(-1.11863356305e-05 -0.000354873780565 1.03397216733e-19)
(8.88248927584e-06 -1.4442774038e-05 9.53919067065e-19)
(-0.000229559375703 -0.000212141500419 3.91270130554e-19)
(2.23237862967e-06 0.000551816186592 2.91693176366e-18)
(-0.000500592571221 0.000328218272181 1.26260159219e-18)
(2.5563926791e-05 0.00146583234918 7.59737603046e-18)
(-0.000849095199955 0.000689271001402 3.76571945883e-18)
(0.00129025841849 0.00229263351139 1.77307828458e-17)
(-0.000752670040922 0.00232938953052 8.95815163212e-18)
(0.00238943433284 0.000710308820653 1.84720095888e-17)
(0.000351114928289 -0.000252074347857 1.25806469848e-20)
(3.42090313978e-05 -0.000323905560621 5.1765090387e-20)
(-0.000318367578979 -0.000203987268284 2.02307932889e-19)
(-0.000764533477112 9.91419229168e-05 6.99952655676e-19)
(-0.00139588406155 0.000555198268302 2.11138928736e-18)
(-0.00139786431313 0.00133329019034 5.12649506048e-18)
(0.00106843702405 0.00125274412863 9.69937837513e-18)
)
;

boundaryField
{
    back
    {
        type            calculated;
        value           uniform (0 0 0);
    }
    sides
    {
        type            calculated;
        value           nonuniform List<vector> 0();
    }
    bottom
    {
        type            calculated;
        value           uniform (0 0 0);
    }
    front
    {
        type            calculated;
        value           uniform (0 0 0);
    }
    atmosphere
    {
        type            calculated;
        value           nonuniform List<vector> 7((0.00376113763255 0.00153047938606 -1.37810355847e-22) (0.00347890825443 0.00229337042072 1.54453299422e-21) (0.0030551983144 0.00161246445023 5.90536965196e-21) (0 -5.26899239842e-05 0) (0 -0.000212817165928 0) (0.00998804619838 0.00263895927085 1.26610523918e-19) (0.0132845822317 0.00785025927058 2.48785228064e-19));
    }
    floatingObject
    {
        type            calculated;
        value           nonuniform List<vector> 8((0 -2.22044604925e-15 2.77555756156e-16) (0 0 2.77555756156e-16) (0 0 0) (0 -4.4408920985e-15 2.77555756156e-16) (5.55111512313e-16 0 0) (0 0 2.77555756156e-16) (0 0 2.77555756156e-16) (0 0 0));
    }
    procBoundary3to4
    {
        type            processor;
        value           nonuniform List<vector> 
13
(
(0.00113317509628 0.000144401108966 5.09545275722e-21)
(0.00141355280757 0.00030071155588 7.27479288389e-21)
(0.00176897125318 0.000424575088329 8.12288055247e-21)
(-0.00169807931738 -0.000218753590417 1.34099509671e-21)
(-0.000868806986462 -0.000177298119654 5.31527452859e-22)
(-5.6460648919e-05 -0.000231256826547 2.12566026239e-22)
(0.000430151636219 -0.000219700814401 5.07132822545e-22)
(0.000725795386204 -1.69121025189e-05 5.17202653004e-21)
(0.0009659944365 0.00017331945184 6.47147951352e-21)
(0.000787048242976 0.000160098308656 1.32132957919e-20)
(0.000485853782362 -0.000180103109389 1.78412750762e-21)
(0.000599766716047 -6.08918044946e-05 5.66263116459e-21)
(0.000519872777564 -0.000122470917376 7.26299775307e-21)
)
;
    }
    procBoundary3to5
    {
        type            processor;
        value           nonuniform List<vector> 10((0.00211144120771 0.00065259629975 8.79700460152e-21) (0.00254796167502 0.00125933230169 1.03677491087e-20) (0.00332452615206 0.0022846008044 1.05309568984e-20) (0.00435652345156 0.00331704695276 8.71961059815e-21) (0.00504577481559 0.00353952989886 4.88591575698e-21) (0.00642684584888 0.00412533602294 2.52876262942e-21) (0.00949610562351 -6.68575148154e-05 6.82893462648e-21) (0.0125270965802 0.00117738866923 1.11071587433e-20) (0.0117122927987 0.00216193759174 1.0886339519e-20) (0.00379202534235 0.000373869572037 -1.77826520962e-22));
    }
    procBoundary3to6
    {
        type            processor;
        value           nonuniform List<vector> 8((-0.0227971270451 -0.00559943412131 5.61903552532e-18) (-0.00403433727802 -0.00215456571507 4.0587894006e-18) (0.00886898866079 -0.00506955000132 2.4339217974e-18) (0.0152469234671 -0.000512207755018 1.53820748755e-18) (0.0143157015555 0.00148891551512 1.18236488833e-18) (0.0122906065374 0.00693382298983 1.05296712963e-18) (0.011749748711 0.00853499102588 1.04658437867e-18) (0.0138825524001 0.0150637995539 3.17055542017e-19));
    }
    procBoundary3to8
    {
        type            processor;
        value           nonuniform List<vector> 8((0.000627091636629 -0.000302462781244 4.40761612607e-21) (0.00025940669779 -0.000341032893928 1.55059189256e-20) (-0.000131083301249 -0.000444962723441 6.64207312586e-20) (-0.000532680284458 -0.000464383089524 2.62243482516e-19) (-0.000956646604917 -0.000303259837504 9.22415491933e-19) (-0.00162719194543 -0.000410004699098 2.81515404213e-18) (-0.000672102392931 0.000286676125792 6.85347956891e-18) (0.00364218897968 -0.000681315759967 1.25488710337e-17));
    }
}


// ************************************************************************* //
