/*--------------------------------*- C++ -*----------------------------------*\
| =========                 |                                                 |
| \\      /  F ield         | OpenFOAM: The Open Source CFD Toolbox           |
|  \\    /   O peration     | Version:  v2012                                 |
|   \\  /    A nd           | Website:  www.openfoam.com                      |
|    \\/     M anipulation  |                                                 |
\*---------------------------------------------------------------------------*/
FoamFile
{
    version     2.0;
    format      ascii;
    class       surfaceScalarField;
    location    "0.5";
    object      alphaPhi0.water;
}
// * * * * * * * * * * * * * * * * * * * * * * * * * * * * * * * * * * * * * //

dimensions      [0 3 -1 0 0 0 0];
oriented        oriented;


internalField   nonuniform List<scalar> 
300
(
5.43731996009e-05
-0.000151188545969
0.000110677431016
-0.000153713815748
0.000168724353091
-0.000148295953689
0.000230799854236
-0.000136250749845
0.000302976732633
-0.000115642991765
0.00039421973953
-8.149424833e-05
0.000531271720514
-2.69156708385e-05
0.000758920908576
5.45755813537e-05
0.000854940762322
-9.60192995188e-05
0.00107860657681
-0.000223665543555
0.00138973130454
-0.000311124616485
0.00183971257089
-0.000449981035681
0.00160022696721
-0.000872072672965
-0.00110071525884
5.77240097284e-05
-0.000208912578767
0.000118037276959
-0.000214027092852
0.000181690705344
-0.000211949369542
0.000251790322504
-0.000206350323201
0.000333384449643
-0.000197237044337
0.000436067711913
-0.000184177408379
0.000579678525545
-0.00017052633645
0.000794224981389
-0.000159970621536
0.000958620382071
-0.000260413932008
0.00111572889697
-0.000380773737626
0.00130988487265
-0.000505280440857
0.00151541171493
-0.000655507594808
0.00151597894781
-0.000872639596854
-0.00112304136519
5.93019839212e-05
-0.00026821454239
0.00012147023968
-0.00027619531633
0.000187451698369
-0.000277930775385
0.000260299449056
-0.000279197992797
0.00034435009719
-0.000281287568359
0.000446183331922
-0.000286010475849
0.000574162776391
-0.000298505416501
0.000738283763366
-0.000324091299593
0.000880128193637
-0.000402257728888
0.00101083519827
-0.000511480387555
0.00114230592334
-0.000636751037081
0.0012663610847
-0.000779562436557
0.00134546544071
-0.000951743647056
-0.00114918727193
5.88806912845e-05
-0.000327095193602
0.000120564697227
-0.000337879267182
0.000185762845877
-0.000343128836185
0.000256937294952
-0.000350372327161
0.000337053547704
-0.000361403646933
0.000429564950896
-0.000378521512534
0.000537122312408
-0.000406062461811
0.000661693461707
-0.000448662142635
0.000781056480344
-0.000521620184246
0.000890347511595
-0.000620771115651
0.000992022243273
-0.000738425605993
0.00108532283383
-0.00087286272332
0.00115926668264
-0.00102568721419
-0.00119419660951
5.66663282549e-05
-0.000383761434441
0.000115848900083
-0.000397061729208
0.000177921619809
-0.000405201391385
0.000244635442535
-0.000417085925935
0.000317805101501
-0.000434573022557
0.000399056176781
-0.000459772293657
0.000488914939101
-0.000495920903389
0.000586831471833
-0.000546578100483
0.000683327096517
-0.000618115459872
0.000773066061452
-0.000710509913582
0.000855273689985
-0.00082063295798
0.000929165727012
-0.00094675448999
0.000991485334851
-0.00108800656457
-0.00124225595686
5.30144881115e-05
-0.000436775655617
0.000108137890815
-0.00045218484418
0.000165453384322
-0.000462516610805
0.000226073828198
-0.000477706088008
0.000291015099789
-0.000499514010603
0.000360929333161
-0.000529686230461
0.000435582589893
-0.000570573896534
0.000513722767152
-0.000624717863696
0.000590780674355
-0.00069517309882
0.000662983092027
-0.000782712119785
0.000728681475884
-0.000886331091252
0.000786963280297
-0.00100503606244
0.00083694438107
-0.00113798745179
-0.00128404062531
4.83051469915e-05
-0.000485080762723
9.82747910725e-05
-0.00050215444109
0.00014978366783
-0.000514025378547
0.000203435066034
-0.000531357300219
0.000259712405525
-0.000555791021522
0.000318741642653
-0.000588715068166
0.000380001430696
-0.000631833283354
0.000442207520487
-0.000686923709352
0.000502769888205
-0.000755735216274
0.000559150333967
-0.000839092421041
0.000609745852992
-0.00093692639806
0.000653646487701
-0.0010489365023
0.000690583492718
-0.00117492427466
-0.00131490985882
4.28919217403e-05
-0.000527972673662
8.70149934758e-05
-0.000546277494458
0.000132111328011
-0.000559121673262
0.000178402032885
-0.00057764793115
0.000226016120685
-0.000603404997144
0.000274784749425
-0.00063748352372
0.000324076952298
-0.000681125275599
0.000372742557254
-0.000735589109107
0.000419047803509
-0.000802040302199
0.000461165796848
-0.000881210208262
0.000497660367747
-0.00097342079427
0.00052760032985
-0.00107887630559
0.0005505977928
-0.00119792158643
-0.00133145699165
3.70762945199e-05
-0.000565048980518
7.4982786899e-05
-0.000584183988665
0.000113390053815
-0.000597528920833
0.000152244367518
-0.000616502196807
0.000191436580322
-0.00064259711812
0.000230624525748
-0.000676671312744
0.000269135357242
-0.000719635955597
0.000305937681482
-0.000772391271103
0.000339681431053
-0.000835783898334
0.000368916242118
-0.000910444849637
0.000392360918458
-0.000996865331021
0.000408901568613
-0.00109541682916
0.000417721183562
-0.00120674107975
-0.00133202503463
3.1086788522e-05
-0.0005961357785
6.26577294774e-05
-0.000615754928233
9.43454768326e-05
-0.000629216646595
0.000125902576542
-0.000648059246989
0.000157059769074
-0.00067375422067
0.000187365546272
-0.000706976920146
0.000216119005339
-0.000748389248455
0.000242380890341
-0.000798652997909
0.000264990210413
-0.000858393071799
0.000282661604169
-0.000928116101342
0.00029409525786
-0.00100829887151
0.000298064971937
-0.00109938644587
0.000293382123589
-0.00120205813661
-0.00131732698959
2.51019745381e-05
5.04025095513e-05
7.55140445823e-05
0.000100062796494
0.00012366451429
0.000145798974243
0.000165755397304
0.000182625984177
0.000195351481262
-0.000871118397915
0.000202727815358
-0.000935492311245
0.000203487348011
-0.00100905831467
0.000196210202798
-0.00109210923404
0.000179326311396
-0.00118517417294
-0.00128890133372
0.000131125481991
0.000129536803304
0.000120977828899
0.000104036935714
-0.00107516829489
7.69026820677e-05
-0.00115803987994
-0.00124935190403
2.20715774913e-05
-1.3148295275e-05
-0.00120171292148
)
;

boundaryField
{
    back
    {
        type            calculated;
        value           uniform 0;
    }
    sides
    {
        type            calculated;
        value           nonuniform List<scalar> 0();
    }
    bottom
    {
        type            calculated;
        value           uniform 0;
    }
    front
    {
        type            calculated;
        value           uniform 0;
    }
    atmosphere
    {
        type            calculated;
        value           nonuniform List<scalar> 0();
    }
    floatingObject
    {
        type            calculated;
        value           uniform 0;
    }
    procBoundary8to3
    {
        type            processor;
        value           nonuniform List<scalar> 8(9.68151903272e-05 9.74094455156e-05 9.02489276206e-05 7.41752018607e-05 4.34661382277e-05 -9.74856962338e-06 -0.000110136009766 -0.000282224392208);
    }
    procBoundary8to6
    {
        type            processor;
        value           nonuniform List<scalar> 
16
(
0.00111155867199
0.00103056635375
0.00167037611795
0.00153830522296
0.00137161144197
0.00120427612454
0.00103954481691
0.000878729195746
0.000721452849361
0.000567145029266
0.000418289320383
0.000278684165673
0.000150900728764
3.73533040137e-05
-6.07872495934e-05
-0.000144094152316
)
;
    }
    procBoundary8to7
    {
        type            processor;
        value           nonuniform List<scalar> 
17
(
-0.00062123774946
-0.000641055449519
-0.000654328148927
-0.000672607927133
-0.000697355817548
-0.000729111207661
-0.000768345414536
-0.000815523369875
-0.000127105053744
-0.000875138648597
-0.000933903516612
-0.00100049927457
-4.70178261633e-05
-0.00105022196812
-0.00112282001387
9.09153396005e-05
-0.00114853409342
)
;
    }
}


// ************************************************************************* //
