/*--------------------------------*- C++ -*----------------------------------*\
| =========                 |                                                 |
| \\      /  F ield         | OpenFOAM: The Open Source CFD Toolbox           |
|  \\    /   O peration     | Version:  v2012                                 |
|   \\  /    A nd           | Website:  www.openfoam.com                      |
|    \\/     M anipulation  |                                                 |
\*---------------------------------------------------------------------------*/
FoamFile
{
    version     2.0;
    format      ascii;
    class       surfaceVectorField;
    location    "0.5";
    object      Uf_0;
}
// * * * * * * * * * * * * * * * * * * * * * * * * * * * * * * * * * * * * * //

dimensions      [0 1 -1 0 0 0 0];


internalField   nonuniform List<vector> 
300
(
(-0.0248435960971 0.0108655333809 1.2822899622e-22)
(-0.0302304384992 0.00702177804584 1.15158562494e-21)
(-0.024223986596 0.0221153238238 -3.64752786553e-22)
(-0.0307239634563 0.0165195949685 -1.01333112596e-21)
(-0.021927049619 0.0337198401375 1.30124028889e-22)
(-0.0296504129689 0.0286267187273 -2.32559191144e-22)
(-0.0173364424665 0.0461408750337 2.05909474993e-21)
(-0.027268311511 0.0414644326965 1.47874010497e-22)
(-0.00901715804336 0.0605986326135 1.1424638123e-20)
(-0.0231855772965 0.0556017678987 2.39361401741e-21)
(0.00526948262011 0.0788954027824 9.34227288681e-20)
(-0.0163987892626 0.0730416112426 9.92728112334e-21)
(0.0301414284198 0.10644419211 1.03308255729e-18)
(-0.00552146611054 0.0954270631905 9.33735396502e-20)
(0.0290137974114 0.152286745802 6.00111648402e-18)
(0.0106888723475 0.131818128835 1.05935479527e-18)
(-0.00514809450746 0.172002851914 1.56554800112e-17)
(-0.0197159523937 0.168482793073 5.66469613114e-18)
(-0.0315953553363 0.21727089638 1.51249488808e-17)
(-0.045267921696 0.203928199421 1.17019304645e-17)
(-0.0529067646498 0.280226776352 1.0921386801e-17)
(-0.0629558514131 0.243910987001 5.08303981414e-18)
(-0.13107174433 0.371503750829 1.09407044829e-17)
(-0.0912770518358 0.309534684057 6.64190968153e-18)
(-0.208069392797 0.322606051173 6.28794787295e-18)
(-0.177221089894 0.335322449165 4.39640279508e-18)
(-0.223760186677 0.317888440293 1.16328314822e-18)
(-0.0364428148742 0.0115249615612 1.00255027598e-23)
(-0.0417554038029 0.00725600528106 2.24418492396e-21)
(-0.0363793115931 0.0235663958892 -8.81137530547e-22)
(-0.0427653870514 0.0172789316214 -1.07653103655e-21)
(-0.0351120851313 0.0362820117202 -2.14809209537e-22)
(-0.0423659986148 0.030014211969 -2.30139084171e-22)
(-0.0327891660736 0.0502982983127 4.82393277972e-22)
(-0.0412845398668 0.0437662765277 1.16859871372e-22)
(-0.0292979868309 0.0666316219263 8.96257017787e-22)
(-0.0395188070121 0.0590181556278 7.57058122437e-22)
(-0.025050233302 0.0872181086881 9.87809190546e-21)
(-0.0369851423802 0.0773099102799 8.31528603675e-22)
(-0.0207454946093 0.116050005832 1.19645777634e-19)
(-0.0343531983461 0.100440927949 1.14356507659e-20)
(-0.0316310280889 0.15917178896 7.22934442389e-19)
(-0.0324327347762 0.13412535564 1.17152667694e-19)
(-0.0545533639895 0.19219507073 1.71114658441e-18)
(-0.0527390725922 0.168492352025 6.52335154303e-19)
(-0.0752811406582 0.22395391392 1.66002139777e-18)
(-0.0770266473074 0.200356880792 1.13552488208e-18)
(-0.100283443487 0.263234794847 8.03562694645e-19)
(-0.102236690591 0.230179230838 5.71471171195e-19)
(-0.146074808243 0.304852905844 9.76079937182e-20)
(-0.132895198766 0.264214380517 2.35366719521e-19)
(-0.199320801934 0.304959026304 -7.28261929642e-19)
(-0.17732729579 0.287291131279 -1.33478757311e-19)
(-0.228343383269 0.291467681378 -4.89628578021e-19)
(-0.0485622031115 0.0118273046181 1.15762838466e-21)
(-0.0535826793969 0.00725100142539 2.88524661531e-21)
(-0.0491500698956 0.0242260671605 -4.25532590169e-22)
(-0.0551641047435 0.0174756190575 -6.59301443646e-22)
(-0.0489683282367 0.0373931870033 1.01529996738e-22)
(-0.0555330529648 0.0303136621859 8.37213811104e-23)
(-0.0485289955496 0.0519432459328 3.91524715837e-22)
(-0.0558345052335 0.0442055540147 2.48485921508e-22)
(-0.0480142461611 0.0687486430075 6.92329708325e-22)
(-0.056324076912 0.0594925954847 3.73875618301e-22)
(-0.0479810435605 0.0891316781703 2.3890874641e-21)
(-0.057368015907 0.0772962230382 5.04951269731e-22)
(-0.0493959387205 0.114776751814 8.94254082596e-21)
(-0.0599980857749 0.0985746197864 2.08398571493e-21)
(-0.0591272295245 0.147658822361 4.65533796078e-20)
(-0.0653146150739 0.125446327039 6.22029817638e-21)
(-0.0793921377883 0.176127358583 7.67134519713e-20)
(-0.0812074414733 0.153371876984 4.0210790031e-20)
(-0.10416986408 0.202446185456 4.6974655504e-20)
(-0.103345356787 0.179182921292 3.73162230049e-20)
(-0.132982146275 0.228995983051 3.27519607055e-21)
(-0.128786439237 0.20304060252 9.53526055505e-21)
(-0.169470232725 0.25404653191 4.27996849151e-21)
(-0.157945770844 0.226197238303 -5.79801312117e-21)
(-0.210852739282 0.269939981265 1.05154594309e-19)
(-0.193220829585 0.245405531219 9.33735158755e-21)
(-0.233646463082 0.255347659706 8.30408152458e-20)
(-0.0607788153318 0.0117273510074 1.06831678701e-21)
(-0.0653099778456 0.00701755826444 2.11760049272e-21)
(-0.0620252680008 0.0240125175092 -1.50047472366e-22)
(-0.0674492020402 0.017096046668 -6.82008390661e-22)
(-0.0628882129033 0.0370044630026 2.30677305881e-22)
(-0.0685249074619 0.0295570928091 1.82092238589e-22)
(-0.0641454181779 0.051197910016 2.30836823973e-22)
(-0.0700278328722 0.0429462351525 4.41092109087e-22)
(-0.0661811351275 0.0671885472137 1.86497179707e-22)
(-0.0723145626589 0.0574176209848 2.23977221956e-22)
(-0.0697175233524 0.0856699406161 1.99849520559e-22)
(-0.0758492279227 0.0737054750615 1.5027019616e-22)
(-0.0758189516248 0.10717753623 -6.38256934654e-22)
(-0.0815054818827 0.0922330049497 1.88110484906e-22)
(-0.0874495200357 0.132092741717 -1.22291400392e-22)
(-0.090229624102 0.113579066573 -9.61610219541e-22)
(-0.105851579113 0.155978270038 8.13561064642e-22)
(-0.105092802795 0.135802880621 8.93347073843e-22)
(-0.12892711233 0.177884197165 -1.23171943976e-22)
(-0.125251170784 0.156903354265 7.84760328171e-22)
(-0.155822381825 0.19830209527 4.62051363326e-22)
(-0.149204291283 0.17631971478 2.79995191803e-22)
(-0.186918789829 0.217023922795 -7.40630025126e-22)
(-0.176667628539 0.194144507374 1.52828670879e-21)
(-0.221866076532 0.231792239327 -1.27764274761e-20)
(-0.207989251566 0.209621998 -4.83362338105e-22)
(-0.242590003556 0.220418301878 -8.18523633385e-21)
(-0.0726638602959 0.0112669543019 3.67275315045e-22)
(-0.0765768654262 0.00659674020213 1.51263152833e-21)
(-0.0744932578618 0.0230331755721 -3.49868679706e-22)
(-0.0792153401759 0.0162208870253 -1.03900750369e-21)
(-0.0762166703759 0.0353790298987 3.92507041795e-22)
(-0.080870656727 0.02793312536 3.5191891827e-23)
(-0.0787783503348 0.0486555129125 4.3423250707e-22)
(-0.0833041830567 0.0403836717445 5.85697884595e-22)
(-0.0825871976287 0.0632261954734 1.87750238409e-22)
(-0.0868850824142 0.0535814645146 1.53287302269e-22)
(-0.0882601017877 0.0794167179153 1.38531160507e-22)
(-0.0920395617909 0.0679934673082 1.13600397591e-22)
(-0.0966160173088 0.0973330462572 -1.35242799981e-22)
(-0.0994216089327 0.0837805832711 1.38213556814e-22)
(-0.109029650274 0.116858941929 5.40282546943e-23)
(-0.109755327022 0.100970212028 -2.37647445143e-22)
(-0.126265803773 0.136094139947 8.64546337372e-22)
(-0.124327842058 0.118615760905 2.75288567776e-22)
(-0.147708949673 0.153980744518 1.18792746395e-21)
(-0.143137673077 0.135554498957 8.51290595126e-22)
(-0.172798018153 0.170358793979 1.34623053727e-21)
(-0.165582306029 0.151185093524 5.64766257417e-22)
(-0.201412491922 0.185043345166 1.78555439581e-21)
(-0.191352227479 0.165288951401 9.61430972983e-22)
(-0.233213542146 0.197354053571 4.1078288041e-21)
(-0.220300094635 0.177575050594 5.77079161621e-22)
(-0.251998278578 0.187382207539 3.16189871927e-21)
(-0.0838719700131 0.0105182013995 1.06348709591e-22)
(-0.0870949946353 0.00603447160456 1.75725045174e-21)
(-0.0861768049162 0.0214532579036 -6.53946932158e-22)
(-0.0901503093078 0.0149631896968 -8.27079378129e-22)
(-0.0885470608737 0.032825861162 2.28382734627e-22)
(-0.092243151644 0.0256621220732 1.59039161312e-22)
(-0.0920311938434 0.0448580931642 3.04752679794e-22)
(-0.0953362806101 0.0369008462856 3.44747561743e-22)
(-0.0969978029928 0.0577521123655 7.9137461451e-23)
(-0.0997789399905 0.04859735137 1.02891052448e-22)
(-0.103924770705 0.0716367412188 1.13282793898e-22)
(-0.105924007252 0.0610421253931 1.63266688776e-22)
(-0.113402119773 0.0864628154958 3.58089116514e-23)
(-0.114247491533 0.0742632791851 1.10661233438e-22)
(-0.126170844606 0.101974306325 -1.6387132061e-23)
(-0.125266638584 0.0881190875484 -6.43767964069e-23)
(-0.142703891728 0.117250027625 2.62032825531e-22)
(-0.139603420587 0.10206446192 2.37968340225e-22)
(-0.162874301561 0.131533188716 2.28129388593e-22)
(-0.157420748618 0.115406228467 2.53318797688e-22)
(-0.186403712002 0.144485596689 1.79966693135e-22)
(-0.178534695673 0.127652573174 1.42662376996e-22)
(-0.213098569664 0.155905558292 -2.47044261206e-22)
(-0.202772257192 0.138527395497 4.74504086239e-22)
(-0.24269841703 0.165596313751 -3.68850923204e-22)
(-0.229991011377 0.147875621525 4.35871621752e-22)
(-0.259983644035 0.155626303162 2.44906397811e-22)
(-0.0941486457734 0.00955819825851 8.23822364022e-22)
(-0.0966531227477 0.0053735220324 1.84598749934e-21)
(-0.0968155004395 0.0194437007769 -1.40932846588e-23)
(-0.100035728454 0.0134382315967 -4.23388908533e-22)
(-0.0996330844297 0.0296338960503 2.75403988428e-22)
(-0.102433244344 0.0229511402411 3.19947664246e-22)
(-0.103715645543 0.0402478358043 1.42885934397e-22)
(-0.105950094144 0.0328236633284 2.77692432008e-22)
(-0.10937940516 0.0513798088593 1.87020279773e-22)
(-0.110910762942 0.0429248315769 6.91667556726e-23)
(-0.116985073163 0.0630516998184 1.60645128316e-22)
(-0.117595730165 0.0534245105834 1.9550432888e-22)
(-0.126951139646 0.0751547752988 1.04755253794e-23)
(-0.126350394251 0.0642800735079 7.12950570002e-23)
(-0.139724344696 0.087425574979 1.89978675879e-22)
(-0.137537280283 0.0753119594887 -1.71136168648e-24)
(-0.155615896669 0.0993370615806 2.29254312382e-22)
(-0.151514786212 0.0861502540851 4.29029486649e-22)
(-0.174666244201 0.110373076277 1.6785178609e-22)
(-0.168456698092 0.0963460554945 3.84011176606e-22)
(-0.196788918296 0.120200541651 4.37199770099e-22)
(-0.188362160476 0.105511976921 2.81142646555e-22)
(-0.221899345275 0.128618126941 1.1574199692e-21)
(-0.211189928146 0.113382351303 4.79585090847e-22)
(-0.249918814172 0.135549968209 1.04962894277e-21)
(-0.23692303191 0.119831156014 1.10492831277e-21)
(-0.265595543596 0.124880374338 3.95588344868e-22)
(-0.103320784068 0.00845871228871 5.98776226782e-22)
(-0.105111772912 0.00465094439654 1.16569681486e-21)
(-0.106245324671 0.0171577063458 -8.93479596283e-23)
(-0.108734649526 0.0117490348098 -6.14440493413e-22)
(-0.109341176373 0.026046308412 3.22236107826e-22)
(-0.111321756511 0.0199762798915 6.51350510819e-23)
(-0.113764171724 0.0351662180638 2.03973253284e-22)
(-0.115069893166 0.028412297527 2.72718265027e-22)
(-0.119784828793 0.0445397607375 7.76508047793e-23)
(-0.12028417458 0.0369036145765 2.0694147778e-23)
(-0.127673968474 0.0541285571385 1.06154257564e-22)
(-0.127184381091 0.0455330531855 4.23121320264e-23)
(-0.137729564317 0.0638005105391 5.91081699344e-23)
(-0.136022200128 0.0542191532975 3.46985340994e-23)
(-0.150246447275 0.0733177138277 2.37339449084e-22)
(-0.147054351743 0.0627817943288 -2.36326064715e-23)
(-0.165447365709 0.082323039304 5.83786350874e-22)
(-0.160520015435 0.0709346609561 2.45036654473e-22)
(-0.183428487348 0.0904386165088 4.97302037071e-22)
(-0.176572230957 0.0783505604395 3.84895555373e-22)
(-0.204211091607 0.0973606584407 3.23527967303e-22)
(-0.195284217546 0.0847079612583 5.91294160637e-23)
(-0.227815443361 0.102880364294 4.27093434424e-22)
(-0.216709730827 0.0897488918286 2.10996072219e-22)
(-0.254306014897 0.106891204837 4.50887714874e-22)
(-0.240934058157 0.0933047792176 7.41384144205e-23)
(-0.268161495608 0.0952850200247 1.14302344038e-22)
(-0.111283495991 0.0072809779702 -4.75199053325e-23)
(-0.112392701095 0.00389638908093 4.37036162033e-22)
(-0.114377924069 0.0147219713106 -4.59957482702e-22)
(-0.11617558389 0.00997872355037 -7.65818673103e-22)
(-0.117615732214 0.0222566991035 1.56172082833e-23)
(-0.118856410078 0.0168780037553 -1.20296467375e-22)
(-0.122179687045 0.02987116628 8.94391595214e-23)
(-0.122684267134 0.0238667828803 9.06485529549e-23)
(-0.128306021309 0.0375392536804 -1.46445249749e-23)
(-0.127952149976 0.030782866113 6.84994425834e-24)
(-0.136198430899 0.0451870680706 -2.9143591438e-23)
(-0.134832070244 0.0376439418067 -3.15051614189e-23)
(-0.146071002557 0.0526732655986 -4.80422423065e-23)
(-0.143508270651 0.0443465909976 -9.94926575402e-24)
(-0.158129918066 0.0597827258527 -1.59354010828e-23)
(-0.154163699765 0.0507163330955 -1.89967226748e-23)
(-0.172543121806 0.0662340107911 4.61458589718e-23)
(-0.166971226368 0.0565098974832 1.89417704538e-23)
(-0.189423654616 0.0717224950779 -5.32770656342e-23)
(-0.182060688505 0.0614560760836 -6.12789454187e-23)
(-0.208846865765 0.0759733565594 -5.34024790196e-23)
(-0.199535104418 0.0652685674405 -3.64291732833e-23)
(-0.23089777732 0.0787371877647 -1.41958947784e-22)
(-0.219473660999 0.0676829275325 -1.90258316483e-23)
(-0.255737554818 0.0798150243052 -2.62446956416e-22)
(-0.242012073482 0.0684611219254 -9.7962279082e-23)
(-0.267398103022 0.0673542661305 -2.36716189464e-22)
(-0.117995562015 0.00607146541669 -2.81262605737e-22)
(-0.1184641309 0.00313544431111 1.17926415853e-22)
(-0.121185121373 0.012233895671 -4.26157657775e-22)
(-0.122337969164 0.00818932512488 -3.20689160673e-22)
(-0.124456337633 0.0184124242626 -4.5265122703e-23)
(-0.125034878041 0.013762911431 -5.55798839478e-23)
(-0.129009029217 0.0245537430798 8.05933769185e-24)
(-0.128825505809 0.0193363744681 6.05290386915e-23)
(-0.135055319969 0.0305992330757 -1.00106921857e-23)
(-0.133997540458 0.0247439180004 2.17167526936e-24)
(-0.14274837027 0.0364527137686 -1.23108357349e-23)
(-0.140685437564 0.0299547611157 -5.2765523209e-24)
(-0.152242997885 0.0419667697954 1.90962538777e-23)
(-0.149022211002 0.034852303777 -6.06450731734e-25)
(-0.1636890559 0.0469444588687 1.58804488618e-23)
(-0.159141292412 0.0392654910057 -2.59291963655e-23)
(-0.177214210792 0.0511419790425 -8.84830339367e-23)
(-0.171168681618 0.042975570868 -2.48547449395e-23)
(-0.192922381817 0.0542870886199 -4.44310530678e-23)
(-0.18520577567 0.0457354070894 -9.62044159428e-23)
(-0.210898898318 0.056100115761 -2.05252591204e-24)
(-0.20134815546 0.0472750588948 -3.83783675876e-23)
(-0.231243065224 0.0563092216626 2.49708370538e-23)
(-0.219682856873 0.0473151339707 -8.73897647075e-23)
(-0.254119309984 0.0546402267969 -7.22315121304e-23)
(-0.240343236103 0.045554780852 8.69664358143e-23)
(-0.263526688622 0.0416222514444 -2.10570768249e-22)
(-0.123467536827 0.00486644663761 7.84998609177e-23)
(-0.126683052075 0.00976704549179 4.98886131546e-23)
(-0.129900491103 0.0146221558627 5.02142774468e-23)
(-0.134326565059 0.0193529156338 5.4641376269e-23)
(-0.140156858012 0.0238775342003 6.90581513416e-24)
(-0.147505516435 0.0280860927791 6.42783268228e-24)
(-0.156482208495 0.0318293467661 -4.5631900975e-23)
(-0.167195344559 0.034916707244 -6.66643901668e-23)
(-0.179739230432 0.0371254231748 -3.25761269455e-23)
(-0.173377329288 0.0304228553601 -6.02562255049e-23)
(-0.194194348165 0.038200482425 -9.01517304626e-23)
(-0.186280808009 0.0312663126347 -6.26815821185e-23)
(-0.210633962445 0.0378703816394 -1.23715606383e-22)
(-0.201018069946 0.0308188279177 -1.15622158437e-22)
(-0.229142892027 0.0358260987322 -2.5394165947e-23)
(-0.217638642686 0.0287887753086 -1.57512826485e-22)
(-0.249842069859 0.03171790718 -5.13728203046e-23)
(-0.236235167131 0.024839079649 -1.37106065505e-22)
(-0.256906426416 0.0185423061118 -1.62324348881e-22)
(-0.180384421623 0.0242548630887 -9.03616806778e-23)
(-0.19352675636 0.0235443571554 -8.81520100933e-23)
(-0.208361268367 0.0213659234777 -1.49419378539e-22)
(-0.224928337102 0.0174195183473 -2.69224726043e-22)
(-0.213692280821 0.0122026001736 -1.88790267126e-22)
(-0.243274692136 0.0113204268827 -2.48057594081e-22)
(-0.230136158209 0.00647111107207 -1.44001369716e-22)
(-0.248191361086 -0.00164318566623 8.33200439825e-24)
(-0.219006905455 0.00116651764965 -6.35669107989e-23)
(-0.234981974306 -0.00647137499428 1.12388228763e-22)
(-0.237974732974 -0.0189514581605 -2.22257080111e-22)
)
;

boundaryField
{
    back
    {
        type            calculated;
        value           uniform (0 0 0);
    }
    sides
    {
        type            calculated;
        value           nonuniform List<vector> 0();
    }
    bottom
    {
        type            calculated;
        value           uniform (0 0 0);
    }
    front
    {
        type            calculated;
        value           uniform (0 0 0);
    }
    atmosphere
    {
        type            calculated;
        value           nonuniform List<vector> 0();
    }
    floatingObject
    {
        type            calculated;
        value           nonuniform List<vector> 4((0 -4.4408920985e-15 5.55111512313e-16) (0 -4.4408920985e-15 5.55111512313e-16) (0 0 0) (0 -8.881784197e-15 5.55111512313e-16));
    }
    procBoundary8to3
    {
        type            processor;
        value           nonuniform List<vector> 8((-0.0193648089539 0.00658050579912 1.09170510243e-21) (-0.0194740952678 0.0153070200604 9.96802901296e-22) (-0.0180458477224 0.0261941317404 2.03720603755e-22) (-0.0148472735552 0.036848184539 5.21012762802e-22) (-0.00872787867809 0.0470749223424 6.29907498164e-21) (0.0018978493132 0.0574129604349 5.85979100234e-20) (0.0220271271953 0.0651277701537 4.5424381232e-19) (0.0565312040638 0.0805998128767 3.12591984945e-18));
    }
    procBoundary8to6
    {
        type            processor;
        value           nonuniform List<vector> 
16
(
(-0.226118568923 0.28543122451 8.74407132482e-18)
(-0.209490168913 0.265731317708 3.00183012118e-18)
(-0.225818199533 0.33687590991 2.63577251958e-18)
(-0.239317072222 0.309542144277 -9.62665251859e-19)
(-0.24964550343 0.275242964255 1.74181551983e-19)
(-0.257810204602 0.240735647967 -2.57226086457e-20)
(-0.266607308626 0.206762158522 6.81956869604e-21)
(-0.274555292512 0.173581478064 8.01747012201e-22)
(-0.280732817532 0.141161648147 1.6963343127e-22)
(-0.283851954416 0.109456933437 5.93003984862e-22)
(-0.283695254109 0.0790514201593 1.21756823427e-22)
(-0.279816319314 0.0507686292167 -3.31120311766e-22)
(-0.272910851522 0.0250975031933 -4.83799412541e-23)
(-0.263438799833 0.00260526897217 -7.36409089158e-23)
(-0.252273062943 -0.0166880492687 6.42263343682e-22)
(-0.239985581436 -0.0329253356 -4.37765718246e-22)
)
;
    }
    procBoundary8to7
    {
        type            processor;
        value           nonuniform List<vector> 
17
(
(-0.123330554732 0.00239054443168 9.48436265439e-24)
(-0.127238535919 0.0064275122306 -4.64164416242e-23)
(-0.1298899414 0.0107115699672 -3.57119405121e-23)
(-0.133556199933 0.01493189149 3.27144350727e-23)
(-0.138522074724 0.0189189321355 -9.96184563639e-24)
(-0.144893898287 0.0226075139741 -1.2384967889e-23)
(-0.152765358922 0.0258740783844 -3.86501322459e-24)
(-0.16222855933 0.0285477829267 -5.77378130726e-23)
(-0.168894550027 0.0237854356707 -5.13296484107e-23)
(-0.173846643366 0.0189223769032 -8.05720826612e-23)
(-0.18557027065 0.0181111750046 -6.4648765437e-23)
(-0.198839635485 0.0159688170804 -1.71844081818e-23)
(-0.204409018651 0.00666301455736 -5.65552967684e-23)
(-0.208195791616 -0.00241219182297 -2.21131508204e-22)
(-0.222498306985 -0.00952352046864 1.53777452687e-22)
(-0.225430824801 -0.0217146340841 -1.80867856188e-22)
(-0.226764059364 -0.0335177966184 -4.22074246249e-22)
)
;
    }
}


// ************************************************************************* //
