/*--------------------------------*- C++ -*----------------------------------*\
| =========                 |                                                 |
| \\      /  F ield         | OpenFOAM: The Open Source CFD Toolbox           |
|  \\    /   O peration     | Version:  v2012                                 |
|   \\  /    A nd           | Website:  www.openfoam.com                      |
|    \\/     M anipulation  |                                                 |
\*---------------------------------------------------------------------------*/
FoamFile
{
    version     2.0;
    format      ascii;
    class       volScalarField;
    location    "2.5";
    object      ddt0(k);
}
// * * * * * * * * * * * * * * * * * * * * * * * * * * * * * * * * * * * * * //

dimensions      [0 2 -3 0 0 0 0];


internalField   nonuniform List<scalar> 
164
(
-0.00287341880066
-0.00352945824055
-0.00372578142139
-0.00379130620057
-0.00381415154763
-0.00382502237874
-0.00383374245856
-0.00384316086732
-0.0028869521762
-0.00354380037174
-0.00373750911658
-0.00380009267642
-0.00382113129066
-0.00383114194387
-0.00383949890622
-0.0038487489314
-0.0038595066197
-0.00387209448013
-0.00388626856882
-0.00289905529062
-0.00355654990125
-0.0037477546331
-0.00380758061823
-0.00382693692604
-0.00383614116703
-0.00384408724453
-0.00385301536074
-0.00386346356166
-0.00387554645385
-0.00388861767535
-0.00390057432574
-0.00391465173274
-0.00291002133601
-0.00356778974242
-0.0037565775178
-0.00381384656602
-0.00383168313982
-0.0038401462415
-0.00384767461154
-0.00385623755839
-0.00386620304087
-0.00387763417632
-0.00388975093547
-0.00390026882924
-0.00390106887352
-0.0039087502696
-0.00291979356827
-0.00357756398062
-0.00376411632487
-0.00381902151274
-0.00383543997292
-0.00384321679798
-0.00385027911754
-0.00385836776882
-0.00386779208801
-0.00387855019064
-0.00389034771225
-0.00390176354472
-0.00390623788031
-0.00389227452436
-0.00292342597747
-0.00358806252728
-0.00377187843965
-0.00382398032845
-0.00383871950472
-0.00384563484715
-0.00385221508227
-0.00385990039956
-0.00386887098323
-0.00387899860841
-0.00389039060955
-0.00390298334953
-0.00391585079203
-0.00392431036704
-0.00292651628751
-0.00359706526095
-0.00377865473384
-0.00382809395493
-0.00384125802043
-0.00384738436571
-0.00385352655559
-0.00386084426533
-0.00386936662859
-0.00387904248334
-0.00389011899965
-0.00390368715728
-0.00392451077113
-0.00396725075608
-0.00292927898593
-0.0036048022904
-0.00378404228262
-0.00383127723996
-0.00384309422753
-0.00384852990861
-0.00385428690278
-0.00386127722726
-0.00386945231067
-0.00387878360702
-0.00388963720035
-0.00390397398717
-0.00393015935634
-0.00399616443431
-0.00293231255543
-0.0036107954436
-0.00378841220195
-0.00383368116947
-0.00384432090014
-0.00384918146885
-0.00385458922836
-0.00386128404668
-0.00386916706496
-0.00387822068528
-0.00388892373121
-0.00390386893093
-0.00393354081162
-0.00401306329529
-0.00293497600234
-0.00361552029629
-0.00379173148639
-0.0038353309696
-0.003844990752
-0.00384936766558
-0.00385447645412
-0.00386090418021
-0.00386851100096
-0.00387730789544
-0.00388791041455
-0.00390340106335
-0.00393561683466
-0.00402319248268
-0.00428039043758
-0.00507360043778
-0.00293782175207
-0.00361908909416
-0.00379402926054
-0.00383626176794
-0.0038451359015
-0.00384911266272
-0.00385396359182
-0.00386015533851
-0.00386750066057
-0.00387605094812
-0.00388656475049
-0.00390261675164
-0.00393745599834
-0.00403230919798
-0.00430382633175
-0.00509879982275
-0.00294087444441
-0.00362145146131
-0.00379534816441
-0.00383652714508
-0.00384479833337
-0.00384845279571
-0.00385307624321
-0.00385904821026
-0.00386616601556
-0.00387447464208
-0.00388490831706
-0.00390158820296
-0.0039394465099
-0.00404347331097
-0.00433627052822
-0.00516061723051
)
;

boundaryField
{
    back
    {
        type            calculated;
        value           nonuniform List<scalar> 
164
(
-0.00287341880066
-0.00352945824055
-0.00372578142139
-0.00379130620057
-0.00381415154763
-0.00382502237874
-0.00383374245856
-0.00384316086732
-0.0028869521762
-0.00354380037174
-0.00373750911658
-0.00380009267642
-0.00382113129066
-0.00383114194387
-0.00383949890622
-0.0038487489314
-0.0038595066197
-0.00387209448013
-0.00388626856882
-0.00289905529062
-0.00355654990125
-0.0037477546331
-0.00380758061823
-0.00382693692604
-0.00383614116703
-0.00384408724453
-0.00385301536074
-0.00386346356166
-0.00387554645385
-0.00388861767535
-0.00390057432574
-0.00391465173274
-0.00291002133601
-0.00356778974242
-0.0037565775178
-0.00381384656602
-0.00383168313982
-0.0038401462415
-0.00384767461154
-0.00385623755839
-0.00386620304087
-0.00387763417632
-0.00388975093547
-0.00390026882924
-0.00390106887352
-0.0039087502696
-0.00291979356827
-0.00357756398062
-0.00376411632487
-0.00381902151274
-0.00383543997292
-0.00384321679798
-0.00385027911754
-0.00385836776882
-0.00386779208801
-0.00387855019064
-0.00389034771225
-0.00390176354472
-0.00390623788031
-0.00389227452436
-0.00292342597747
-0.00358806252728
-0.00377187843965
-0.00382398032845
-0.00383871950472
-0.00384563484715
-0.00385221508227
-0.00385990039956
-0.00386887098323
-0.00387899860841
-0.00389039060955
-0.00390298334953
-0.00391585079203
-0.00392431036704
-0.00292651628751
-0.00359706526095
-0.00377865473384
-0.00382809395493
-0.00384125802043
-0.00384738436571
-0.00385352655559
-0.00386084426533
-0.00386936662859
-0.00387904248334
-0.00389011899965
-0.00390368715728
-0.00392451077113
-0.00396725075608
-0.00292927898593
-0.0036048022904
-0.00378404228262
-0.00383127723996
-0.00384309422753
-0.00384852990861
-0.00385428690278
-0.00386127722726
-0.00386945231067
-0.00387878360702
-0.00388963720035
-0.00390397398717
-0.00393015935634
-0.00399616443431
-0.00293231255543
-0.0036107954436
-0.00378841220195
-0.00383368116947
-0.00384432090014
-0.00384918146885
-0.00385458922836
-0.00386128404668
-0.00386916706496
-0.00387822068528
-0.00388892373121
-0.00390386893093
-0.00393354081162
-0.00401306329529
-0.00293497600234
-0.00361552029629
-0.00379173148639
-0.0038353309696
-0.003844990752
-0.00384936766558
-0.00385447645412
-0.00386090418021
-0.00386851100096
-0.00387730789544
-0.00388791041455
-0.00390340106335
-0.00393561683466
-0.00402319248268
-0.00428039043758
-0.00507360043778
-0.00293782175207
-0.00361908909416
-0.00379402926054
-0.00383626176794
-0.0038451359015
-0.00384911266272
-0.00385396359182
-0.00386015533851
-0.00386750066057
-0.00387605094812
-0.00388656475049
-0.00390261675164
-0.00393745599834
-0.00403230919798
-0.00430382633175
-0.00509879982275
-0.00294087444441
-0.00362145146131
-0.00379534816441
-0.00383652714508
-0.00384479833337
-0.00384845279571
-0.00385307624321
-0.00385904821026
-0.00386616601556
-0.00387447464208
-0.00388490831706
-0.00390158820296
-0.0039394465099
-0.00404347331097
-0.00433627052822
-0.00516061723051
)
;
    }
    sides
    {
        type            calculated;
        value           nonuniform List<scalar> 0();
    }
    bottom
    {
        type            calculated;
        value           nonuniform List<scalar> 
12
(
-0.00287341880066
-0.0028869521762
-0.00289905529062
-0.00291002133601
-0.00291979356827
-0.00292342597747
-0.00292651628751
-0.00292927898593
-0.00293231255543
-0.00293497600234
-0.00293782175207
-0.00294087444441
)
;
    }
    front
    {
        type            calculated;
        value           nonuniform List<scalar> 
164
(
-0.00287341880066
-0.00352945824055
-0.00372578142139
-0.00379130620057
-0.00381415154763
-0.00382502237874
-0.00383374245856
-0.00384316086732
-0.0028869521762
-0.00354380037174
-0.00373750911658
-0.00380009267642
-0.00382113129066
-0.00383114194387
-0.00383949890622
-0.0038487489314
-0.0038595066197
-0.00387209448013
-0.00388626856882
-0.00289905529062
-0.00355654990125
-0.0037477546331
-0.00380758061823
-0.00382693692604
-0.00383614116703
-0.00384408724453
-0.00385301536074
-0.00386346356166
-0.00387554645385
-0.00388861767535
-0.00390057432574
-0.00391465173274
-0.00291002133601
-0.00356778974242
-0.0037565775178
-0.00381384656602
-0.00383168313982
-0.0038401462415
-0.00384767461154
-0.00385623755839
-0.00386620304087
-0.00387763417632
-0.00388975093547
-0.00390026882924
-0.00390106887352
-0.0039087502696
-0.00291979356827
-0.00357756398062
-0.00376411632487
-0.00381902151274
-0.00383543997292
-0.00384321679798
-0.00385027911754
-0.00385836776882
-0.00386779208801
-0.00387855019064
-0.00389034771225
-0.00390176354472
-0.00390623788031
-0.00389227452436
-0.00292342597747
-0.00358806252728
-0.00377187843965
-0.00382398032845
-0.00383871950472
-0.00384563484715
-0.00385221508227
-0.00385990039956
-0.00386887098323
-0.00387899860841
-0.00389039060955
-0.00390298334953
-0.00391585079203
-0.00392431036704
-0.00292651628751
-0.00359706526095
-0.00377865473384
-0.00382809395493
-0.00384125802043
-0.00384738436571
-0.00385352655559
-0.00386084426533
-0.00386936662859
-0.00387904248334
-0.00389011899965
-0.00390368715728
-0.00392451077113
-0.00396725075608
-0.00292927898593
-0.0036048022904
-0.00378404228262
-0.00383127723996
-0.00384309422753
-0.00384852990861
-0.00385428690278
-0.00386127722726
-0.00386945231067
-0.00387878360702
-0.00388963720035
-0.00390397398717
-0.00393015935634
-0.00399616443431
-0.00293231255543
-0.0036107954436
-0.00378841220195
-0.00383368116947
-0.00384432090014
-0.00384918146885
-0.00385458922836
-0.00386128404668
-0.00386916706496
-0.00387822068528
-0.00388892373121
-0.00390386893093
-0.00393354081162
-0.00401306329529
-0.00293497600234
-0.00361552029629
-0.00379173148639
-0.0038353309696
-0.003844990752
-0.00384936766558
-0.00385447645412
-0.00386090418021
-0.00386851100096
-0.00387730789544
-0.00388791041455
-0.00390340106335
-0.00393561683466
-0.00402319248268
-0.00428039043758
-0.00507360043778
-0.00293782175207
-0.00361908909416
-0.00379402926054
-0.00383626176794
-0.0038451359015
-0.00384911266272
-0.00385396359182
-0.00386015533851
-0.00386750066057
-0.00387605094812
-0.00388656475049
-0.00390261675164
-0.00393745599834
-0.00403230919798
-0.00430382633175
-0.00509879982275
-0.00294087444441
-0.00362145146131
-0.00379534816441
-0.00383652714508
-0.00384479833337
-0.00384845279571
-0.00385307624321
-0.00385904821026
-0.00386616601556
-0.00387447464208
-0.00388490831706
-0.00390158820296
-0.0039394465099
-0.00404347331097
-0.00433627052822
-0.00516061723051
)
;
    }
    atmosphere
    {
        type            calculated;
        value           nonuniform List<scalar> 0();
    }
    floatingObject
    {
        type            calculated;
        value           nonuniform List<scalar> 0();
    }
    procBoundary7to6
    {
        type            processor;
        value           nonuniform List<scalar> 
11
(
-0.00418779669804
-0.00395262873568
-0.00396186619074
-0.00408768479871
-0.0041882303377
-0.00424836365936
-0.00424836365936
-0.00499494764638
-0.00752168742796
-0.0073903816006
-0.00733512241597
)
;
    }
    procBoundary7to8
    {
        type            processor;
        value           nonuniform List<scalar> 
17
(
-0.00285870679617
-0.00351333694742
-0.00371230744332
-0.00378090432474
-0.00380570629288
-0.00381753355473
-0.00382665726182
-0.00383619599096
-0.00385409845312
-0.00385409845312
-0.00386665935949
-0.00388016184149
-0.00390307985286
-0.00390307985286
-0.00394396054416
-0.00400586421034
-0.00400586421034
)
;
    }
    procBoundary7to9
    {
        type            processor;
        value           nonuniform List<scalar> 
16
(
-0.0029435753078
-0.00362267762244
-0.00379582085276
-0.00383621859355
-0.00384402803799
-0.00384742355636
-0.00385185428904
-0.00385762654441
-0.00386450418135
-0.00387256797423
-0.00388290355697
-0.00390023452677
-0.00394119510972
-0.0040545833812
-0.00436861551401
-0.00522833331065
)
;
    }
}


// ************************************************************************* //
