/*--------------------------------*- C++ -*----------------------------------*\
| =========                 |                                                 |
| \\      /  F ield         | OpenFOAM: The Open Source CFD Toolbox           |
|  \\    /   O peration     | Version:  v2012                                 |
|   \\  /    A nd           | Website:  www.openfoam.com                      |
|    \\/     M anipulation  |                                                 |
\*---------------------------------------------------------------------------*/
FoamFile
{
    version     2.0;
    format      ascii;
    class       volVectorField;
    location    "2.5";
    object      U_0;
}
// * * * * * * * * * * * * * * * * * * * * * * * * * * * * * * * * * * * * * //

dimensions      [0 1 -1 0 0 0 0];


internalField   nonuniform List<vector> 
164
(
(0.0441946104326 -0.000778587772814 -3.89421869982e-22)
(0.0425250679425 -0.00192472744782 -8.10770168447e-22)
(0.0417485449286 -0.00302682890346 -2.48128693653e-22)
(0.0422224696085 -0.00422233706652 1.05436436567e-22)
(0.0434336049596 -0.00526388218028 2.20449787293e-22)
(0.0451077338937 -0.00620559676824 1.49891543262e-22)
(0.0471538912131 -0.0070107744282 1.15645142333e-22)
(0.0495372060271 -0.00762746057328 1.37229607033e-22)
(0.0453015295419 -0.000606864754415 -1.22325428293e-22)
(0.043592866373 -0.00140515145197 -4.02095208856e-22)
(0.0427563500327 -0.00219532040325 9.01019409555e-23)
(0.0431616547805 -0.00305445605486 1.42265043812e-22)
(0.0442874834801 -0.0037812181614 1.6496560285e-22)
(0.0458442458292 -0.00440767896579 9.24366640805e-23)
(0.0477386895234 -0.00489706160731 6.68365633761e-23)
(0.0499333525947 -0.00522443138601 7.39256548351e-24)
(0.0523940497685 -0.00536417617383 3.74640506767e-23)
(0.0550879045845 -0.00529606841737 4.9710996591e-23)
(0.0579595104246 -0.00500618484883 4.0116708538e-23)
(0.0460623380021 -0.000431820502147 2.34091767589e-22)
(0.0443378853907 -0.000905659923651 -7.13176272976e-23)
(0.0434502559031 -0.00141544439913 1.91672562123e-22)
(0.0437892790526 -0.0019681818935 1.23512838442e-22)
(0.0448262557474 -0.00239603481797 1.00626484442e-22)
(0.0462744047416 -0.00272638720442 3.83850782031e-23)
(0.0480332504175 -0.00293563574636 3.63351313554e-23)
(0.0500647099788 -0.00300178038339 -6.84828926441e-24)
(0.0523515589953 -0.00290349975213 1.53762665949e-23)
(0.0548734402181 -0.00263228763992 -2.4842416238e-24)
(0.0576004370271 -0.00218296559706 -1.01343565027e-22)
(0.060458369327 -0.00160129372507 -1.60053763877e-22)
(0.0633033071015 -0.000954555072029 -1.23035964254e-21)
(0.0465177531678 -0.000267901353899 8.98660602862e-23)
(0.0447891018981 -0.000441906430223 3.7697377719e-23)
(0.0438537591815 -0.000690748246627 -2.58000999246e-23)
(0.04412855445 -0.000952998961236 5.45717921512e-23)
(0.0450834346512 -0.00110561568119 6.41001790465e-23)
(0.0464262250423 -0.00116661477718 5.50739594545e-23)
(0.0480568413543 -0.00111446471081 7.46160282491e-23)
(0.0499492006336 -0.000927283482897 9.65702864189e-23)
(0.0520876751437 -0.000582438736178 4.07858583549e-23)
(0.0544377568684 -7.09170425574e-05 2.47025153311e-23)
(0.0570379075169 0.000598802461336 -2.03272893383e-22)
(0.059825764653 0.00138116097022 -4.78572597377e-22)
(0.0627592010925 0.00218644791521 -2.21612990828e-21)
(0.0654477103595 0.0027084764424 -2.38621073945e-21)
(0.0466835013158 -0.000111918101468 -1.22628672549e-22)
(0.0449638837364 -9.15495676437e-06 -1.03346083692e-22)
(0.0439836658236 -2.1075786779e-05 -1.13233124111e-22)
(0.044202294165 -1.41568187758e-05 6.86135050497e-24)
(0.045077986084 8.83176773476e-05 6.86431832219e-23)
(0.0463174163452 0.000279572514682 3.8890325029e-23)
(0.0478252092368 0.000583129775792 6.29149554484e-23)
(0.0495774042629 0.00101585064147 4.84688461719e-23)
(0.05155782312 0.00157051616636 2.23775402699e-23)
(0.0537468468814 0.00230271382817 7.57803270716e-24)
(0.056167130056 0.00321391992924 -6.22165971274e-23)
(0.0588411566392 0.00423296081732 -3.76164126535e-22)
(0.0618522725228 0.00533240189226 -9.83033536742e-22)
(0.0651887484103 0.00630897234282 -3.11975910706e-21)
(0.0465782313293 4.14973282298e-05 -2.85880030499e-22)
(0.0448736877357 0.000389035471814 -8.35057237112e-23)
(0.0438597026972 0.000592977890906 -1.70809665303e-22)
(0.0440265474472 0.000858924219571 -2.83785887136e-23)
(0.0448269371749 0.00119510323799 1.92992721881e-23)
(0.0459655557372 0.00161598987711 3.08405662616e-23)
(0.0473549800457 0.00214533649901 4.85797382823e-23)
(0.0489633454792 0.00279419431572 4.76210755185e-23)
(0.0507813562532 0.00357234244342 3.59907192927e-23)
(0.0528295024378 0.00452388612148 7.59511390108e-23)
(0.0550739786053 0.00567138314949 4.50130735909e-23)
(0.0575649641514 0.00700611260483 -2.52492294706e-23)
(0.0604028701615 0.0085775398546 -2.398577043e-22)
(0.0636596786413 0.0104608319054 -1.37928563838e-21)
(0.046227853696 0.000174736304222 -3.55026718315e-22)
(0.0445306287125 0.000751663432708 -1.73016913696e-22)
(0.0435045243934 0.00115991192684 -1.23771789533e-22)
(0.0436215140269 0.00166311481747 1.45179568658e-24)
(0.0443468084502 0.00220980839308 2.74962351644e-23)
(0.0453955236938 0.00284134167892 2.33473529811e-23)
(0.0466720653575 0.00357996373355 3.90416787205e-23)
(0.048148218132 0.00443212365113 6.22915462667e-24)
(0.0498179670653 0.00541965192412 4.27636411707e-23)
(0.0516850286888 0.00657366629254 8.27415020333e-23)
(0.0537221598366 0.00792712745628 5.32513788468e-23)
(0.0559429409506 0.00952158166406 1.40953920521e-22)
(0.0583841693713 0.0114412738358 -6.20831776917e-23)
(0.0610272946861 0.0138416577673 -5.48922974766e-22)
(0.0456574613649 0.000301468047007 -2.62062019244e-22)
(0.0439693505457 0.00108524699063 -2.43273008524e-22)
(0.0429354952841 0.00168724339595 -6.09233065894e-23)
(0.0430053505057 0.00240005756861 4.3815413847e-23)
(0.0436612211924 0.00314810079886 1.49697975216e-23)
(0.0446278018776 0.00397381727089 -1.29624264731e-23)
(0.0457982639614 0.00489529221888 2.57334321426e-24)
(0.0471488187881 0.00592758267664 -2.20946586932e-24)
(0.04866663523 0.00709183533273 2.72304210757e-23)
(0.0503417624623 0.00840860691589 2.47755804996e-23)
(0.0521532857546 0.00991388743793 6.62434573932e-24)
(0.0540870072535 0.0116576499891 6.90239647117e-23)
(0.0561152221035 0.013701763826 -4.69496436114e-23)
(0.0581636581671 0.0161760844764 -5.92371222751e-22)
(0.0448709027094 0.000393797444391 -3.21145361766e-22)
(0.0432096377284 0.00138042401037 8.77940073018e-23)
(0.0421656361694 0.00217093642497 -4.05036062497e-23)
(0.0421974640449 0.00307649321863 2.38039296931e-23)
(0.0427920086574 0.00400613721403 1.08963015669e-23)
(0.0436730920449 0.00500727825625 1.38766602381e-23)
(0.0447433496823 0.00609520764271 -7.56526621853e-24)
(0.0459757301686 0.00728596528253 -1.97197914597e-23)
(0.047356108491 0.00859629564122 1.14215005594e-23)
(0.048866301198 0.0100441971925 -6.12635518573e-24)
(0.0504856927201 0.0116527153418 -1.13663089768e-23)
(0.0521744115341 0.0134517156284 4.24668336141e-23)
(0.0538828042997 0.0154759991385 8.30727995339e-23)
(0.055539835069 0.0177903576752 -2.99421241702e-22)
(0.04387237803 0.000495747340667 -4.24047635042e-22)
(0.0422557076078 0.00165811125559 4.18588171304e-23)
(0.0412124258201 0.00261479864168 -2.37446103204e-24)
(0.0412129570147 0.00369599222111 -3.44102406752e-23)
(0.0417524111136 0.00478905518714 -2.70733034457e-23)
(0.0425583744302 0.00594915975407 3.49648365445e-24)
(0.0435400022729 0.00718889954714 -1.28508634538e-23)
(0.0446642446917 0.0085222381123 -2.26702306826e-23)
(0.0459233425257 0.00996107237657 -2.32027492286e-23)
(0.0473011159777 0.0115147810544 -2.07031130432e-23)
(0.0487657452414 0.0131935082862 -5.86361858575e-24)
(0.0502877621092 0.0150047969513 4.58408004239e-23)
(0.0518144665013 0.0169614228155 1.49897329811e-22)
(0.0532889029181 0.0190234878642 -5.12880124513e-23)
(0.0544721764874 0.0212863415318 -2.22093239879e-21)
(0.0548023432572 0.0235751347291 -7.09546735083e-21)
(0.0426974347179 0.000598950431517 -4.46464703161e-22)
(0.0411343385767 0.0019139713687 -1.24796540616e-22)
(0.0401001523966 0.00301950481377 -1.0007300108e-22)
(0.0400697944191 0.00425875895687 -1.44436957352e-23)
(0.0405555576552 0.00550236180827 -3.40151963088e-23)
(0.0412907713055 0.00680971847966 -1.55358460802e-23)
(0.0421897658765 0.00818674802598 -1.34639332253e-23)
(0.0432241799494 0.00964915364393 -1.41883020041e-23)
(0.0443774525281 0.0112095190843 -7.00762936808e-24)
(0.0456498324502 0.0128602206573 -8.01977674691e-24)
(0.0470061535902 0.014605763898 4.99933018669e-24)
(0.0484341652067 0.0164373568575 1.98374858488e-23)
(0.049898240997 0.0183297092133 2.77478871516e-22)
(0.0513757992333 0.0202073523415 3.58567926915e-22)
(0.0528237137358 0.0221428597012 -7.04542632301e-22)
(0.053615684022 0.0232822088842 -5.1489385953e-21)
(0.0413699343038 0.000676483543078 -5.1575027485e-22)
(0.0398630206691 0.00213467406164 -1.36689060667e-22)
(0.0388379440576 0.00337625003038 -2.35562391118e-22)
(0.038778435454 0.0047617378576 8.45037711882e-23)
(0.039211376424 0.00614611741095 8.38740056946e-25)
(0.039877803637 0.00759018421671 -4.41384340745e-24)
(0.0406965106083 0.00910165330064 -1.8066617022e-23)
(0.0416491491583 0.0106854460079 -8.80997553641e-24)
(0.0427195033043 0.0123617024097 1.15511925625e-23)
(0.0439036274737 0.0141158970249 -1.39221869874e-23)
(0.0451925202463 0.0159420608537 1.24949742325e-23)
(0.0465667568673 0.0178270415458 3.53895266912e-23)
(0.0480286302132 0.0197265823073 4.31751321517e-22)
(0.0496238298566 0.021575440213 1.28717440696e-21)
(0.0514328262335 0.0234179351628 6.01443237947e-22)
(0.0529484750617 0.0243948332499 -2.21266572262e-21)
)
;

boundaryField
{
    back
    {
        type            noSlip;
    }
    sides
    {
        type            noSlip;
    }
    bottom
    {
        type            noSlip;
    }
    front
    {
        type            noSlip;
    }
    atmosphere
    {
        type            pressureInletOutletVelocity;
        value           nonuniform List<vector> 0();
    }
    floatingObject
    {
        type            movingWallVelocity;
        value           nonuniform List<vector> 0();
    }
    procBoundary7to6
    {
        type            processor;
        value           nonuniform List<vector> 
11
(
(0.0658056404722 0.00228241290383 -6.60784520589e-21)
(0.0670927889579 0.00678385701071 -9.60443392789e-21)
(0.0661230483335 0.0125075706967 -5.45718462858e-21)
(0.0630591747495 0.0164412021653 -3.26882059786e-21)
(0.0597327199478 0.0188687455808 -2.2265712565e-21)
(0.0567644759729 0.020376853716 -2.35859296398e-21)
(0.0567644759729 0.020376853716 -2.35859296398e-21)
(0.056879337305 0.0239888276839 -6.15298678038e-21)
(0.0512164342345 0.0237428368849 -1.68304210357e-20)
(0.0509706565971 0.0224997332651 -1.40349190988e-20)
(0.0519368751918 0.0237172436693 -9.3380175066e-21)
)
;
    }
    procBoundary7to8
    {
        type            processor;
        value           nonuniform List<vector> 
17
(
(0.0427232096985 -0.000980214718343 1.76360271121e-23)
(0.041109493572 -0.00248107671461 -8.11866778641e-22)
(0.0404026459928 -0.00390123143841 -9.63308176925e-23)
(0.0409431271532 -0.00545174935874 1.27021520434e-22)
(0.0422390035955 -0.00684713521497 3.08934498625e-22)
(0.0440375081975 -0.00814823295354 2.16765604877e-22)
(0.0462521698839 -0.00930736540068 1.79360476185e-22)
(0.0488478715479 -0.0102679675016 8.50209293863e-23)
(0.0522260717281 -0.00801086494784 1.58728003964e-22)
(0.0522260717281 -0.00801086494784 1.58728003964e-22)
(0.0551753007522 -0.00810718453793 2.85517114474e-22)
(0.0583003423947 -0.00782562361185 3.06824210295e-22)
(0.0609107879346 -0.0045296829762 -1.87453306642e-22)
(0.0609107879346 -0.0045296829762 -1.87453306642e-22)
(0.0637726244705 -0.00387336363954 -2.31375373865e-22)
(0.0656334904856 -0.000299142828604 7.73322764605e-22)
(0.0656334904856 -0.000299142828604 7.73322764605e-22)
)
;
    }
    procBoundary7to9
    {
        type            processor;
        value           nonuniform List<vector> 
16
(
(0.0399157714531 0.000745982684771 -6.28207642683e-22)
(0.0384618316216 0.00233240882225 -1.82906220649e-22)
(0.0374379024554 0.00369732723116 -2.19963057965e-22)
(0.0373521103351 0.00521586205677 8.83276606105e-23)
(0.0377349431367 0.00672845685065 9.55242335146e-24)
(0.0383377155276 0.0082984739213 -1.48382674247e-23)
(0.0390832966803 0.00993700462449 -1.31166309526e-23)
(0.0399582818898 0.0116465237069 -1.07100422542e-23)
(0.0409510545705 0.0134375326352 8.51641495626e-24)
(0.0420557517848 0.0153051536102 -7.86571793129e-24)
(0.043289012166 0.0172338532662 -2.28158107198e-24)
(0.0446336027659 0.0192072770932 3.32724345768e-25)
(0.0461062522702 0.0211970719192 1.7147892806e-22)
(0.0478113617517 0.0231504170694 6.88917907707e-22)
(0.0498876477844 0.0250374850382 4.50490296762e-22)
(0.0519638058561 0.0264943769938 -7.70826504153e-22)
)
;
    }
}


// ************************************************************************* //
