/*--------------------------------*- C++ -*----------------------------------*\
| =========                 |                                                 |
| \\      /  F ield         | OpenFOAM: The Open Source CFD Toolbox           |
|  \\    /   O peration     | Version:  v2012                                 |
|   \\  /    A nd           | Website:  www.openfoam.com                      |
|    \\/     M anipulation  |                                                 |
\*---------------------------------------------------------------------------*/
FoamFile
{
    version     2.0;
    format      ascii;
    class       volScalarField;
    location    "3.8";
    object      k;
}
// * * * * * * * * * * * * * * * * * * * * * * * * * * * * * * * * * * * * * //

dimensions      [0 2 -2 0 0 0 0];


internalField   nonuniform List<scalar> 
167
(
0.00220637652106
0.00221995956258
0.00223934035893
0.00227363125586
0.00234262012231
0.00249170927512
0.0028671853587
0.00403099140099
0.00761539774471
0.0161810215347
0.0326332261469
0.0707451019488
0.00275315184503
0.00276858365217
0.0027926040398
0.00283790091296
0.00293236096065
0.00314174913538
0.00366750336801
0.00517008066345
0.00927489082568
0.0180291837746
0.0335463690507
0.0598634772703
0.00293581009496
0.00295221254013
0.00297833716866
0.00302818827284
0.00313220047195
0.00336271628236
0.00393217937674
0.00549047774539
0.00959731541916
0.0184864529109
0.0347979202493
0.0640008034662
0.00302418094735
0.00305099780344
0.00310214503562
0.00320847249088
0.00344369706852
0.0040236092191
0.00558605683865
0.00961348325263
0.0183814512675
0.0352557529646
0.0695987093961
0.00308058578756
0.00313119865861
0.00323590813884
0.003467972959
0.00404573464708
0.00560910292906
0.00956782519262
0.0181029692476
0.0350436605558
0.0736164213858
0.00309391559821
0.00314312378175
0.00324463625401
0.0034703317629
0.00404028004762
0.00560514575686
0.0095470567307
0.0179657099537
0.0349549657828
0.0738004484709
0.00310142675388
0.00314898241736
0.00324706628177
0.00346575031518
0.00402405685672
0.00557555379877
0.00948937309561
0.0178250052738
0.0349325706631
0.0739481446121
0.0031070423288
0.00315291088621
0.00324783872959
0.00346060395123
0.00400668953929
0.00553206465702
0.00937864405678
0.0176010797373
0.0348099768327
0.0740571983759
0.00311221055426
0.00315639700335
0.00324819970563
0.00345482797064
0.00398690989834
0.00547647306607
0.009235007344
0.017314288748
0.0345945525743
0.0741142729222
0.0031173844191
0.00315987952617
0.00324850449631
0.00344839370816
0.00396270686465
0.00540316847569
0.00905407257933
0.0169910369484
0.0343258820094
0.074121784874
0.0031227159843
0.00316359180068
0.00324935176342
0.00344356233227
0.00394214137883
0.00533588471958
0.00890210363302
0.0168001553552
0.0342060323316
0.0741071444635
0.0031281939772
0.00316755196909
0.00325104098864
0.0034426374235
0.00393700484094
0.00531358765575
0.0088525278452
0.0167960862552
0.0342234315443
0.0740816499871
0.00313376230714
0.00317154119431
0.00325237746561
0.00344007906891
0.00392687278797
0.00528431882027
0.00880810271291
0.0167949846853
0.0341511984482
0.0740188376711
0.00313934990455
0.00317543092978
0.00325293202131
0.00343335842788
0.00390273180631
0.00522286319198
0.00870696966824
0.0166641747414
0.0338176271903
0.0738499288179
0.00314495029708
0.00317928968062
0.00325276040471
0.0034230698994
0.00386592541686
0.00513164292352
0.00854637472007
0.0163592767857
0.0331401798385
0.0735434094139
0.00315060219112
0.00318337983816
0.003253522298
0.00341631469597
0.00384045283854
0.00506574418827
0.00839282161662
0.0159403657238
0.0321479798231
0.0726353622008
)
;

boundaryField
{
    back
    {
        type            kqRWallFunction;
        value           nonuniform List<scalar> 
167
(
0.00220637652106
0.00221995956258
0.00223934035893
0.00227363125586
0.00234262012231
0.00249170927512
0.0028671853587
0.00403099140099
0.00761539774471
0.0161810215347
0.0326332261469
0.0707451019488
0.00275315184503
0.00276858365217
0.0027926040398
0.00283790091296
0.00293236096065
0.00314174913538
0.00366750336801
0.00517008066345
0.00927489082568
0.0180291837746
0.0335463690507
0.0598634772703
0.00293581009496
0.00295221254013
0.00297833716866
0.00302818827284
0.00313220047195
0.00336271628236
0.00393217937674
0.00549047774539
0.00959731541916
0.0184864529109
0.0347979202493
0.0640008034662
0.00302418094735
0.00305099780344
0.00310214503562
0.00320847249088
0.00344369706852
0.0040236092191
0.00558605683865
0.00961348325263
0.0183814512675
0.0352557529646
0.0695987093961
0.00308058578756
0.00313119865861
0.00323590813884
0.003467972959
0.00404573464708
0.00560910292906
0.00956782519262
0.0181029692476
0.0350436605558
0.0736164213858
0.00309391559821
0.00314312378175
0.00324463625401
0.0034703317629
0.00404028004762
0.00560514575686
0.0095470567307
0.0179657099537
0.0349549657828
0.0738004484709
0.00310142675388
0.00314898241736
0.00324706628177
0.00346575031518
0.00402405685672
0.00557555379877
0.00948937309561
0.0178250052738
0.0349325706631
0.0739481446121
0.0031070423288
0.00315291088621
0.00324783872959
0.00346060395123
0.00400668953929
0.00553206465702
0.00937864405678
0.0176010797373
0.0348099768327
0.0740571983759
0.00311221055426
0.00315639700335
0.00324819970563
0.00345482797064
0.00398690989834
0.00547647306607
0.009235007344
0.017314288748
0.0345945525743
0.0741142729222
0.0031173844191
0.00315987952617
0.00324850449631
0.00344839370816
0.00396270686465
0.00540316847569
0.00905407257933
0.0169910369484
0.0343258820094
0.074121784874
0.0031227159843
0.00316359180068
0.00324935176342
0.00344356233227
0.00394214137883
0.00533588471958
0.00890210363302
0.0168001553552
0.0342060323316
0.0741071444635
0.0031281939772
0.00316755196909
0.00325104098864
0.0034426374235
0.00393700484094
0.00531358765575
0.0088525278452
0.0167960862552
0.0342234315443
0.0740816499871
0.00313376230714
0.00317154119431
0.00325237746561
0.00344007906891
0.00392687278797
0.00528431882027
0.00880810271291
0.0167949846853
0.0341511984482
0.0740188376711
0.00313934990455
0.00317543092978
0.00325293202131
0.00343335842788
0.00390273180631
0.00522286319198
0.00870696966824
0.0166641747414
0.0338176271903
0.0738499288179
0.00314495029708
0.00317928968062
0.00325276040471
0.0034230698994
0.00386592541686
0.00513164292352
0.00854637472007
0.0163592767857
0.0331401798385
0.0735434094139
0.00315060219112
0.00318337983816
0.003253522298
0.00341631469597
0.00384045283854
0.00506574418827
0.00839282161662
0.0159403657238
0.0321479798231
0.0726353622008
)
;
    }
    sides
    {
        type            kqRWallFunction;
        value           nonuniform List<scalar> 
12
(
0.00220637652106
0.00221995956258
0.00223934035893
0.00227363125586
0.00234262012231
0.00249170927512
0.0028671853587
0.00403099140099
0.00761539774471
0.0161810215347
0.0326332261469
0.0707451019488
)
;
    }
    bottom
    {
        type            kqRWallFunction;
        value           nonuniform List<scalar> 0();
    }
    front
    {
        type            kqRWallFunction;
        value           nonuniform List<scalar> 
167
(
0.00220637652106
0.00221995956258
0.00223934035893
0.00227363125586
0.00234262012231
0.00249170927512
0.0028671853587
0.00403099140099
0.00761539774471
0.0161810215347
0.0326332261469
0.0707451019488
0.00275315184503
0.00276858365217
0.0027926040398
0.00283790091296
0.00293236096065
0.00314174913538
0.00366750336801
0.00517008066345
0.00927489082568
0.0180291837746
0.0335463690507
0.0598634772703
0.00293581009496
0.00295221254013
0.00297833716866
0.00302818827284
0.00313220047195
0.00336271628236
0.00393217937674
0.00549047774539
0.00959731541916
0.0184864529109
0.0347979202493
0.0640008034662
0.00302418094735
0.00305099780344
0.00310214503562
0.00320847249088
0.00344369706852
0.0040236092191
0.00558605683865
0.00961348325263
0.0183814512675
0.0352557529646
0.0695987093961
0.00308058578756
0.00313119865861
0.00323590813884
0.003467972959
0.00404573464708
0.00560910292906
0.00956782519262
0.0181029692476
0.0350436605558
0.0736164213858
0.00309391559821
0.00314312378175
0.00324463625401
0.0034703317629
0.00404028004762
0.00560514575686
0.0095470567307
0.0179657099537
0.0349549657828
0.0738004484709
0.00310142675388
0.00314898241736
0.00324706628177
0.00346575031518
0.00402405685672
0.00557555379877
0.00948937309561
0.0178250052738
0.0349325706631
0.0739481446121
0.0031070423288
0.00315291088621
0.00324783872959
0.00346060395123
0.00400668953929
0.00553206465702
0.00937864405678
0.0176010797373
0.0348099768327
0.0740571983759
0.00311221055426
0.00315639700335
0.00324819970563
0.00345482797064
0.00398690989834
0.00547647306607
0.009235007344
0.017314288748
0.0345945525743
0.0741142729222
0.0031173844191
0.00315987952617
0.00324850449631
0.00344839370816
0.00396270686465
0.00540316847569
0.00905407257933
0.0169910369484
0.0343258820094
0.074121784874
0.0031227159843
0.00316359180068
0.00324935176342
0.00344356233227
0.00394214137883
0.00533588471958
0.00890210363302
0.0168001553552
0.0342060323316
0.0741071444635
0.0031281939772
0.00316755196909
0.00325104098864
0.0034426374235
0.00393700484094
0.00531358765575
0.0088525278452
0.0167960862552
0.0342234315443
0.0740816499871
0.00313376230714
0.00317154119431
0.00325237746561
0.00344007906891
0.00392687278797
0.00528431882027
0.00880810271291
0.0167949846853
0.0341511984482
0.0740188376711
0.00313934990455
0.00317543092978
0.00325293202131
0.00343335842788
0.00390273180631
0.00522286319198
0.00870696966824
0.0166641747414
0.0338176271903
0.0738499288179
0.00314495029708
0.00317928968062
0.00325276040471
0.0034230698994
0.00386592541686
0.00513164292352
0.00854637472007
0.0163592767857
0.0331401798385
0.0735434094139
0.00315060219112
0.00318337983816
0.003253522298
0.00341631469597
0.00384045283854
0.00506574418827
0.00839282161662
0.0159403657238
0.0321479798231
0.0726353622008
)
;
    }
    atmosphere
    {
        type            inletOutlet;
        inletValue      uniform 0.1;
        value           nonuniform List<scalar> 
16
(
0.1
0.0598634772703
0.0640008034662
0.0695987093961
0.1
0.1
0.1
0.1
0.1
0.1
0.1
0.1
0.1
0.1
0.1
0.1
)
;
    }
    floatingObject
    {
        type            kqRWallFunction;
        value           nonuniform List<scalar> 0();
    }
    procBoundary1to0
    {
        type            processor;
        value           nonuniform List<scalar> 10(0.00315626245592 0.00318774709385 0.00325551931456 0.00341449124877 0.00383179036606 0.00503672343619 0.00829353133973 0.0155759670652 0.0304908045767 0.0581884826727);
    }
    procBoundary1to2
    {
        type            processor;
        value           nonuniform List<scalar> 
18
(
0.00219486048401
0.00274080562363
0.00292301572196
0.00300744299291
0.00300744299291
0.00305394306391
0.00305394306391
0.00306794124413
0.0030762845205
0.00308282038861
0.00308891396034
0.00309502654581
0.00310126131964
0.00310761203828
0.00311402668862
0.00312045993253
0.00312687596338
0.00313323988109
)
;
    }
}


// ************************************************************************* //
