/*--------------------------------*- C++ -*----------------------------------*\
| =========                 |                                                 |
| \\      /  F ield         | OpenFOAM: The Open Source CFD Toolbox           |
|  \\    /   O peration     | Version:  v2012                                 |
|   \\  /    A nd           | Website:  www.openfoam.com                      |
|    \\/     M anipulation  |                                                 |
\*---------------------------------------------------------------------------*/
FoamFile
{
    version     2.0;
    format      ascii;
    class       volVectorField;
    location    "2.5";
    object      ddt0(rho,U);
}
// * * * * * * * * * * * * * * * * * * * * * * * * * * * * * * * * * * * * * //

dimensions      [1 -2 -2 0 0 0 0];


internalField   nonuniform List<vector> 
1984
(
(4.63440973928 -4.53169013932 3.04836106339e-20)
(4.42190927488 -13.5146687032 -1.09068060964e-18)
(4.5125846143 -21.9321168069 -9.1203132443e-21)
(4.66187933151 -30.8203592549 3.41889424373e-20)
(4.82373805889 -39.857365121 1.17559512147e-19)
(5.02601088259 -49.0954608167 -9.82373683544e-20)
(5.31460069888 -58.6461619244 4.24387049299e-19)
(5.76566786928 -68.6256419802 -9.4861308244e-19)
(6.47432105404 -79.062365162 -9.90469380652e-19)
(7.38709934765 -89.2627951263 -7.49758262368e-19)
(6.94887305952 -100.814545196 -1.69811012853e-19)
(7.51142148495 -114.538965182 -9.27508250777e-20)
(8.49447533772 -129.431955905 -2.55120818397e-19)
(9.88552652861 -144.318006199 -4.78420719193e-19)
(9.980813759 -167.926555749 -1.03419048987e-18)
(2.50388419188 -188.763170996 -1.33823077146e-18)
(23.6362997617 -192.463044656 8.36903019144e-18)
(26.6126549922 -190.239531 8.13703941003e-17)
(75.0760494275 -27.5259299039 -1.50108607608e-16)
(0.352480024239 1.67196811028 1.05699391329e-18)
(13.6189633864 -4.30255747677 3.22957125612e-19)
(13.3539366809 -13.1389880058 -2.20758603973e-19)
(13.4499222248 -21.5486538711 2.79536138177e-19)
(13.6883623747 -30.3998745966 3.99988858472e-19)
(13.996724747 -39.331049772 1.6119709892e-18)
(14.3954861001 -48.4031814232 7.81429025259e-19)
(14.9449806993 -57.6884551401 1.40207752699e-18)
(15.7011042718 -67.2612095301 5.67343103686e-19)
(16.7822365857 -77.242074057 -6.12849976965e-19)
(18.0056959237 -88.6279275375 2.9384809997e-19)
(18.8989918723 -100.592256969 4.19283423535e-19)
(20.7996268923 -112.958721591 4.99061090245e-19)
(23.5956974468 -127.42477981 -3.69474658636e-19)
(26.9958075488 -143.758329391 -1.11140394215e-18)
(28.1610653124 -175.277697648 -4.03211418747e-18)
(30.3075088832 -174.345605692 -4.3999642635e-18)
(63.8104692211 -201.772721927 5.21111652862e-18)
(62.7300878751 -218.656345674 -5.22813894684e-18)
(57.6835281847 -40.510190458 4.41527938793e-17)
(0.242302480583 -0.0778530439929 4.10976611446e-21)
(21.9253734607 -4.28742140996 -7.48643690365e-20)
(21.7372897535 -12.9991422076 -2.2230231571e-18)
(21.8764174233 -21.3250655363 -7.58222307658e-20)
(22.1811756709 -30.0681284935 1.68375294943e-19)
(22.6007142517 -38.8634952446 2.86939949085e-19)
(23.151663889 -47.7832847152 -3.23079390649e-19)
(23.8724699852 -56.9271274293 1.7560058776e-20)
(24.8008096516 -66.3397442156 -6.96945234922e-19)
(25.9453479168 -76.2562802364 -6.35280615679e-19)
(27.4624944019 -86.632445872 5.28229725922e-19)
(30.349816142 -97.5223292427 1.20644308116e-19)
(33.9339791152 -109.453670708 -4.10767174318e-19)
(38.8522201676 -123.065844272 -7.66553302281e-19)
(45.7158901034 -139.798578202 -3.32666107584e-20)
(55.4266976392 -164.173062534 1.09420621216e-18)
(82.4163631222 -148.10239717 -5.94720391635e-18)
(93.0326371955 -197.691384856 3.70293632815e-17)
(92.9464248367 -227.149718852 -1.12274450397e-17)
(41.7392564181 -51.6395216486 4.29026715655e-17)
(0.874371590364 -0.0545231050846 3.71354379403e-20)
(30.5508630697 -4.27420506954 1.15521830837e-19)
(30.4294772393 -12.8876568271 -1.04284756956e-18)
(30.6160655157 -21.0884672793 1.00606233737e-19)
(31.0041978718 -29.7040305498 1.33472326444e-19)
(31.5363460303 -38.3488713385 1.55951738613e-20)
(32.2418533823 -47.0939659831 -3.65709472966e-19)
(33.1650290457 -55.9975488856 -2.07555100595e-19)
(34.3967261802 -65.1473623075 1.13853224792e-19)
(36.0157864912 -74.5395874013 8.58903672759e-20)
(38.3137714991 -84.1967672761 -3.34845009388e-19)
(41.278622662 -94.1213844746 -8.30128198124e-20)
(45.7349301656 -104.518420978 -5.84474964577e-20)
(52.079818153 -115.696296739 -8.68952631979e-20)
(61.4978211445 -127.767874378 -4.97939423472e-19)
(77.205803378 -138.969693833 2.32370430712e-19)
(106.319846672 -128.363039157 -1.41406849497e-18)
(101.266561116 -183.259972406 9.11673096598e-19)
(122.01999562 -200.613597248 -1.14268746613e-17)
(35.6479447121 -42.9852903162 -1.5276576429e-17)
(0.458490263847 0.106362984025 -1.34550732005e-19)
(39.0307527674 -4.22087309985 8.91011772145e-19)
(38.9173935226 -12.7145257755 -1.72924447714e-18)
(39.125061949 -20.7780960528 -2.19428708161e-19)
(39.5769668579 -29.2395828842 1.49432343359e-19)
(40.1983807171 -37.6991472731 6.83475667919e-20)
(41.0083751004 -46.2221448791 -5.86850365141e-20)
(42.069110348 -54.8515450689 -8.07007789767e-20)
(43.4507433375 -63.5859171786 1.85599396395e-20)
(45.3097188419 -72.4519985889 9.95667975948e-20)
(47.7010427271 -81.5007002256 -9.64187756715e-20)
(50.64726205 -90.2601313944 -9.59091442155e-21)
(55.3810990477 -98.8868575022 7.82911981558e-20)
(61.9135618233 -107.457997053 -5.29221480785e-19)
(71.1229584243 -115.344645758 -3.73689190078e-20)
(85.0358994444 -119.854062155 -1.68427290869e-19)
(104.029415847 -117.768640017 7.48154661314e-19)
(101.199184632 -150.984511241 3.78377024338e-17)
(126.509822036 -151.6973017 -6.37755429192e-19)
(30.0610797309 -32.1902647608 -4.3695061217e-18)
(0.259208057979 0.0306158502656 -2.87432415009e-20)
(47.411084177 -4.12472233623 2.50601369675e-19)
(47.2782307173 -12.5084191785 -2.75534191597e-19)
(47.4943336572 -20.4173161031 -2.18119198457e-19)
(47.9881340205 -28.7045826683 1.50124056692e-19)
(48.6595095862 -36.9674104997 9.24159075611e-20)
(49.5158020771 -45.2582216597 3.20994532476e-20)
(50.6159255288 -53.5953092291 -2.36186974137e-21)
(52.033600111 -61.9561841836 3.84376189811e-21)
(53.8805529903 -70.350028401 -3.07126545327e-20)
(56.3428071393 -78.9282985474 -3.88077635029e-20)
(59.8601074482 -86.5094238411 -1.67855179639e-20)
(63.3614177667 -93.3731323894 1.76061935894e-20)
(68.9193875076 -99.9591209404 -5.33901160338e-19)
(76.4339394042 -105.183441759 -4.7158117038e-19)
(87.1403279814 -106.47647071 -1.2390359432e-18)
(99.8063462943 -106.903089086 3.91345461415e-18)
(103.864386919 -120.58484971 2.83685899072e-17)
(122.309649277 -109.364515476 1.73907910392e-19)
(26.4966253308 -19.974627634 -1.1747977858e-17)
(0.096043000624 0.066887117599 -1.01702931613e-20)
(55.653383052 -4.01156612068 3.39396068532e-19)
(55.4783953099 -12.2803581743 -2.92416206248e-19)
(55.7013376418 -20.0354679484 3.5669149213e-19)
(56.2173043334 -28.1448335783 2.26487277465e-19)
(56.9020718696 -36.2096674706 3.8074327672e-20)
(57.7516110134 -44.2812888727 2.31567016486e-20)
(58.8102699764 -52.3479382669 -3.75409244233e-20)
(60.1361916372 -60.3406269351 -2.74183460169e-20)
(61.8000144261 -68.1709371611 2.27039036366e-20)
(63.9603640121 -75.5517079691 -1.15651898778e-19)
(66.9595256507 -83.2705575131 -1.26796890294e-19)
(69.6150220245 -89.9041128874 3.2988234004e-20)
(73.6765235021 -94.3185081381 -5.86191906194e-19)
(78.9911993522 -97.6131024074 -5.99794386986e-19)
(86.6428824235 -96.9352257375 -2.80919760531e-18)
(94.9022601186 -96.0766051651 6.28741935789e-18)
(100.380909936 -96.3033945496 1.616268205e-17)
(114.022978782 -78.9293698755 -9.78251552016e-19)
(21.7024800121 -10.7890527268 2.42737723674e-18)
(-0.0546402501562 0.208521288517 -6.32145834449e-20)
(63.7426242243 -3.89511243217 1.14172410096e-19)
(63.5130392039 -12.0402901946 -1.33561029403e-18)
(63.739411235 -19.639868524 -2.78565108478e-19)
(64.2683345652 -27.5835568746 1.6274422446e-19)
(64.9450629339 -35.4717615434 9.63934483827e-20)
(65.7483689863 -43.3605704746 2.37637747801e-20)
(66.7101016909 -51.2176286685 3.29279593291e-21)
(67.8423580091 -58.9761448805 -5.81034572825e-21)
(69.1669349628 -66.5394064589 6.16152549961e-21)
(70.6978373017 -73.7853559176 -1.53899411266e-20)
(72.3294500082 -80.8795795068 -3.70890478667e-20)
(74.9989700276 -86.7231561502 1.03790106289e-19)
(77.1005968406 -90.5123710899 -4.86784980709e-19)
(80.2417578172 -92.7332158885 -2.72708897634e-19)
(84.5445622188 -90.9959472592 -1.87679649155e-18)
(87.9218358754 -88.7645012852 1.9850068933e-18)
(88.2908280571 -79.7800580043 3.08548520692e-17)
(93.6923077572 -55.5170627923 -1.59042369792e-18)
(13.9029015952 -1.60263155907 -2.84837859735e-17)
(-0.615198467084 0.288197768686 5.35738335751e-20)
(71.6671294315 -3.77382122445 1.27775742246e-19)
(71.3813268028 -11.7935908015 -7.04797537436e-19)
(71.605207509 -19.2408417347 -9.68117349077e-21)
(72.148100981 -27.0331069319 7.22710666418e-20)
(72.8093074717 -34.7744089513 1.10006274391e-19)
(73.5550842885 -42.5270680681 6.08694400174e-20)
(74.3922620875 -50.2593106056 -1.22913335615e-20)
(75.3022459074 -57.8916757465 1.08266765337e-20)
(76.2745920061 -65.3289463224 1.52746883679e-20)
(77.3078677788 -72.4087231876 9.31549972424e-23)
(78.4150697993 -78.9898332658 -1.7003657055e-20)
(79.9400994965 -85.1969194313 -1.21259448665e-20)
(81.2591747511 -89.0377552692 -1.03759678879e-19)
(81.3809174649 -90.7586715086 -8.07866364743e-19)
(82.5062068419 -89.6705246528 1.46267182757e-18)
(81.4489299791 -88.4217278359 -5.52497877328e-18)
(74.7147518905 -78.55555116 -7.83753140738e-19)
(68.8163902326 -42.5243615871 -7.72931486758e-18)
(0.417106311851 2.40087481798 -8.19359628889e-18)
(-2.06920529396 1.52622500471 4.92696579512e-20)
(79.411382844 -3.64781364393 2.98528771635e-19)
(79.0680737894 -11.541234008 -1.71534857755e-18)
(79.2973224847 -18.8354170729 -3.73254923732e-19)
(79.8605705556 -26.4884210743 1.19909032205e-19)
(80.5180843721 -34.1157316567 7.63342740306e-20)
(81.2198651772 -41.7893750695 2.10985965652e-20)
(81.947528142 -49.476241896 9.49222702491e-21)
(82.6597586766 -57.1036913019 2.03580844199e-21)
(83.3099343969 -64.5484132516 -7.83549991362e-21)
(83.8554985974 -71.6648740798 4.22167911996e-20)
(84.2389767604 -78.2749248093 -4.54236951208e-21)
(84.4153884931 -83.9462527362 2.77574736829e-20)
(84.8092929604 -89.0657384059 -2.10965699226e-19)
(83.6251737866 -92.0906543037 5.23971929887e-19)
(81.8886174656 -91.3379521699 4.15861610263e-19)
(78.7578688162 -93.1782360409 6.4657628849e-20)
(72.5269539143 -90.9197915254 1.1890412331e-17)
(72.4242487663 -52.1208107917 -1.490971232e-18)
(15.3204205278 1.79113022607 4.69257290891e-17)
(-3.72500329693 3.25205005002 -2.26939085733e-21)
(86.9556725401 -3.5168845487 7.83919065003e-19)
(86.555408072 -11.2728222496 2.28846865387e-19)
(86.8081407527 -18.4134468559 4.66141319084e-19)
(87.4105178788 -25.9367770285 1.53987748149e-19)
(88.0957672513 -33.4729903821 8.83473953737e-20)
(88.7969292692 -41.1118028171 1.23015145948e-20)
(89.4785148984 -48.8257321215 3.60717718662e-21)
(90.0726628706 -56.5391259528 -2.04561448868e-22)
(90.4998316653 -64.1484802995 3.34453308657e-20)
(90.6795210176 -71.5032407582 -6.87455349818e-21)
(90.4821068639 -78.4622366002 -1.88772757574e-21)
(89.7627981445 -84.7012061302 1.0376061367e-19)
(88.2150412362 -89.8647148895 4.27648760392e-20)
(86.3532595065 -94.2693008176 -5.54485137263e-19)
(83.0811488132 -94.8590498557 -7.7361070411e-19)
(77.8054333909 -94.7137615399 -4.38309059913e-18)
(74.2524889984 -84.6852912817 3.42715209657e-18)
(86.2446852922 -23.5043903545 -4.69247856423e-19)
(29.4146383592 12.4971757951 -7.21934633603e-18)
(0.414242853129 -12.4205191172 2.63089589166e-19)
(94.273872101 -3.37921565454 1.14271539291e-18)
(93.8214475763 -10.9767185571 -1.15682961733e-18)
(94.1218473682 -17.950153701 3.51137267672e-20)
(94.7958783262 -25.3413994569 2.91622140032e-19)
(95.5598363312 -32.7941437589 9.03039207945e-20)
(96.3345147152 -40.4229728383 1.9388235903e-20)
(97.0739915682 -48.2081197656 7.77738758471e-20)
(97.687089483 -56.0940668964 7.21540585225e-20)
(98.0612191548 -63.9598523203 9.65185127528e-20)
(98.1038340995 -71.7086395613 1.34475741981e-19)
(97.6153870989 -79.2290694714 -7.71912505134e-21)
(96.4215069868 -86.2914433144 2.74431249171e-19)
(94.0661825761 -92.5537848256 -2.46008032009e-19)
(90.1618401972 -97.7616472205 -1.3277223529e-19)
(84.9263155976 -100.129354823 -6.50263031916e-19)
(75.1342204833 -99.2357302986 3.04740588994e-18)
(60.2345138352 -77.258427979 3.57700255451e-18)
(51.3161779945 -1.29025712948 -8.1865529067e-18)
(12.787498514 36.4066090525 -8.23902470645e-17)
(5.22084712816 2.21199020595 8.40722911341e-19)
(101.333958585 -3.23042299779 5.16766504824e-19)
(100.841655069 -10.6335762405 -1.94969816007e-18)
(101.214401341 -17.4153130474 -4.77369060453e-19)
(102.00196205 -24.6544614317 1.01437506419e-19)
(102.910441361 -32.0065020436 1.18279124382e-19)
(103.855300625 -39.6173580703 2.85080520137e-20)
(104.786732272 -47.481772723 9.95767488438e-21)
(105.596730355 -55.5633057241 7.35378612579e-20)
(106.165881387 -63.7500902708 1.2865430893e-19)
(106.366153048 -71.9753697441 1.22349432345e-19)
(105.96238904 -80.1823533029 4.54871067656e-21)
(104.745108597 -88.3229381511 3.66588374888e-19)
(102.140283796 -96.2412194883 -1.14466840486e-19)
(97.4804755188 -103.838305254 9.63129318933e-19)
(89.8111264796 -110.139908829 2.46742617449e-18)
(75.9319114134 -116.684277899 8.6705664711e-18)
(48.2452034853 -108.292546855 -1.1391836051e-17)
(5.28811039033 -15.6210091198 -1.81603555216e-17)
(7.9639701116 37.3947925421 -9.61507666393e-17)
(8.67023862601 -3.06025469661 -2.64124991615e-19)
(108.091127495 -3.06563932591 7.26003035321e-19)
(107.575432346 -10.2237284901 -5.76565234081e-19)
(108.038042849 -16.7728340424 -8.00000405278e-20)
(108.99668891 -23.81837674 1.20035267999e-19)
(110.129145924 -31.0210960595 5.4378574592e-20)
(111.357274754 -38.5690568553 3.28456376554e-20)
(112.634892299 -46.4752622293 3.70911933023e-20)
(113.847077055 -54.724325404 4.89894856746e-23)
(114.89422329 -63.2064254692 1.77633335155e-19)
(115.622504927 -71.9354637507 1.07697709001e-19)
(115.71269204 -80.8860497131 -8.75166737897e-20)
(115.065736895 -90.1809855652 2.21357163645e-19)
(113.049765349 -99.9600009432 -1.28925902177e-19)
(109.044496147 -110.425008482 6.19465035351e-20)
(101.990201935 -122.053719272 4.26407243768e-19)
(89.4181920938 -138.249400722 -5.24210683345e-18)
(68.6660212878 -156.703511332 -3.16838253448e-18)
(30.0676932341 -56.7774651205 1.0608577965e-18)
(40.0159475679 23.7257146096 -3.84059704542e-17)
(27.7360264968 -6.44528408547 1.32539707238e-18)
(114.491609547 -2.86645185386 6.00341047155e-21)
(113.958447353 -9.73290386046 -8.59533701474e-19)
(114.546758215 -15.9872861051 7.59141451708e-20)
(115.730115307 -22.7549457001 2.91940770694e-20)
(117.172625627 -29.7347162928 -3.7134373843e-20)
(118.783737845 -37.1360286891 2.74685355591e-21)
(120.545393054 -44.9993455777 7.38913811219e-20)
(122.399229266 -53.3107383753 2.1587310811e-20)
(124.246036357 -61.9866946724 6.2122609238e-21)
(125.827233286 -71.1789553238 1.12654881303e-20)
(127.020520376 -80.7775018816 -4.82654954752e-20)
(127.581566294 -91.0580272264 4.95636904376e-20)
(127.135770413 -102.418661025 -1.96754263798e-19)
(125.14772117 -115.190787603 9.6906078294e-20)
(120.829936007 -130.320139508 -1.0830975927e-18)
(112.163184626 -148.86808238 -1.75838843e-18)
(98.2841077931 -158.926978426 -1.83207661043e-18)
(49.3578012061 -41.9854267087 4.74939404706e-18)
(7.97933198897 33.2591316498 7.92516741514e-16)
(-1.52243348047 71.051649359 -3.48195968229e-18)
(120.486061109 -2.64728375398 7.91697872229e-19)
(119.940854971 -9.13241292073 7.84845668589e-19)
(120.688789982 -15.0052398442 1.94357872205e-19)
(122.143958898 -21.3987613408 1.65439748023e-19)
(123.909310756 -28.0600550582 -1.66891458855e-20)
(125.994528344 -35.2198975346 1.44754128194e-20)
(128.379787094 -42.865194026 6.18188825248e-20)
(131.061240285 -51.0236107035 1.17020491209e-20)
(133.863859089 -59.7813879265 -3.23552330845e-20)
(136.720998782 -69.1717723458 6.91008449664e-20)
(139.497503145 -79.158490329 -1.42704667981e-19)
(141.866707503 -90.1260111949 1.22438005125e-20)
(143.74605967 -102.534283153 -2.8334083069e-19)
(144.835579624 -116.99642436 -6.71289035089e-20)
(144.730202433 -135.42942818 -1.16590483883e-19)
(142.396235008 -162.276583721 -2.40971023886e-18)
(136.881313819 -193.473676639 -3.66024374048e-18)
(72.7254646491 -96.1887832749 1.08618062006e-17)
(-52.2551372122 5.52140544423 6.50029211319e-17)
(-38.59237147 -64.7771514765 -3.16485299273e-18)
(126.024237896 -2.38972073251 9.25459578086e-19)
(125.478228237 -8.40900216779 2.42442179507e-19)
(126.3937191 -13.7937915038 1.38190241205e-19)
(128.080841079 -19.7528832627 3.42604520495e-20)
(130.232822119 -25.9827152469 -7.34813947739e-21)
(132.837202487 -32.6910668717 3.55644563809e-20)
(135.89107912 -39.9314404136 7.36936087291e-20)
(139.45102957 -47.8170033172 1.36750689488e-20)
(143.450030024 -56.3205519602 1.95207708228e-20)
(147.887644488 -65.5468210485 1.45453236354e-19)
(152.593558696 -75.6497770477 1.34717277009e-20)
(157.383732353 -86.8687666432 2.05184310037e-19)
(162.237848407 -99.6033884563 -5.11973132605e-20)
(167.040194001 -114.524563799 -5.2596370492e-20)
(171.770867974 -133.025817931 -9.75084224883e-19)
(177.346514375 -157.749469904 -2.93779136199e-18)
(186.484568533 -176.368699158 -1.19425994209e-17)
(129.241993413 -73.1527437547 -8.02790530338e-18)
(2.64707029553 19.4857942988 8.17144732415e-17)
(11.6961975592 -0.678957546258 1.11339760649e-18)
(131.056951788 -2.09131882468 1.01467431211e-18)
(130.495560653 -7.55353235008 -7.0884879626e-20)
(131.55599536 -12.4226964253 1.63682985708e-19)
(133.488172696 -17.7957467262 1.06766526846e-19)
(136.015433458 -23.4089962495 4.46033447292e-20)
(139.07016236 -29.5848654598 6.88094017375e-21)
(142.810619295 -36.2497756608 -6.11811155236e-21)
(147.263997202 -43.4545750169 3.95012743138e-20)
(152.497260546 -51.3256891468 6.36231716707e-20)
(158.40289472 -59.9959533904 8.43688429693e-20)
(165.032630462 -69.6222259499 3.1781195788e-20)
(172.261865314 -80.4583086967 1.08277087263e-19)
(180.115195984 -92.9354208834 -5.65272254998e-20)
(188.434080412 -107.727151086 -2.05101697457e-20)
(197.181750402 -125.667497253 4.5734692853e-19)
(207.183951756 -148.243651508 2.89776456029e-18)
(217.945853053 -159.736417895 1.47338550865e-17)
(134.827163727 -64.6262011991 -3.24255735675e-17)
(20.3400502078 20.7475671354 -6.20840312015e-17)
(4.43772847156 1.21476049838 -1.64562038062e-18)
(135.457357891 -1.77942746067 1.79628933345e-19)
(134.885568168 -6.61228520982 -9.45251129559e-19)
(136.090311506 -10.8309998174 3.95203399154e-20)
(138.292608347 -15.5449933948 1.50690610164e-19)
(141.108816735 -20.5182633209 4.94749534631e-20)
(144.648009546 -25.9331157001 1.34023910072e-20)
(149.047741583 -31.750921433 1.76410168189e-20)
(154.320547743 -38.1303011072 -3.94109664386e-22)
(160.525194397 -45.1634027715 2.79919885515e-20)
(167.702907108 -52.9699799901 3.97904954137e-20)
(175.92536543 -61.7312456014 -3.1244281662e-20)
(185.219876909 -71.7172358344 2.73271165673e-20)
(195.651798848 -83.418122968 -4.93438882604e-20)
(207.236275682 -97.6374365764 -6.51808089712e-20)
(219.898278381 -115.414935198 -1.4202483584e-18)
(234.250224865 -139.936287027 5.24761612436e-18)
(248.174437273 -159.564012554 2.44253800353e-17)
(155.896951226 -75.6260281644 -1.6520569295e-17)
(21.0256222188 0.914347664615 -2.5135647951e-17)
(-0.0429588377126 -0.130283021061 2.27779742919e-18)
(139.237622258 -1.42055117394 8.23390163278e-20)
(138.651194247 -5.53914497165 -1.38080208694e-18)
(139.970239629 -9.04890694887 -7.66687424164e-21)
(142.385860568 -13.0420635811 1.22254359258e-19)
(145.530159478 -17.1858506616 2.66994605857e-20)
(149.537169524 -21.6974773082 1.97995873061e-20)
(154.459624968 -26.5957454684 -5.58534003825e-21)
(160.400603045 -31.9779631616 3.33836347932e-20)
(167.461274001 -37.9347777041 -1.77528858492e-21)
(175.751114 -44.5794672231 -3.13338741878e-20)
(185.396085794 -52.0818802598 1.14184398013e-19)
(196.555693392 -60.7075665188 -2.33644373796e-19)
(209.427084241 -70.9494513246 2.27684528302e-19)
(224.319590448 -83.6603430456 -2.30617520261e-19)
(241.566873827 -100.007860526 6.87283667269e-19)
(262.511440575 -124.590950551 1.22915134506e-18)
(287.921846231 -145.891955101 4.42463055203e-17)
(204.713235731 -78.17621678 2.73950990839e-18)
(36.2260357785 -5.34424493554 -7.49115594018e-18)
(0.838782588771 -0.311380860641 2.46092741005e-19)
(142.421570217 -1.04698614511 1.02834631813e-19)
(141.795531131 -4.41634566854 1.48074670668e-19)
(143.202554861 -7.13932767593 1.44179955348e-19)
(145.798912392 -10.2661279961 1.60983781359e-19)
(149.202464491 -13.506688188 3.97760546522e-20)
(153.505719015 -17.0494795535 3.09272519291e-20)
(158.835379477 -20.8969731216 -5.97286658959e-21)
(165.310951728 -25.1264098576 1.04127306268e-20)
(173.067929494 -29.8061185506 7.144604468e-21)
(182.242542582 -35.0230120772 -8.58850136021e-21)
(193.04749221 -40.906855734 3.9289503123e-20)
(205.740289681 -47.6653700678 4.5317081558e-20)
(220.699888504 -55.6825144432 2.65383557906e-19)
(238.508009586 -65.6683487749 2.50619237018e-19)
(260.076088739 -78.4105352696 8.46813393156e-20)
(287.503034786 -98.1973754561 -3.22997282991e-19)
(324.076115558 -112.261661719 -3.6885045166e-18)
(239.871537397 -56.463829389 3.02446397731e-18)
(41.6644424884 -1.22830007444 -2.05682108947e-18)
(0.832730309701 -0.0920973102406 1.61234926717e-19)
(144.873873003 -0.656721462154 4.83421227241e-19)
(144.202145405 -3.20812284785 3.60104721641e-20)
(145.691557533 -5.09545288705 1.20060438993e-19)
(148.399171571 -7.33172009026 2.18265724294e-19)
(151.953288386 -9.61658068388 5.80962063774e-20)
(156.462224391 -12.1074236348 2.71841985659e-21)
(162.070515843 -14.8037901247 1.07955050912e-20)
(168.899895954 -17.7495864867 2.37396738755e-20)
(177.127536588 -21.0003834161 -6.0479137189e-20)
(186.918242686 -24.5892098512 2.38404548335e-20)
(198.52776895 -28.5664147393 3.38774373507e-20)
(212.28152268 -33.03417159 -2.16404983174e-19)
(228.711460152 -38.2067317304 3.29494851434e-19)
(248.538264863 -44.4813978004 -3.53087380141e-20)
(273.105321611 -52.0672278908 5.24676592442e-19)
(304.626455413 -64.194267848 9.08550302569e-19)
(347.497812421 -69.8548328841 -7.61277949175e-18)
(256.566517017 -31.052802735 9.07349446494e-20)
(37.6354254894 0.170752195786 -1.97944326088e-18)
(0.661909545181 0.0371820239767 -1.1099728563e-20)
(146.566208936 -0.258501870351 6.04887746692e-19)
(145.835639641 -1.96285511696 -2.27721757172e-19)
(147.350907807 -2.99144004592 -1.67382794532e-19)
(150.111978599 -4.29829260332 9.23729504223e-20)
(153.742773379 -5.58687187649 3.74946138852e-20)
(158.350474178 -6.98116624615 1.01731618693e-20)
(164.086877329 -8.47688486749 1.65763971016e-21)
(171.089277033 -10.0744733633 -2.68734528348e-20)
(179.53918772 -11.7853040053 -2.55069103128e-20)
(189.630465481 -13.6152091028 -3.36560029262e-20)
(201.603536016 -15.5309233772 -1.01128419682e-20)
(215.829545503 -17.4626401085 -1.69227634255e-19)
(232.86251377 -19.4519456293 3.35370514214e-20)
(253.519743066 -21.5076400342 -1.39001340316e-19)
(279.244265291 -23.2915755262 -1.36742026169e-19)
(312.018390907 -26.588230132 2.20024300226e-18)
(356.886727254 -24.9435156941 9.85655028277e-18)
(259.664987535 -4.41901186071 -4.21939447985e-18)
(30.5527490274 1.77906264986 -3.91755398107e-19)
(0.541728472959 0.00305975152781 2.25935782621e-20)
(147.5073189 0.14163119763 3.69131628637e-19)
(146.707044171 -0.703433973683 -1.7148873686e-20)
(148.205002548 -0.866415793722 -3.16258296538e-20)
(150.965621403 -1.24002977248 6.5680443241e-20)
(154.5869344 -1.52768122796 3.64012675937e-20)
(159.178841645 -1.816340168 1.37946057437e-20)
(164.889299252 -2.08219920323 2.85295180437e-21)
(171.874244176 -2.30439484281 -7.47700163104e-22)
(180.277715292 -2.46161261719 -5.42063405307e-20)
(190.29927471 -2.52131813697 -6.0751876936e-21)
(202.164440117 -2.35002410599 -1.13342601804e-19)
(216.239637692 -1.75375200915 -9.97382918073e-20)
(232.979134288 -0.54219121962 2.76995975409e-20)
(253.208541753 1.63744587879 -4.77998130856e-19)
(278.181499688 5.45705271713 4.08866908427e-19)
(309.560734734 11.0371237316 3.74298301519e-18)
(353.413392863 18.4676903065 -1.88936746772e-19)
(249.326266764 20.2263719478 6.24411687149e-18)
(22.3070709909 3.10906787819 -4.09071313484e-19)
(0.451196902648 0.231762784547 -5.1194712831e-20)
(147.664783863 0.543815129205 4.57057285121e-19)
(146.780386958 0.540011395134 -3.84328644807e-19)
(148.247164386 1.22397010833 -1.44214558361e-19)
(150.949043022 1.7792536212 -2.5775051506e-20)
(154.488589545 2.47446630826 4.74393306898e-21)
(158.958671448 3.2677103021 8.241874662e-21)
(164.498829613 4.19854052729 -5.01664704788e-21)
(171.254403297 5.30419481587 3.04426300335e-20)
(179.364270321 6.63494262279 8.2897981897e-21)
(188.971289712 8.27619459063 -2.13605773092e-20)
(200.313581734 10.4258675196 5.78897062685e-20)
(213.646386221 13.3734839785 -1.91680800212e-20)
(229.358270143 17.5135180963 -1.91358435994e-20)
(248.073376952 23.437970389 -2.77555833007e-19)
(270.718023703 32.0929070011 1.43641610766e-19)
(298.292767452 45.495750117 3.2139679196e-18)
(338.131160805 59.0452588912 -3.06537864902e-18)
(227.151808638 43.0825534729 2.57337168003e-18)
(14.5634298648 3.73249384447 -9.02698162829e-19)
(0.409628658687 0.448611936635 -1.5640474628e-19)
(147.064377285 0.917280661884 1.20757731357e-19)
(146.086342332 1.75120053599 5.34963390504e-20)
(147.505222011 3.25550025829 2.01941300185e-21)
(150.099912474 4.69132320864 -9.05386814525e-20)
(153.482032741 6.32520107427 8.78639779194e-21)
(157.722797531 8.13793545902 8.09146771202e-21)
(162.948091905 10.1936115027 9.38677772341e-22)
(169.294314534 12.5535364815 7.43347128233e-21)
(176.871010031 15.2527914553 1.50217942949e-20)
(185.79273956 18.4316579915 1.84458116222e-20)
(196.234624912 22.3323266889 2.22853917129e-20)
(208.375102172 27.3072122575 5.17112485506e-20)
(222.502758695 33.8766152515 2.2180252128e-19)
(238.929652393 42.7679498038 1.0760927671e-19)
(258.224113355 54.9118300227 1.13828363225e-19)
(280.426131824 73.8207453364 2.16445737183e-18)
(309.894982573 95.8819733432 3.07388506281e-18)
(189.732415023 64.6597938058 -5.02115497575e-18)
(8.61639743956 3.41282259772 -3.16765212583e-18)
(0.332662221504 0.541342192922 -7.51733237682e-20)
(145.686746769 1.25964178141 1.95217866346e-19)
(144.605928933 2.90413112215 -1.81655446799e-19)
(145.930347712 5.18092274518 1.73905916856e-19)
(148.379991451 7.44150212601 1.08998880518e-19)
(151.551018635 9.94230270809 5.20677601601e-20)
(155.495571902 12.6842231378 6.10405783295e-21)
(160.327156312 15.755938539 -4.22939186301e-21)
(166.147914046 19.2160876463 1.11140265398e-22)
(173.039451461 23.1236012687 1.27885929315e-20)
(181.11400783 27.6303500911 8.35145852769e-21)
(190.435438098 32.9994719889 1.07515915351e-20)
(201.136999555 39.6318193883 6.97748781669e-20)
(213.375062115 48.00508177 -5.19165386358e-20)
(227.125943817 58.8198345898 -6.4501876171e-21)
(242.540965677 72.6850495552 2.61551734649e-19)
(259.222994911 93.4394510741 2.72070143703e-19)
(273.500640628 119.050532023 -2.07248970752e-17)
(142.618700735 78.1244369792 -2.06582751785e-18)
(3.67180931339 2.73705982235 -1.73660825732e-19)
(0.152640115885 -0.108374497714 4.75732327585e-19)
(143.514229204 1.5900847913 1.37918791321e-19)
(142.321052252 3.9829999947 -1.42609576685e-19)
(143.516117941 6.97216837182 3.10703699333e-20)
(145.789777086 9.9917012124 9.01024081737e-20)
(148.70870403 13.2813266685 4.28793502895e-20)
(152.310430517 16.8627681593 5.07057575928e-21)
(156.688034678 20.8295578036 -1.15382341819e-21)
(161.90797427 25.2601978531 -1.77127000856e-21)
(168.043210398 30.2167635879 7.12540765523e-21)
(175.156770286 35.8233844425 2.96915915588e-20)
(183.321602661 42.3413645183 1.76915819798e-20)
(192.532929217 50.2061462522 6.37974517961e-20)
(202.849771675 59.7483695139 7.74671302665e-21)
(214.076869587 71.4420972807 3.18294742261e-19)
(225.716162419 85.3089532109 1.60304887164e-20)
(236.993951314 104.473928539 -1.94710784792e-18)
(239.24109411 126.079197794 -1.88831342035e-17)
(98.0338645605 85.1264993487 -8.87333843421e-18)
(-0.397262793297 2.19741815054 -4.90287639045e-19)
(0.0597458367701 0.195056973634 -3.10654862472e-21)
(140.655355608 1.8984185086 3.72694735877e-19)
(139.355286228 4.97581997135 1.87441539317e-19)
(140.395283134 8.60443231656 1.25989633135e-19)
(142.454864734 12.3111216609 1.65416498729e-19)
(145.081585952 16.2971925918 9.34825858957e-20)
(148.289402349 20.6071145909 2.72567319446e-20)
(152.151865865 25.3372632142 6.54781522609e-21)
(156.715580639 30.5648962281 -6.83041590159e-22)
(162.009407825 36.3652966776 1.11044287232e-20)
(168.077441712 42.9033205891 -7.82021209365e-21)
(175.043205261 50.3682981868 -9.47587955707e-21)
(182.831353032 59.1277516065 1.03161383812e-19)
(191.473698957 69.4321029113 -1.38721650357e-19)
(200.843674983 81.228530053 -7.14432387879e-19)
(210.238060755 93.9408844144 -3.35137513652e-18)
(220.061041884 106.432132864 -7.84169819657e-19)
(218.604958489 114.79884565 -2.45625916761e-17)
(81.5600387963 74.3679717195 -1.09581414485e-17)
(-0.421770742381 1.48095641967 -5.59809751647e-19)
(0.103479148974 0.0722808370469 -2.11744942865e-19)
(137.123177667 2.14577876213 2.52142410357e-19)
(135.747813654 5.8539115658 -9.71119195471e-20)
(136.627650336 10.0558296641 1.38859039428e-19)
(138.449638614 14.3703699838 3.31827735254e-20)
(140.760753257 18.9583877716 4.41686793055e-20)
(143.562900309 23.8857670499 5.47577112855e-20)
(146.885000183 29.2445544493 2.59121132348e-20)
(150.760050874 35.1121687463 2.81896544729e-22)
(155.188609479 41.5706101557 2.09200102515e-21)
(160.175442925 48.8419375369 -1.33783735847e-20)
(165.86653799 57.0767086862 4.15047162832e-20)
(172.284702936 66.5999706655 4.58919257942e-20)
(179.537721588 77.6138716316 -3.35357592666e-19)
(187.837005335 89.6219888666 -2.67919119681e-18)