/*--------------------------------*- C++ -*----------------------------------*\
| =========                 |                                                 |
| \\      /  F ield         | OpenFOAM: The Open Source CFD Toolbox           |
|  \\    /   O peration     | Version:  v2012                                 |
|   \\  /    A nd           | Website:  www.openfoam.com                      |
|    \\/     M anipulation  |                                                 |
\*---------------------------------------------------------------------------*/
FoamFile
{
    version     2.0;
    format      ascii;
    class       volScalarField;
    location    "2.5";
    object      k_0;
}
// * * * * * * * * * * * * * * * * * * * * * * * * * * * * * * * * * * * * * //

dimensions      [0 2 -2 0 0 0 0];


internalField   nonuniform List<scalar> 
1984
(
0.00352955419555
0.00409137049247
0.00427407760697
0.00434356017221
0.0043778702011
0.00440226372918
0.00442438616473
0.00444639117392
0.00446906818938
0.00449349351871
0.00452279949977
0.00456642894937
0.00464968351277
0.00482767610078
0.00518757859802
0.0058536004007
0.00698899248835
0.00925596629004
0.0170933397479
0.0513934882677
0.00410596642263
0.00501949131669
0.00529971703701
0.00540190582334
0.00544618643993
0.00547328212806
0.00549602660164
0.00551816614132
0.00554106129215
0.00556627548874
0.00559864399383
0.00565214408376
0.00576154018506
0.00599698690625
0.00646077861081
0.00726498076568
0.00856148889621
0.0113859093402
0.0240728284978
0.0738510564462
0.00428919998461
0.00530103230838
0.00561545221838
0.00572911209313
0.00577628361355
0.00580354921424
0.00582580885879
0.0058474627287
0.00586997255791
0.00589527124826
0.00592857107434
0.00598511318295
0.00610181428828
0.00635125596356
0.00684017181955
0.00768281672599
0.00901407719926
0.0118856352279
0.0250119492107
0.0750953492897
0.00435947249445
0.00540639930754
0.00573395537098
0.00585151621091
0.00589897425543
0.00592548691833
0.00594688945384
0.0059678051398
0.00598984935464
0.00601480346778
0.00604814173666
0.00610501103984
0.00622230105412
0.00647247763687
0.00696235084445
0.00781228085576
0.00915479507164
0.0120156495755
0.0250517548355
0.0738273216607
0.00439322810968
0.0054524869704
0.0057847149873
0.00590303992111
0.0059497448025
0.00597514140371
0.00599549340953
0.00601554784031
0.00603687269145
0.00606131254807
0.00609406893805
0.00615015635482
0.00626572178024
0.0065126022381
0.00699792478419
0.00784583406824
0.0091912506322
0.011971586989
0.0240820432063
0.0726208829369
0.00441555021195
0.00547952736274
0.00581309152206
0.00593096471314
0.00597656055544
0.00600073796608
0.00601996376197
0.00603904280941
0.00605954828293
0.00608323177149
0.00611514838763
0.00616986375894
0.00628278533831
0.00652497241699
0.00700377094434
0.00784670754164
0.00918749557169
0.0118473168871
0.0228438351906
0.0717088623308
0.00443425920688
0.00550066316284
0.00583442046014
0.0059514729874
0.00599591018158
0.00601890668424
0.00603703074986
0.00605511922242
0.00607472954571
0.00609756465583
0.00612845626601
0.00618151914045
0.00629136587258
0.00652818753006
0.00699958945617
0.0078366718474
0.00918380766322
0.0118731438151
0.0226751759634
0.0711800878832
0.00445166782494
0.00551992667021
0.0058536001632
0.00596979441283
0.00601315281398
0.00603506107138
0.00605215947695
0.00606929233219
0.0060880211714
0.00610995700673
0.00613975854026
0.00619102370085
0.00629751062563
0.00652840715092
0.00699178101868
0.00782213737662
0.00918104357743
0.0119581092805
0.0224920523879
0.0640910053958
0.00446840154491
0.00553851323433
0.0058720527138
0.005987451334
0.00602984137731
0.00605077710844
0.0060669400975
0.00608319170695
0.0061010666884
0.00612213138028
0.00615081203533
0.00620019643135
0.00630310857078
0.00652765766433
0.0069820817186
0.00780386840411
0.0091700836238
0.0120060170235
0.0222600548302
0.0595964004073
0.00448457820981
0.0055566763283
0.00589012490872
0.00600478256545
0.00604631589982
0.00606639497408
0.00608172558229
0.00609717136519
0.00611426615498
0.00613447164221
0.00616205312114
0.00620951089155
0.00630869246727
0.00652645148888
0.00697113282083
0.0077825173154
0.00914278798294
0.0119131410468
0.0213655954308
0.0496334342395
0.00450018752242
0.00557441705573
0.00590782659944
0.00602181478167
0.00606257733632
0.0060819010607
0.00609649658539
0.0061112274727
0.00612759880192
0.00614701726171
0.00617350249605
0.00621901501969
0.00631435681952
0.0065249772033
0.00695913397981
0.0077586994499
0.00911156643013
0.0118224771726
0.0214682211815
0.0567103840217
0.00451519937218
0.00559169593247
0.0059251023358
0.00603847665354
0.00607854741861
0.00609720380467
0.00611115484307
0.00612524711053
0.00614097045335
0.00615963910961
0.00618509540694
0.00622866981779
0.00632010014521
0.00652332630352
0.0069463491944
0.00773337500024
0.0090853839667
0.0117920340678
0.0212942617298
0.0674013678749
0.00452957917711
0.00560844721745
0.00594188740649
0.00605469444568
0.00609413659348
0.00611220139774
0.00612558152556
0.00613911239365
0.00615424646729
0.00617224152532
0.00619671221772
0.00623842243918
0.0063260125286
0.00652181373346
0.00693334766313
0.007706763742
0.00906323794319
0.0118861560778
0.0208678902014
0.0536414257572
0.00454328437067
0.00562462019274
0.00595809799989
0.00607038346607
0.00610926410014
0.00612680812478
0.00613968986512
0.00615271990195
0.00616734511945
0.00618472662995
0.00620829841705
0.0062482810105
0.00633228926777
0.00652119873541
0.00692193406287
0.00768136336119
0.00903333672905
0.0119310186905
0.0208952464208
0.0577666867625
0.00455628321485
0.00564016863752
0.00597365745198
0.00608547719345
0.0061238578757
0.00614094605223
0.00615338616409
0.00616600322176
0.00618018352893
0.00619700956348
0.00621982465992
0.00625828136115
0.00633924639314
0.00652259079837
0.00691540908977
0.00766487866565
0.00899645103449
0.0117832417805
0.0201478237104
0.0476254736184
0.00456858505013
0.00565501140542
0.00598855059129
0.00609993404091
0.00613784007944
0.00615454025701
0.00616664078747
0.00617887904325
0.00619262651964
0.00620903739771
0.00623111368832
0.00626833312354
0.00634687553179
0.00652654604428
0.00691664810116
0.00767069010043
0.00899999643539
0.011569719843
0.0185643098624
0.0404871630227
0.00458020621268
0.00566916549789
0.00600273354278
0.00611367659128
0.00615122448395
0.00616758062362
0.00617936067014
0.00619124676867
0.00620474081106
0.00622072112735
0.00624220691687
0.00627837273609
0.00635491959885
0.00653172113764
0.00692264181197
0.007702644543
0.00913179030852
0.011804604229
0.0184681444901
0.0521269282771
0.00459109086668
0.00568249890153
0.00601611857721
0.00612675915089
0.00616391703225
0.00617996023567
0.00619153012963
0.00620322037164
0.00621635650785
0.00623196097145
0.00625282498407
0.00628784535495
0.006362024932
0.00653477765706
0.0069244317615
0.00774025648092
0.00936783333638
0.0125973322028
0.0199537726017
0.0540564293621
0.00460112942811
0.00569493868328
0.0060286997673
0.00613901637048
0.00617590075842
0.00619181390023
0.00620316279618
0.0062146407421
0.00622756665797
0.00624289380365
0.00626326718556
0.00629719765015
0.00636880218087
0.00653637178417
0.00692166946562
0.0077678563312
0.00958745892198
0.0133874362332
0.0211566370824
0.0416454221746
0.00461035278396
0.00570663856063
0.00604043363243
0.00615051099103
0.00618721090806
0.00620292678053
0.00621415439489
0.00622551949487
0.00623831738868
0.00625344782748
0.0062734100323
0.00630631298481
0.0063753502362
0.00653767613195
0.00691802931711
0.00778523197551
0.00973083991196
0.0138891954396
0.022517058858
0.0418798657826
0.00461869232505
0.00571747315567
0.00605137198923
0.00616122778497
0.00619772514915
0.00621333220007
0.00622450338445
0.00623582683986
0.00624857632277
0.00626359235386
0.00628323070357
0.00631518495752
0.00638176699896
0.0065392113845
0.00691547370353
0.00779977622306
0.00983230841977
0.0142155255691
0.0237787722364
0.0487176940989
0.00462605968859
0.00572740057548
0.00606139799387
0.00617106749238
0.00620743657329
0.00622300201681
0.00623417941256
0.00624552174472
0.00625829162691
0.00627328131419
0.00629268766329
0.00632377279723
0.00638798939601
0.00654078716776
0.00691340020441
0.00781192144082
0.009910890309
0.0144894104583
0.0256470898769
0.0681055080668
0.00463240604965
0.00573635178683
0.00607048614695
0.00618002140777
0.00621631721286
0.00623189264016
0.00624313338321
0.00625457293351
0.00626744227714
0.00628249226913
0.00630174842245
0.00633203616853
0.00639390258602
0.00654205087873
0.00691063725011
0.00781958053023
0.0099691641864
0.0147273690271
0.0270177568958
0.0716835108869
0.00463770779477
0.00574429338368
0.00607859347051
0.00618805175828
0.00622432753058
0.00623996712956
0.00625133444473
0.00626295207716
0.0062760033466
0.00629118709469
0.00631038529533
0.00633996683641
0.0063995207791
0.00654286071059
0.00690635383601
0.00782103125632
0.0100055969411
0.0149478977286
0.0286584409781
0.0730607772487
0.00464190072309
0.00575107186474
0.00608559578064
0.00619506452277
0.00623139399802
0.00624716769504
0.00625873491322
0.0062706005682
0.00628392654077
0.00629934364549
0.00631859779169
0.0063475728708
0.00640491724912
0.00654336623337
0.00690099464497
0.00781774113507
0.0100252650701
0.0151086100399
0.0299703814174
0.0726731473801
0.00464501789154
0.00575656118954
0.00609138024419
0.0062009693947
0.00623744538872
0.00625343154106
0.00626527881434
0.00627747279534
0.00629116384718
0.0063069421333
0.00632637074586
0.00635490724517
0.00641026475093
0.00654411614307
0.0068964756123
0.00781860483128
0.0100435213033
0.0149406671056
0.0279403487278
0.0553037505505
0.00464720621042
0.00576069260291
0.00609578603571
0.00620563124562
0.00624238071266
0.00625868627724
0.00627091197215
0.00628354118478
0.00629771381217
0.00631399207477
0.00633377771978
0.00636214498296
0.00641598601688
0.00654632812868
0.0068969666025
0.00784102477187
0.0101286542606
0.0145731216578
0.0220824188395
0.0298636530717
0.00464860631609
0.00576348527348
0.00609875903917
0.00620897987776
0.00624614005261
0.00626287005101
0.0062755635796
0.00628871994672
0.00630348963939
0.0063204084903
0.00634076504787
0.00636932472831
0.00642234062574
0.00655090051045
0.00690550743359
0.00790147033379
0.0104331848473
0.0155231126219
0.0236313463232
0.0342323583046
0.00464904337368
0.00576468097016
0.00610014612909
0.00621090323953
0.00624863373291
0.00626591008689
0.00627917405342
0.00629297601124
0.00630848748499
0.00632623050271
0.00634738206588
0.00637649443211
0.0064293067769
0.00655694291339
0.00691635855103
0.00797099417551
0.0108610057363
0.0174352703977
0.0306207783604
0.0562770483873
0.00464826976976
0.00576406995711
0.00609980926685
0.00621130119267
0.00624977951341
0.00626773669176
0.00628168543487
0.00629624508004
0.00631262389468
0.00633135768353
0.0063535614442
0.00638361622255
0.00643692530365
0.00656505445009
0.00693246780023
0.00805116566894
0.0112840119539
0.0189632867841
0.0344730606345
0.0728772211044
0.00464639047048
0.00576167787236
0.00609766450098
0.00621008146279
0.00624948165498
0.00626824963269
0.00628299247602
0.00629842167798
0.00631580537681
0.00633570637303
0.00635921309341
0.00639066148007
0.00644575574001
0.00657921507942
0.00697120113067
0.00818122401207
0.0116507478188
0.0197721968448
0.0358920307729
0.0738447661387
0.0046431422592
0.00575732160316
0.00609362514531
0.00620713838877
0.00624763709831
0.00626735395301
0.0062830045579
0.00629941720796
0.00631793038598
0.00633913610431
0.00636416553647
0.00639761221015
0.00645702680519
0.00660749193537
0.00706674739914
0.00844844221527
0.0121011141785
0.0202723462199
0.0361962435934
0.0739797941852
0.00463845626346
0.00575089667301
0.00608754738177
0.00620235398244
0.00624413447313
0.00626494315443
0.00628162196639
0.00629913609356
0.00631889252426
0.00634152817984
0.00636831019273
0.00640455711682
0.00647253471278
0.00666056514366
0.00725813312201
0.00894439325314
0.0127213291453
0.0198879555205
0.0336164228285
0.0668713778332
0.00463212871073
0.00574230913819
0.0060793474252
0.00619562285313
0.00623886644556
0.00626091853862
0.00627875026223
0.00629746771043
0.00631855953331
0.00634275214685
0.00637152284082
0.00641150274792
0.0064928408846
0.00673770251486
0.00752128136487
0.00954946298365
0.013434128198
0.0195161881076
0.02875496348
0.041329018554
0.00462391395254
0.00573149994384
0.00606895925467
0.00618686215877
0.00623174253046
0.00625518422325
0.0062742946877
0.0062943194623
0.00631684692043
0.00634267552817
0.00637353433602
0.00641792542443
0.00651513589719
0.00681718253377
0.00775095958483
0.0100596989949
0.0145388035688
0.0221400890273
0.0343527706457
0.0548762065219
0.00461370685075
0.00571839614052
0.00605627521605
0.00617595554778
0.00622265391758
0.00624764777951
0.00626817675606
0.00628963953504
0.00631369017831
0.0063411498606
0.0063738800117
0.00642130817173
0.00652667378096
0.00685114964485
0.00782629324276
0.0102558695876
0.0152899085781
0.0243601301805
0.0381190386638
0.0621720199875
0.00460127420995
0.00570286751945
0.00604119467682
0.00616279660878
0.0062114780649
0.00623821102524
0.00626033470868
0.00628338467952
0.00630908235372
0.00633815484367
0.00637196293594
0.00641759836037
0.00650896118851
0.00678428427125
0.00767732755075
0.0101340305208
0.0152856640342
0.0234633603361
0.0347901792965
0.0515125468785
0.00458683311965
0.00568486970473
0.00602363622663
0.00614728237903
0.00619813876956
0.00622680948247
0.00625072927725
0.00627557309655
0.00630316025615
0.00633419786688
0.00636989341697
0.00641666474054
0.00650649824231
0.00677821447746
0.00769519701482
0.0102706418038
0.0156051007337
0.02353069417
0.0335554861559
0.0462324524442
0.00457011692711
0.00566442109441
0.00600358871242
0.00612937183649
0.00618256094065
0.00621336370784
0.00623927788059
0.00626615788603
0.00629587341111
0.00632915746842
0.00636743944505
0.00641878219409
0.00652527610048
0.0068669987479
0.00798885415826
0.0108209341217
0.0160300839904
0.0238353767791
0.0344392902382
0.0563406291832
0.00455110625779
0.00564150195537
0.00598105862046
0.0061090301131
0.00616468620031
0.00619780402091
0.00622595989331
0.00625513160022
0.00628721582557
0.00632297267467
0.00636390550574
0.00641941141628
0.00653855236248
0.00692202788184
0.00811368387774
0.0109013666471
0.0160416621856
0.0244590655483
0.0368102115277
0.0681235906685
0.00452968239155
0.00561616893487
0.00595608735248
0.00608629823409
0.00614451210354
0.00618013415796
0.00621079134268
0.00624254161917
0.00627730463746
0.0063156153705
0.00635810288634
0.00640905569671
0.00649303612937
0.00672313959586
0.00750619968621
0.00990154544055
0.0156031829891
0.0256375694547
0.0381460383709
0.0549045845724
0.00450622621681
0.00558871829047
0.00592894501
0.00606129221607
0.0061221060225
0.00616036445967
0.00619374914963
0.00622844137995
0.00626632983544
0.00630796498934
0.00635349844892
0.00640522503519
0.00647884442028
0.0066566732887
0.00728816614171
0.00953335913389
0.0158615869407
0.0276918624069
0.0436622796307
0.0747193306856
0.00448083685404
0.00555951279988
0.00589997244532
0.00603431851878
0.006097601268
0.00613852439591
0.00617479889843
0.00621270299168
0.00625414268453
0.00629970521085
0.00634930738841
0.00640373366969
0.00647410895291
0.0066301584273
0.0072042943753
0.00948646738934
0.0165952602074
0.0304624418778
0.049050367812
0.0786534256463
0.00445390474176
0.00552918004297
0.00586979597283
0.00600581969026
0.00607124885838
0.00611449488577
0.00615333559007
0.00619398012194
0.00623855210882
0.00628844518314
0.00634306356559
0.00640142639925
0.00647326215085
0.00663396339025
0.0072423453861
0.00971184460266
0.0174023494212
0.0323225697096
0.051999808428
0.0802813528986
0.00442608363116
0.00549865269347
0.00583932110923
0.00597647966236
0.00604319140165
0.00608741325553
0.00612642474869
0.00616618640643
0.00620995703118
0.00626362143223
0.00632355882184
0.00638385044573
0.0064567848981
0.00664600222042
0.00734794029209
0.0100592811691
0.0177962735528
0.032104330874
0.0518866103597
0.080436540503
0.00439836103091
0.00546918629249
0.00580974949287
0.00594705996658
0.00601307554778
0.00605382242151
0.00608404871457
0.00610807397902
0.00613313848041
0.00618860101781
0.00625406145477
0.00630783249597
0.00638312806377
0.00666237914019
0.00753617087375
0.0105065991742
0.0180158964967
0.0312221277221
0.0504424687647
0.0796341655002
0.00437191228201
0.00544222510829
0.00578245936579
0.00591838789763
0.00597938893266
0.00600454782469
0.00599743425311
0.00595156853926
0.0058850345259
0.00594140779835
0.00602530529982
0.00607882148215
0.00619509976895
0.00670199640879
0.00798443051146
0.0116097761166
0.0192006542019
0.0313316229097
0.0476066748761
0.070278252641
0.00434782678777
0.00541915151045
0.00575882285059
0.00589114451032
0.0059395087776
0.00592035864644
0.00577715976812
0.00544229587029
0.00502363482882
0.00504632565931
0.00521881089543
0.00553138234351
0.00583943177559
0.00655467743147
0.00790449335381
0.0117665480131
0.0204999564392
0.0349796271492
0.0536363956667
0.0766816375118
0.0043278055527
0.00540135597444
0.00574007558675
0.0058665440062
0.00589906241718
0.00584149415291
0.00561146147824
0.00485178516335
0.00550269318974
0.00651810768764
0.0081719988082
0.0129220613433
0.023582515858
0.0407360219962
0.0605692796627
0.0830674942846
0.00431410437181
0.00539136482492
0.00573069346137
0.00585487544093
0.00587828620397
0.00579252610662
0.00548516063509
0.00453184963746
0.00560879136232
0.00706013566854
0.0101806361842
0.0179398019474
0.0313499307519
0.0478107840603
0.0652317644923
0.0845227123177
0.00431411336535
0.00539136941579
0.00573069564309
0.00585487568393
0.00587828508582
0.00579252357367
0.00548515890557
0.00453184692005
0.00560898260535
0.00706085522823
0.0101825484308
0.0179438908863
0.0313569955511
0.0478199888556
0.0652397755409
0.0845264485241
0.00432782026911
0.0054013678305
0.00574008281609
0.00586654577755
0.0058990595429
0.00584148711523
0.00561145725466
0.00485177380128
0.00550314871787
0.00651946078715
0.00817476119987
0.0129262505181
0.0235885124174
0.0407435844315
0.0605755816528
0.0830693612326
0.00434785136227
0.00541917117094
0.00575883641013
0.00589115103293
0.00593950954314
0.00592036041176
0.00577716433225
0.00544230883631
0.00502365765101
0.00504636712183
0.00521887347304
0.00553149820324
0.00583974996313
0.00655556949169
0.00790649694243
0.0117694425097
0.0205027711434
0.0349811061139
0.0536335415539
0.076677686939
0.00437194260513
0.00544225180304
0.00578247979897
0.00591840069892
0.00597939495239
0.00600454916847
0.00599743213824
0.00595156272998
0.00588504348985
0.00594143787268
0.0060253558624
0.00607893425035
0.00619538538887
0.0067026620021
0.00798576077323
0.0116117258799
0.0192027221558
0.0313320623626
0.0476035226784
0.0702747484681
0.00439838871252
0.00546921380011
0.00580977361059
0.00594707810349
0.00601308823623
0.00605383193032
0.00608405792904
0.00610808692748
0.00613316082391
0.00618864038011
0.00625411928273
0.00630792511672
0.00638332656857
0.00666278616201
0.00753690506649
0.0105076508398
0.0180167629685
0.0312220603351
0.0504406389573
0.0796326976955
0.00442610287807
0.00549867810676
0.00583934739075
0.00597650173856
0.00604320831699
0.00608742928238
0.00612644304235
0.00616621052608
0.00620999212036
0.00626367077522
0.00632362321802
0.00638393665519
0.00645693492088
0.0066462874104
0.00734838917703
0.0100598418498
0.0177965790654
0.0321044065291
0.0518863073777
0.0804365794281
0.00445391926838
0.00552921014896
0.00586982867453
0.00600584515452
0.00607125794219
0.00611451433317
0.00615336031225
0.00619401176374
0.00623859457246
0.00628850001685
0.00634313060108
0.00640150651824
0.00647338021603
0.00663418421493
0.00724270773967
0.00971231472068
0.0174026809268
0.0323228307291
0.0520001116777
0.0802816345357
0.00448086905465
0.00555955478777
0.00590001294595
0.00603434132095
0.00609761532112
0.00613852729597
0.0061748207633
0.00621273858571
0.00625419289916
0.00629976746114
0.00634938336748
0.00640381762178
0.00647421348656
0.00663033466719
0.00720458792756
0.00948696120316
0.0165957055359
0.0304628490778
0.04905080934
0.0786537183756
0.00450627470213
0.00558877797034
0.00592899961377
0.00606133883307
0.00612213758342
0.00616039335814
0.00619378273241
0.0062284818484
0.00626641944465
0.00630807824821
0.00635365050362
0.00640538504829
0.00647902189544
0.00665690216107
0.00728848284784
0.00953394287224
0.0158621948526
0.0276922781712
0.0436623549993
0.0747199744424
0.00452973928957
0.00561623955955
0.00595615872335
0.00608636170421
0.00614456714993
0.00618018294715
0.00621084158642
0.00624260951709
0.00627738993755
0.00631574018631
0.00635826117432
0.00640919804368
0.00649317738169
0.00672332391974
0.00750641484133
0.0099020495588
0.0156037905373
0.0256377976035
0.0381462719487
0.0549048478322
0.00455117104035
0.00564158115191
0.00598114004516
0.00610910866091
0.00616476016317
0.00619787393276
0.00622603061976
0.00625521900337
0.00628733416441
0.00632310224195
0.00636409084349
0.00641955852553
0.00653871243854
0.00692224251046
0.0081139401244
0.0109018907296
0.0160421392744
0.0244597547215
0.0368124181779
0.0681260693577
0.0045701954612
0.00566451212769
0.00600368217267
0.00612946481035
0.00618265247425
0.00621345370729
0.00623936865658
0.00626626386494
0.00629600647825
0.00632930408528
0.00636762148533
0.00641893508518
0.00652545100824
0.00686725467333
0.00798916733746
0.0108214899805
0.0160305153123
0.023835728011
0.0344390157082
0.0563395301689
0.004586921988
0.00568497102583
0.00602374074777
0.0061473883491
0.00619824629572
0.00622691768101
0.00625083940455
0.00627569864439
0.00630331005608
0.00633435974603
0.00637008561182
0.0064168327526
0.00650669242312
0.00677849983396
0.00769554783118
0.0102710774895
0.0156053287136
0.0235309974874
0.0335560511192
0.046232637422
0.00460137675421
0.00570298244641
0.00604131436519
0.0061629202173
0.00621160509123
0.0062383388841
0.00626046247142
0.00628352507098
0.00630924920287
0.00633832543733
0.00637217416269
0.00641778198703
0.00650917610011
0.00678458461301
0.00767766015884
0.0101343671029
0.0152859762759
0.0234638051457
0.0347912002812
0.0515148708781
0.00461379850255
0.00571849870725
0.00605638164649
0.00617606535711
0.00622276862055
0.00624776863322
0.00626830744588
0.00628979178414
0.00631385781844
0.00634132272561
0.00637407477302
0.00642147891559
0.00652690702679
0.00685145183717
0.00782663279944
0.0102562649603
0.0152902666484
0.024360749297
0.0381206260123
0.0621748197563
0.00462399637415
0.00573159459066
0.00606905997823
0.00618696726394
0.00623185305755
0.00625530231608
0.00627442455509
0.00629447300677
0.00631702695955
0.00634287141146
0.00637375771672
0.00641810084064
0.00651531171442
0.00681746117643
0.0077512773815
0.0100602207224
0.0145391722089
0.0221405268544
0.0343538797951
0.0548788771886
0.00463220129857
0.0057423979196
0.00607944545079
0.00619572668096
0.00623897610181
0.00626103593221
0.0062788790697
0.00629761989436
0.0063187415445
0.00634295198525
0.00637175571006
0.00641169746591
0.00649304590595
0.0067379152494
0.00752159520978
0.00954995849031
0.0134346968297
0.0195167320765
0.0287558885018
0.0413302165512
0.0046385234414
0.00575098269373
0.00608764431394
0.00620245713605
0.00624424373287
0.00626505964422
0.00628174847748
0.00629928465895
0.00631907116176
0.00634172429735
0.00636854112992
0.006404747419
0.0064727283967
0.00666078776586
0.00725838560477
0.00894490587041
0.0127220129587
0.0198891483965
0.0336190491677
0.0668740369177
0.00464320476926
0.00575740703555
0.00609372210312
0.00620724137896
0.00624774515272
0.00626746821323
0.00628312726784
0.00629956002931
0.00631810210032
0.00633932534646
0.00636438908447
0.00639779428941
0.00645720552519
0.00660769586866
0.0070669580297
0.0084488014668
0.0121018392487
0.0202749474157
0.0362019907212
0.0739845027985
0.00464645466638
0.00576176461395
0.00609776190137
0.0062101837235
0.00624958784279
0.00626836070092
0.006283110543
0.00629855785306
0.00631596919827
0.00633588785312
0.00635942843317
0.006390838491
0.00644592656827
0.00657940739922
0.00697138478896
0.00818155687992
0.011651340274
0.0197736593447
0.0358960578489
0.0738593755304
0.00464833797246
0.00576415913251
0.00609990658086
0.00621140222659
0.00624988356776
0.00626784468159
0.00628179924703
0.00629637517623
0.00631278054777
0.00633153317198
0.00635377001056
0.00638379352703
0.00643709807176
0.00656524166954
0.00693264152143
0.00805152070289
0.0112846632056
0.0189647450414
0.0344769920096
0.072902051025
0.0046491128329
0.00576476990398
0.00610024227562
0.00621100283606
0.00624873621451
0.00626601629983
0.00627928528462
0.00629310198362
0.00630863901469
0.00632640323313
0.00634758705858
0.00637667804267
0.00642949467604
0.0065571413095
0.00691654536097
0.00797135918664
0.0108617498239
0.0174367678528
0.0306253795374
0.0563058046846
0.0046486741122
0.00576357092033
0.00609885311093
0.00620907870126
0.0062462429936
0.00626297772304
0.00627567615995
0.00628884475335
0.00630364365038
0.00632059627519
0.00634096990543
0.00636952049168
0.00642254422924
0.00655111262007
0.00690570425915
0.00790181549359
0.0104338983297
0.0155245669143
0.0236375859096
0.034316174699
0.00464727020134
0.00576077297322
0.00609587756397
0.00620573036642
0.00624248650023
0.00625879918755
0.00627103207264
0.00628366942498
0.00629785881816
0.00631416554815
0.00633396606881
0.00636234658458
0.00641619739615
0.00654655074788
0.00689721635297
0.0078413956247
0.0101293466454
0.0145745462509
0.0220840490695
0.0298504855244
0.00464506895679
0.00575662333869
0.00609145696849
0.00620105777234
0.00623754519034
0.00625354478902
0.00626540568382
0.00627761557385
0.00629132723944
0.00630713933551
0.00632658944518
0.00635514229365
0.00641050562034
0.0065443603547
0.00689674173009
0.00781898617795
0.0100442255625
0.0149425418844
0.0279489212015
0.0553149859531
0.00464195945385
0.00575114543868
0.0060856863392
0.00619516921833
0.00623151164888
0.00624729810614
0.0062588784111
0.00627075297013
0.00628408811155
0.00629952753672
0.00631879189576
0.00634777435668
0.00640512101527
0.00654357228929
0.00690123052725
0.00781811078354
0.0100261773427
0.0151135024123
0.0300175654073
0.072707100026
0.00463776715259
0.00574436760548
0.00607868510618
0.00618815853626
0.00622444872382
0.00624010261623
0.00625148368864
0.00626311406176
0.00627617605927
0.00629137645637
0.00631058569721
0.00634017296408
0.00639972800829
0.00654306903934
0.00690659225344
0.00782142942437
0.0100070404913
0.0149626666252
0.028826556111
0.0732125949273
0.00463246910051
0.00573643040543
0.00607058383565
0.00618013648243
0.00621644856
0.00623203861797
0.00624329152928
0.00625473995135
0.00626761458448
0.00628266894717
0.00630192577794
0.00633221096829
0.00639407297141
0.00654222104305
0.00691084061141
0.0078200242264
0.00997282370747
0.0147823242905
0.0275152798876
0.0725126978476
0.00462612386242
0.00572747842606
0.00606149685711
0.00617118662316
0.00620757424502
0.00622315513333
0.00623434325724
0.00624569076896
0.00625845992668
0.00627344384563
0.00629284010489
0.00632391248458
0.00638811561145
0.00654090575361
0.00691354685324
0.00781234790267
0.00991635063481
0.0145912253507
0.0266958004506
0.0707266430754
0.00461875338477
0.005717543862
0.00605146684068
0.00616134607661
0.00619786362138
0.00621348651122
0.00622466685049
0.006235992122
0.00624873519983
0.00626373793928
0.00628335791844
0.00631529098218
0.00638185028877
0.00653927613746
0.00691555189622
0.0078001249631
0.00983805864552
0.0143306037123
0.0251722414287
0.0611537676469
0.00461040907328
0.00570669950142
0.00604053845565
0.00615064511814
0.00618735096744
0.00620308031676
0.00621431379368
0.00622567660426
0.00623846145967
0.00625357136441
0.00627350649569
0.0063063801035
0.00637538347589
0.00653767526783
0.0069180149819
0.00778539395072
0.00973453432156
0.0139796762479
0.0242528433401
0.0650860394019
0.00460118858072
0.0056950050142
0.00602879561527
0.00613915435602
0.00617608508754
0.00619196909844
0.00620331682257
0.00621478634978
0.00622769223412
0.00624299027503
0.00626332789298
0.00629721655193
0.00636877121232
0.00653628430292
0.00692152502456
0.00776779890025
0.00959028916991
0.0134707167005
0.023071224797
0.0684286212639
0.00459114632891
0.00568256832632
0.00601623537142
0.00612688923552
0.00616408744846
0.00618017962774
0.00619170896331
0.00620335682748
0.0062164589159
0.00623202381768
0.00625283546761
0.00628780068449
0.00636190963862
0.00653457635088
0.00692411925748
0.00773990750989
0.00937003037626
0.012682020229
0.0219655341961
0.0679801198964
0.00458026643732
0.00566924328501
0.00600284094849
0.00611384297114
0.00615137822551
0.00616774263015
0.00617951502489
0.00619140175413
0.00620476849673
0.00622067200919
0.00624202848081
0.00627807045819
0.00635446862856
0.00653111523816
0.00692182245138
0.00770167072675
0.00913338124342
0.0118960002307
0.0207683552418
0.0707246417472
0.00456865144641
0.0056551077978
0.00598866188545
0.00610005558315
0.00613799046601
0.00615469272056
0.00616677105386
0.0061789673618
0.00619267604753
0.00620899135055
0.0062309595934
0.00626813759877
0.00634658270203
0.00652610695743
0.00691598998885
0.00766958464818
0.00899802936688
0.0115789631207
0.0195132970262
0.0564232217403
0.00455636285712
0.00564026413314
0.00597375985767
0.00608558760692
0.00612397286606
0.00614106520174
0.00615350850399
0.00616607830194
0.00618019177567
0.00619698644836
0.00621967835842
0.00625814430322
0.0063390050585
0.00652221835112
0.00691474031567
0.00766345824743
0.00898983999377
0.0117103333034
0.0196725095104
0.0442758149558
0.00454335141409
0.00562471855716
0.00595818754544
0.00607048001667
0.00610936593178
0.00612691001849
0.00613978526827
0.00615279199404
0.00616736755075
0.0061847194824
0.00620823366442
0.00624822809169
0.00633217377612
0.00652094888331
0.00692138918879
0.00768002430474
0.00902872328235
0.0119212458105
0.0213131224657
0.0511317165374
0.00452965028705
0.00560851259368
0.00594195985285
0.00605477464589
0.00609422263013
0.00611228907699
0.0061256666747
0.00613917951151
0.00615428287996
0.0061722704591
0.006196697068
0.00623843146694
0.00632596664582
0.00652165729427
0.00693294772606
0.00770584241287
0.00906217649712
0.0119068013984
0.021424065079
0.0596688273713
0.00451524104923