/*--------------------------------*- C++ -*----------------------------------*\
| =========                 |                                                 |
| \\      /  F ield         | OpenFOAM: The Open Source CFD Toolbox           |
|  \\    /   O peration     | Version:  v2012                                 |
|   \\  /    A nd           | Website:  www.openfoam.com                      |
|    \\/     M anipulation  |                                                 |
\*---------------------------------------------------------------------------*/
FoamFile
{
    version     2.0;
    format      ascii;
    class       volVectorField;
    location    "1.8";
    object      U_0;
}
// * * * * * * * * * * * * * * * * * * * * * * * * * * * * * * * * * * * * * //

dimensions      [0 1 -1 0 0 0 0];


internalField   nonuniform List<vector> 
166
(
(-0.0370545448993 -0.00108636454034 4.52445724368e-24)
(-0.0393567084384 -0.00158977652541 -7.01745734946e-25)
(-0.0420783443274 -0.0022398901163 9.42870222182e-24)
(-0.0452577406351 -0.00308317688308 4.84471440042e-24)
(-0.0489980826254 -0.00416648338474 -1.85729921708e-23)
(-0.0534225626894 -0.00556626410759 9.57362572305e-23)
(-0.0587931951851 -0.00736979662869 1.68485410663e-22)
(-0.0657284165839 -0.00973190929983 -1.02537397523e-23)
(-0.0750131248609 -0.0135181584139 -1.67259027552e-21)
(-0.0855150746601 -0.0137151062632 -1.4004823154e-21)
(-0.0990381505801 -0.0190758457261 -4.80544211619e-21)
(-0.0791144773705 -0.0189471609125 -5.14248622957e-21)
(0.00471322437319 0.0209747310116 -4.9037641088e-21)
(-0.0331045164992 -0.00182738645533 -4.4914128601e-24)
(-0.0346192284843 -0.00242475641296 -3.08487051539e-24)
(-0.036440254554 -0.00314414327125 9.02755017792e-24)
(-0.0385911351714 -0.00402268047441 7.14519179268e-24)
(-0.0411168949048 -0.00509009659892 1.00775043386e-23)
(-0.044059874571 -0.00641275228791 -7.44170142564e-24)
(-0.0474719703655 -0.0080655394664 -5.33408896687e-23)
(-0.0514644011916 -0.0101384297411 1.43905284178e-22)
(-0.0562057172903 -0.012782396899 1.88284616168e-22)
(-0.0622140875657 -0.0163196265542 -8.16201562133e-22)
(-0.0703458800921 -0.0218717928543 -3.67085535128e-21)
(-0.081879339879 -0.0239457617006 -1.39138376576e-20)
(-0.104742084344 -0.0310141393487 -5.9835605671e-21)
(-0.0968597284376 -0.0310226005676 -4.58447200142e-21)
(-0.0784799156648 0.0240158606684 2.75668116551e-22)
(-0.0331223549437 -0.000444275740968 -2.98782837436e-22)
(-0.0305095496383 -0.000316808482217 1.00861136082e-21)
(-0.0312934974048 -0.00237280136401 -2.64550228895e-24)
(-0.032427882853 -0.00314453894079 -1.27871699295e-23)
(-0.0338176962544 -0.00402758495081 -1.6453654958e-23)
(-0.0354868331269 -0.00504899182957 -1.19381643315e-23)
(-0.0374502101043 -0.00625614078308 1.55974471918e-25)
(-0.0397348377923 -0.00769758578737 -5.77737001259e-24)
(-0.0423762209592 -0.00942111980369 -1.66861402116e-23)
(-0.0453985849675 -0.0115203976125 -2.39123581434e-24)
(-0.048870933655 -0.014090210914 4.89473347433e-23)
(-0.05291576842 -0.0172429329143 -1.42978540327e-22)
(-0.0579304605921 -0.0212716633025 -1.10973079118e-21)
(-0.0646712695988 -0.0269384662624 -6.65911739473e-21)
(-0.0763392043055 -0.0293155808111 -1.60027156949e-20)
(-0.105378683468 -0.0344363369192 -7.87581463304e-21)
(-0.102393393942 -0.038018527531 -8.39603367105e-21)
(-0.0720629270034 -0.0500791538222 -1.13759644389e-21)
(-0.0326418610922 -0.000561462334775 5.35515250827e-23)
(-0.0298917086149 -0.000645000266934 2.02580572188e-21)
(-0.0292720259319 -0.00169030771103 8.62094178298e-23)
(-0.0296616454122 -0.0024547821283 2.46877845264e-23)
(-0.0304529155872 -0.00335622181139 -4.78576634978e-24)
(-0.0314878627359 -0.00435093167596 -2.38382568737e-24)
(-0.0327460364617 -0.00547662462046 -8.45988707661e-24)
(-0.0342418838795 -0.00676695730859 -9.77076875384e-24)
(-0.0359844499064 -0.00825884669404 -2.064371327e-23)
(-0.0380044276415 -0.010003206687 -1.42797832527e-23)
(-0.0403006935902 -0.0120589544967 -2.82363867069e-23)
(-0.0429072224944 -0.0145130676659 -1.07392853574e-23)
(-0.0458503425022 -0.0174597448692 2.98490941729e-23)
(-0.0492632057682 -0.020996296957 -3.38143254218e-22)
(-0.0534863371254 -0.0253373360563 -2.66178832512e-21)
(-0.0593085674629 -0.031025681569 -1.46367987056e-20)
(-0.0702568921195 -0.0345850878764 -1.68659897792e-20)
(-0.0964077857442 -0.0390914399855 -1.08862846107e-20)
(-0.0908745909294 -0.0457651172666 -1.11365175366e-20)
(-0.066707744816 -0.0769466781365 -4.01075286124e-22)
(-0.0320027208307 -0.000657375553926 -6.52036009781e-22)
(-0.0290918834448 -0.000946585682071 7.44789446373e-23)
(-0.0284107303355 -0.00215707925282 -2.36295521903e-22)
(-0.0287241948228 -0.0031372895982 -7.09562902502e-23)
(-0.0294068953278 -0.00423922296945 -3.87005442467e-23)
(-0.0303182792839 -0.00543763438908 -1.96604795066e-23)
(-0.0314311177154 -0.00677397178555 -6.3257700708e-24)
(-0.0327531980055 -0.00827729831186 -1.43080919749e-23)
(-0.0342814657385 -0.0100069799847 -1.45754577467e-23)
(-0.0359985493844 -0.0120004157048 -1.42851540406e-23)
(-0.037936329952 -0.0143052626286 -1.91898912665e-23)
(-0.0401028648247 -0.0170244423669 -6.24472808304e-24)
(-0.042506237637 -0.020256014335 8.55688404576e-24)
(-0.0452693209734 -0.0240663354172 -2.28053313871e-22)
(-0.0487255561244 -0.0287241337842 -1.66099275599e-21)
(-0.0535893760447 -0.0347512339813 -8.19737322869e-21)
(-0.0630161763287 -0.0399049288247 -1.09490590347e-20)
(-0.0851722696171 -0.044523581317 -9.71840554626e-21)
(-0.0798741219698 -0.0522781381962 -9.75113619007e-21)
(-0.0563335450202 -0.0896687871327 -1.70307313679e-21)
(-0.0311740817242 -0.000737552880912 -1.17913805383e-21)
(-0.0281094819525 -0.00123558535296 -3.94145654839e-22)
(-0.0273434626831 -0.00259690440788 -3.1571047183e-22)
(-0.0275752929356 -0.00373158776102 -1.14550286699e-22)
(-0.0281670956036 -0.0049940416598 -4.47317727204e-23)
(-0.0289653463333 -0.00637574755101 -1.51802657564e-23)
(-0.0299375563306 -0.00790463653522 -4.73476301319e-24)
(-0.0310570767795 -0.00960692351712 -6.27714986132e-24)
(-0.0323461790095 -0.0114907706179 1.47463692302e-23)
(-0.0337703847475 -0.0136435547136 -6.15256856623e-24)
(-0.0353521842179 -0.0161437792842 -1.26205233614e-24)
(-0.0370736187668 -0.0190391217953 -1.46351718828e-23)
(-0.038950118092 -0.0224440117971 7.0021287783e-24)
(-0.0410284459161 -0.0264345384763 -1.40580994054e-22)
(-0.0436763549467 -0.0313017421777 -3.54052393068e-22)
(-0.0474123139656 -0.0377078393042 -4.43539703992e-21)
(-0.0547147969993 -0.0444558765593 -5.72745637188e-21)
(-0.0718677934222 -0.0491110747997 -8.32191871688e-21)
(-0.0676346755214 -0.0569117180932 -7.38294426387e-21)
(-0.0438786036476 -0.0961578933045 -1.22823050563e-21)
(-0.0301691915046 -0.00079884003419 -1.2629613916e-21)
(-0.0269574621806 -0.00147529266444 -4.76639058829e-24)
(-0.0260987500727 -0.00296271420466 2.40423743712e-22)
(-0.0262442064035 -0.00426087183921 -4.25522269568e-23)
(-0.0267565217933 -0.00567685979105 -1.76585733521e-23)
(-0.0274420868863 -0.00720780912666 2.51617365344e-24)
(-0.0282641508505 -0.00885638803479 5.68939664138e-24)
(-0.0291891610093 -0.0106736664947 -2.18476157869e-24)
(-0.0302356610384 -0.0127062177149 -4.04790863301e-25)
(-0.0313935885835 -0.0149904418916 7.59138489503e-25)
(-0.032619380601 -0.017588504965 8.52493125509e-24)
(-0.0338975630484 -0.0205805777957 1.64553644069e-23)
(-0.035224742021 -0.0240377970696 1.45357830906e-23)
(-0.0366349574773 -0.0280513003102 -3.14517463502e-22)
(-0.0384013876103 -0.0329972439986 -2.17213533576e-21)
(-0.040831600969 -0.039631026503 -3.88273967246e-21)
(-0.0456019026484 -0.0475105236949 -1.7002897289e-21)
(-0.0576471589964 -0.0524427690588 -3.82405506316e-21)
(-0.0548109145533 -0.0593704645769 -4.47866802182e-21)
(-0.0321895477481 -0.0991391320639 -2.15249514264e-22)
(-0.029037509468 -0.00084638942894 -9.53150850365e-22)
(-0.0256999168585 -0.00169659497738 -1.22242301692e-22)
(-0.0247424678821 -0.00328880921679 1.23175740121e-22)
(-0.0248046819745 -0.0047077192387 7.96670505496e-23)
(-0.0252199732043 -0.00624174530199 3.65278422203e-24)
(-0.0257869896559 -0.00788150263997 -6.88479023823e-24)
(-0.0264572046579 -0.00964002332834 -8.35909347009e-24)
(-0.0272303311491 -0.0115634968815 -3.53330742844e-24)
(-0.0280561182337 -0.013678491755 -1.74447012452e-23)
(-0.0289344768495 -0.0160087282414 1.56614560186e-24)
(-0.029821945769 -0.0186258823996 5.55892167244e-24)
(-0.0306863950806 -0.0216041105375 -2.10221028089e-23)
(-0.0314787065555 -0.0250206684408 8.1108765159e-23)
(-0.0322331711316 -0.028907396474 1.97175962151e-22)
(-0.0331059069553 -0.0336159247765 3.87422160657e-22)
(-0.0341360582928 -0.0402752731597 -4.78640505232e-21)
(-0.0361919025461 -0.048677522508 -4.63489585486e-21)
(-0.0433700033892 -0.0542907524761 5.18964047577e-22)
(-0.0415758426901 -0.0589696961166 5.06338373547e-22)
(-0.0208604795499 -0.0981214963931 6.6573292589e-21)
(-0.0277671842899 -0.000894151097649 -7.71645564655e-22)
(-0.0243003486657 -0.00187853712099 4.13438784593e-22)
(-0.0232628674849 -0.00353474268461 7.64431665057e-23)
(-0.0232487638436 -0.00507242066052 6.92184478676e-23)
(-0.0235782298214 -0.00670845825101 5.25979684476e-24)
(-0.0240394193214 -0.00843939468412 -1.086569954e-23)
(-0.024580933096 -0.0102842861246 -1.76894693258e-23)
(-0.025187657575 -0.0122549244307 -2.05884371443e-23)
(-0.0258177844911 -0.0143916244768 -1.87380845116e-23)
(-0.0264549905509 -0.0167359758871 -2.65079371406e-23)
(-0.0270576013518 -0.019316431747 1.31773585716e-23)
(-0.0275619673972 -0.0221977753255 -3.1054924838e-23)
(-0.0278982909892 -0.0254386570377 1.70568806163e-22)
(-0.028048246446 -0.029015106628 5.04202856151e-22)
(-0.0281028407711 -0.0332381818994 1.99643326752e-22)
(-0.0278475348718 -0.0395451246988 -3.53175874099e-21)
(-0.0272449196952 -0.0476130869044 -4.97708268675e-22)
(-0.0297963021371 -0.0545111793138 -6.70210270369e-21)
(-0.0302158840623 -0.0557330944008 -7.48586189511e-21)
(-0.0110979937553 -0.085771941711 4.00728874974e-21)
)
;

boundaryField
{
    back
    {
        type            noSlip;
    }
    sides
    {
        type            noSlip;
    }
    bottom
    {
        type            noSlip;
    }
    front
    {
        type            noSlip;
    }
    atmosphere
    {
        type            pressureInletOutletVelocity;
        value           nonuniform List<vector> 9((0.00471322437319 0.0209747310116 -4.9037641088e-21) (-0.0784799156648 0.0240158606684 2.75668116551e-22) (0 -0.0500791538222 0) (0 -0.0769466781365 0) (0 -0.0896687871327 0) (0 -0.0961578933045 0) (0 -0.0991391320639 0) (0 -0.0981214963931 0) (0 -0.085771941711 0));
    }
    floatingObject
    {
        type            movingWallVelocity;
        value           nonuniform List<vector> 0();
    }
    procBoundary0to1
    {
        type            processor;
        value           nonuniform List<vector> 10((-0.0459134980145 0.000490573370931 -1.13908871531e-23) (-0.0498641770409 4.58846011219e-05 -9.16519911428e-24) (-0.0545444290023 -0.000560542828591 6.95683889433e-24) (-0.0602475629039 -0.00132037755375 8.26165225228e-24) (-0.0675794184025 -0.0022509628807 -5.45665168765e-22) (-0.0766193591964 -0.00345273317949 -1.08103410617e-21) (-0.08626418039 -0.00197300466193 -3.17686603019e-21) (-0.0995354384961 -0.00216381955978 -7.8647510774e-21) (-0.0772761614917 -0.00363267792223 -7.89329405015e-21) (0.00629561232824 -0.0104483448749 -2.73951735417e-21));
    }
    procBoundary0to2
    {
        type            processor;
        value           nonuniform List<vector> 
14
(
(-0.0373035178014 0.00108699383478 -8.22952681071e-25)
(-0.0397184815731 0.000991661213148 1.24384426367e-23)
(-0.0425660931602 0.000800999373571 2.10072977741e-23)
(-0.0335073229528 -0.000408409912522 6.62520196641e-24)
(-0.0351178546791 -0.000698571336623 9.24797037097e-24)
(-0.0351178546791 -0.000698571336623 9.24797037097e-24)
(-0.0333452044075 -0.00034189116189 -1.34689557019e-21)
(-0.0308984244661 2.78788531181e-05 -1.29898741898e-22)
(-0.0318833974709 -0.00132527517195 -1.82154633899e-23)
(-0.0318833974709 -0.00132527517195 -1.82154633899e-23)
(-0.0299772974717 -0.00117887324661 1.47886078397e-22)
(-0.0299772974717 -0.00117887324661 1.47886078397e-22)
(-0.0304336195066 -0.00169374933484 5.26669930971e-23)
(-0.0304336195066 -0.00169374933484 5.26669930971e-23)
)
;
    }
    procBoundary0to4
    {
        type            processor;
        value           nonuniform List<vector> 8((-0.0263627484356 -0.000910965256363 -4.78489977641e-22) (-0.0227830509221 -0.00203928031166 1.18773736062e-23) (-0.0216867502788 -0.00375548245787 -4.79282017494e-23) (-0.0216026899317 -0.00536694220268 7.43101045757e-23) (-0.0218533032625 -0.00707858223121 -4.59186300236e-24) (-0.0222162296009 -0.00887385114863 -1.46235878867e-23) (-0.0226359097856 -0.0107689038405 -1.35611263791e-23) (-0.02309199194 -0.0127793541929 -1.85850642019e-23));
    }
    procBoundary0to5
    {
        type            processor;
        value           nonuniform List<vector> 
12
(
(-0.023571313063 -0.0149242048836 -2.65894134299e-23)
(-0.0240201433223 -0.0172261899913 -2.37032935744e-23)
(-0.0243915866309 -0.0197070425138 -1.48665817015e-23)
(-0.024613250494 -0.0224062445856 -7.42305935717e-24)
(-0.0245865610482 -0.0253759752978 1.38179514724e-22)
(-0.0242644326168 -0.0285021910596 1.76573779481e-22)
(-0.0236294561263 -0.0319984126866 5.26875555968e-22)
(-0.0222723946271 -0.0374039432918 -3.29981804993e-21)
(-0.0195313478998 -0.0444589986619 -6.84518427367e-21)
(-0.0180597521061 -0.0525673328597 -8.82298781493e-21)
(-0.0268795735364 -0.0491785025097 -8.03246442365e-21)
(-0.00643158058574 -0.0500295510796 -3.10600188736e-21)
)
;
    }
}


// ************************************************************************* //
