/*--------------------------------*- C++ -*----------------------------------*\
| =========                 |                                                 |
| \\      /  F ield         | OpenFOAM: The Open Source CFD Toolbox           |
|  \\    /   O peration     | Version:  v2012                                 |
|   \\  /    A nd           | Website:  www.openfoam.com                      |
|    \\/     M anipulation  |                                                 |
\*---------------------------------------------------------------------------*/
FoamFile
{
    version     2.0;
    format      ascii;
    class       volScalarField;
    location    "1.4";
    object      epsilon;
}
// * * * * * * * * * * * * * * * * * * * * * * * * * * * * * * * * * * * * * //

dimensions      [0 2 -3 0 0 0 0];


internalField   nonuniform List<scalar> 
167
(
0.0127878556948
0.0128525640279
0.0128840967662
0.012912881452
0.0129448180498
0.0129810072897
0.0130225878329
0.0130747383523
0.0116808283857
0.0125189429657
0.0127457246632
0.0128106609891
0.0128429936922
0.0128727934598
0.0129058479205
0.0129432394605
0.0129862236527
0.0130406207349
0.0131308802247
0.0116428900916
0.0124768629423
0.012702513757
0.0127678392747
0.0128011426387
0.0128321326871
0.012866479969
0.0129052446448
0.0129498008637
0.0130066378976
0.0131027373287
0.0116035615908
0.0124336212185
0.0126583364799
0.0127242367636
0.0127586954782
0.0127910611017
0.0128268832876
0.0128671961561
0.0129134963841
0.012972931374
0.0113888473174
0.011562948986
0.0123893406417
0.0126133502853
0.0126800359841
0.0127158544819
0.0127497959838
0.0127872856755
0.0128293267756
0.0128775253625
0.0129397023597
0.0113428765047
0.0115211779053
0.0123441703569
0.0125677348226
0.012635444992
0.012672851343
0.012708586725
0.0127479483923
0.0127919039639
0.0128421736946
0.0129071993073
0.0112951949635
0.0114783678986
0.0122982699777
0.0125216884604
0.0125906969031
0.0126299465633
0.0126677111638
0.0127091536545
0.0127552081785
0.0128076598738
0.0112459277873
0.0114346395204
0.0122518039966
0.012475423559
0.0125460459959
0.0125874241932
0.01262746701
0.0126711962258
0.0127194902443
0.0111951938426
0.011390079158
0.0122049025246
0.0124291268255
0.0125017267262
0.0125455481066
0.0125881271478
0.0126343374889
0.0126850206915
0.0111430207942
0.0113445992782
0.012157492295
0.0123827797447
0.0124577671613
0.0125043679947
0.0125497402924
0.0125986146911
0.0126518065137
0.0127115105394
0.0110890363011
0.0112974187786
0.0121086628386
0.0123354814432
0.0124132880999
0.012462995079
0.0125113723987
0.0125630181401
0.0126187391386
0.0126808733794
0.0110313158159
0.0112452378743
0.0120544651135
0.0122831081702
0.0123640984862
0.0124171515286
0.0124686234525
0.0125230066596
0.0125811251013
0.0126454633346
0.0109623048253
0.0111761927034
0.0119807525298
0.012210770137
0.012295001444
0.0123513818704
0.0124057488903
0.012462514331
0.0125225535657
0.0125885101044
0.0108552301414
0.01105120122
0.0118416351969
0.0120703751129
0.0121570729159
0.0122161968039
0.0122727106979
0.0123309374675
0.0123918425558
0.0124581954491
0.0106220868503
0.0107509301691
0.0115001073526
0.0117195855913
0.0118062010323
0.0118664988888
0.0119235804005
0.011981561123
0.0120414743882
0.00999260578253
0.00993609382215
0.0105772954923
0.0107684874536
0.0108492598283
0.0109078753333
0.010963217251
0.0110187652734
0.0110755394077
0.00909799123651
0.00993089285185
0.0104219770085
0.010577215128
0.0106602610323
0.0107312389305
0.0108014961657
0.010872982602
0.0109463862266
)
;

boundaryField
{
    back
    {
        lowReCorrection 0;
        blending        stepwise;
        n               2;
        type            epsilonWallFunction;
        value           nonuniform List<scalar> 
167
(
0.0127878556948
0.0128525640279
0.0128840967662
0.012912881452
0.0129448180498
0.0129810072897
0.0130225878329
0.0130747383523
0.0116808283857
0.0125189429657
0.0127457246632
0.0128106609891
0.0128429936922
0.0128727934598
0.0129058479205
0.0129432394605
0.0129862236527
0.0130406207349
0.0131308802247
0.0116428900916
0.0124768629423
0.012702513757
0.0127678392747
0.0128011426387
0.0128321326871
0.012866479969
0.0129052446448
0.0129498008637
0.0130066378976
0.0131027373287
0.0116035615908
0.0124336212185
0.0126583364799
0.0127242367636
0.0127586954782
0.0127910611017
0.0128268832876
0.0128671961561
0.0129134963841
0.012972931374
0.0113888473174
0.011562948986
0.0123893406417
0.0126133502853
0.0126800359841
0.0127158544819
0.0127497959838
0.0127872856755
0.0128293267756
0.0128775253625
0.0129397023597
0.0113428765047
0.0115211779053
0.0123441703569
0.0125677348226
0.012635444992
0.012672851343
0.012708586725
0.0127479483923
0.0127919039639
0.0128421736946
0.0129071993073
0.0112951949635
0.0114783678986
0.0122982699777
0.0125216884604
0.0125906969031
0.0126299465633
0.0126677111638
0.0127091536545
0.0127552081785
0.0128076598738
0.0112459277873
0.0114346395204
0.0122518039966
0.012475423559
0.0125460459959
0.0125874241932
0.01262746701
0.0126711962258
0.0127194902443
0.0111951938426
0.011390079158
0.0122049025246
0.0124291268255
0.0125017267262
0.0125455481066
0.0125881271478
0.0126343374889
0.0126850206915
0.0111430207942
0.0113445992782
0.012157492295
0.0123827797447
0.0124577671613
0.0125043679947
0.0125497402924
0.0125986146911
0.0126518065137
0.0127115105394
0.0110890363011
0.0112974187786
0.0121086628386
0.0123354814432
0.0124132880999
0.012462995079
0.0125113723987
0.0125630181401
0.0126187391386
0.0126808733794
0.0110313158159
0.0112452378743
0.0120544651135
0.0122831081702
0.0123640984862
0.0124171515286
0.0124686234525
0.0125230066596
0.0125811251013
0.0126454633346
0.0109623048253
0.0111761927034
0.0119807525298
0.012210770137
0.012295001444
0.0123513818704
0.0124057488903
0.012462514331
0.0125225535657
0.0125885101044
0.0108552301414
0.01105120122
0.0118416351969
0.0120703751129
0.0121570729159
0.0122161968039
0.0122727106979
0.0123309374675
0.0123918425558
0.0124581954491
0.0106220868503
0.0107509301691
0.0115001073526
0.0117195855913
0.0118062010323
0.0118664988888
0.0119235804005
0.011981561123
0.0120414743882
0.00999260578253
0.00993609382215
0.0105772954923
0.0107684874536
0.0108492598283
0.0109078753333
0.010963217251
0.0110187652734
0.0110755394077
0.00909799123651
0.00993089285185
0.0104219770085
0.010577215128
0.0106602610323
0.0107312389305
0.0108014961657
0.010872982602
0.0109463862266
)
;
    }
    sides
    {
        lowReCorrection 0;
        blending        stepwise;
        n               2;
        type            epsilonWallFunction;
        value           nonuniform List<scalar> 9(0.00909799123651 0.00993089285185 0.0104219770085 0.010577215128 0.0106602610323 0.0107312389305 0.0108014961657 0.010872982602 0.0109463862266);
    }
    bottom
    {
        lowReCorrection 0;
        blending        stepwise;
        n               2;
        type            epsilonWallFunction;
        value           nonuniform List<scalar> 
13
(
0.0113888473174
0.0113428765047
0.0112951949635
0.0112459277873
0.0111951938426
0.0111430207942
0.0110890363011
0.0110313158159
0.0109623048253
0.0108552301414
0.0106220868503
0.00999260578253
0.00909799123651
)
;
    }
    front
    {
        lowReCorrection 0;
        blending        stepwise;
        n               2;
        type            epsilonWallFunction;
        value           nonuniform List<scalar> 
167
(
0.0127878556948
0.0128525640279
0.0128840967662
0.012912881452
0.0129448180498
0.0129810072897
0.0130225878329
0.0130747383523
0.0116808283857
0.0125189429657
0.0127457246632
0.0128106609891
0.0128429936922
0.0128727934598
0.0129058479205
0.0129432394605
0.0129862236527
0.0130406207349
0.0131308802247
0.0116428900916
0.0124768629423
0.012702513757
0.0127678392747
0.0128011426387
0.0128321326871
0.012866479969
0.0129052446448
0.0129498008637
0.0130066378976
0.0131027373287
0.0116035615908
0.0124336212185
0.0126583364799
0.0127242367636
0.0127586954782
0.0127910611017
0.0128268832876
0.0128671961561
0.0129134963841
0.012972931374
0.0113888473174
0.011562948986
0.0123893406417
0.0126133502853
0.0126800359841
0.0127158544819
0.0127497959838
0.0127872856755
0.0128293267756
0.0128775253625
0.0129397023597
0.0113428765047
0.0115211779053
0.0123441703569
0.0125677348226
0.012635444992
0.012672851343
0.012708586725
0.0127479483923
0.0127919039639
0.0128421736946
0.0129071993073
0.0112951949635
0.0114783678986
0.0122982699777
0.0125216884604
0.0125906969031
0.0126299465633
0.0126677111638
0.0127091536545
0.0127552081785
0.0128076598738
0.0112459277873
0.0114346395204
0.0122518039966
0.012475423559
0.0125460459959
0.0125874241932
0.01262746701
0.0126711962258
0.0127194902443
0.0111951938426
0.011390079158
0.0122049025246
0.0124291268255
0.0125017267262
0.0125455481066
0.0125881271478
0.0126343374889
0.0126850206915
0.0111430207942
0.0113445992782
0.012157492295
0.0123827797447
0.0124577671613
0.0125043679947
0.0125497402924
0.0125986146911
0.0126518065137
0.0127115105394
0.0110890363011
0.0112974187786
0.0121086628386
0.0123354814432
0.0124132880999
0.012462995079
0.0125113723987
0.0125630181401
0.0126187391386
0.0126808733794
0.0110313158159
0.0112452378743
0.0120544651135
0.0122831081702
0.0123640984862
0.0124171515286
0.0124686234525
0.0125230066596
0.0125811251013
0.0126454633346
0.0109623048253
0.0111761927034
0.0119807525298
0.012210770137
0.012295001444
0.0123513818704
0.0124057488903
0.012462514331
0.0125225535657
0.0125885101044
0.0108552301414
0.01105120122
0.0118416351969
0.0120703751129
0.0121570729159
0.0122161968039
0.0122727106979
0.0123309374675
0.0123918425558
0.0124581954491
0.0106220868503
0.0107509301691
0.0115001073526
0.0117195855913
0.0118062010323
0.0118664988888
0.0119235804005
0.011981561123
0.0120414743882
0.00999260578253
0.00993609382215
0.0105772954923
0.0107684874536
0.0108492598283
0.0109078753333
0.010963217251
0.0110187652734
0.0110755394077
0.00909799123651
0.00993089285185
0.0104219770085
0.010577215128
0.0106602610323
0.0107312389305
0.0108014961657
0.010872982602
0.0109463862266
)
;
    }
    atmosphere
    {
        type            inletOutlet;
        inletValue      nonuniform List<scalar> 0();
        value           nonuniform List<scalar> 0();
    }
    floatingObject
    {
        lowReCorrection 0;
        blending        stepwise;
        n               2;
        type            epsilonWallFunction;
        value           nonuniform List<scalar> 0();
    }
    procBoundary10to9
    {
        type            processor;
        value           nonuniform List<scalar> 
15
(
0.0128286454876
0.0128933030635
0.0129241925706
0.0129521213775
0.0129831041688
0.0130182561398
0.0130585951674
0.0131086860585
0.0117171882529
0.0125596881332
0.0125596881332
0.0115150510058
0.0114750706599
0.0114329583535
0.0114329583535
)
;
    }
    procBoundary10to11
    {
        type            processor;
        value           nonuniform List<scalar> 
23
(
0.0131593870925
0.0131593870925
0.0133437252148
0.0133328929517
0.0130751048119
0.0130751048119
0.0130480671903
0.0130218512275
0.0128756670282
0.0128756670282
0.0127742710122
0.0127742710122
0.0127422321543
0.0127422321543
0.0127887920568
0.0127611025477
0.012728263387
0.0126731208643
0.0125431384934
0.0121061937305
0.0121061937305
0.0111362273578
0.0110237258802
)
;
    }
}


// ************************************************************************* //
