/*--------------------------------*- C++ -*----------------------------------*\
| =========                 |                                                 |
| \\      /  F ield         | OpenFOAM: The Open Source CFD Toolbox           |
|  \\    /   O peration     | Version:  v2012                                 |
|   \\  /    A nd           | Website:  www.openfoam.com                      |
|    \\/     M anipulation  |                                                 |
\*---------------------------------------------------------------------------*/
FoamFile
{
    version     2.0;
    format      ascii;
    class       surfaceScalarField;
    location    "1.4";
    object      phi;
}
// * * * * * * * * * * * * * * * * * * * * * * * * * * * * * * * * * * * * * //

dimensions      [0 3 -1 0 0 0 0];
oriented        oriented;


internalField   nonuniform List<scalar> 
304
(
-4.38893286078e-05
-0.000295720643216
-5.50490376723e-05
-0.000299428332934
-6.60525017551e-05
-0.000304032290645
-7.68365861801e-05
-0.000309617257172
-8.7322043621e-05
-0.000316234219139
-9.74094159708e-05
-0.000323945209916
-0.000106977729327
-0.000332835274055
-0.000343023269028
-2.31449118374e-05
-0.000275637415817
-3.53506520482e-05
-0.000280296192959
-4.75462377872e-05
-0.000283524956869
-5.9664041258e-05
-0.000287310477251
-7.16593266395e-05
-0.000292036980907
-8.34819906443e-05
-0.000297794552372
-9.50694729996e-05
-0.00030464665515
-0.000106344343756
-0.000312670125804
-0.000117212706937
-0.000321966444194
-0.000127564995058
-0.000332670055476
-0.000344924124898
-2.4982653593e-05
-0.000262689864356
-3.81323079251e-05
-0.000267146408777
-5.12920913661e-05
-0.000270365103577
-6.44060779808e-05
-0.000274196466149
-7.7442507658e-05
-0.000279000551235
-9.03661954549e-05
-0.000284870858243
-0.000103132842386
-0.000291879969588
-0.000115687507057
-0.000300115352299
-0.000127963035395
-0.000309690351735
-0.000139882236467
-0.000320750250902
-2.68416327605e-05
-0.000248797772698
-4.09487138489e-05
-0.000253039231102
-5.5091469062e-05
-0.000256222307522
-6.92275743214e-05
-0.000260060363206
-8.33394404154e-05
-0.000264888716607
-9.74081010019e-05
-0.000270802227729
-0.000111408364563
-0.000277879716062
-0.000125307603402
-0.000286216001822
-0.000139065901349
-0.000295931715608
-0.000307179854082
-1.38650638009e-05
-0.000220577737311
-2.87028528783e-05
-0.000233959867689
-4.37711599226e-05
-0.000237970855731
-5.89043148323e-05
-0.000241089135645
-7.40748651703e-05
-0.000244889843284
-8.92804234723e-05
-0.000249683220217
-0.000104518964713
-0.000255563759099
-0.000119784570365
-0.000262614165644
-0.000135067188527
-0.000270933328911
-0.00015035208187
-0.000280646363149
-0.000291909209893
-1.47722716748e-05
-0.000205805351928
-3.05469657779e-05
-0.000218185083696
-4.65679974597e-05
-0.000221949775817
-6.26857987062e-05
-0.000224971338223
-7.88882979327e-05
-0.000228687396558
-9.51888420582e-05
-0.000233382766465
-0.000111602585595
-0.000239150120044
-0.000128143205993
-0.000246073637946
-0.000144821331272
-0.000254254899162
-0.000161649379956
-0.000263818206574
-1.56611084756e-05
-0.000190144149575
-3.23515053478e-05
-0.000201494613037
-4.93047985321e-05
-0.000204996449378
-6.63878235086e-05
-0.000207888331292
-8.36043642191e-05
-0.000211470924129
-0.00010098372323
-0.00021600351354
-0.000118558352074
-0.000221575613778
-0.000136359918354
-0.000228271995974
-0.000154422427796
-0.000236192332918
-1.65204125453e-05
-0.000173623655006
-3.40940231683e-05
-0.000183920939937
-5.19462949375e-05
-0.000187144154533
-6.99609193096e-05
-0.000189873733269
-8.81579083832e-05
-0.000193274008521
-0.000106582573976
-0.000197578954047
-0.000125283985045
-0.000202874271807
-0.000144313036971
-0.000209242856121
-0.000216781536482
-1.73413079207e-05
-0.000156282274231
-3.57535767866e-05
-0.000165508617876
-5.44579727709e-05
-0.000168439742963
-7.33559089094e-05
-0.000170975827192
-9.24840964712e-05
-0.000174145891058
-0.000111903690498
-0.000178159449985
-0.000131680066769
-0.00018309789366
-0.000151882244113
-0.000189040598432
-0.000196080938536
-1.81182110607e-05
-0.000138163999789
-3.7312088438e-05
-0.000146314697288
-5.68070916277e-05
-0.000148944732132
-7.65248213907e-05
-0.000151258130615
-9.65194523892e-05
-0.000154151323736
-0.000116867507638
-0.000157811463775
-0.000137650069952
-0.000162315335494
-0.000158952104444
-0.000167738356416
-0.000180864639581
-0.000174167944609
-0.000181711251273
-1.88514091458e-05
-0.000119312539613
-3.87554904848e-05
-0.000126410586297
-5.89624397884e-05
-0.000128737787136
-7.94201413124e-05
-0.000130800469808
-0.000100200994433
-0.000133370532187
-0.000121395304123
-0.000136617207329
-0.000143097519187
-0.000140613111907
-0.000165407447493
-0.000145428186742
-0.000188432435856
-0.00015114240603
-0.000157853718077
-1.95508874347e-05
-9.97616185029e-05
-4.00751305141e-05
-0.000105886333139
-6.08933990154e-05
-0.000107919542292
-8.19934523987e-05
-0.000109700473548
-0.000103465421129
-0.000111898635393
-0.000125409595448
-0.000114673084915
-0.000147930567799
-0.00011809212294
-0.000171140566087
-0.000122217939532
-0.000195162192307
-0.000127120194601
-0.000132884949133
-2.0249179627e-05
-7.95124284396e-05
-4.12725259505e-05
-8.48630032074e-05
-6.25678678759e-05
-8.66242517677e-05
-8.41923817805e-05
-8.80760436434e-05
-0.000106246827324
-8.98442859825e-05
-0.000128831784303
-9.20881993113e-05
-0.000152056112069
-9.48677938422e-05
-0.000176041226208
-9.82325983331e-05
-0.000200922259888
-0.00010223840815
-0.000106953211664
-2.10047363712e-05
-5.8507709704e-05
-4.2334725746e-05
-6.3533061595e-05
-6.3915505502e-05
-6.50435567248e-05
-8.59235324546e-05
-6.60681340571e-05
-0.000108438290375
-6.7329656669e-05
-0.000131540014503
-6.89865788569e-05
-0.000155333610749
-7.10742317637e-05
-0.000179944814961
-7.36210322701e-05
-0.000205520739674
-7.66620145836e-05
-2.16809945904e-05
-3.68267664883e-05
-4.30066681541e-05
-4.22074689573e-05
-6.46452930522e-05
-4.34050503126e-05
-8.6878665374e-05
-4.38349122341e-05
-0.000109696625343
-4.45118569703e-05
-0.000133141711526
-4.5541627794e-05
-0.000157312069645
-4.69038865398e-05
-0.000182338170365
-4.85947271014e-05
-5.06267500609e-05
-2.10484287003e-05
-1.57784166468e-05
-4.2175773805e-05
-2.10802317019e-05
-6.38411567274e-05
-2.1739811059e-05
-8.60994123588e-05
-2.15768284879e-05
-0.000108910645855
-2.17007985757e-05
-0.000132334345476
-2.21180719559e-05
-0.000156484823005
-2.27534296e-05
-0.000181502751687
-2.35765634426e-05
-2.45810733708e-05
-1.57784669774e-05
-3.68587658203e-05
-5.85986607068e-05
-8.01755802757e-05
-0.000101876460766
-0.000123994588689
-0.000146747936698
-0.000170324394035
)
;

boundaryField
{
    back
    {
        type            calculated;
        value           uniform 0;
    }
    sides
    {
        type            calculated;
        value           uniform 0;
    }
    bottom
    {
        type            calculated;
        value           uniform 0;
    }
    front
    {
        type            calculated;
        value           uniform 0;
    }
    atmosphere
    {
        type            calculated;
        value           nonuniform List<scalar> 0();
    }
    floatingObject
    {
        type            calculated;
        value           nonuniform List<scalar> 0();
    }
    procBoundary10to9
    {
        type            processor;
        value           nonuniform List<scalar> 
15
(
0.000306982144495
0.000310588180197
0.00031503582614
0.000320401459457
0.000326719862231
0.000334033091587
0.000342404176833
0.000351926795826
0.00028765119871
3.26281675224e-05
0.000292502220681
1.11316814409e-05
1.2035494412e-05
1.29497782064e-05
0.000234443035931
)
;
    }
    procBoundary10to11
    {
        type            processor;
        value           nonuniform List<scalar> 
23
(
-0.000115879661324
0.000354643608529
-0.000137282859488
-0.000151363707321
-0.000333441721367
-0.000152635613136
-0.000165622383838
-0.000178638900105
-0.000274919218808
-0.000172781260787
-0.000245458991133
-0.000163723620442
-0.000172582376417
0.000204331899174
-0.000203484311932
-0.000212289177062
-0.000220130084747
-0.000226853285104
-0.000232230478243
-8.02426820648e-05
-0.000208372929417
-0.000207548114088
-0.000194905241103
)
;
    }
}


// ************************************************************************* //
