/*--------------------------------*- C++ -*----------------------------------*\
| =========                 |                                                 |
| \\      /  F ield         | OpenFOAM: The Open Source CFD Toolbox           |
|  \\    /   O peration     | Version:  v2012                                 |
|   \\  /    A nd           | Website:  www.openfoam.com                      |
|    \\/     M anipulation  |                                                 |
\*---------------------------------------------------------------------------*/
FoamFile
{
    version     2.0;
    format      ascii;
    class       volVectorField;
    location    "1.4";
    object      U;
}
// * * * * * * * * * * * * * * * * * * * * * * * * * * * * * * * * * * * * * //

dimensions      [0 1 -1 0 0 0 0];


internalField   nonuniform List<vector> 
167
(
(-0.0603322338715 -0.00764700094762 -2.0519837966e-22)
(-0.0610638425047 -0.00988076884462 -3.68140687919e-23)
(-0.0619693963386 -0.0120909067303 -7.50551306209e-24)
(-0.0630650498413 -0.0142663373523 5.17632122003e-24)
(-0.0643594405766 -0.0163902128441 1.42514901769e-23)
(-0.065863064035 -0.0184443245786 7.65281795341e-24)
(-0.0675908099806 -0.0204051652809 1.22400161127e-23)
(-0.0695640685508 -0.0222463274771 8.76487992214e-24)
(-0.0563865645074 -0.00303885382089 8.47597966679e-22)
(-0.057337977299 -0.00583936407511 -5.59592602091e-22)
(-0.0579828656466 -0.00828418374955 -2.31703168207e-22)
(-0.0587324964632 -0.0107074469073 -3.65830425012e-23)
(-0.0596660257852 -0.0131121841413 7.04512890531e-24)
(-0.0608009616569 -0.0154902778532 2.67351912289e-24)
(-0.0621488029612 -0.0178278306253 -1.17263999335e-23)
(-0.0637234910165 -0.0201103933463 3.84251355676e-24)
(-0.0655437645734 -0.022319014387 4.86022868101e-24)
(-0.0676350419035 -0.0244344191969 -6.12812713857e-24)
(-0.0700252772899 -0.0264469709475 -2.1966354316e-23)
(-0.0538866053768 -0.00329978856637 -1.4450268354e-22)
(-0.0547986890526 -0.00629420173646 -2.662738896e-22)
(-0.0554436714145 -0.0089361178572 -2.17784087479e-22)
(-0.0562057374202 -0.0115556525917 -3.93121503371e-23)
(-0.057159341751 -0.0141637670044 -1.49937775467e-23)
(-0.0583228723403 -0.0167557352965 -4.43896826658e-24)
(-0.0597099711596 -0.0193209830861 -8.16831940401e-24)
(-0.0613371095656 -0.0218490161365 -6.99962498889e-24)
(-0.0632258089475 -0.0243254452567 -3.84718224786e-24)
(-0.0654041274525 -0.0267377530683 -5.34250838178e-24)
(-0.0679012191165 -0.0290855914277 -6.98693826527e-24)
(-0.0511988574434 -0.00356510129701 1.37816062078e-21)
(-0.0520692911801 -0.00675484523129 2.31763103845e-22)
(-0.052709741553 -0.00959684481389 -1.16677197712e-22)
(-0.0534770930461 -0.0124171206356 -3.40283466562e-23)
(-0.0544409150787 -0.0152346733832 -4.46868536454e-24)
(-0.0556200604893 -0.0180483797718 -7.35154470127e-24)
(-0.0570296937222 -0.02085121647 -1.166494443e-23)
(-0.0586880722181 -0.0236367322323 -7.38337184147e-24)
(-0.0606186450842 -0.0263950795536 -1.02654189398e-23)
(-0.0628512802176 -0.0291204089705 -1.37168336503e-23)
(-0.0455507993386 -0.00213445017178 1.24907899488e-21)
(-0.0483220873035 -0.00383188995906 1.58432627232e-21)
(-0.0491480222786 -0.00721659409657 9.57573684128e-23)
(-0.0497784524503 -0.0102595152296 -8.3628748574e-23)
(-0.0505427566847 -0.0132825041297 -2.67217560173e-23)
(-0.0515055199827 -0.0163125899392 -9.00830727144e-24)
(-0.052685687019 -0.0193523916173 -1.46587433093e-23)
(-0.0540994166979 -0.0223985535632 -1.38177698567e-23)
(-0.0557661282117 -0.0254486407229 -1.17791386251e-23)
(-0.0577103939484 -0.0284971790517 -5.33109902168e-24)
(-0.0599631278423 -0.0315451825198 1.24225309131e-23)
(-0.0426822408541 -0.00225330423232 2.84520937643e-22)
(-0.045257070527 -0.00409728878097 1.36546648431e-21)
(-0.0460353555672 -0.0076744371011 -2.72700190651e-22)
(-0.0466496298489 -0.0109165090915 -2.14380949417e-22)
(-0.0474017331189 -0.0141413718416 -4.1811806099e-23)
(-0.0483511928129 -0.017383908335 -1.67537682989e-23)
(-0.0495167233734 -0.0206505108772 -1.43249575161e-23)
(-0.0509150353582 -0.0239415060123 -3.88073232774e-24)
(-0.0525661844185 -0.02725840522 -2.28624616135e-23)
(-0.0544950704074 -0.0306000881759 -8.50256771982e-25)
(-0.0567329534203 -0.0339744591793 3.01159266032e-23)
(-0.0396343523233 -0.00236833743582 -9.99262479672e-22)
(-0.0420068165192 -0.00435797856275 1.84792191932e-21)
(-0.0427341650673 -0.00812272266529 -1.8038260125e-22)
(-0.0433257824087 -0.0115595929674 -8.67494854902e-23)
(-0.0440560618874 -0.0149825814564 -2.34559077611e-23)
(-0.0449794291556 -0.018434192607 -1.38565825256e-23)
(-0.0461140965737 -0.0219245428998 -8.97676674772e-24)
(-0.047476977243 -0.0254575971377 8.57648416989e-24)
(-0.0490881616267 -0.0290388599044 -1.78883652008e-23)
(-0.0509723349892 -0.0326713036009 2.95792676048e-24)
(-0.0364119666001 -0.00247838848935 1.63917868334e-22)
(-0.0385767356922 -0.00461055953125 1.66539822177e-21)
(-0.0392498794709 -0.00855575284202 5.34852553382e-22)
(-0.03981227106 -0.0121803100744 3.45144959961e-23)
(-0.0405109616536 -0.0157946716915 -9.82676350802e-24)
(-0.0413952783903 -0.0194486543006 -5.85565886043e-24)
(-0.0424827364904 -0.0231560329102 -1.11177329804e-23)
(-0.0437900822622 -0.0269244269944 -1.24544150336e-23)
(-0.0453369687447 -0.0307630315304 -1.063461714e-23)
(-0.0330219284354 -0.00258273802632 1.1741812457e-21)
(-0.0349745625812 -0.00485208681033 2.3564180096e-21)
(-0.0355905208024 -0.00896802234 2.16080847e-22)
(-0.0361173035095 -0.0127702887705 -4.35485148727e-23)
(-0.0367747445974 -0.0165662254708 -2.46542097881e-23)
(-0.0376071630932 -0.0204126367111 -6.6653667288e-24)
(-0.0386312365833 -0.0243268437216 -2.56070205657e-23)
(-0.0398631826694 -0.0283199485339 -2.25214162914e-23)
(-0.0413220184483 -0.0324046747495 -1.59620095081e-23)
(-0.0294720906588 -0.00268122471904 3.51747394438e-23)
(-0.0312099286578 -0.00508036464208 3.57078253758e-21)
(-0.0317663188573 -0.00935445983312 8.66968308339e-22)
(-0.0322514503122 -0.0133214280705 6.94462715985e-23)
(-0.0328582065899 -0.0172860684139 -2.43833169481e-24)
(-0.0336261498766 -0.0213118183093 -2.7791725136e-24)
(-0.0345710496162 -0.0254193516128 -9.39394529187e-24)
(-0.0357083960094 -0.0296230075422 -1.3634040218e-23)
(-0.0370562653616 -0.0339388119374 -9.11252912069e-25)
(-0.0386366625513 -0.038380445922 -1.97916726435e-23)
(-0.0257706908303 -0.00277477655914 -1.15842182423e-23)
(-0.0272948889197 -0.00529442236712 8.13323537075e-22)
(-0.0277904060631 -0.00971045942152 3.05155481224e-22)
(-0.0282282437579 -0.013825770122 -3.28367699391e-23)
(-0.0287751114078 -0.0179431024003 -1.384922693e-23)
(-0.0294663998602 -0.0221320090018 8.12979627017e-24)
(-0.0303170087139 -0.0264160471369 -1.15713924928e-23)
(-0.0313415014503 -0.0308123940314 1.12141415389e-23)
(-0.0325566608965 -0.0353400497262 -1.75522948926e-23)
(-0.0339830403173 -0.0400160415848 -2.01982367171e-23)
(-0.0219286517597 -0.00286616478239 -4.93494738943e-22)
(-0.0232489970692 -0.00549529574436 2.22977515641e-21)
(-0.0236844712745 -0.0100317329448 7.53936865171e-22)
(-0.0240696350761 -0.0142751905567 1.12849389922e-22)
(-0.0245474741618 -0.0185260668568 5.48240760659e-23)
(-0.0251504626861 -0.0228591096076 1.07397272326e-23)
(-0.0258927470251 -0.027299998969 2.5270549902e-23)
(-0.0267876353131 -0.0318682133205 1.17634139449e-23)
(-0.027850191885 -0.0365853378538 -2.26564978384e-23)
(-0.0290989124706 -0.0414714700118 -4.69832751001e-24)
(-0.0179575598652 -0.00296215812231 -9.77564484015e-22)
(-0.0191017487036 -0.00568860707516 1.65390454692e-21)
(-0.0194811679946 -0.0103141736818 6.54114207184e-22)
(-0.0198068159731 -0.0146607617379 1.32816885208e-22)
(-0.0202053508529 -0.0190230310025 1.44149751003e-22)
(-0.020708485039 -0.0234787095172 9.33186159757e-23)
(-0.0213294159728 -0.0280541235974 1.05170843486e-22)
(-0.0220795534425 -0.0327701851885 7.76823551812e-23)
(-0.022971560469 -0.0376505570316 1.20292633845e-23)
(-0.0240209482455 -0.0427183754251 6.81178388488e-23)
(-0.0138356332005 -0.00307417585179 4.30751018215e-22)
(-0.0148593557693 -0.00588292624442 2.10259820683e-21)
(-0.0151861808996 -0.0105477643367 2.68352334881e-22)
(-0.0154373914712 -0.0149656224209 1.78301876894e-22)
(-0.0157416320697 -0.0194139767061 5.17005252952e-22)
(-0.0161313738968 -0.0239680397665 3.5151450323e-22)
(-0.0166171943782 -0.0286522423613 3.50116924356e-22)
(-0.0172073127131 -0.0334878689126 3.46766945736e-22)
(-0.0179108947557 -0.038500200312 -4.6560778397e-23)
(-0.0187392819833 -0.0437149266573 3.0907544947e-22)
(-0.00946302616628 -0.0031787556476 5.54097192167e-22)
(-0.0104589525262 -0.0060372765065 4.25894622348e-21)
(-0.0107245683498 -0.0106792914872 6.06416310463e-22)
(-0.0108697962202 -0.015131254178 -2.34409076462e-23)
(-0.0110591842827 -0.0196345573127 3.00705639635e-22)
(-0.0113211256701 -0.0242538879081 6.52328129677e-22)
(-0.011658478716 -0.0290102004181 -1.61174378923e-22)
(-0.0120740742281 -0.0339249944443 8.88966071527e-22)
(-0.0125726334856 -0.0390245764455 3.67922389961e-22)
(-0.00479125013174 -0.00304887398155 1.57983981133e-22)
(-0.00595196140812 -0.0058851077883 6.31087942257e-22)
(-0.00614545442215 -0.0105212693663 5.60022177668e-23)
(-0.00615646795098 -0.0149767696559 -7.70116315051e-22)
(-0.00623230211863 -0.0194813177965 5.8381897905e-22)
(-0.00638047874801 -0.0240972073444 2.18754150654e-21)
(-0.00658674809389 -0.0288491288827 -2.08385887925e-21)
(-0.00684566164642 -0.033761183263 1.66972604588e-21)
(-0.00715727431518 -0.038861116152 1.11295434174e-21)
(-0.00202834096886 -0.00201860565115 8.69121963336e-23)
(-0.00303743126833 -0.00475347151644 1.95513919314e-22)
(-0.0031349734808 -0.00953141467239 5.04233362398e-22)
(-0.00307578094411 -0.0138825395354 5.44220089094e-22)
(-0.0030605415048 -0.0182028831174 3.70715865107e-22)
(-0.00309004739095 -0.0225779923323 1.13132013433e-21)
(-0.00315038165474 -0.0270614140061 3.52918510867e-22)
(-0.00323544299561 -0.0316919656879 2.27070575809e-21)
(-0.00334287130079 -0.0365036599713 1.10561176359e-21)
)
;

boundaryField
{
    back
    {
        type            noSlip;
    }
    sides
    {
        type            noSlip;
    }
    bottom
    {
        type            noSlip;
    }
    front
    {
        type            noSlip;
    }
    atmosphere
    {
        type            pressureInletOutletVelocity;
        value           nonuniform List<vector> 0();
    }
    floatingObject
    {
        type            movingWallVelocity;
        value           nonuniform List<vector> 0();
    }
    procBoundary10to9
    {
        type            processor;
        value           nonuniform List<vector> 
15
(
(-0.0624983569605 -0.00702817946461 -1.54258943657e-22)
(-0.0632082904529 -0.00908086431169 -2.45937013302e-23)
(-0.0640804505898 -0.0111073552508 -4.83048896946e-25)
(-0.0651291040991 -0.0130941521458 9.13490326255e-25)
(-0.0663592588046 -0.0150220887837 3.24074571007e-24)
(-0.0677768760752 -0.016869718672 1.4707868564e-23)
(-0.0693915626731 -0.0186090727225 1.02749165324e-23)
(-0.0712187225515 -0.0202067217967 -2.30381581723e-24)
(-0.0587016433398 -0.00278433116898 1.05301412481e-21)
(-0.0596908587703 -0.00539409890774 -1.50586942596e-22)
(-0.0596908587703 -0.00539409890774 -1.50586942596e-22)
(-0.053063794303 -0.0017644090045 -5.25442708135e-22)
(-0.0507413152696 -0.00188905450743 3.22462655677e-22)
(-0.0482373827203 -0.00201274493562 -4.81253834897e-22)
(-0.0482373827203 -0.00201274493562 -4.81253834897e-22)
)
;
    }
    procBoundary10to11
    {
        type            processor;
        value           nonuniform List<vector> 
23
(
(-0.0718082091356 -0.0239477140327 8.11129349459e-25)
(-0.0718082091356 -0.0239477140327 8.11129349459e-25)
(-0.0727399314357 -0.0283311284588 6.30989307804e-23)
(-0.0707411490232 -0.0313458437369 5.26683753742e-23)
(-0.0654156444321 -0.0318210367009 -2.23184911066e-23)
(-0.0654156444321 -0.0318210367009 -2.23184911066e-23)
(-0.062554135804 -0.0346098461001 2.28346812264e-23)
(-0.0593090377532 -0.0374072810797 6.55930238169e-23)
(-0.0531604861916 -0.0363694486615 3.60914698218e-23)
(-0.0531604861916 -0.0363694486615 3.60914698218e-23)
(-0.047147537076 -0.0346786144598 -4.03844915726e-24)
(-0.047147537076 -0.0346786144598 -4.03844915726e-24)
(-0.0430309454316 -0.0365914571614 -2.45594859588e-23)
(-0.0430309454316 -0.0365914571614 -2.45594859588e-23)
(-0.0404765985863 -0.0429806436085 -4.36300813151e-23)
(-0.0356460968152 -0.0448787404972 -1.6513001265e-23)
(-0.0305572469933 -0.0465706057368 -8.39048271004e-25)
(-0.0252479646414 -0.0480232337662 5.10701070658e-23)
(-0.0197079322133 -0.049186368201 2.37249547086e-22)
(-0.0131604911754 -0.0443362102105 -2.72968700446e-22)
(-0.0131604911754 -0.0443362102105 -2.72968700446e-22)
(-0.00752392735243 -0.0441778563183 -1.43913961203e-21)
(-0.00347058662572 -0.0415294549643 7.72311958593e-22)
)
;
    }
}


// ************************************************************************* //
