/*--------------------------------*- C++ -*----------------------------------*\
| =========                 |                                                 |
| \\      /  F ield         | OpenFOAM: The Open Source CFD Toolbox           |
|  \\    /   O peration     | Version:  v2012                                 |
|   \\  /    A nd           | Website:  www.openfoam.com                      |
|    \\/     M anipulation  |                                                 |
\*---------------------------------------------------------------------------*/
FoamFile
{
    version     2.0;
    format      ascii;
    class       volScalarField;
    location    "6";
    object      ddt0(epsilon);
}
// * * * * * * * * * * * * * * * * * * * * * * * * * * * * * * * * * * * * * //

dimensions      [0 2 -4 0 0 0 0];


internalField   nonuniform List<scalar> 
164
(
-0.000161416857319
-0.000169363285022
-0.000187881836299
-0.000195721358969
-0.000199172525123
-0.000200928366907
-0.000202116168207
-0.000203176058686
-0.000162104647069
-0.000170113026031
-0.000188621657078
-0.00019639462605
-0.0001997688293
-0.000201453481518
-0.000202580453286
-0.000203582335082
-0.000204581520345
-0.000205477538941
-0.000205859729475
-0.000162688781858
-0.000170761348035
-0.000189243377485
-0.00019694393773
-0.000200239318486
-0.000201859658821
-0.000202931570767
-0.000203883593589
-0.00020483397216
-0.000205696533513
-0.000206074651413
-0.000204895417081
-0.000199173914468
-0.00016318224048
-0.000171310329315
-0.000189747136227
-0.000197370513309
-0.000200592035428
-0.000202152175171
-0.000203176420462
-0.000204089438604
-0.00020500783492
-0.000205861895358
-0.000206294313587
-0.000205265049782
-0.000199682028748
-0.00018026394433
-0.000163568377338
-0.00017176059416
-0.000190135931873
-0.000197680287288
-0.000200830951961
-0.000202338512954
-0.000203324441731
-0.000204207954197
-0.000205111129948
-0.000205983596006
-0.00020652396863
-0.000205764732856
-0.000200585303316
-0.0001808312147
-0.000163881804462
-0.00017211751279
-0.000190416677814
-0.000197880378508
-0.000200964019511
-0.000202425280525
-0.00020338060745
-0.000204243474249
-0.000205140449772
-0.00020604251234
-0.000206710285967
-0.000206277842792
-0.000201671473899
-0.000182056238169
-0.000164134497821
-0.000172385451595
-0.000190599387078
-0.000197977360283
-0.000200998234815
-0.000202418614186
-0.000203347328144
-0.000204193529766
-0.000205085770883
-0.000206015726905
-0.000206795329102
-0.000206661628017
-0.00020265236193
-0.00018368006808
-0.000164327540673
-0.000172580775114
-0.000190693061109
-0.00019798195782
-0.000200940607832
-0.000202322989547
-0.000203227461581
-0.000204057019844
-0.000204940812161
-0.000205886191481
-0.000206744717364
-0.000206833693352
-0.000203272919941
-0.000185020701751
-0.000164469199618
-0.000172715903113
-0.000190704472093
-0.000197898738364
-0.000200797220413
-0.000202143465324
-0.000203024257411
-0.000203835551756
-0.000204706203263
-0.00020565388936
-0.000206561842729
-0.000206816423088
-0.000203633855168
-0.000186168779298
-0.000164558660247
-0.000172783635957
-0.000190640162406
-0.000197737121595
-0.000200574497809
-0.000201884909046
-0.000202741977317
-0.000203533931711
-0.00020438831786
-0.000205330333613
-0.000206271764021
-0.000206668982409
-0.000203904468348
-0.000187907468611
-0.000124366324208
0.000176834850324
-0.000164616409795
-0.000172795080394
-0.000190509871759
-0.000197505282331
-0.000200281078931
-0.000201555784518
-0.00020238960602
-0.000203162466438
-0.000204000037565
-0.000204934715094
-0.000205910316966
-0.000206470578473
-0.000204241179765
-0.000190346233071
-0.000137126006242
0.000118841714565
-0.00016464016566
-0.000172764742486
-0.000190323567485
-0.000197211763076
-0.00019992524384
-0.00020116513936
-0.000201977360636
-0.00020273319347
-0.000203557020033
-0.000204490358055
-0.000205516407133
-0.000206295191502
-0.00020481493243
-0.000193389499756
-0.000149004044208
7.28119254418e-05
)
;

boundaryField
{
    back
    {
        type            calculated;
        value           nonuniform List<scalar> 
164
(
-0.000161416857319
-0.000169363285022
-0.000187881836299
-0.000195721358969
-0.000199172525123
-0.000200928366907
-0.000202116168207
-0.000203176058686
-0.000162104647069
-0.000170113026031
-0.000188621657078
-0.00019639462605
-0.0001997688293
-0.000201453481518
-0.000202580453286
-0.000203582335082
-0.000204581520345
-0.000205477538941
-0.000205859729475
-0.000162688781858
-0.000170761348035
-0.000189243377485
-0.00019694393773
-0.000200239318486
-0.000201859658821
-0.000202931570767
-0.000203883593589
-0.00020483397216
-0.000205696533513
-0.000206074651413
-0.000204895417081
-0.000199173914468
-0.00016318224048
-0.000171310329315
-0.000189747136227
-0.000197370513309
-0.000200592035428
-0.000202152175171
-0.000203176420462
-0.000204089438604
-0.00020500783492
-0.000205861895358
-0.000206294313587
-0.000205265049782
-0.000199682028748
-0.00018026394433
-0.000163568377338
-0.00017176059416
-0.000190135931873
-0.000197680287288
-0.000200830951961
-0.000202338512954
-0.000203324441731
-0.000204207954197
-0.000205111129948
-0.000205983596006
-0.00020652396863
-0.000205764732856
-0.000200585303316
-0.0001808312147
-0.000163881804462
-0.00017211751279
-0.000190416677814
-0.000197880378508
-0.000200964019511
-0.000202425280525
-0.00020338060745
-0.000204243474249
-0.000205140449772
-0.00020604251234
-0.000206710285967
-0.000206277842792
-0.000201671473899
-0.000182056238169
-0.000164134497821
-0.000172385451595
-0.000190599387078
-0.000197977360283
-0.000200998234815
-0.000202418614186
-0.000203347328144
-0.000204193529766
-0.000205085770883
-0.000206015726905
-0.000206795329102
-0.000206661628017
-0.00020265236193
-0.00018368006808
-0.000164327540673
-0.000172580775114
-0.000190693061109
-0.00019798195782
-0.000200940607832
-0.000202322989547
-0.000203227461581
-0.000204057019844
-0.000204940812161
-0.000205886191481
-0.000206744717364
-0.000206833693352
-0.000203272919941
-0.000185020701751
-0.000164469199618
-0.000172715903113
-0.000190704472093
-0.000197898738364
-0.000200797220413
-0.000202143465324
-0.000203024257411
-0.000203835551756
-0.000204706203263
-0.00020565388936
-0.000206561842729
-0.000206816423088
-0.000203633855168
-0.000186168779298
-0.000164558660247
-0.000172783635957
-0.000190640162406
-0.000197737121595
-0.000200574497809
-0.000201884909046
-0.000202741977317
-0.000203533931711
-0.00020438831786
-0.000205330333613
-0.000206271764021
-0.000206668982409
-0.000203904468348
-0.000187907468611
-0.000124366324208
0.000176834850324
-0.000164616409795
-0.000172795080394
-0.000190509871759
-0.000197505282331
-0.000200281078931
-0.000201555784518
-0.00020238960602
-0.000203162466438
-0.000204000037565
-0.000204934715094
-0.000205910316966
-0.000206470578473
-0.000204241179765
-0.000190346233071
-0.000137126006242
0.000118841714565
-0.00016464016566
-0.000172764742486
-0.000190323567485
-0.000197211763076
-0.00019992524384
-0.00020116513936
-0.000201977360636
-0.00020273319347
-0.000203557020033
-0.000204490358055
-0.000205516407133
-0.000206295191502
-0.00020481493243
-0.000193389499756
-0.000149004044208
7.28119254418e-05
)
;
    }
    sides
    {
        type            calculated;
        value           nonuniform List<scalar> 0();
    }
    bottom
    {
        type            calculated;
        value           nonuniform List<scalar> 
12
(
-0.000161416857319
-0.000162104647069
-0.000162688781858
-0.00016318224048
-0.000163568377338
-0.000163881804462
-0.000164134497821
-0.000164327540673
-0.000164469199618
-0.000164558660247
-0.000164616409795
-0.00016464016566
)
;
    }
    front
    {
        type            calculated;
        value           nonuniform List<scalar> 
164
(
-0.000161416857319
-0.000169363285022
-0.000187881836299
-0.000195721358969
-0.000199172525123
-0.000200928366907
-0.000202116168207
-0.000203176058686
-0.000162104647069
-0.000170113026031
-0.000188621657078
-0.00019639462605
-0.0001997688293
-0.000201453481518
-0.000202580453286
-0.000203582335082
-0.000204581520345
-0.000205477538941
-0.000205859729475
-0.000162688781858
-0.000170761348035
-0.000189243377485
-0.00019694393773
-0.000200239318486
-0.000201859658821
-0.000202931570767
-0.000203883593589
-0.00020483397216
-0.000205696533513
-0.000206074651413
-0.000204895417081
-0.000199173914468
-0.00016318224048
-0.000171310329315
-0.000189747136227
-0.000197370513309
-0.000200592035428
-0.000202152175171
-0.000203176420462
-0.000204089438604
-0.00020500783492
-0.000205861895358
-0.000206294313587
-0.000205265049782
-0.000199682028748
-0.00018026394433
-0.000163568377338
-0.00017176059416
-0.000190135931873
-0.000197680287288
-0.000200830951961
-0.000202338512954
-0.000203324441731
-0.000204207954197
-0.000205111129948
-0.000205983596006
-0.00020652396863
-0.000205764732856
-0.000200585303316
-0.0001808312147
-0.000163881804462
-0.00017211751279
-0.000190416677814
-0.000197880378508
-0.000200964019511
-0.000202425280525
-0.00020338060745
-0.000204243474249
-0.000205140449772
-0.00020604251234
-0.000206710285967
-0.000206277842792
-0.000201671473899
-0.000182056238169
-0.000164134497821
-0.000172385451595
-0.000190599387078
-0.000197977360283
-0.000200998234815
-0.000202418614186
-0.000203347328144
-0.000204193529766
-0.000205085770883
-0.000206015726905
-0.000206795329102
-0.000206661628017
-0.00020265236193
-0.00018368006808
-0.000164327540673
-0.000172580775114
-0.000190693061109
-0.00019798195782
-0.000200940607832
-0.000202322989547
-0.000203227461581
-0.000204057019844
-0.000204940812161
-0.000205886191481
-0.000206744717364
-0.000206833693352
-0.000203272919941
-0.000185020701751
-0.000164469199618
-0.000172715903113
-0.000190704472093
-0.000197898738364
-0.000200797220413
-0.000202143465324
-0.000203024257411
-0.000203835551756
-0.000204706203263
-0.00020565388936
-0.000206561842729
-0.000206816423088
-0.000203633855168
-0.000186168779298
-0.000164558660247
-0.000172783635957
-0.000190640162406
-0.000197737121595
-0.000200574497809
-0.000201884909046
-0.000202741977317
-0.000203533931711
-0.00020438831786
-0.000205330333613
-0.000206271764021
-0.000206668982409
-0.000203904468348
-0.000187907468611
-0.000124366324208
0.000176834850324
-0.000164616409795
-0.000172795080394
-0.000190509871759
-0.000197505282331
-0.000200281078931
-0.000201555784518
-0.00020238960602
-0.000203162466438
-0.000204000037565
-0.000204934715094
-0.000205910316966
-0.000206470578473
-0.000204241179765
-0.000190346233071
-0.000137126006242
0.000118841714565
-0.00016464016566
-0.000172764742486
-0.000190323567485
-0.000197211763076
-0.00019992524384
-0.00020116513936
-0.000201977360636
-0.00020273319347
-0.000203557020033
-0.000204490358055
-0.000205516407133
-0.000206295191502
-0.00020481493243
-0.000193389499756
-0.000149004044208
7.28119254418e-05
)
;
    }
    atmosphere
    {
        type            calculated;
        value           nonuniform List<scalar> 0();
    }
    floatingObject
    {
        type            calculated;
        value           nonuniform List<scalar> 0();
    }
    procBoundary7to6
    {
        type            processor;
        value           nonuniform List<scalar> 
11
(
-0.000129204371961
-0.000120517468449
-0.000114168975692
-0.000112648805342
-0.000113033441737
-0.000116050753649
-0.000116050753649
0.000207002581945
0.00221621562318
0.0021398913581
0.00193675219944
)
;
    }
    procBoundary7to8
    {
        type            processor;
        value           nonuniform List<scalar> 
17
(
-0.000160652579314
-0.000168499568288
-0.000187011542349
-0.000194913227777
-0.000198445610173
-0.000200276136424
-0.000201532274693
-0.000202659014407
-0.000204230397525
-0.000204230397525
-0.000205173643767
-0.000205616838761
-0.000204674312221
-0.000204674312221
-0.000199135820099
-0.000180739365041
-0.000180739365041
)
;
    }
    procBoundary7to9
    {
        type            processor;
        value           nonuniform List<scalar> 
16
(
-0.000164621334749
-0.000172694966026
-0.000190085375627
-0.000196861215528
-0.000199511417148
-0.000200718849694
-0.000201512653178
-0.000202256523888
-0.000203075270362
-0.000204021457182
-0.000205121627157
-0.000206175341361
-0.000205658077247
-0.00019697060647
-0.000158058666683
4.82879079765e-05
)
;
    }
}


// ************************************************************************* //
