/*--------------------------------*- C++ -*----------------------------------*\
| =========                 |                                                 |
| \\      /  F ield         | OpenFOAM: The Open Source CFD Toolbox           |
|  \\    /   O peration     | Version:  v2012                                 |
|   \\  /    A nd           | Website:  www.openfoam.com                      |
|    \\/     M anipulation  |                                                 |
\*---------------------------------------------------------------------------*/
FoamFile
{
    version     2.0;
    format      ascii;
    class       volScalarField;
    location    "6";
    object      ddt0(k);
}
// * * * * * * * * * * * * * * * * * * * * * * * * * * * * * * * * * * * * * //

dimensions      [0 2 -3 0 0 0 0];


internalField   nonuniform List<scalar> 
164
(
-0.000300518050925
-0.000378245997363
-0.000406373553645
-0.000418082116871
-0.000423057130918
-0.000425366015133
-0.000426722559608
-0.000427789402766
-0.000301254552641
-0.000379240659256
-0.000407241607798
-0.000418797600947
-0.000423644965235
-0.000425859263853
-0.000427154507717
-0.000428173960629
-0.000429040202212
-0.00042933962454
-0.00042766425229
-0.000301882058691
-0.000380094730299
-0.000407943860789
-0.000419336975503
-0.000424050378048
-0.000426178278812
-0.000427414745162
-0.00042839290193
-0.000429228240127
-0.00042956576769
-0.000428094225652
-0.000421183067263
-0.00039910357074
-0.000302415742819
-0.000380810008557
-0.000408479079877
-0.000419701111106
-0.000424287136929
-0.000426331429228
-0.000427517075541
-0.000428468297045
-0.000429303661556
-0.000429726049401
-0.000428579295556
-0.000422488072428
-0.000401873154466
-0.000341739477142
-0.000302829776244
-0.000381387644767
-0.000408853947055
-0.000419902747411
-0.000424364787139
-0.00042633555863
-0.000427482873158
-0.000428419417366
-0.000429281412499
-0.000429836548086
-0.000429122700116
-0.000424127912401
-0.00040565534243
-0.000347384456111
-0.000303180501383
-0.000381840211287
-0.000409083761783
-0.000419957285354
-0.000424300156374
-0.000426205428929
-0.000427324449785
-0.000428257942622
-0.00042915716056
-0.000429855950744
-0.000429591482593
-0.000425760327803
-0.000409728068782
-0.000354550047134
-0.000303493373966
-0.000382177562359
-0.000409188771488
-0.000419878232666
-0.000424107804128
-0.000425954245718
-0.000427048167228
-0.000427981178638
-0.000428913274264
-0.000429737585084
-0.000429854063909
-0.000427037343821
-0.00041331439663
-0.000362116433679
-0.000303766042325
-0.00038243174677
-0.000409186122371
-0.000419686458819
-0.000423801861315
-0.000425591692313
-0.00042666109143
-0.000427588943904
-0.000428539885007
-0.000429451313977
-0.000429845870969
-0.000427791173293
-0.000415863484567
-0.000368510208008
-0.000304006771525
-0.000382625222623
-0.00040908736442
-0.000419389839773
-0.000423393813488
-0.00042512793346
-0.000426170587561
-0.000427086198671
-0.000428041121863
-0.00042900245714
-0.000429587287994
-0.000428104592971
-0.000417655269312
-0.000374078579653
-0.000304212926111
-0.000382740366128
-0.00040890334702
-0.000419005239668
-0.000422895091327
-0.000424571940957
-0.000425585051428
-0.000426482923528
-0.000427430771572
-0.000428417334123
-0.000429140971058
-0.000428139431222
-0.000419151151572
-0.000380512281186
-0.000252948621626
0.000192379037106
-0.00030442023024
-0.000382799266202
-0.000408651725837
-0.0004185471357
-0.00042232145663
-0.000423939547067
-0.000424921467806
-0.00042579868585
-0.000426733831254
-0.000427735553237
-0.000428587205943
-0.000428081247867
-0.000420738316623
-0.000388145609462
-0.000284558662376
8.66941957651e-05
-0.000304622780072
-0.000382829962883
-0.000408350703884
-0.000418030811523
-0.000421687927864
-0.000423247490159
-0.000424199521226
-0.000425058037948
-0.00042598418079
-0.00042700949823
-0.000428015464828
-0.000428101474451
-0.000422779715108
-0.000396737429343
-0.000314169891331
-1.01924646155e-05
)
;

boundaryField
{
    back
    {
        type            calculated;
        value           nonuniform List<scalar> 
164
(
-0.000300518050925
-0.000378245997363
-0.000406373553645
-0.000418082116871
-0.000423057130918
-0.000425366015133
-0.000426722559608
-0.000427789402766
-0.000301254552641
-0.000379240659256
-0.000407241607798
-0.000418797600947
-0.000423644965235
-0.000425859263853
-0.000427154507717
-0.000428173960629
-0.000429040202212
-0.00042933962454
-0.00042766425229
-0.000301882058691
-0.000380094730299
-0.000407943860789
-0.000419336975503
-0.000424050378048
-0.000426178278812
-0.000427414745162
-0.00042839290193
-0.000429228240127
-0.00042956576769
-0.000428094225652
-0.000421183067263
-0.00039910357074
-0.000302415742819
-0.000380810008557
-0.000408479079877
-0.000419701111106
-0.000424287136929
-0.000426331429228
-0.000427517075541
-0.000428468297045
-0.000429303661556
-0.000429726049401
-0.000428579295556
-0.000422488072428
-0.000401873154466
-0.000341739477142
-0.000302829776244
-0.000381387644767
-0.000408853947055
-0.000419902747411
-0.000424364787139
-0.00042633555863
-0.000427482873158
-0.000428419417366
-0.000429281412499
-0.000429836548086
-0.000429122700116
-0.000424127912401
-0.00040565534243
-0.000347384456111
-0.000303180501383
-0.000381840211287
-0.000409083761783
-0.000419957285354
-0.000424300156374
-0.000426205428929
-0.000427324449785
-0.000428257942622
-0.00042915716056
-0.000429855950744
-0.000429591482593
-0.000425760327803
-0.000409728068782
-0.000354550047134
-0.000303493373966
-0.000382177562359
-0.000409188771488
-0.000419878232666
-0.000424107804128
-0.000425954245718
-0.000427048167228
-0.000427981178638
-0.000428913274264
-0.000429737585084
-0.000429854063909
-0.000427037343821
-0.00041331439663
-0.000362116433679
-0.000303766042325
-0.00038243174677
-0.000409186122371
-0.000419686458819
-0.000423801861315
-0.000425591692313
-0.00042666109143
-0.000427588943904
-0.000428539885007
-0.000429451313977
-0.000429845870969
-0.000427791173293
-0.000415863484567
-0.000368510208008
-0.000304006771524
-0.000382625222623
-0.00040908736442
-0.000419389839773
-0.000423393813488
-0.00042512793346
-0.000426170587561
-0.000427086198671
-0.000428041121863
-0.00042900245714
-0.000429587287994
-0.000428104592971
-0.000417655269312
-0.000374078579653
-0.000304212926111
-0.000382740366128
-0.00040890334702
-0.000419005239668
-0.000422895091327
-0.000424571940957
-0.000425585051428
-0.000426482923528
-0.000427430771572
-0.000428417334123
-0.000429140971058
-0.000428139431222
-0.000419151151572
-0.000380512281186
-0.000252948621626
0.000192379037106
-0.00030442023024
-0.000382799266202
-0.000408651725837
-0.0004185471357
-0.00042232145663
-0.000423939547067
-0.000424921467806
-0.00042579868585
-0.000426733831254
-0.000427735553237
-0.000428587205943
-0.000428081247867
-0.000420738316623
-0.000388145609462
-0.000284558662376
8.66941957651e-05
-0.000304622780072
-0.000382829962883
-0.000408350703884
-0.000418030811523
-0.000421687927864
-0.000423247490159
-0.000424199521226
-0.000425058037948
-0.00042598418079
-0.00042700949823
-0.000428015464828
-0.000428101474452
-0.000422779715108
-0.000396737429343
-0.000314169891331
-1.01924646155e-05
)
;
    }
    sides
    {
        type            calculated;
        value           nonuniform List<scalar> 0();
    }
    bottom
    {
        type            calculated;
        value           nonuniform List<scalar> 
12
(
-0.000300518050925
-0.000301254552641
-0.000301882058691
-0.000302415742819
-0.000302829776244
-0.000303180501383
-0.000303493373966
-0.000303766042325
-0.000304006771524
-0.000304212926111
-0.00030442023024
-0.000304622780072
)
;
    }
    front
    {
        type            calculated;
        value           nonuniform List<scalar> 
164
(
-0.000300518050925
-0.000378245997363
-0.000406373553645
-0.000418082116871
-0.000423057130918
-0.000425366015133
-0.000426722559608
-0.000427789402766
-0.000301254552641
-0.000379240659256
-0.000407241607798
-0.000418797600947
-0.000423644965235
-0.000425859263853
-0.000427154507717
-0.000428173960629
-0.000429040202212
-0.00042933962454
-0.00042766425229
-0.000301882058691
-0.000380094730299
-0.000407943860789
-0.000419336975503
-0.000424050378048
-0.000426178278812
-0.000427414745162
-0.00042839290193
-0.000429228240127
-0.00042956576769
-0.000428094225652
-0.000421183067263
-0.00039910357074
-0.000302415742819
-0.000380810008557
-0.000408479079877
-0.000419701111106
-0.000424287136929
-0.000426331429228
-0.000427517075541
-0.000428468297045
-0.000429303661556
-0.000429726049401
-0.000428579295556
-0.000422488072428
-0.000401873154466
-0.000341739477142
-0.000302829776244
-0.000381387644767
-0.000408853947055
-0.000419902747411
-0.000424364787139
-0.00042633555863
-0.000427482873158
-0.000428419417366
-0.000429281412499
-0.000429836548086
-0.000429122700116
-0.000424127912401
-0.00040565534243
-0.000347384456111
-0.000303180501383
-0.000381840211287
-0.000409083761783
-0.000419957285354
-0.000424300156374
-0.000426205428929
-0.000427324449785
-0.000428257942622
-0.00042915716056
-0.000429855950744
-0.000429591482593
-0.000425760327803
-0.000409728068782
-0.000354550047134
-0.000303493373966
-0.000382177562359
-0.000409188771488
-0.000419878232666
-0.000424107804128
-0.000425954245718
-0.000427048167228
-0.000427981178638
-0.000428913274264
-0.000429737585084
-0.000429854063909
-0.000427037343821
-0.00041331439663
-0.000362116433679
-0.000303766042325
-0.00038243174677
-0.000409186122371
-0.000419686458819
-0.000423801861315
-0.000425591692313
-0.00042666109143
-0.000427588943904
-0.000428539885007
-0.000429451313977
-0.000429845870969
-0.000427791173293
-0.000415863484567
-0.000368510208008
-0.000304006771524
-0.000382625222623
-0.00040908736442
-0.000419389839773
-0.000423393813488
-0.00042512793346
-0.000426170587561
-0.000427086198671
-0.000428041121863
-0.00042900245714
-0.000429587287994
-0.000428104592971
-0.000417655269312
-0.000374078579653
-0.000304212926111
-0.000382740366128
-0.00040890334702
-0.000419005239668
-0.000422895091327
-0.000424571940957
-0.000425585051428
-0.000426482923528
-0.000427430771572
-0.000428417334123
-0.000429140971058
-0.000428139431222
-0.000419151151572
-0.000380512281186
-0.000252948621626
0.000192379037106
-0.00030442023024
-0.000382799266202
-0.000408651725837
-0.0004185471357
-0.00042232145663
-0.000423939547067
-0.000424921467806
-0.00042579868585
-0.000426733831254
-0.000427735553237
-0.000428587205943
-0.000428081247867
-0.000420738316623
-0.000388145609462
-0.000284558662376
8.66941957651e-05
-0.000304622780072
-0.000382829962883
-0.000408350703884
-0.000418030811523
-0.000421687927864
-0.000423247490159
-0.000424199521226
-0.000425058037948
-0.00042598418079
-0.00042700949823
-0.000428015464828
-0.000428101474452
-0.000422779715108
-0.000396737429343
-0.000314169891331
-1.01924646155e-05
)
;
    }
    atmosphere
    {
        type            calculated;
        value           nonuniform List<scalar> 0();
    }
    floatingObject
    {
        type            calculated;
        value           nonuniform List<scalar> 0();
    }
    procBoundary7to6
    {
        type            processor;
        value           nonuniform List<scalar> 
11
(
-0.000203323014211
-0.000196244962231
-0.000194804807407
-0.000202207249696
-0.000213022580012
-0.000228597535082
-0.000228597535082
0.000263757343873
0.00210757602035
0.00196436601092
0.00163052703817
)
;
    }
    procBoundary7to8
    {
        type            processor;
        value           nonuniform List<scalar> 
17
(
-0.000299715805095
-0.000377081796752
-0.00040530831957
-0.00041715895736
-0.000422265344908
-0.000424668850241
-0.000426096289242
-0.000427220116933
-0.000428684014117
-0.000428684014117
-0.000428963879982
-0.000427235665318
-0.000420296939188
-0.000420296939188
-0.000397700807455
-0.000338882102191
-0.000338882102191
)
;
    }
    procBoundary7to9
    {
        type            processor;
        value           nonuniform List<scalar> 
16
(
-0.000304802831857
-0.000382833902063
-0.000408004825806
-0.000417461793186
-0.000420999471268
-0.000422503380319
-0.000423429088768
-0.000424275436711
-0.000425205295836
-0.000426277016054
-0.00042747691027
-0.000428256169163
-0.000425344204273
-0.000406265237668
-0.00033920281617
-8.43917209937e-05
)
;
    }
}


// ************************************************************************* //
