/*--------------------------------*- C++ -*----------------------------------*\
| =========                 |                                                 |
| \\      /  F ield         | OpenFOAM: The Open Source CFD Toolbox           |
|  \\    /   O peration     | Version:  v2012                                 |
|   \\  /    A nd           | Website:  www.openfoam.com                      |
|    \\/     M anipulation  |                                                 |
\*---------------------------------------------------------------------------*/
FoamFile
{
    version     2.0;
    format      ascii;
    class       volScalarField;
    location    "1.5";
    object      nut;
}
// * * * * * * * * * * * * * * * * * * * * * * * * * * * * * * * * * * * * * //

dimensions      [0 2 -1 0 0 0 0];


internalField   nonuniform List<scalar> 
167
(
0.00122729849245
0.00122955909456
0.00123061946381
0.00123155118599
0.00123257247692
0.00123372742254
0.00123506727835
0.00123681209277
0.00118919033262
0.00121809581819
0.00122595195486
0.00122822527709
0.0012293162611
0.00123028657769
0.00123135109139
0.00123255398671
0.00123395280124
0.00123579734671
0.00123905911348
0.00118790138077
0.00121673141766
0.00122456686843
0.00122685851968
0.00122798593902
0.00122900082395
0.00123011454991
0.00123137130493
0.00123283530747
0.00123478800334
0.001238310014
0.00118656196547
0.00121532511948
0.00122314655148
0.00122546278044
0.00122663290548
0.00122769865366
0.00122886777868
0.00123018438146
0.0012317198613
0.0012337880779
0.000802004593293
0.0011851749071
0.0012138803587
0.00122169542161
0.00122404329871
0.00122526303726
0.0012263864114
0.00122761741237
0.00122899993946
0.00123061251948
0.0012328032368
0.000800940546835
0.0011837436745
0.00121240134325
0.00122021872627
0.00122260628065
0.00122388332047
0.00122507163196
0.00122637129448
0.00122782590136
0.00122952159506
0.00123184017361
0.000799833613874
0.00118227160715
0.00121089270636
0.00121872242834
0.00122115887025
0.00122250180097
0.00122376289605
0.00122513809868
0.00122667089556
0.00122845371692
0.000798685764352
0.00118076200457
0.00120935921598
0.00121721293395
0.00121970888847
0.00122112727889
0.00122246943191
0.00122392698254
0.00122554264177
0.000797498730805
0.00117921666193
0.0012078040962
0.00121569536681
0.00121826304731
0.00121976741808
0.00122119916855
0.00122274542861
0.00122444866384
0.00079627159511
0.00117763004905
0.00120622224106
0.00121416639618
0.00121681950815
0.00121842101685
0.00121995073935
0.00122159138769
0.00122338568621
0.00122545212186
0.00079499212118
0.00117596858283
0.00120457602501
0.00121258863527
0.00121534146495
0.00121705079065
0.00121868516166
0.00122042324235
0.00122230850837
0.00122446844233
0.00079360568847
0.00117410071695
0.00120271478415
0.00121080597863
0.00121367051371
0.00121549536218
0.00121723686942
0.0012190704574
0.00122104111123
0.00122328526594
0.00079190923996
0.00117157308049
0.0012001219232
0.00120828043036
0.00121125955241
0.00121319989557
0.00121504226765
0.00121695956663
0.00121899929019
0.00122130704114
0.000789207293914
0.00116693456344
0.00119517015564
0.0012033269607
0.00120640245191
0.00120844458801
0.00121036828755
0.00121234363602
0.0012144218755
0.00121675608641
0.000783252020193
0.0011557924248
0.0011830380335
0.00119099928703
0.00119411799024
0.00119623405781
0.00119820977046
0.00120020929348
0.0012022866743
0.000766969896856
0.00112512032366
0.00114975133343
0.00115708120117
0.0011601483717
0.00116232172649
0.0011643484307
0.00116637502125
0.00116845559624
0.000634340635838
0.000765289266844
0.000778282473748
0.000782351644111
0.000784467403357
0.000786235170842
0.000787970770027
0.000789731952343
0.000791543421135
)
;

boundaryField
{
    back
    {
        type            nutkWallFunction;
        blending        stepwise;
        Cmu             0.09;
        kappa           0.41;
        E               9.8;
        value           nonuniform List<scalar> 
167
(
0.000120101891396
0.000120299232681
0.000120392776202
0.000120475821887
0.000120567125713
0.000120670397366
0.000120789864033
0.000120943922081
0.0001167373077
0.000119293195398
0.000119981620518
0.000120180101299
0.000120276341691
0.000120362771192
0.000120457849066
0.000120565281164
0.000120689802684
0.000120852301939
0.000121135307029
0.000116621952127
0.000119171239107
0.000119857871605
0.000120057988318
0.000120157440924
0.000120247781975
0.000120347161477
0.000120459271388
0.000120589384881
0.000120761029992
0.000121065994063
0.000116502028589
0.000119045505688
0.000119730945139
0.000119933254785
0.000120036476468
0.00012013128714
0.000120235515674
0.00012035283043
0.000120489082215
0.000120670479733
0.000106025138869
0.00011637779771
0.000118916309811
0.000119601246333
0.0001198063804
0.000119913986309
0.000120013868335
0.000120123521648
0.000120246579796
0.000120389456887
0.000120581184396
0.000105896370462
0.000116249581123
0.000118784037528
0.000119469253855
0.000119677929936
0.000119790606074
0.000119896212026
0.000120011896266
0.000120141245914
0.000120291280041
0.00012049377133
0.000105762343221
0.000116117688455
0.000118649112778
0.000119335509705
0.00011954855122
0.000119667065261
0.000119779097329
0.00011990142845
0.000120037618316
0.000120195155725
0.000105623312635
0.000115982428331
0.000118511973525
0.000119200597535
0.000119418954695
0.000119544162946
0.000119663362835
0.000119792952517
0.000119936399035
0.000105479508711
0.000115843982142
0.000118372929449
0.000119064997306
0.000119289763277
0.000119422608598
0.000119549743508
0.000119687164918
0.000119838295435
0.000105330855319
0.000115701901644
0.000118231578793
0.000118928470403
0.000119160874842
0.000119302360128
0.000119438186531
0.000119583957781
0.000119743098059
0.000119925162545
0.000105175957805
0.00011555330304
0.000118084706797
0.0001187878385
0.000119029171447
0.000119180263645
0.000119325393048
0.000119479803892
0.000119646966403
0.000119837151336
0.000105008442035
0.000115386721235
0.000117919224238
0.000118629566574
0.000118880932696
0.000119042346722
0.000119197029827
0.000119359942714
0.000119534672213
0.000119732204635
0.000104804352618
0.000115162271177
0.000117689803122
0.000118406508178
0.000118668239271
0.000118840022724
0.000119003749004
0.000119174168173
0.000119355078362
0.000119558211103
0.000104480965048
0.000114751304262
0.00011725250649
0.000117969753219
0.00011824036413
0.000118421374685
0.000118592474126
0.000118768193647
0.000118952662714
0.000119158226158
0.000103769002158
0.000113761718315
0.000116177837839
0.000116878972148
0.00011715395522
0.000117341820951
0.000117517770359
0.000117695868614
0.000117880507912
0.000101816027094
0.000111023016202
0.000113212295978
0.000113859662047
0.00011413103408
0.0001143245067
0.000114505386952
0.00011468627604
0.000114871624986
9.53854007279e-05
0.000101615564789
0.000103167645664
0.000103652647925
0.000103906618765
0.000104119970922
0.000104329679017
0.000104542392914
0.00010476085125
)
;
    }
    sides
    {
        type            nutkWallFunction;
        blending        stepwise;
        Cmu             0.09;
        kappa           0.41;
        E               9.8;
        value           nonuniform List<scalar> 9(5.07628109797e-05 5.40806222288e-05 5.49069719675e-05 5.51651785458e-05 5.53003851925e-05 5.54139660996e-05 5.55256056734e-05 5.56388440246e-05 5.57551389862e-05);
    }
    bottom
    {
        type            nutkWallFunction;
        blending        stepwise;
        Cmu             0.09;
        kappa           0.41;
        E               9.8;
        value           nonuniform List<scalar> 
13
(
5.64281462029e-05
5.6359602256e-05
5.62882584783e-05
5.62142508051e-05
5.61377016098e-05
5.60585703027e-05
5.59761144039e-05
5.58869406628e-05
5.57782964988e-05
5.56061430116e-05
5.52271223841e-05
5.41873554564e-05
5.07628109797e-05
)
;
    }
    front
    {
        type            nutkWallFunction;
        blending        stepwise;
        Cmu             0.09;
        kappa           0.41;
        E               9.8;
        value           nonuniform List<scalar> 
167
(
0.000120101891396
0.000120299232681
0.000120392776202
0.000120475821887
0.000120567125713
0.000120670397366
0.000120789864033
0.000120943922081
0.0001167373077
0.000119293195398
0.000119981620518
0.000120180101299
0.000120276341691
0.000120362771192
0.000120457849066
0.000120565281164
0.000120689802684
0.000120852301939
0.000121135307029
0.000116621952127
0.000119171239107
0.000119857871605
0.000120057988318
0.000120157440924
0.000120247781975
0.000120347161477
0.000120459271388
0.000120589384881
0.000120761029992
0.000121065994063
0.000116502028589
0.000119045505688
0.000119730945139
0.000119933254785
0.000120036476468
0.00012013128714
0.000120235515674
0.00012035283043
0.000120489082215
0.000120670479733
0.000106025138869
0.00011637779771
0.000118916309811
0.000119601246333
0.0001198063804
0.000119913986309
0.000120013868335
0.000120123521648
0.000120246579796
0.000120389456887
0.000120581184396
0.000105896370462
0.000116249581123
0.000118784037528
0.000119469253855
0.000119677929936
0.000119790606074
0.000119896212026
0.000120011896266
0.000120141245914
0.000120291280041
0.00012049377133
0.000105762343221
0.000116117688455
0.000118649112778
0.000119335509705
0.00011954855122
0.000119667065261
0.000119779097329
0.00011990142845
0.000120037618316
0.000120195155725
0.000105623312635
0.000115982428331
0.000118511973525
0.000119200597535
0.000119418954695
0.000119544162946
0.000119663362835
0.000119792952517
0.000119936399035
0.000105479508711
0.000115843982142
0.000118372929449
0.000119064997306
0.000119289763277
0.000119422608598
0.000119549743508
0.000119687164918
0.000119838295435
0.000105330855319
0.000115701901644
0.000118231578793
0.000118928470403
0.000119160874842
0.000119302360128
0.000119438186531
0.000119583957781
0.000119743098059
0.000119925162545
0.000105175957805
0.00011555330304
0.000118084706797
0.0001187878385
0.000119029171447
0.000119180263645
0.000119325393048
0.000119479803892
0.000119646966403
0.000119837151336
0.000105008442035
0.000115386721235
0.000117919224238
0.000118629566574
0.000118880932696
0.000119042346722
0.000119197029827
0.000119359942714
0.000119534672213
0.000119732204635
0.000104804352618
0.000115162271177
0.000117689803122
0.000118406508178
0.000118668239271
0.000118840022724
0.000119003749004
0.000119174168173
0.000119355078362
0.000119558211103
0.000104480965048
0.000114751304262
0.00011725250649
0.000117969753219
0.00011824036413
0.000118421374685
0.000118592474126
0.000118768193647
0.000118952662714
0.000119158226158
0.000103769002158
0.000113761718315
0.000116177837839
0.000116878972148
0.00011715395522
0.000117341820951
0.000117517770359
0.000117695868614
0.000117880507912
0.000101816027094
0.000111023016202
0.000113212295978
0.000113859662047
0.00011413103408
0.0001143245067
0.000114505386952
0.00011468627604
0.000114871624986
9.53854007279e-05
0.000101615564789
0.000103167645664
0.000103652647925
0.000103906618765
0.000104119970922
0.000104329679017
0.000104542392914
0.00010476085125
)
;
    }
    atmosphere
    {
        type            calculated;
        value           nonuniform List<scalar> 0();
    }
    floatingObject
    {
        type            nutkWallFunction;
        blending        stepwise;
        Cmu             0.09;
        kappa           0.41;
        E               9.8;
        value           nonuniform List<scalar> 0();
    }
    procBoundary10to9
    {
        type            processor;
        value           nonuniform List<scalar> 
15
(
0.00122859972651
0.00123085344076
0.00123188862227
0.00123278736372
0.00123377120502
0.00123488416666
0.00123617113091
0.00123782500326
0.00119042381619
0.00121941377955
0.00121941377955
0.000804915942403
0.000803994500188
0.00080302331929
0.00080302331929
)
;
    }
    procBoundary10to11
    {
        type            processor;
        value           nonuniform List<scalar> 
23
(
0.001239828741
0.001239828741
0.00124690242927
0.00124687528219
0.0012375849851
0.0012375849851
0.00123688631565
0.00123621865233
0.00123090578544
0.00123090578544
0.00122741746463
0.00122741746463
0.00122641869744
0.00122641869744
0.00122831696758
0.00122746378941
0.00122639621821
0.0012245057585
0.0012199958998
0.00120460124407
0.00120460124407
0.00117074474534
0.000793483266577
)
;
    }
}


// ************************************************************************* //
