/*--------------------------------*- C++ -*----------------------------------*\
| =========                 |                                                 |
| \\      /  F ield         | OpenFOAM: The Open Source CFD Toolbox           |
|  \\    /   O peration     | Version:  v2012                                 |
|   \\  /    A nd           | Website:  www.openfoam.com                      |
|    \\/     M anipulation  |                                                 |
\*---------------------------------------------------------------------------*/
FoamFile
{
    version     2.0;
    format      ascii;
    class       volScalarField;
    location    "4.6";
    object      epsilon;
}
// * * * * * * * * * * * * * * * * * * * * * * * * * * * * * * * * * * * * * //

dimensions      [0 2 -3 0 0 0 0];


internalField   nonuniform List<scalar> 
1984
(
0.000538616366667
0.000604598804744
0.000651986741752
0.000672432719964
0.00068326381511
0.000690834592638
0.000697425737582
0.000703901403694
0.000710687280803
0.000718346987838
0.000728140489679
0.000743072736242
0.000769815731232
0.000824804200936
0.0009594916625
0.00135273240758
0.00248934312676
0.00548854933045
0.0174594888653
0.0930257322551
0.000607245835684
0.000620166270727
0.000679054774753
0.00070344659783
0.000715153704011
0.00072239549664
0.000728212078448
0.000733752257567
0.000739588550771
0.000746449236393
0.000755905849689
0.000771499415639
0.000801251043992
0.000865645271671
0.00102690087674
0.00147487140322
0.00268644299618
0.00619502171527
0.0230760823333
0.113787108884
0.000653213265225
0.000677475558962
0.00074534922885
0.000773276046777
0.000786252272581
0.000793930798636
0.000799938896324
0.000805631782524
0.000811693553735
0.000818968904281
0.000829277468659
0.000846657935609
0.000880231476906
0.000953268246438
0.00113446419933
0.00162538941407
0.00292605853454
0.0067436193708
0.0262181167266
0.155517657683
0.000672401153798
0.00070088587841
0.00077245773032
0.000801749249375
0.000815066862604
0.000822726390843
0.00082863236006
0.000834246624193
0.000840282211104
0.000847634132465
0.000858177061053
0.000876095003226
0.000910816423757
0.000986497220495
0.00117399294651
0.0016763131917
0.00298530149471
0.0068010624723
0.0269025557452
0.147896454641
0.000682221754723
0.000711959815078
0.00078503499135
0.000814763295137
0.000828040020468
0.000835501461873
0.000841192676244
0.000846622443712
0.000852521351773
0.000859765914619
0.000870225333699
0.000888041575414
0.000922582606508
0.000998198481168
0.00118686334521
0.00169221560743
0.00299153606762
0.0066009618539
0.0249332564574
0.164098655921
0.000688812379749
0.000718688717633
0.000792405327861
0.000822197845629
0.000835290736568
0.000842495889748
0.000847935033196
0.000853140635138
0.000858846033639
0.000865908750389
0.000876130147037
0.000893571298701
0.0009274134168
0.00100195461934
0.00119009387786
0.00169849632946
0.00300539987001
0.00649021002721
0.0214362486183
0.121573147125
0.000694283197761
0.000723942466443
0.000797965813785
0.000827692102761
0.000840564005388
0.000847508615748
0.000852693948757
0.000857668202037
0.000863158860746
0.000870003471039
0.000879938367276
0.000896927918761
0.0009299829383
0.00100324736174
0.00118991503762
0.0016986885753
0.00301981545807
0.0065432791532
0.0200310799359
0.101354066833
0.000699335314085
0.000728701143022
0.000802909756473
0.000832534468408
0.000845190651932
0.00085189232384
0.000856841776876
0.000861594580797
0.000866874791747
0.000873493373945
0.000883135329211
0.000899676609332
0.000931987243426
0.00100399328464
0.0011885279291
0.0016942257135
0.00301969134852
0.00667792180336
0.0221648518464
0.105284811531
0.000704164036028
0.000733273898878
0.000807629243484
0.00083715014277
0.000849609803118
0.000856093948571
0.000860831401394
0.000865383997391
0.000870468133741
0.000876873898006
0.000886230794231
0.000902342429928
0.000933947377448
0.00100466752741
0.00118650944587
0.00168696835335
0.00301096242928
0.00680783724025
0.0246715904607
0.130155550013
0.000708821690857
0.000737726938515
0.000812228987923
0.000841657066845
0.000853941855322
0.000860235254453
0.000864786785528
0.000869162029487
0.000874072683894
0.000880281703905
0.000889375769813
0.000905085790151
0.000936059633619
0.00100565232553
0.00118508975183
0.00168136153831
0.00301061890795
0.00690184511611
0.0252171077572
0.128458782935
0.000713313919488
0.000742056752581
0.000816719870472
0.000846069242752
0.000858200157321
0.000864327628467
0.000868718761153
0.000872941806283
0.000877698759426
0.000883731804255
0.00089258730853
0.000907936538593
0.000938421346588
0.00100738849592
0.00118605398564
0.00168315743354
0.00303259014876
0.00700706297335
0.0241982479977
0.115765690834
0.000717620648107
0.000746291403214
0.000821096279141
0.000850372496597
0.000862366674586
0.000868349519407
0.000872604039616
0.000876698029775
0.000881325999345
0.000887198125753
0.000895830416228
0.000910839436397
0.000940903864436
0.00100955520992
0.00118861135404
0.00169023862543
0.00306104852416
0.00700580182761
0.0238444956519
0.10598681853
0.000721716887368
0.000750370319767
0.00082533063263
0.000854544870385
0.000866415663934
0.000872273037306
0.000876411539447
0.000880399090821
0.000884917316583
0.000890651255427
0.000899068072028
0.000913708275388
0.000943207637617
0.00101104222292
0.00118921129919
0.00169295402196
0.00307318197175
0.00692715408381
0.0253728222399
0.141276901486
0.00072560243335
0.000754301074836
0.000829405328025
0.000858560922243
0.000870321330605
0.00087606992673
0.000880111535692
0.000884013102058
0.00088844253793
0.000894051974905
0.0009022690898
0.000916517647253
0.000945290492707
0.00101169587021
0.00118738914851
0.00168985435362
0.00307949205296
0.00693281550212
0.024661466987
0.146478413211
0.000729265327813
0.000758039676586
0.000833291369364
0.000862398137458
0.000874060354771
0.000879715195721
0.000883676592276
0.000887510069339
0.000891863703928
0.000897368143292
0.000905403596555
0.000919285366668
0.000947346644777
0.0010123742425
0.00118599429629
0.00168840250829
0.00309422805887
0.00721081401545
0.0277381302977
0.156761975373
0.000732695794327
0.000761608085553
0.000836981136116
0.000866037603677
0.000877609625272
0.000883186082759
0.00088708524361
0.000890857396439
0.000895148012679
0.000900564941549
0.00090843508071
0.000922016253808
0.000949600307911
0.00101408369883
0.00118799865708
0.0016951461429
0.0031234504285
0.00755074043712
0.032196464589
0.160218980005
0.000735877882853
0.000764972838744
0.000840460085057
0.00086946295653
0.000880962356907
0.000886468868037
0.000890313835849
0.000894035358962
0.000898281301981
0.000903619811487
0.00091133647618
0.000924668133637
0.000951917599989
0.00101645950625
0.00119253933508
0.00171050329034
0.0031825635702
0.00806422085728
0.0364959530307
0.161675438309
0.000738795745337
0.000768105967845
0.000843706903117
0.000872677644648
0.000884098606066
0.000889546736059
0.00089335533477
0.000897043244266
0.000901237495228
0.000906503702621
0.000914076675957
0.000927136006989
0.00095401185489
0.00101860635942
0.00119774170937
0.00173331511495
0.00330694682416
0.00897024358404
0.040721590835
0.16270004046
0.000741429457579
0.000771014986871
0.000846726795433
0.000875653582283
0.000887013781944
0.000892429171801
0.000896200216029
0.000899864946986
0.00090403215657
0.000909245021644
0.000916690462834
0.000929485575996
0.000955961893568
0.00102061209954
0.00120374431275
0.00176522484196
0.00349905895
0.0101914830412
0.0451059583023
0.164041613264
0.000743844322125
0.000773691617412
0.000849488256311
0.00087837686362
0.000889696044241
0.000895070401282
0.000898823898847
0.000902481938084
0.00090664039841
0.000911818386299
0.00091916049739
0.000931721833102
0.00095789663382
0.00102301074541
0.00121234427658
0.00181113583597
0.00376748035305
0.011671864736
0.0495993006834
0.165303377201
0.000746107030585
0.000776089929857
0.000851965258936
0.000880827184985
0.00089211015743
0.000897467761382
0.000901219517975
0.000904882383163
0.000909044163378
0.000914206102888
0.000921473640152
0.000933854458036
0.000959886522764
0.00102617325319
0.00122449227525
0.00187317055695
0.00411850815924
0.0133532413247
0.0532292588655
0.165483722023
0.000748149762698
0.000778199706434
0.000854146507365
0.000882993002945
0.000894256624775
0.00089961113071
0.000903373605552
0.000907053344641
0.000911230650958
0.000916390106958
0.000923603984417
0.000935852802123
0.000961887973836
0.00102979166376
0.00123903301881
0.0019472753973
0.0045140640584
0.0148458293234
0.0523904765388
0.148870948964
0.000749940260055
0.000780025735482
0.000856036628298
0.000884875639626
0.000896130607475
0.000901492035251
0.000905274354615
0.000908981954106
0.000913186339827
0.000918356631175
0.000925531017446
0.000937683870442
0.000963797813409
0.0010334336258
0.00125255880944
0.00201292536234
0.00486277285691
0.0159412871053
0.0498222483405
0.115160177026
0.000751408205571
0.00078156045858
0.000857629376527
0.000886467295936
0.000897723489099
0.000903101661799
0.000906913225053
0.000910657963379
0.000914899597841
0.000920093175358
0.000927243724716
0.000939319474875
0.000965480903297
0.00103647581228
0.0012634433368
0.00206596020999
0.0051299273312
0.0167432880836
0.0488294995955
0.110846100021
0.000752582639781
0.000782800908165
0.000858917041798
0.000887757930814
0.000899024753703
0.000904429627477
0.000908281295239
0.000912074489521
0.000916364408868
0.000921594952781
0.000928735632468
0.000940727352699
0.000966855625535
0.00103870300929
0.00127169154627
0.00211006070972
0.00532205740682
0.0171040687742
0.0503890384929
0.148317540823
0.000753415477082
0.000783736385384
0.000859886782795
0.000888735908414
0.000900024075765
0.000905467862645
0.000909373147365
0.000913226980724
0.000917577676793
0.000922859511332
0.000930003526524
0.000941904441088
0.000967884278234
0.00103999072582
0.00127683726345
0.00214242173131
0.00546173960896
0.0173345283063
0.052546150795
0.160582897895
0.000753907841632
0.000784358097965
0.000860524882288
0.000889386550229
0.000900709027525
0.000906207132324
0.000910181372716
0.000914113068927
0.000918542202113
0.000923887939758
0.000931053946147
0.000942889181395
0.000968707763495
0.00104077366191
0.00127944257263
0.00216145621315
0.0055520827745
0.0175190655711
0.0532489944724
0.162136640938
0.000754078813344
0.00078466137577
0.000860818868725
0.000889693967936
0.000901061965109
0.000906627998406
0.000910685481216
0.000914711391357
0.000919240260097
0.000924673562066
0.000931894519271
0.000943728893832
0.000969516950932
0.00104178760158
0.00128200063803
0.00217481892306
0.00562116867685
0.0177472521616
0.0538522998699
0.162475086882
0.00075391916711
0.000784617796781
0.000860742582099
0.000889639141596
0.000901070128678
0.000906722088632
0.000910880488588
0.000915020647046
0.000919677529223
0.000925237160265
0.00093256751305
0.000944519540943
0.000970592526407
0.00104388544654
0.00128769660342
0.00219520975197
0.00568889084411
0.0179044211105
0.0543026165303
0.162604643387
0.000753432455993
0.000784203612082
0.000860268232205
0.000889200013479
0.000900717935054
0.000906478659202
0.000910758528222
0.000915033298045
0.000919841385368
0.000925570444222
0.000933104964161
0.000945403145519
0.000972308339594
0.00104741708124
0.00129316448981
0.00219833735228
0.0057139039262
0.0182267605952
0.0555869587209
0.163492645126
0.00075264252262
0.000783407334857
0.000859372575131
0.000888354547069
0.000899987758937
0.000905883504987
0.000910308508081
0.000914743833811
0.000919734908571
0.000925688212046
0.000933563296337
0.000946601638054
0.000975398878723
0.00105447052262
0.00130409695486
0.00220401643197
0.00575759349703
0.0188276920694
0.0575838734431
0.164845663085
0.000751499290203
0.000782202163832
0.000858038073052
0.000887086648178
0.000898865216272
0.000904925410249
0.000909522921221
0.000914147127564
0.0009193571594
0.000925599606041
0.000933995296363
0.00094835320534
0.000980752175017
0.0010680550564
0.00133069578016
0.00224045088094
0.00580073863788
0.0189213546951
0.0578118375268
0.165088936629
0.000749936093918
0.000780560622637
0.000856251329826
0.000885387405789
0.000897341928785
0.000903597049858
0.000908395944029
0.000913235914112
0.000918698163534
0.000925293070376
0.000934404705704
0.000950729456671
0.000988690722632
0.00108952720835
0.00137880939643
0.00233080315435
0.00591802546302
0.0188368738194
0.0573262508174
0.16488388098
0.000747937200292
0.00077847361073
0.00085400190985
0.000883246322542
0.000895407695078
0.000901889058888
0.000906917474678
0.00091199796605
0.000917740102177
0.000924738869822
0.000934703671134
0.000953409990549
0.000998098120978
0.00111532337683
0.00143857707199
0.00245319983118
0.00611183537726
0.0188447878755
0.0566066972331
0.164460449188
0.000745495740681
0.000775934829959
0.000851280720718
0.000880653143432
0.00089305252758
0.00089979133045
0.000905074355904
0.000910423754956
0.000916471391894
0.00092389243183
0.000934705903069
0.000955694544678
0.00100667074286
0.001139153088
0.00149541423399
0.0025781039212
0.00633238358413
0.0189429650307
0.056055613052
0.164069774477
0.000742587958245
0.000772935663034
0.000848080019573
0.000877599372614
0.000890266053872
0.000897292539906
0.00090286728186
0.000908518790871
0.000914892358088
0.000922719905477
0.000934226365915
0.000956856707408
0.00101204825474
0.00115450477036
0.00153328963354
0.00266877913284
0.00650646930833
0.0189656479215
0.0553515854438
0.163589141514
0.000739190957159
0.000769469745362
0.000844397378238
0.000874077266988
0.000887043884903
0.000894399116584
0.000900306668836
0.000906294929846
0.000913020809535
0.000921238240178
0.000933257917879
0.000956819225311
0.00101391193939
0.00116046476712
0.00155097945359
0.00272714022395
0.00667650061717
0.0192105857111
0.0551231033837
0.163176577132
0.000735293071264
0.000765539957618
0.000840237622566
0.000870096215568
0.000883395208875
0.000891118694974
0.000897399646572
0.000903768530643
0.000910885004702
0.000919505571228
0.000932018117297
0.000956230198016
0.00101411416073
0.0011616795504
0.0015571129983
0.00276409574871
0.0068369749477
0.0195923036543
0.0554421751064
0.163168123993
0.000730873711991
0.000761155659844
0.000835616244765
0.000865668897267
0.000879327478037
0.000887457294567
0.000894158019824
0.000900957037599
0.000908505033998
0.000917573439713
0.000930566899462
0.000955241275893
0.00101333690759
0.00116080240895
0.00155951503069
0.0027977348688
0.00700034114477
0.0200371824287
0.05610330457
0.163409775348
0.000725991732904
0.000756331958396
0.000830549975377
0.000860809759901
0.00087485390097
0.000883430087557
0.000890604375381
0.000897889689713
0.000905915062366
0.000915429876169
0.000928687269384
0.000953046160767
0.00100950849398
0.00115436389792
0.00155634927088
0.00283423166096
0.00716755838271
0.020278756167
0.055844709216
0.162989600322
0.00072056596647
0.000751101435475
0.000825075988205
0.000855548389941
0.000869998507164
0.000879057798706
0.000886757286974
0.000894577508265
0.000903151391239
0.000913122076894
0.000926430832114
0.000949589728252
0.00100232473372
0.00114168111555
0.00154807332126
0.00287718064544
0.00730657471797
0.0202054823277
0.0547346307663
0.162077440258
0.000714754299046
0.000745525590985
0.000819251895139
0.000849933182873
0.000864789486058
0.000874351529084
0.000882598233187
0.000891025468729
0.000900241177416
0.000910812825269
0.000924345735847
0.00094650517515
0.000995980645139
0.00113174286607
0.00155103811875
0.00295385241558
0.00749670064393
0.0202308253852
0.0539120403275
0.161292915351
0.000708522221488
0.000739667059365
0.000813149174677
0.000844013485963
0.000859255020389
0.000869280931662
0.000878063265878
0.000887095355486
0.000897020246715
0.000908409102463
0.000922646439767
0.000944859295428
0.000993214664977
0.00112872718674
0.00156394895565
0.00304058885384
0.0076943375421
0.0202942275228
0.0531434661439
0.160569047201
0.000701943620437
0.000733645072116
0.00080688328352
0.000837875985429
0.000853386359565
0.000863721948263
0.000872812174303
0.000882203336194
0.000892783036971
0.000905262431755
0.000920818727671
0.000944454304307
0.00099469022247
0.00113432364677
0.00158531150492
0.00311844150535
0.00785995123995
0.0202981271393
0.0523393809097
0.159975417864
0.000695194267275
0.000727617478762
0.000800593426211
0.000831580910452
0.000847081112231
0.000857202797331
0.00086575643783
0.000874527825947
0.000885327915473
0.00089912315463
0.000916344997951
0.000942349276429
0.000998323582224
0.00114969126998
0.00161802955161
0.00319192120072
0.00802953641738
0.0204789664028
0.0521098437059
0.159815686788
0.000688543699386
0.000721774509939
0.000794452900928
0.000825162689305
0.00083997860357
0.000848469678732
0.000854047396635
0.000859131417314
0.000868060390366
0.000882806712005
0.00090138579357
0.000930308178543
0.00100152935265
0.00118229154581
0.00168825671705
0.00331389270556
0.00819078156264
0.0204882301491
0.0515452566295
0.15948678652
0.00068212037694
0.000716331500722
0.000788639260397
0.000818608117898
0.000831396331136
0.000834884779831
0.000830463322596
0.000820704024821
0.000816917508111
0.000831057960929
0.000851671374976
0.000891375748442
0.00100850189347
0.00124665400154
0.00181814313352
0.00350963685248
0.00837058948306
0.0203777422463
0.0505381977215
0.157300577741
0.00067618104586
0.000711471459982
0.000783310471603
0.000811955893009
0.000820849848034
0.000813160877926
0.000780856227524
0.000717769416079
0.000845003088377
0.000850880282042
0.000890923323662
0.00105786714294
0.00102983791718
0.0013749814848
0.00203709270548
0.00379736486576
0.00855001719044
0.0199913733284
0.0476223263974
0.116377713072
0.000670883492932
0.000707394015823
0.000778798481271
0.000805949410013
0.000811354816394
0.000796857001418
0.000746523734305
0.000783178747936
0.00138628862646
0.00158342369033
0.00236302711467
0.00415103292159
0.00871499127863
0.0196483949697
0.0454757110618
0.101579218637
0.000667392938845
0.000705104208069
0.000776465722
0.000802923676258
0.000806302494633
0.000786950345613
0.000725590340144
0.000716233482421
0.00153138567316
0.00181238255623
0.00265406674657
0.00440510985051
0.0088250976539
0.0199643986873
0.0476687376567
0.115201304852
0.000667376567222
0.000705089232106
0.000776456623799
0.000802921514009
0.000806307120032
0.000786969905802
0.000725636080627
0.00071641669971
0.00153083885368
0.00180938768189
0.00263989574534
0.0043644682819
0.00882621338689
0.0205317324995
0.0500339770567
0.127969778646
0.000670852556614
0.00070737420248
0.000778791239818
0.000805955252616
0.000811372953512
0.000796887947333
0.000746565332574
0.000783391852739
0.00138439691834
0.00157683689479
0.00233769248276
0.00409075893693
0.00873964716328
0.0206212879912
0.050286180918
0.129165675743
0.000676140274486
0.000711456544035
0.000783311521121
0.000811974076176
0.000820880118209
0.000813160427464
0.000780796117369
0.000717709395895
0.000845156851847
0.000851062141446
0.000891312503072
0.00105818726907
0.00102914732184
0.00137188702864
0.00202618109393
0.00377392367629
0.00856341713736
0.0204304085805
0.0498564243957
0.129775672126
0.000682141870238
0.00071634919155
0.000788667903218
0.000818653764481
0.000831460138645
0.000834965498781
0.00083059319447
0.000820877420673
0.000817134474173
0.000831349088632
0.000852146959991
0.00089223920643
0.0010098823016
0.00125160584389
0.00183596335516
0.00354698947523
0.00839708157432
0.0203754900634
0.0504919409865
0.14569160497
0.000688607673592
0.000721814023959
0.000794501839419
0.000825228932409
0.000840065171826
0.000848579511608
0.000854185413887
0.000859297850087
0.000868273066598
0.000883109419916
0.000901925341095
0.000931575462214
0.001004793812
0.00119353706561
0.00172657885155
0.00339495055289
0.00826395377306
0.0204655657542
0.0514234447333
0.159187752683
0.000695275074634
0.000727670198178
0.000800654253599
0.000831654791619
0.000847170276347
0.00085731182822
0.000865891577514
0.000874684721241
0.000885512918798
0.000899373161093
0.000916800270631
0.000943476332847
0.00100168089641
0.00116146570014
0.00165798308335
0.00328239858059
0.00810648048814
0.0203765734955
0.051826526898
0.159782978036
0.000702013073639
0.000733701675604
0.000806944502933
0.000837955435177
0.000853478491168
0.000863827080432
0.000872936476069
0.000882341982072
0.00089293561285
0.000905448376758
0.0009211142068
0.000945160198525
0.000996877471866
0.00114200084353
0.00161180865196
0.00318407800739
0.00791419412852
0.0200908588267
0.0517578996287
0.15981934698
0.000708604082872
0.000739728928194
0.000813216620138
0.000844095445723
0.000859351092555
0.000869386011522
0.000878174882892
0.000887214802173
0.000897150163565
0.00090855964899
0.000922832838011
0.000945212003307
0.000994153552823
0.00113185320593
0.00157624235875
0.00308246440756
0.00772125585391
0.0199000160826
0.0519453641519
0.160081854856
0.000714864674118
0.000745596533141
0.000819326860454
0.000850014875734
0.000864883175854
0.000874452232019
0.000882699299304
0.000891125643204
0.000900339975395
0.000910915258247
0.000924472514073
0.000946710772466
0.000996520510334
0.00113410655106
0.00156370954162
0.00300685657481
0.00755346234741
0.0197476923205
0.0522202598933
0.16043293967
0.000720682512502
0.000751180416853
0.000825154498165
0.000855632409194
0.0008700872534
0.000879150479128
0.000886844465075
0.000894660602653
0.000903227511192
0.000913201131274
0.000926535672387
0.000949811557659
0.0010033724193
0.00114741116497
0.00157603003993
0.00297261923263
0.00743166298817
0.0198359816436
0.0532987815886
0.161234792739
0.000726108332935
0.000756412426507
0.00083063005199
0.000860894304765
0.000874943541518
0.000883522538834
0.000890694275942
0.00089796825387
0.000905989488934
0.000915504536371
0.000928778789247
0.000953223130884
0.00101036822159
0.00115940263484
0.00158093389475
0.00291949855945
0.00730315809562
0.0201192581821
0.0550269122766
0.162479152778
0.000730987863157
0.00076123771663
0.000835699195142
0.000865756782952
0.000879421317509
0.000887555608649
0.000894257717861
0.000901053450129
0.000908597368613
0.000917665087858
0.000930661099641
0.000955341365719
0.00101353803233
0.00116214062945
0.00156821501738
0.00283753442121
0.00710959891155
0.0201128134251
0.0558311467728
0.163220537925
0.000735416682296
0.000765628443138
0.000840326024906
0.000870189286537
0.000883494821118
0.000891224160866
0.000897508752585
0.000903880518086
0.000910999505648
0.00091961986113
0.000932128914062
0.000956268184846
0.00101376330595
0.00115990986071
0.00155257622681
0.00277012147241
0.00697353113436
0.020256989698
0.0568349042469
0.163936466374
0.000739327290453
0.000769565552471
0.000844491305465
0.000874175344356
0.000887149327605
0.000894511656672
0.000900424058466
0.000906417397731
0.000913148600295
0.000921367626539
0.000933383422028
0.000956857717755
0.00101350815672
0.00115839406126
0.0015448999
0.00272716559512
0.00680627633417
0.0199360863881
0.0567204742808
0.163965427234
0.000742710439774
0.000773021156689
0.000848166599261
0.000877690382354
0.000890364898969
0.000897400111324
0.000902984150924
0.000908646981683
0.000915029534833
0.000922862291421
0.000934366309805
0.000956935146539
0.00101188387613
0.00115358592425
0.00153148502307
0.00267570896955
0.00659797350373
0.0193307325051
0.0557145946375
0.163468893843
0.000745604980578
0.000776008244771
0.00085136013998
0.00088074067126
0.000893149651664
0.00089989926355
0.000905196425345
0.000910563235977
0.000916630346527
0.000924070097378
0.000934897548736
0.000955867018479
0.00100680767044
0.00113936846702
0.0014970550443
0.00258960257125
0.00639465460518
0.0191550382055
0.0564189547703
0.164084439489
0.000748036608081
0.000778538692615
0.000854076422872
0.000883332527267
0.000895505792871
0.000902001108562
0.000907048563193
0.000912152149569
0.000917922127749
0.000924950656353
0.000934950744671
0.000953688177644
0.000998466789823
0.00111609729882
0.00144165261814
0.00246807493157
0.00617994991029
0.0190886686438
0.0570687585665
0.164599043119
0.000750030084325
0.000780621751691
0.000856324416602
0.000885474535268
0.000897442977648
0.00090371399383
0.00090853373269
0.000913402789409
0.000918899520292
0.000925531410488
0.000934692023087
0.000951077856737
0.000989202887416
0.0010905179025
0.0013815863019
0.00234283062449
0.00597175900937
0.0189728366487
0.0572474474915
0.164656910444
0.000751596870644
0.000782264104531
0.000858112840059
0.000887176790756
0.000898970771861
0.000905048177903
0.00090966775387
0.000914323926369
0.000919572501342
0.000925857498492
0.000934307542731
0.000948736683905
0.000981320322659
0.00106908372769
0.0013331617208
0.00224917899008
0.00581858710878
0.0187614911351
0.056858537244
0.164373105724
0.000752745778194
0.00078347386524
0.000859451526617
0.000888449079808
0.000900098408415
0.000906012139256
0.000910459887625
0.000914927850694
0.000919959561009
0.000925956686058
0.000933884368707
0.000946987101817
0.000975942565883
0.00105532786856
0.00130551163915
0.00220652123328
0.00573484630904
0.0184290362392
0.0560800901634
0.163828748886
0.000753543152689
0.000784275684633
0.000860351929271
0.000889299195173
0.000900833558125
0.000906612528331
0.000910915033502
0.000915221934392
0.000920070497212
0.000925841891636
0.000933425941616
0.000945775511479
0.000972780571129
0.0010478045266
0.00129127084168
0.00218215196062
0.00564858115316
0.0180868058401
0.0554086553105
0.163428387513
0.000754036686578
0.000784693979376
0.000860830160319
0.000889742621357
0.00090119048688
0.000906860844376
0.000911041477329
0.000915212428
0.000919908222652
0.000925507753908
0.000932883572192
0.000944876064512
0.000970999966694
0.00104383020786
0.00128248974949
0.00216087662119
0.00558535501702
0.0180421658185
0.0555953519081
0.163633131974
0.000754200184966
0.000784739697761
0.00086090967871
0.000889801895853
0.000901187535328
0.000906772328296
0.000910851840429
0.000914907914413
0.000919476806539
0.000924946227523
0.000932202303101
0.000944074300366
0.00096992646483
0.00104193680909
0.00127863731302
0.00215015254102
0.0055514256806
0.0180252685083
0.0558237944903
0.163980417107
0.000754027753803
0.000784436228286
0.000860618442714
0.000889499403064
0.000900840741542
0.000906358383521
0.000910354352511
0.000914313853372
0.000918778430313
0.000924150047301
0.000931343331996
0.000943220368803
0.000969127352324
0.00104125583501
0.00127937435394
0.0021586954624
0.00556420747983
0.0178074346278
0.0545400634819
0.163043029512
0.00075352564418
0.000783810785519
0.000859981979456
0.00088885437349
0.000900164135707
0.000905629352322
0.000909556910953
0.000913436274984
0.000917815938385
0.000923114400744
0.000930280400776
0.000942221040743
0.000968291565451
0.00104071925226
0.00128016991755
0.00216453257307
0.00555975809968
0.0174752073516
0.052402668294
0.15982669592
0.000752692990343
0.000782879943931
0.000859019146047
0.000887884190057
0.000899172552024
0.000904597478854
0.000908469082674
0.00091228154699
0.000916590728572
0.000921832441383
0.000928989405565
0.000941013269177
0.000967218320376
0.00103946669967
0.00127622627356
0.0021427602425
0.00545283294148
0.0171182402603
0.0489992303754
0.133638983455
0.000751521030714
0.000781644431386
0.000857735418613
0.000886596103253
0.00089787260505
0.000903268732655
0.000907096935445
0.000910856434674
0.000915111205357
0.000920314899084
0.000927481549508
0.000939585761605
0.000965795577469
0.00103691780982
0.00126577460291
0.002087358983
0.00524110061434
0.0168532800052
0.048248608533
0.109807007754
0.000750056041282
0.00078011415916
0.000856145480173
0.000885005882994
0.000896279873609
0.000901657186602
0.000905452721816
0.000909170642188
0.000913382126379
0.000918559043497
0.000925747458745
0.000937930785412
0.000964099907501
0.00103377023013
0.00125294214869
0.00201889487512
0.00492924355245
0.0162548402753
0.0504586767387
0.11545691374
0.000748264616258
0.000778287840561
0.000854254554011
0.000883122039459
0.000894403926029
0.000899772583144
0.00090354606687
0.000907231758171
0.000911410854862
0.000916571190132
0.000923796159014
0.000936078378321
0.0009622263822
0.0010304189417
0.00123977635574
0.00194725489417
0.00454194583637
0.0152501414464
0.0539787169441
0.149326633617
0.000746218460533
0.000776172127687
0.000852070155678
0.000880953853058
0.000892254872483
0.00089762587851
0.000901385711146
0.000905050339489
0.000909209084858
0.000914366448249
0.000921637474675
0.000934057165678
0.000960270429281
0.00102725789925
0.00122757325564
0.00188180365949
0.00417239056437
0.0137708971885
0.0545918651668
0.166061036996
0.000743952506711
0.000773773036143
0.000849596738922
0.00087850662256
0.000889839667278
0.000895225723938
0.000898984066415
0.000902639825526
0.000906789960993
0.00091195792617
0.000919295261168
0.000931894434695
0.000958287255097
0.00102432886869
0.00121672273925
0.00182517371061
0.00384486438181
0.0121657876433
0.0505617959883
0.165400124535
0.000741535910636
0.000771103369218
0.000846835987827
0.0008757857227
0.000887166877424
0.000892582628919
0.000896354052621
0.000900012237417
0.000904165628086
0.000909364028285
0.000916795253839
0.000929617257269
0.000956281808882
0.00102172409549
0.00120729376588
0.00177503234996
0.00355591045131
0.0106824399634
0.0465242638187
0.164388354784
0.000738898759386
0.00076819125455
0.000843820699278
0.000872806696134
0.000884248542996
0.000889706846145
0.000893503213122
0.000897175542346
0.000901350597791
0.000906591889277
0.000914150202521
0.000927205000802
0.000954192944786
0.00101927001845
0.00119932852432
0.00173496138641
0.00331966870908
0.00927023567339
0.0426775181292
0.163291892307
0.000735983939278
0.000765056628485
0.000840565015656
0.000869592649675
0.000881100268356
0.000886612110624
0.000890445825819
0.000894149350903
0.000898357505594
0.000903665531003
0.000911336721221
0.000924649744391
0.000951901430588
0.00101659668533
0.00119297331921
0.00170961660515
0.00318425033349
0.00813770542826
0.0358301226387
0.15763981034
0.000732804949004
0.000761693326726
0.000837077803874
0.000866148322409
0.000877731857876
0.000883307673413
0.000887193030786
0.00089094323343
0.000895200834348
0.000900578086626
0.000908395302285
0.000921922852427
0.000949373793099
0.00101350440463
0.00118646418455
0.00169168988376