/*--------------------------------*- C++ -*----------------------------------*\
| =========                 |                                                 |
| \\      /  F ield         | OpenFOAM: The Open Source CFD Toolbox           |
|  \\    /   O peration     | Version:  v2012                                 |
|   \\  /    A nd           | Website:  www.openfoam.com                      |
|    \\/     M anipulation  |                                                 |
\*---------------------------------------------------------------------------*/
FoamFile
{
    version     2.0;
    format      ascii;
    class       volScalarField;
    location    "4.6";
    object      k_0;
}
// * * * * * * * * * * * * * * * * * * * * * * * * * * * * * * * * * * * * * //

dimensions      [0 2 -2 0 0 0 0];


internalField   nonuniform List<scalar> 
1984
(
0.0012613632606
0.00147367036837
0.00154970132549
0.00158193288191
0.00159887474483
0.00161066372986
0.00162089223538
0.00163091020073
0.00164137516071
0.0016531477801
0.00166813917896
0.00169086803061
0.00173119776482
0.0018126866561
0.00200500887089
0.00252094531322
0.0037856925203
0.00641298970719
0.0138710662239
0.042314663648
0.00147796854664
0.00181573896824
0.00192893617343
0.00197485588429
0.00199670657272
0.00201016329803
0.00202093915379
0.00203117629595
0.00204193276981
0.00205454112145
0.00207185706254
0.00210025351531
0.00215390754835
0.00226781675754
0.00254136475392
0.00323507303192
0.00482502690202
0.00842189601082
0.0202374616695
0.0586286680689
0.00155164425824
0.00192594437904
0.00205252217088
0.00210347662869
0.00212694337753
0.00214076873001
0.00215155537942
0.00216175122282
0.00217258136741
0.00218554420058
0.00220384592992
0.00223453232465
0.00229322103012
0.00241838108381
0.00271586711299
0.00345159319384
0.00510783264169
0.00891203094128
0.0220351315585
0.072205086125
0.00158188337416
0.0019700603296
0.00210199236936
0.0021548002999
0.0021785965448
0.00219222405215
0.00220270284299
0.00221264101216
0.0022233001589
0.00223624960571
0.00225475445558
0.0022860310324
0.0023460389675
0.0024742594061
0.00277859325884
0.003523314635
0.0051765464845
0.00896256865395
0.0224169752661
0.0698264283316
0.00159724867908
0.00199075725464
0.00212474751167
0.00217805557316
0.00220165299776
0.00221485922889
0.00222490586699
0.00223446987649
0.00224483708967
0.0022575366088
0.00227580894864
0.00230676587665
0.0023662002416
0.00249378642089
0.00279886400951
0.00354556226691
0.0051837511914
0.00878589754802
0.0213092086611
0.0748372812862
0.00160751903494
0.00200328099412
0.00213802564726
0.00219128504931
0.00221448680065
0.0022272032235
0.00223677880364
0.00224592407869
0.00225592606541
0.00226827690841
0.00228609216679
0.00231633192681
0.0023744529531
0.00250003844511
0.00280394054153
0.00355432984099
0.00519975436514
0.0086873466882
0.0192669887099
0.0612735569745
0.00161601950499
0.00201303204341
0.00214801598956
0.00220103624197
0.00222379719689
0.00223602883937
0.00224514006472
0.00225386305791
0.00226347207782
0.00227542212278
0.00229271191974
0.00232212902931
0.00237883675425
0.00250218838355
0.00280365962815
0.00355459803595
0.00521636839867
0.00873463882771
0.0184155302668
0.0542761172881
0.00162384959395
0.00202184388945
0.00215687913619
0.00220961258465
0.00223194990388
0.00224373272716
0.00225241498557
0.00226073656414
0.00226996364663
0.00228150309674
0.00229826176415
0.00232687081392
0.00238225345041
0.0025034284954
0.00280148034867
0.00354836945294
0.00521622547479
0.00885405479782
0.0197011332236
0.0556705017231
0.00163131584762
0.00203029340355
0.00216532293833
0.00221777196763
0.00223972309979
0.00225110423031
0.00225940136355
0.00226736041049
0.00227623224192
0.00228738576668
0.00230362903471
0.0023314650283
0.00238559248091
0.00250454917334
0.00279830760433
0.0035382290429
0.00520616838172
0.00896851961105
0.0211598580951
0.0641243703657
0.00163850144081
0.00203850484262
0.00217353669222
0.00222572464915
0.00224733001974
0.00225835811573
0.00226631713541
0.002273954739
0.00228251172976
0.00229330826514
0.00230907575647
0.00233618815161
0.00238918803321
0.00250618558371
0.00279607498645
0.00353038491191
0.00520577239229
0.00905089358417
0.0214706323544
0.0635658494057
0.00164541692729
0.00204647322504
0.00218154110574
0.00223349640396
0.00225479491046
0.00226551486628
0.00227318153615
0.00228054255841
0.00228882001364
0.0022992964878
0.00231463113631
0.00234109110747
0.00239320501822
0.0025090692272
0.00279759144238
0.00353289838015
0.0052310692083
0.0091426480069
0.0208883403351
0.0593063547654
0.00165203323112
0.00205425149587
0.0021893273814
0.00224106329676
0.00226208695957
0.00227253735914
0.00227995424814
0.00228707991355
0.00229512163775
0.00230530502236
0.00232023436757
0.00234607848393
0.00239742384649
0.00251266564738
0.00280161144115
0.00354280025545
0.00526374443666
0.00914155096548
0.0206842643675
0.0559176901471
0.0016583138956
0.0020617298134
0.00219684776332
0.00224838787038
0.00226916207338
0.00227937764615
0.00228658163331
0.00229351213806
0.00230135234173
0.00231128291456
0.00232582143881
0.00235100214222
0.00240133559529
0.00251513237715
0.00280255409401
0.00354659361868
0.00527764495643
0.00907300641521
0.0215589284185
0.0677270397305
0.00166426053676
0.00206892367989
0.0022040724525
0.00225542677078
0.00227597631264
0.0022859874101
0.00229301270768
0.00229978438299
0.00230746018127
0.00231716253081
0.00233133869617
0.0023558187483
0.00240486949024
0.00251621629652
0.00279969058222
0.00354226327019
0.0052848667833
0.00907794919449
0.0211540693609
0.0693793782811
0.00166985670811
0.00207575429123
0.00221095163196
0.00226214197972
0.00228249026592
0.00229232424886
0.00229920071966
0.00230584536238
0.00231338001379
0.00232288878903
0.00233673499636
0.00236055913204
0.00240835553433
0.00251734096964
0.00279749758053
0.0035402340795
0.005301712819
0.00931903298159
0.0228787754195
0.0725897227409
0.00167508928544
0.0020822634852
0.00221747347013
0.0022685019265
0.00228866505122
0.00229834981696
0.00230510947544
0.00231163953138
0.0023190559174
0.00232840224887
0.00234194801444
0.00236523177112
0.00241217354709
0.00252017396302
0.00280064858853
0.00354965449538
0.00533504062916
0.00960965243349
0.0252689255794
0.0736530316601
0.00167993570932
0.00208839188117
0.00222361390527
0.00227447957784
0.00229449027014
0.00230404157524
0.00231069913099
0.0023171338211
0.00232446436423
0.00233366483487
0.00234693190058
0.00236976481308
0.00241609620778
0.00252410862347
0.00280778033412
0.00357106094385
0.00540214260122
0.0100405212954
0.0274712102002
0.0740987162568
0.00168437357217
0.00209409033443
0.00222933698437
0.0022800824573
0.00229993267462
0.00230937166542
0.00231595869466
0.00232232807538
0.0023295613588
0.00233862743862
0.00235163403781
0.00237397942865
0.00241963857868
0.00252766146862
0.00281594024627
0.0036027406696
0.00554199496627
0.0107791407679
0.0295527438744
0.0744114487238
0.00168837424829
0.00209937424938
0.00223465348134
0.00228526308925
0.00230498567736
0.00231435774456
0.00232087285388
0.00232719553957
0.00233437472196
0.00234333982757
0.002356114876
0.00237798853137
0.00242293468226
0.00253097852995
0.00282534065104
0.00364682289841
0.00575460464813
0.011736526312
0.0316376289811
0.0748199373914
0.00169203832809
0.00210423018869
0.00223950948198
0.00228999874659
0.002309630073
0.00231892187047
0.00232540031465
0.0023317053288
0.00233886253418
0.00234775919149
0.002360345366
0.00238180115189
0.00242620271312
0.0025349425209
0.00283878148263
0.00370978438196
0.00604526463049
0.0128471900853
0.0337053122488
0.07520311044
0.00169546794448
0.00210857644901
0.0022438607907
0.00229425555819
0.00231380617334
0.00232306069727
0.00232953037973
0.00233583811864
0.00234299470864
0.00235185601597
0.00236430370868
0.00238543424821
0.002429561603
0.00254016413476
0.00285771349562
0.00379401928881
0.00641516660637
0.0140531101778
0.0353303765003
0.0752577978753
0.00169856116321
0.0021123961198
0.00224768906238
0.00229801483197
0.0023175161187
0.00232675791251
0.00233324091896
0.0023395726659
0.00234675021182
0.00235560019002
0.00236794631032
0.00238883607733
0.00243293766901
0.00254613191427
0.00288029236128
0.00389343477786
0.00681961406577
0.0150817230531
0.0349582393732
0.0701328181434
0.00170127011948
0.00211569929053
0.00225100374652
0.00230128008329
0.00232075267635
0.00232999996956
0.00233651261939
0.0023428878142
0.00235010675179
0.00235896898064
0.00237123886538
0.00239195102368
0.0024361570213
0.00255213148286
0.00290121603962
0.00398045850209
0.00716644835109
0.0158147953024
0.0338062397742
0.0590993723412
0.00170348945876
0.00211847351415
0.00225379503779
0.00230403885118
0.00232350197053
0.00233277264306
0.00233933171837
0.00234576685631
0.00235304524025
0.002361941801
0.00237416330294
0.00239473173997
0.00243899238692
0.00255713761351
0.00291799918026
0.00405007085546
0.00742657882052
0.0163408691535
0.0333556571896
0.0576140313233
0.0017052640073
0.00212071447105
0.00225605040818
0.00230627465601
0.00232574673071
0.00233505889973
0.00234168370075
0.00234819878236
0.00235555615149
0.00236451121225
0.00237670925958
0.00239712400241
0.00244130704819
0.00256079951695
0.00293068522943
0.00410750360419
0.00761087091047
0.0165747737445
0.0340621481523
0.0699589039399
0.00170652184981
0.00212240369167
0.00225774818418
0.00230796811393
0.00232746988657
0.00233684557028
0.00234355996263
0.00235017647815
0.00235763486633
0.00236667368032
0.00237887186302
0.00239912319217
0.00244303830426
0.00256291555516
0.00293858563865
0.00414939356642
0.00774346453068
0.0167233266071
0.0350274555958
0.0737645187394
0.00170726525492
0.00212352596586
0.00225886499
0.00230909441581
0.00232865059754
0.00233811734307
0.0023449483506
0.0023516964559
0.00235928675214
0.00236843162406
0.0023806627835
0.00240079505451
0.00244442381484
0.00256420168676
0.00294258161796
0.00417393435034
0.00782862110279
0.0168418040987
0.0353391088323
0.0742395675644
0.00170752336165
0.00212407331518
0.00225937943405
0.00230962647964
0.00232925886994
0.00233884120858
0.0023458141116
0.0023527225283
0.00236048191438
0.00236977408782
0.00238209543959
0.0024022202332
0.00244578488701
0.0025658668095
0.00294650249742
0.00419111960457
0.00789342943802
0.0169877319383
0.0356055328565
0.0743428440232
0.00170728235299
0.00212399466909
0.00225924594644
0.00230953159333
0.00232927293855
0.00233900302305
0.00234614897637
0.00235325278796
0.00236123041949
0.00237073692474
0.00238324216631
0.0024035617508
0.00244759344406
0.00256931024064
0.00295522364372
0.00421727577816
0.00795670127304
0.0170878795954
0.0358037478684
0.0743823590843
0.00170654748841
0.00212324712592
0.00225841583258
0.00230877153706
0.00232866595025
0.00233858436654
0.00234593955001
0.00235327447849
0.00236151087331
0.00237130620664
0.00238415774124
0.00240506054962
0.00245047716483
0.00257510190837
0.00296358348712
0.00422128050495
0.00798000705359
0.0172923617463
0.036366088811
0.0746529199944
0.00170535446443
0.00212180959145
0.00225684801361
0.0023073078257
0.00232740727573
0.0023375606464
0.00234516670922
0.00235277815797
0.00236132863105
0.00237150734937
0.00238493839422
0.00240709272567
0.00245566707485
0.00258664968354
0.00298026287738
0.00422854741462
0.00802063313489
0.0176703862954
0.0372319031189
0.075064224671
0.00170362711902
0.00211963294642
0.00225451099978
0.00230511190864
0.00232547157727
0.002335912164
0.00234381727862
0.00235175486959
0.00236068203097
0.00237135601465
0.00238567408011
0.00241006115893
0.00246464385905
0.00260881778346
0.00302065068777
0.00427502117927
0.00806065223711
0.0177289413768
0.037330101288
0.0751380579808
0.00170126381877
0.0021166663792
0.00225138011183
0.00230216729179
0.00232284355031
0.00233362564565
0.00234188075098
0.00235019180475
0.00235955380378
0.0023708324295
0.0023863711899
0.00241408534321
0.00247792576817
0.00264366673333
0.00309303007061
0.00438919676826
0.00816894312332
0.0176761307377
0.0371207730821
0.0750758261725
0.00169823942072
0.00211289175987
0.0022474353827
0.00229845432534
0.00231950440107
0.00233068401862
0.00233933902614
0.00234806743721
0.00235791308325
0.00236988566796
0.00238688018024
0.00241862080841
0.0024936192657
0.0026852322592
0.00318177947142
0.00454154132225
0.00834633383021
0.0176810813149
0.0368094953614
0.0749472382508
0.0016945417467
0.00210829551001
0.00224265869612
0.00229395333549
0.00231543532803
0.00232706861504
0.00233616847568
0.00234536464024
0.00235573948439
0.00236843930115
0.00238688397992
0.00242248292151
0.00250787729642
0.00272334532309
0.00326504365793
0.00469441628703
0.00854593257895
0.0177424377846
0.0365702046234
0.0748285000965
0.00169013253978
0.00210285930556
0.00223703377067
0.00228864722633
0.00231061645546
0.00232275831807
0.00233236901278
0.00234209188224
0.00235303282688
0.00236643499478
0.00238606753956
0.00242444641434
0.00251680054603
0.00274775795469
0.00331994420965
0.00480385335546
0.00870184967042
0.0177565985211
0.0362633589887
0.0746822914632
0.0016849742118
0.0020965683162
0.00223055311905
0.00228251970847
0.00230503782724
0.00231776229583
0.00232795705313
0.00233826835902
0.00234982274578
0.00236390103431
0.00238441827343
0.00242438310014
0.00251988938698
0.00275720649098
0.00334543052848
0.00487363460494
0.00885279854802
0.0179091534174
0.0361634974991
0.0745566750625
0.00167904554709
0.00208942391795
0.00222322150709
0.00227558383034
0.00229871261404
0.00231209152927
0.00232294315407
0.00233392087998
0.00234615673111
0.00236093608074
0.00238230606127
0.00242338801536
0.00252022443151
0.00275913033181
0.00335424467793
0.00491756423242
0.0089940917112
0.0181456134392
0.0363029144956
0.0745541001695
0.00167231103645
0.00208143877159
0.00221506207882
0.00226785802023
0.00229165066727
0.00230575395183
0.0023173457554
0.00232907804029
0.00234206823941
0.00235762760846
0.00237983247355
0.00242171690081
0.00251893654057
0.00275774127849
0.00335769333979
0.00495738166714
0.00913680008434
0.0184192702861
0.0365909440435
0.0746276915664
0.00166485575524
0.00207263560166
0.00220609985347
0.00225936349549
0.00228387154927
0.00229877311965
0.00231120180987
0.00232378873704
0.00233761493363
0.00235395437345
0.00237662674885
0.00241800545771
0.0025125881331
0.00274753442955
0.00335314780267
0.00500040156904
0.00928172746056
0.0185670195555
0.0364784190963
0.0744997100531
0.00165655041948
0.00206306881304
0.00219639586863
0.00225014776222
0.0022754134677
0.00229118209522
0.00230454130566
0.00231807047723
0.00233285827861
0.00234999649571
0.00237277551831
0.00241215563076
0.00250065407061
0.00272737296324
0.00334125024421
0.00505079109505
0.00940135688353
0.0185222667306
0.035993392402
0.0742214951518
0.00164763121933
0.00205284593223
0.00218604764128
0.00224029138825
0.00226632185354
0.00228299714598
0.00229732984777
0.00231193027027
0.002327844156
0.00234603278828
0.00236921394781
0.00240692919394
0.00249009119086
0.00271152219112
0.00334551488764
0.00514012697988
0.0095637474395
0.0185377513993
0.035631860395
0.0739817920892
0.00163803990908
0.00204207727037
0.00217517800458
0.00222987701005
0.00225664219738
0.00227416212035
0.00228945366455
0.00230512699269
0.00232228838343
0.00234190336624
0.00236630938488
0.00240413810869
0.002485478829
0.00270670324182
0.00336405459707
0.00524026341871
0.00973110463198
0.018576461964
0.0352924036005
0.0737602770903
0.00162788472906
0.00203097848364
0.00216398941144
0.00221905371379
0.00224635531038
0.00226445636503
0.0022803167789
0.00229664454063
0.00231496949543
0.00233649210409
0.00236318333264
0.00240345107577
0.00248793990114
0.00271564278978
0.00339461917641
0.00532933540956
0.00987024396196
0.0185788415819
0.0349355061867
0.0735783686862
0.0016174329381
0.00201983891261
0.00215272885682
0.00220792505006
0.00223527683869
0.00225304762729
0.00226801090872
0.00228330401852
0.00230206416692
0.0023259164342
0.00235552288694
0.00239987849228
0.00249399477544
0.00274011511527
0.00344116596497
0.00541272662952
0.0100117109093
0.0186890262916
0.0348332903407
0.0735293832071
0.00160710098507
0.00200901114653
0.00214170716427
0.00219654973454
0.00222276458381
0.00223771893711
0.00224751518556
0.00225642578154
0.00227203288254
0.00229769160223
0.00232981690418
0.00237939135106
0.00249933098906
0.00279167190163
0.00354003028033
0.00554975248985
0.0101452997245
0.0186946619064
0.0345812316242
0.0734284663865
0.00159709044163
0.00199889824087
0.00213124600209
0.00218490227756
0.00220759832108
0.00221376923918
0.00220594640655
0.00218863006852
0.00218189303159
0.00220699929977
0.0022433447504
0.00231253614088
0.00251091762181
0.00289209092632
0.00371934701052
0.0057661965302
0.0102932380073
0.0186273909279
0.0341293344636
0.0727558967227
0.00158780618793
0.00198984680285
0.00212163468915
0.00217304946091
0.0021888893123
0.00217519887536
0.00211720074508
0.00200157231541
0.00184216146107
0.00185069336511
0.00190831053248
0.00213981509617
0.00254620815392
0.00308730274724
0.00401225489044
0.0060771907933
0.0104398111977
0.0183911860969
0.032803616362
0.0595151955756
0.00157950218995
0.00198223697896
0.00211347954992
0.00216231937857
0.00217197688178
0.00214602567988
0.00205467781883
0.00175117449898
0.00256246495768
0.00339192372964
0.00442955864596
0.00644889695931
0.0105736749931
0.0181802299671
0.0318102917013
0.0543564682536
0.00157401874423
0.00197795705032
0.00210925705959
0.00215690406486
0.00216295087063
0.00212820212721
0.00201608566117
0.00164990361687
0.00273828437369
0.00371148664076
0.00478618204354
0.00670943291011
0.0106625479975
0.0183746387169
0.0328249258342
0.0591134425061
0.00157399300293
0.00197792904319
0.00210924058281
0.00215690019254
0.00216295914255
0.00212823739234
0.00201617038829
0.00165018497575
0.00273763248637
0.00370739681267
0.00476913010055
0.00666810168192
0.0106634466698
0.0187211152799
0.033901949246
0.0634044293925
0.00157945363272
0.00198219996525
0.00211346644881
0.00216232982882
0.00217200925007
0.00214608124008
0.00205475414616
0.00175149215041
0.0025601332937
0.00338251061353
0.00439784149688
0.00638631855735
0.0105936085023
0.0187755143983
0.0340157790333
0.0637988327276
0.00158774236115
0.00198981899143
0.00212163658427
0.00217308190338
0.00218894312454
0.00217519807204
0.00211709208922
0.0020014607323
0.00184238493051
0.00185095705595
0.00190886622647
0.00214024676738
0.00254506972488
0.00308266893453
0.00399791440591
0.00605215526579
0.0104507161582
0.0186594721495
0.0338216978196
0.0639995387308
0.00159712399051
0.00199893115117
0.00213129760535
0.00218498349867
0.00220771127126
0.00221391192574
0.00220617638494
0.00218893832908
0.00218227934214
0.00220751469192
0.00224417981575
0.00231402930511
0.00251320834687
0.00289974432714
0.00374361051486
0.00580703690211
0.0103149446238
0.0186260184152
0.0341085059605
0.0691307079478
0.00160720052987
0.00200908446895
0.00214179511648
0.00219666729061
0.00222291730004
0.00223791204541
0.00224775731695
0.00225671718521
0.0022724039686
0.00229821681322
0.00233074652579
0.00238155169584
0.00250475904663
0.00280934619032
0.0035934002803
0.00563988551328
0.0102056320273
0.0186808724818
0.0345267285002
0.0733366532909
0.0016175582728
0.00201993647619
0.00215283789528
0.00220805582239
0.0022354336934
0.00225323867238
0.00226824691837
0.00228357710222
0.00230238485766
0.00232634757069
0.0023563030272
0.00240179162552
0.00249958310246
0.00275879170782
0.00349758316086
0.00551453456761
0.0100755682021
0.0186266786806
0.0347069185551
0.0735193502481
0.00162799210705
0.0020310829474
0.00216409886675
0.0022191939895
0.00224651698517
0.00226464011427
0.00228053327502
0.00229688515935
0.00231523323883
0.00233681204384
0.00236368884945
0.00240464850159
0.00249158576162
0.0027278821403
0.00343234004907
0.00540385622124
0.00991560273535
0.0184521504641
0.0346762731545
0.073530505878
0.00163816607744
0.00204219114067
0.00217529828087
0.00223002136574
0.00225681040236
0.00227434538586
0.00228964767986
0.00230533391039
0.00232251260513
0.00234216210112
0.00236662807761
0.00240473636758
0.00248704493445
0.00271169842909
0.00338166032441
0.00528826690511
0.00975378732216
0.0183351135644
0.0347599531755
0.0736110011665
0.00164780083727
0.00205297615893
0.00218618099485
0.00224043493905
0.00226648553684
0.00228317243787
0.00229750522223
0.00231210354781
0.00232801446746
0.00234620867998
0.00236943057517
0.00240727773246
0.00249099093536
0.0027152962848
0.00336371126856
0.00520143442896
0.00961196170288
0.0182414302686
0.0348824787709
0.073718588906
0.00165672903757
0.00206321343723
0.00219653519819
0.0022502950772
0.00227556820433
0.00229134313431
0.00230469234454
0.00231821402035
0.00233298935635
0.00235013212915
0.00237295452627
0.00241253127806
0.0025023963157
0.00273649105996
0.00338135664596
0.00516187529405
0.00950835359851
0.0182957598517
0.0353611331387
0.0739640179121
0.00166503400983
0.00207278260776
0.00220624165041
0.00225951142942
0.00228402755551
0.00229893349514
0.00231135734084
0.00232392428735
0.00233774296497
0.00235408236018
0.00237678288679
0.00241830477967
0.00251401446079
0.00275552385197
0.00338836712777
0.00510019556789
0.00939842588041
0.0184695350138
0.0361214144868
0.0743440842915
0.00167248515799
0.00208158836264
0.002215208667
0.00226801151146
0.00229181370358
0.00230592423901
0.00231751800722
0.00232924419568
0.00234222692523
0.00235778459396
0.00237999307591
0.00242188606226
0.0025192698313
0.00275986036276
0.0033701693525
0.00500428549566
0.00923162284259
0.0184655905999
0.0364725127592
0.0745700651518
0.00167923371944
0.00208958491996
0.00222337744277
0.0022757461013
0.00229888541373
0.00231227395314
0.00232313143283
0.00233411367598
0.00234635333956
0.00236113171164
0.00238249486059
0.00242345219531
0.0025196431138
0.00275632746759
0.0033477262725
0.0049247084923
0.00911345700013
0.0185537310749
0.0369083594106
0.0747879620724
0.00168518138518
0.00209674234252
0.00223071852757
0.00228269044802
0.00230522048983
0.00231795671738
0.00232815940794
0.00233847900151
0.00235004200229
0.00236412236641
0.00238463203905
0.002424448121
0.00251922032479
0.00275392558544
0.00333668249309
0.00487366483187
0.00896714868602
0.018357262743
0.0368588025304
0.0747967697929
0.00169031838024
0.00210301436617
0.00223718601918
0.00228880545007
0.00231078748214
0.00232294395609
0.00233257027965
0.00234231218779
0.00235326802636
0.00236667843335
0.00238630581674
0.00242457890989
0.00251652801663
0.00274629983931
0.00331733875195
0.00481216565291
0.00878324567996
0.0179837473842
0.0364217354913
0.0746456897179
0.00169470728044
0.0021084284917
0.00224279817814
0.00229410532982
0.00231560320203
0.00232725470463
0.0023363785272
0.00234560418107
0.00235601186597
0.0023687429271
0.00238721022895
0.00242277436908
0.00250810470594
0.00272368857983
0.00326743155284
0.00470836436806
0.00860186681361
0.0178746138204
0.0367280617582
0.0748329589493
0.0016983898919
0.00211300951943
0.002247566109
0.00229860387547
0.00231967380926
0.00233087705565
0.002339564444
0.00234833207457
0.00235822485364
0.00237024749313
0.00238730078338
0.00241909125756
0.00249423327558
0.00268647430257
0.00318631275935
0.004559881395
0.00840823076961
0.0178333012282
0.0370095328143
0.0749893386423
0.00170140596345
0.00211677688791
0.00225150822358
0.00230231832424
0.00232301792924
0.00233382698729
0.00234211756142
0.00235047809588
0.00235989856319
0.0023712395367
0.00238686035039
0.00241467507714
0.00247878144309
0.00264526906042
0.00309718156136
0.00440428330888
0.00821831597662
0.0177610852043
0.0370867466581
0.075006913383
0.00170377459052
0.00211974484402
0.00225464196568
0.00230526806416
0.00232565363031
0.00233612342854
0.00234406609203
0.00235205808413
0.00236105064651
0.0023717964689
0.00238620575771
0.00241071080755
0.00246559560913
0.00261049259436
0.00302438129083
0.00428611676336
0.00807717848164
0.0176289408656
0.0369185901508
0.0749207000324
0.00170551043341
0.00212192971866
0.00225698623754
0.00230747150829
0.00232759803471
0.00233778192819
0.00234542669465
0.00235309368265
0.00236171313071
0.00237196586036
0.00238548518374
0.00240774613961
0.00245657951569
0.00258805155817
0.00298241781387
0.00423175055647
0.00799949384039
0.0174200635631
0.0365808496215
0.074755197941
0.00170671463858
0.00212337721585
0.0022585623138
0.00230894321468
0.00232886522962
0.00233881460292
0.00234620829407
0.00235359788957
0.00236190298994
0.00237176981513
0.00238470445859
0.00240569202901
0.00245127053383
0.00257573689884
0.00296068962744
0.00420053537454
0.00791907095766
0.0172037281113
0.0362882807632
0.0746333581246
0.00170745976697
0.00212413215327
0.00225939919194
0.00230971068103
0.00232948035182
0.00233924164216
0.00234642540666
0.00235358159169
0.00236162526627
0.00237119913061
0.00238378061021
0.00240416655389
0.00244827837167
0.00256921960071
0.0029472518868
0.0041731881599
0.00785986659149
0.0171754094553
0.0363697493783
0.0746956793165
0.00170770657798
0.00212421465758
0.00225953832974
0.00230981326157
0.00232947526553
0.00233908942191
0.00234609978352
0.00235305949991
0.00236088684272
0.00237023992701
0.00238261991247
0.00240280634217
0.00244647355464
0.00256611179702
0.0029413468142
0.00415936947684
0.00782800340779
0.0171646840785
0.0364693106983
0.074801328384
0.00170744628187
0.00212366698055
0.00225902871685
0.00230928974321
0.00232887761015
0.00233837749934
0.00234524544585
0.0023520408092
0.00235969123813
0.00236887955316
0.00238115605562
0.00240135720367
0.00244512962034
0.00256499359357
0.00294247701989
0.00417037944855
0.00784001444993
0.0170261148437
0.0359080437281
0.0745159901988
0.00170668820157
0.00212253800947
0.00225791481551
0.00230817320488
0.00232771134444
0.00233712341207
0.00234387567203
0.00235053554161
0.00235804297676
0.00236710943628
0.00237934398718
0.00239966076902
0.00244372361242
0.00256411231828
0.00294369672287
0.00417789386623
0.00783583441706
0.0168136838744
0.0349636625696
0.0735327599528
0.00170543069751
0.00212085721443
0.00225622919749
0.00230649332042
0.00232600162324
0.00233534779689
0.00234200645218
0.00234855415808
0.00235594397888
0.00236491740686
0.00237714219039
0.00239760968514
0.00244191754549
0.00256205455545
0.00293764811937
0.00414983063542
0.00773504386533
0.016583927775
0.0334329083996
0.0652634600579
0.0017036599756
0.00211862525416
0.00225398081516
0.00230426203661
0.00232375925957
0.00233306033773
0.00233964762146
0.00234610767251
0.00235340805082
0.00236232123902
0.00237456924494
0.00239518430531
0.00243952231021
0.00255786454362
0.00292158754449
0.00407798930837
0.00753349175552
0.0164123565621
0.033090590307
0.0572534098895
0.00170144521793
0.00211585917789
0.00225119456451
0.00230150589213
0.002321010377
0.0023302845281
0.00233681951975
0.00234321203018
0.00235044264735
0.00235931559025
0.00237160853714
0.00239237091118
0.00243666605628
0.0025526856303
0.00290180794437
0.00398832422474
0.00723160734755
0.0160214981344
0.0340935237886
0.0592008508862
0.00169873499721
0.00211255560815
0.00224787860843
0.00229823870735
0.00231777060467
0.00232703629168
0.00233353786587
0.00233987944516
0.00234705959533
0.00235591049855
0.0023682747652
0.00238921992894
0.00243350826781
0.00254716576111
0.00288144423463
0.00389340744813
0.0068476668001
0.0153543192817
0.0356612332083
0.0702758600083
0.00169563675065
0.00210872532982
0.0022440449679
0.00229447550445
0.00231405639171
0.00232333354265
0.00232981676215
0.00233612714822
0.00234327808209
0.00235213100734
0.00236458394321
0.00238577943281
0.00243020936177
0.00254195375712
0.00286250507132
0.00380566764946
0.00647099834949
0.0143446341585
0.0359307768985
0.075432728396
0.00169220238395
0.00210437781059
0.00223970014003
0.00229022426899
0.00230987862767
0.00231919013293
0.00232567655909
0.00233197727238
0.00233911974509
0.00234799871116
0.0023605760702
0.00238209529546
0.00242686225679
0.00253711952613
0.00284561234155
0.0037289290695
0.00612776360883
0.0132071205
0.0341399578535
0.0752324503967
0.0016885358535
0.00209953468213
0.0022348455952
0.0022854929884
0.00230525089138
0.00231462304628
0.0023211384381
0.00232744947715
0.00233460448139
0.00234354429532
0.0023562944313
0.00237821312095
0.00242347521335
0.00253281659493
0.00283089193638
0.0036603181413
0.00581676961515
0.0121104875199
0.0322974072077
0.0749253336069
0.00168453014238
0.00209424534322
0.00222953743651
0.00228030723735
0.00230019270225
0.00230964876729
0.00231621426353
0.00232255640476
0.00232975625663
0.00233877910734
0.00235176014339
0.00237409720199
0.00241994476511
0.00252875925826
0.0028184268091
0.00360502152075
0.00555619930594
0.0110181454904
0.0304916380828
0.0745917965399
0.00168009711626
0.00208854437689
0.00222379897873
0.00227470575353
0.00229472972663
0.00230428977195
0.00231092750108
0.00231733077749
0.00232459582274
0.00233374355023
0.00234693232128
0.002369733394
0.00241606884761
0.00252433571703
0.00280846149025
0.00356982673381
0.0054040511949
0.0101014246666
0.02713606364
0.0728604621757
0.0016752556476
0.00208241885056
0.00221764420601
0.00226869526707
0.00228887755496
0.00229856075887
0.00230529619647
0.00231178801829
0.00231914714641
0.00232842490646
0.00234187964802
0.00236507203449
0.00241178993674
0.00251921410721
0.00279823643991
0.00354482789141
0.00533218206879
0.00955638579188
0.0239851345253
0.0708633820303
0.00167000329299
0.00207591505194
0.00221111232846
0.00226231174997
0.00228266779398
0.00229249873006
0.00229935804471
0.00230596450615
0.00231344667729
0.00232289477651
0.00233663782245
0.00236030147056
0.0024075380108
0.00251481201474
0.00279060774411
0.00352939849205
0.00531157711112
0.00941800575654
0.0230908579204
0.0706327763697
0.00166441788176
0.00206906066452
0.00220421978002
0.00225557606258
0.00227612656829
0.00228613241256
0.00229314526475
0.0022998945443
0.00230753103245
0.00231718860533
0.00233127333002
0.00235555359621
0.00240386243695
0.00251262649232
0.00278944371814
0.00352678205521
0.00530443263528
0.00935922252743
0.0226446363007
0.070718557522
0.00165844848112
0.00206186338748
0.0021969777928
0.00224851749739
0.00226928936495
0.00227949932621
0.00228669672456
0.00229361926522
0.0023014429493
0.00231132448121
0.00232583778162
0.0023508518396
0.00240060422908
0.00251227415129
0.00279405054414
0.00353185708542