/*--------------------------------*- C++ -*----------------------------------*\
| =========                 |                                                 |
| \\      /  F ield         | OpenFOAM: The Open Source CFD Toolbox           |
|  \\    /   O peration     | Version:  v2012                                 |
|   \\  /    A nd           | Website:  www.openfoam.com                      |
|    \\/     M anipulation  |                                                 |
\*---------------------------------------------------------------------------*/
FoamFile
{
    version     2.0;
    format      ascii;
    class       volVectorField;
    location    "3.5";
    object      ddt0(rho,U);
}
// * * * * * * * * * * * * * * * * * * * * * * * * * * * * * * * * * * * * * //

dimensions      [1 -2 -2 0 0 0 0];


internalField   nonuniform List<vector> 
164
(
(-133.92714559 75.3062375402 -9.85391002936e-21)
(-136.116312419 89.6727593337 -4.21521220664e-21)
(-138.11616551 106.173242797 3.01076510794e-20)
(-139.763537336 125.124822283 -5.37599040201e-20)
(-140.846154464 146.799453197 -9.73080007202e-20)
(-141.324622453 171.356140706 -3.75081634046e-19)
(-142.108709206 200.251236607 -2.22866012261e-19)
(-148.247510757 260.137017232 6.01137699509e-18)
(-140.325810876 277.946845717 1.35997935526e-17)
(-71.0368705846 128.618471408 -2.25560156994e-17)
(-0.163156485155 0.39682576726 -4.85511984892e-20)
(0.0242888445882 0.480101552639 4.62168864167e-20)
(-147.133963921 72.2490198578 -1.91298554576e-20)
(-151.255970926 86.5759884819 6.42938586203e-21)
(-155.539719476 103.183432878 -3.02142461914e-21)
(-159.805478332 122.441009483 -9.07314095671e-20)
(-163.824819579 144.513661408 -8.91691797325e-20)
(-167.017866528 168.755808594 -1.85758274093e-19)
(-168.46755145 192.358552335 -8.72037524797e-19)
(-185.206773482 254.618949882 1.24961917273e-17)
(-186.343715239 302.5952777 -2.18556468398e-17)
(-89.9436763964 149.154310818 -2.08198025473e-17)
(-0.22203722484 0.334389549821 -3.6039091087e-20)
(0.0106164606279 0.4735193979 -1.35964027403e-19)
(-172.993819373 97.6374913115 -1.1410764039e-22)
(-180.19981179 116.863022118 -1.85857269415e-20)
(-187.686211719 139.545922362 -8.62913916883e-20)
(-194.759182265 166.423786534 -3.38629951986e-19)
(-199.552250336 181.765840876 5.46948970345e-19)
(-199.255515573 240.925921517 4.08401008469e-18)
(-207.864675489 312.952815083 -2.34886615876e-17)
(-115.480834206 160.500054184 -8.08635160192e-18)
(-0.281526821143 0.288542158822 -1.31979158673e-20)
(0.0142016678613 0.435661367909 -2.03314314444e-20)
(-189.952985574 89.2081627877 -5.17433833316e-20)
(-200.381113672 107.757399329 6.52431869731e-20)
(-211.847028435 129.911293135 -1.51606455551e-19)
(-224.236066984 156.644033225 -2.08182547609e-19)
(-237.190275782 186.91856398 -4.47482986834e-18)
(-232.825440969 237.338870999 4.29330541346e-18)
(-249.836759403 287.259020411 3.97183974124e-19)
(-143.641284794 148.768097015 8.41160185196e-19)
(-0.470509017896 0.405974848212 -1.2835272244e-20)
(0.363479226919 0.64101270315 -1.53466463548e-19)
(-205.843274901 77.825201841 -7.41310692222e-20)
(-219.536005418 94.9669425021 1.30210872683e-19)
(-235.061779817 115.652642517 -2.28758168614e-19)
(-252.622412814 140.954049083 -1.17656896379e-19)
(-272.517719258 172.549491266 -1.81577392547e-18)
(-293.524879275 214.751246222 1.33672791204e-18)
(-324.795499757 255.233196604 8.9929895997e-18)
(-172.692890228 139.036243776 -3.04246819496e-18)
(0.616638039615 1.17629484677 -6.90876957684e-19)
(0.630349153535 0.488085803906 -5.79506722551e-19)
(-220.031555076 63.5182284295 -1.07226956805e-20)
(-236.870609448 78.5259772555 1.12193955552e-19)
(-256.31685501 96.8029534346 -1.73227763673e-19)
(-278.881591522 119.35576873 -1.84546044285e-19)
(-305.555029422 147.217894236 -1.88630707701e-18)
(-339.669934694 181.290483828 4.51889905982e-18)
(-385.272962176 219.587982482 -9.16910837397e-18)
(-202.527568266 131.074071032 -6.05417463563e-18)
(0.123893271712 2.92374116307 -1.26523468005e-18)
(2.02932802963 -0.747708483888 5.72070193404e-20)
(-231.930731372 46.4835553989 3.79349312114e-20)
(-251.649981912 58.6703611203 1.50636610235e-19)
(-274.701309248 73.7140150706 3.57340448247e-19)
(-301.685314921 92.4685963096 -1.90302463371e-20)
(-334.104559866 115.435531951 1.27856307386e-18)
(-375.554158185 142.54173674 2.2827210222e-18)
(-425.577816227 181.059952291 -4.67461457297e-17)
(-234.268913869 121.697884309 -3.86847546856e-17)
(-4.9222069003 6.72042603665 -2.77468770665e-19)
(3.48077221691 -0.371769056922 -1.87031535201e-18)
(-241.027095689 27.0389262569 8.22853800693e-20)
(-263.215636556 35.7547641422 4.36973368025e-19)
(-289.424573927 46.8784322015 2.33296721711e-19)
(-320.38778068 61.2160652646 -5.15820311303e-19)
(-357.752060784 79.6440234231 -4.71805541746e-18)
(-404.493718165 101.665149098 -1.23744490606e-17)
(-457.013456566 138.726034327 -1.63892470238e-17)
(-272.491572063 107.420695696 -4.29224011492e-18)
(-21.0563642025 11.4959448386 7.05344504295e-18)
(-1.21478230828 5.76789206193 8.53849079745e-20)
(-246.811868567 5.59706967534 6.15823443088e-20)
(-270.985589691 10.2721624466 1.20866949194e-19)
(-299.84770366 16.7548630536 1.24094978225e-19)
(-334.460733334 25.8934753967 -3.30765096811e-18)
(-376.441494575 39.2089086919 -1.57319439918e-17)
(-428.349378908 56.2348580904 -4.4766587277e-17)
(-484.28176843 94.5557772135 -7.95082194738e-17)
(-312.990336768 96.350230284 -3.88157678833e-17)
(-37.7465333172 15.7763644932 1.03252272323e-17)
(-4.18161164422 -0.997930903951 1.88406533669e-19)
(-248.888075592 -17.3150232343 7.36104957886e-20)
(-274.415779599 -17.1986615596 -7.54927962457e-20)
(-305.193987319 -16.1479423891 -1.45515065758e-18)
(-342.563694434 -13.5967993849 -8.13125975186e-18)
(-388.190791128 -7.8584400756 -3.3226292471e-17)
(-444.053327096 0.980275043673 -8.94328442403e-17)
(-508.323771889 33.2561754811 -1.87767162033e-16)
(-358.374601138 75.2979250831 4.31142291392e-18)
(-53.6514020581 21.8858672596 3.7463632748e-17)
(-1.60964546195 -0.319392028833 -4.26915766624e-19)
(-246.922144756 -41.049882066 -4.41035549663e-20)
(-272.896040742 -45.9160007931 1.60606453321e-20)
(-304.420267715 -51.0339446503 -2.81632639017e-18)
(-343.038899583 -56.4851785161 -7.81221295421e-18)
(-390.578346437 -60.8262775064 -3.08367590121e-17)
(-449.536185777 -64.0866746931 -8.3343047204e-17)
(-523.041637466 -43.5530125527 -1.46500480005e-16)
(-406.987495043 36.6425651806 5.44559465327e-17)
(-75.4092867955 28.1974915607 6.19349723078e-17)
(-1.31565479401 0.157040055902 5.45809319841e-19)
(-240.731728926 -64.748052379 1.66646386913e-19)
(-266.06183021 -74.7414066223 1.46811615476e-20)
(-296.772369812 -86.3963710823 7.78232887041e-19)
(-334.423781997 -100.512151067 -7.4369712181e-19)
(-380.87497944 -116.739601736 -1.87037811618e-18)
(-439.735021254 -135.991719519 -9.36056090231e-18)
(-515.531746554 -138.523565278 -5.1501401486e-17)
(-441.718971055 -28.9679265631 7.21226641369e-17)
(-103.41895167 21.7746994765 4.76579181855e-17)
(-1.86990411519 -0.451492095862 -8.0949129392e-19)
(-230.357321884 -87.3427725598 1.42306274974e-19)
(-253.820495215 -102.000073164 5.50175243319e-19)
(-281.901654327 -119.653943984 7.09569685788e-19)
(-315.916895535 -141.831536301 3.22201672362e-18)
(-357.915520237 -169.840679033 5.77377544964e-18)
(-411.579993629 -207.706195882 3.92125810401e-18)
(-478.056531045 -242.400882181 2.05018172356e-17)
(-436.64809196 -119.07809276 9.82658107459e-17)
(-119.992314599 11.3642484386 6.98472246759e-17)
(0.0122459372989 -0.428505359077 1.5045051888e-18)
(-216.414740871 -107.944721731 -4.78270161705e-20)
(-237.236178187 -126.319392131 1.84045530696e-19)
(-261.43426625 -148.540394888 -7.75297076633e-19)
(-289.613888629 -176.642022848 1.08882068832e-19)
(-322.897204033 -213.012848264 2.06673618428e-18)
(-362.081385545 -266.095971229 7.71280385127e-18)
(-406.722983405 -329.435582743 3.17772445653e-17)
(-381.314065361 -218.706408664 2.94023456982e-17)
(-128.309876969 -39.7175611113 3.36674980573e-17)
(-6.21845532953 1.69830957452 3.69427584095e-19)
(-199.637628229 -126.076209905 2.26158354164e-20)
(-217.497608502 -147.055598653 4.01786338094e-20)
(-237.464514493 -172.113197526 -1.75852854576e-19)
(-259.213723365 -203.13630591 -7.81050702572e-19)
(-282.105968829 -242.394374206 1.12898720549e-18)
(-301.557290385 -298.466494139 -7.69243115591e-18)
(-313.923554919 -368.882737867 4.66681907919e-17)
(-278.761042242 -295.054399132 4.01380803855e-19)
(-93.7412642189 -81.5002926353 -7.96406108089e-18)
(-0.667709948736 -4.91048735799 -1.11752173459e-18)
(-180.754792957 -141.660406731 -1.43544284811e-19)
(-195.727810106 -164.160766773 -1.10319699764e-19)
(-211.583234118 -190.485218929 -1.41293634314e-18)
(-227.405338202 -221.813499462 4.8994909415e-19)
(-241.927527012 -258.764454056 -1.31896004424e-18)
(-248.418027905 -304.622648127 -1.52219654187e-18)
(-243.660960152 -353.331014702 7.81200816681e-18)
(-208.059223408 -291.016165489 -5.0988697806e-18)
(-49.0035477224 -85.1752892113 3.20632425448e-17)
(4.20960801837 -0.8640273418 -3.84642736974e-19)
)
;

boundaryField
{
    back
    {
        type            calculated;
        value           uniform (0 0 0);
    }
    sides
    {
        type            calculated;
        value           nonuniform List<vector> 0();
    }
    bottom
    {
        type            calculated;
        value           nonuniform List<vector> 0();
    }
    front
    {
        type            calculated;
        value           uniform (0 0 0);
    }
    atmosphere
    {
        type            calculated;
        value           nonuniform List<vector> 
16
(
(3.98660486831e-07 0.480101564144 -2.27824088597e-26)
(-8.57105908609e-06 0.473519388866 -2.84647478942e-24)
(1.56346121444e-05 0.435660948854 8.8583338452e-24)
(1.21042050803e-05 0.641008880491 2.23946533688e-24)
(3.85871895663 0.488119530389 -1.78896816292e-18)
(-6.32965709752 -0.74770849543 -1.70290038485e-18)
(3.48299395875 -0.371769056925 -1.86967043694e-18)
(-1.21445816157 5.76789206193 8.54230805337e-20)
(-4.15454885967 -0.99793090395 1.9865431287e-19)
(-0.0074074749693 -0.319392028827 -1.2565082924e-20)
(-4.01107245123 0.157040331508 -4.52183411496e-18)
(-2.17590083615 -0.451491934634 -1.35223680178e-18)
(-0.499127216471 -0.428505359237 1.58390263837e-18)
(-5.27544947614 1.69830055107 4.81658191822e-19)
(-0.761509883529 -4.91037185983 -1.12374645552e-18)
(11.1740556389 -0.864354695959 2.12761579932e-18)
)
;
    }
    floatingObject
    {
        type            calculated;
        value           nonuniform List<vector> 0();
    }
    procBoundary5to0
    {
        type            processor;
        value           nonuniform List<vector> 
12
(
(-120.756649706 76.6635156513 -5.11412142951e-21)
(-121.17045328 90.7587750186 -1.44504984018e-20)
(-121.074782808 106.813260785 5.62224682069e-20)
(-120.266867872 125.136494558 -5.45966218094e-20)
(-118.533519119 146.075860176 -5.10753371163e-20)
(-115.680690188 170.213250336 9.31523597582e-19)
(-111.686702162 199.478591588 9.50185071882e-19)
(-106.385671655 250.332021135 1.39885214988e-18)
(-87.5381182708 251.097193285 -1.85281248578e-17)
(-54.1858077175 114.151116495 -2.42497732821e-17)
(-0.107923755857 0.370478288903 -6.59098737638e-21)
(0.0180861353578 0.426293145121 -5.71427637524e-21)
)
;
    }
    procBoundary5to3
    {
        type            processor;
        value           nonuniform List<vector> 10((-160.555880268 -154.825866362 5.28623148021e-19) (-173.092275716 -177.82555577 7.46131744979e-19) (-185.479202888 -203.942063363 5.72592946703e-19) (-196.546113724 -234.045797945 8.9745847069e-19) (-204.915051409 -268.005268908 -4.59992655667e-19) (-208.605264848 -310.378901137 1.00721553587e-17) (-202.700126139 -359.622261148 -2.87219831595e-18) (-179.509997151 -316.247581646 -2.19162451251e-17) (-32.6417469153 -91.9365739148 -3.56495696496e-17) (0.858935865597 -0.581737570091 3.12148798076e-19));
    }
    procBoundary5to4
    {
        type            processor;
        value           nonuniform List<vector> 
18
(
(-131.703408846 62.7608260048 5.80658810949e-21)
(-143.290306984 59.8686655907 -1.18618728519e-20)
(-160.034999648 67.3378952003 -1.4294362132e-20)
(-166.218602289 81.2702576144 -1.08174228371e-20)
(-166.218602289 81.2702576144 -1.08174228371e-20)
(-180.565397207 73.6180543602 1.8864680166e-20)
(-193.844011921 63.5782698311 5.78276250953e-20)
(-205.529103461 51.2046048506 -1.21830575784e-20)
(-215.165585166 36.6712476462 -4.09291263164e-21)
(-222.325780821 20.242183368 1.16882456261e-20)
(-226.610835072 2.25714146518 -1.33044812738e-21)
(-227.733161851 -16.821228868 1.46476885981e-19)
(-225.485768918 -36.4664900839 1.21525760343e-19)
(-219.772134912 -56.0562452399 -9.25707775438e-20)
(-210.666107603 -74.8857824228 2.77940456123e-20)
(-198.536783215 -92.3593164329 8.92498285883e-20)
(-183.802573859 -108.104204468 -7.11017900497e-21)
(-166.953198565 -122.019791655 8.69672755962e-20)
)
;
    }
}


// ************************************************************************* //
