/*--------------------------------*- C++ -*----------------------------------*\
| =========                 |                                                 |
| \\      /  F ield         | OpenFOAM: The Open Source CFD Toolbox           |
|  \\    /   O peration     | Version:  v2012                                 |
|   \\  /    A nd           | Website:  www.openfoam.com                      |
|    \\/     M anipulation  |                                                 |
\*---------------------------------------------------------------------------*/
FoamFile
{
    version     2.0;
    format      ascii;
    class       volVectorField;
    location    "6";
    object      ddt0(rho,U);
}
// * * * * * * * * * * * * * * * * * * * * * * * * * * * * * * * * * * * * * //

dimensions      [1 -2 -2 0 0 0 0];


internalField   nonuniform List<vector> 
164
(
(-91.5584615827 -66.9668812337 1.27249809659e-17)
(-99.162275882 -77.501687177 1.71157584003e-17)
(-108.462251584 -88.1037349491 1.94723890681e-17)
(-119.517308791 -98.5168025313 2.33393355775e-17)
(-132.212907242 -108.536380239 2.88660679322e-17)
(-146.375307806 -118.257227299 3.03379439223e-17)
(-162.354002191 -128.320780063 2.33685354477e-17)
(-180.176586926 -138.153920156 9.66038044347e-18)
(-201.582789745 -151.4984476 7.18325519081e-18)
(-225.720362259 -153.910161024 1.93813856975e-17)
(-217.541925136 -111.487908269 4.6517978194e-18)
(-46.7302019442 -14.591168629 -1.14348016721e-18)
(-0.316936593559 -0.339267033308 1.38323274804e-21)
(-62.4112179384 -4.38474400689 -6.93920661229e-20)
(-63.2070313214 -12.6918933674 7.02479796741e-20)
(-64.1608014309 -21.4458388543 4.62486347172e-19)
(-65.6227370131 -30.6398711533 1.52910001314e-18)
(-70.6797351318 -50.7591904402 1.36010575406e-17)
(-74.7703606206 -61.8929346003 3.0088070159e-17)
(-80.3356728572 -73.6961701026 5.1420293581e-17)
(-87.7010639932 -85.9692759872 6.72757085671e-17)
(-97.0300535015 -98.3908229378 7.7302924662e-17)
(-108.409540291 -110.582010584 1.00014925121e-16)
(-121.563040346 -122.151052233 1.35207858078e-16)
(-135.677384474 -133.403213603 1.45451125784e-16)
(-150.771227916 -145.751409307 1.19566877327e-16)
(-167.865577856 -159.282686972 6.71880874248e-17)
(-189.036648349 -177.989400749 2.26126848925e-17)
(-210.137719575 -190.5227176 2.67075435464e-17)
(-198.454853358 -147.199202763 1.36146372156e-17)
(-39.1880272004 -25.6627578 -2.12576895783e-17)
(-0.296609626101 -0.382034086854 -3.33883548247e-20)
(-53.8409606474 -4.56461334231 -7.38336316901e-20)
(-54.4180337468 -13.2330948213 3.37307376006e-19)
(-55.014935491 -22.4016531603 1.48979161071e-18)
(-55.9314180513 -32.1218191573 5.49936739581e-18)
(-57.3023327141 -42.5529287092 1.78078657983e-17)
(-59.3568710636 -53.9490745148 4.9054923339e-17)
(-62.4627442189 -66.4756629567 1.07505969386e-16)
(-67.1909866465 -80.1063227826 1.78127071148e-16)
(-74.2162233625 -94.4559425653 2.24009437893e-16)
(-83.5921566307 -108.976366879 2.61140893876e-16)
(-95.4263722082 -123.146140458 3.65045871831e-16)
(-109.571367178 -136.063483562 5.0197804686e-16)
(-123.538953441 -148.038263743 4.70519778706e-16)
(-136.533325307 -162.376336017 4.24027788571e-16)
(-151.074659789 -178.696222639 1.73359372012e-16)
(-168.886885266 -205.530556115 4.82987526634e-17)
(-184.148098745 -222.969206136 8.49036942307e-17)
(-174.767939236 -176.268288795 1.89464505815e-17)
(-34.015706399 -28.3494091616 -8.52553277258e-18)
(-0.271625477604 -0.379567500151 -1.09595358873e-20)
(-45.0098374371 -4.64640692994 -1.56882318108e-23)
(-45.3388102041 -13.4764216538 1.01066832235e-18)
(-45.5049865511 -22.8499116322 4.47211977782e-18)
(-45.7335251154 -32.8750096286 1.66259927795e-17)
(-46.1233962702 -43.8018750008 5.39749937344e-17)
(-46.8845239715 -56.0526008926 1.44888766941e-16)
(-48.465807822 -70.0166607094 2.97999692161e-16)
(-51.771312836 -85.906543229 4.41701283164e-16)
(-58.7638654061 -102.778404072 5.08163096438e-16)
(-68.1904854621 -119.418207739 6.22095034425e-16)
(-80.7306737678 -135.861855972 8.79793318618e-16)
(-97.1410866766 -149.889662986 1.10302224891e-15)
(-110.983665459 -161.372565289 8.12325810397e-16)
(-120.431052046 -176.117938137 7.82679905568e-16)
(-129.730559569 -194.138192941 2.02367488642e-16)
(-141.864046199 -228.471723849 -3.9812577819e-17)
(-152.831566683 -251.611161798 8.83072003378e-17)
(-150.383739319 -207.582041348 1.27562320753e-17)
(-30.2292856341 -35.5012276314 9.18193713365e-19)
(-0.338241453338 -0.387651526773 1.52321567452e-19)
(-36.1318120258 -4.61651002345 3.35914227521e-19)
(-36.2000030536 -13.3819155868 2.64737200612e-18)
(-35.9030666546 -22.6945994785 1.1359911441e-17)
(-35.3422108472 -32.6988640666 4.19492302776e-17)
(-34.4978666101 -43.7324495481 1.34053787378e-16)
(-33.4335812142 -56.472910162 3.5539684403e-16)
(-32.1769315333 -71.7552591882 6.64727028176e-16)
(-32.3032090412 -91.008729446 8.52818428536e-16)
(-40.5423597408 -110.905827372 1.08525532101e-15)
(-50.3088178392 -128.962135502 8.61507892897e-16)
(-63.5403709055 -148.474683774 1.1378619427e-15)
(-82.4784387754 -164.5593245 1.38341792554e-15)
(-99.4383117618 -174.777393388 8.83377332265e-16)
(-105.306018709 -184.067500487 5.31476599507e-16)
(-106.475988553 -203.262822733 -3.66737317151e-16)
(-109.69740506 -238.007548355 -4.07964761303e-16)
(-110.14391643 -264.890795137 4.42835633678e-17)
(-105.960147501 -227.121264125 -3.34705836077e-17)
(-20.5633113832 -40.170768489 -1.13492880653e-16)
(-0.220016943639 0.0636839862669 2.88921732087e-19)
(-27.4099201769 -4.47297902337 1.08353993019e-18)
(-27.2332466437 -12.9487437184 5.81663730566e-18)
(-26.4721607055 -21.9084969016 2.32365283487e-17)
(-25.0979991823 -31.4584149301 8.26719769729e-17)
(-23.0592400721 -41.9308682164 2.57184074801e-16)
(-20.5485303968 -53.8323570906 6.3070119097e-16)
(-17.4554288247 -69.3492912479 1.10573545809e-15)
(-14.9377630553 -95.1092021596 1.10009980935e-15)
(-25.2470217141 -119.053447718 1.07026620734e-15)
(-32.950355952 -137.005741193 5.00769582622e-16)
(-42.2467346502 -159.67510337 7.44771046746e-16)
(-61.4307759284 -186.839023017 1.91737975295e-15)
(-102.07404086 -197.634428513 1.46616529549e-15)
(-92.5954905812 -188.153318208 -1.67533718562e-15)
(-84.0691948146 -201.870545211 -1.33161559014e-15)
(-78.3487468926 -230.311780955 -7.77156320184e-16)
(-65.3506769808 -254.225269235 1.73009795728e-17)
(-53.2237325716 -216.490187993 -1.80731407408e-16)
(-8.65939405284 -37.2048986065 -3.08327192095e-16)
(-0.0389039786101 -0.344121070695 -1.02721269804e-20)
(-19.06988491 -4.22767722201 2.21626347556e-18)
(-18.738348057 -12.1870349161 9.95109291604e-18)
(-17.6584110708 -20.472286969 3.69228988156e-17)
(-15.4692038228 -29.2173093633 1.22093543816e-16)
(-11.3458550726 -39.0223866885 3.35807391569e-16)
(-3.79173578969 -50.6394036333 7.03434433628e-16)
(10.2193356778 -67.8592034356 2.00088251602e-15)
(30.5244983153 -96.4801085483 3.02090546558e-15)
(-4.66739191154 -121.841476843 1.72629847517e-15)
(-13.3028677752 -137.23379287 -7.46479514677e-16)
(-18.0521770029 -161.792739177 -1.69822848727e-15)
(-51.6995991982 -222.77347958 -3.68889916064e-15)
(-139.972943457 -200.134482882 -6.92682277067e-15)
(-99.1580405945 -184.504469185 -2.49756871557e-15)
(-70.0406422673 -186.132164153 -1.43794784891e-15)
(-48.4720549151 -206.790228215 -8.59441148866e-16)
(-28.331447153 -216.582436201 -2.21205218006e-16)
(-20.2672822519 -174.689538165 -3.79495995835e-16)
(-9.24743063798 -21.7964769004 -4.81582631057e-16)
(-0.0833634880279 -0.254270483566 -5.85580484962e-19)
(-11.2224128263 -3.96601068428 3.3137934128e-18)
(-10.9137728419 -11.3294034746 1.39570926589e-17)
(-9.9717620713 -18.5564614679 4.94668972741e-17)
(-8.04831670096 -25.0055394767 1.47803002322e-16)
(-4.19139371177 -29.9073629524 3.68945931656e-16)
(3.15632380509 -32.3436074645 5.75683585793e-16)
(17.3241831086 -29.0338508274 9.9085690169e-16)
(41.7968321224 -18.3739474646 -6.64557122133e-16)
(-3.7986388486 -3.79560450323 4.1799126918e-18)
(-3.67730009438 -10.8018982485 1.66992466052e-17)
(-3.32610114448 -17.5514673319 5.76400716481e-17)
(-2.69618145718 -23.3136015573 1.76797553653e-16)
(-1.69737447806 -27.4823296185 3.66033355169e-16)
(-0.420403973808 -28.4467978143 6.13564335215e-16)
(1.93889660434 -24.1725774384 8.57712878599e-16)
(4.23844648728 -10.8937629206 -3.08048036082e-16)
(3.45039631603 -3.79904701994 4.06106034267e-18)
(3.32195690482 -10.8183865423 1.67174791686e-17)
(2.96152608884 -17.5751444718 5.78458304082e-17)
(2.28807979999 -23.3302754375 1.85230246315e-16)
(1.17570121237 -27.4695458623 3.56259800254e-16)
(-0.125707740016 -28.520073043 6.06046545612e-16)
(-2.59790209135 -24.3155517857 8.50464088891e-16)
(-5.17464987637 -10.9452135009 -3.11311127235e-16)
(10.9018616902 -3.97186707159 3.12411203396e-18)
(10.5930436819 -11.350652753 1.36681556407e-17)
(9.66080746532 -18.6218343332 4.89516423224e-17)
(7.73029884088 -25.1998202198 1.48305898338e-16)
(3.89613419411 -30.1006923488 3.65259415705e-16)
(-3.59042093286 -32.4521368686 5.68605735969e-16)
(-17.8258761175 -29.3110985875 9.85749123428e-16)
(-42.7993753122 -18.5259968835 -6.64633557428e-16)
)
;

boundaryField
{
    back
    {
        type            calculated;
        value           uniform (0 0 0);
    }
    sides
    {
        type            calculated;
        value           nonuniform List<vector> 0();
    }
    bottom
    {
        type            calculated;
        value           uniform (0 0 0);
    }
    front
    {
        type            calculated;
        value           uniform (0 0 0);
    }
    atmosphere
    {
        type            calculated;
        value           nonuniform List<vector> 7((0.00702883754998 -0.339267145421 1.61169049006e-21) (0.0205981168236 -0.382034086217 2.16547156611e-20) (-0.0311966389233 -0.382670056703 -2.52027283282e-20) (0.0858764582471 -0.388148461411 2.40314700886e-19) (-0.0429985913029 0.0631285146279 -3.92287694162e-18) (0.227462524716 -0.346203095077 3.34976057089e-18) (0.0369274235964 -0.281878119668 3.4656842195e-19));
    }
    floatingObject
    {
        type            calculated;
        value           nonuniform List<vector> 8((0 2.23121569753e-14 -2.78901962192e-15) (0 0 -2.7891529114e-15) (0 0 0) (0 4.46600676375e-14 -2.79125422734e-15) (-5.57937665923e-15 0 0) (0 0 -2.78986565565e-15) (0 0 -2.78986323416e-15) (0 0 0));
    }
    procBoundary3to4
    {
        type            processor;
        value           nonuniform List<vector> 
13
(
(-101.211814794 -59.9894558351 2.70205726007e-18)
(-108.947257768 -68.9782585072 3.61523433543e-18)
(-118.186430521 -77.9610510361 4.10958192289e-18)
(-70.5523120963 -4.13285668565 -1.41842313097e-19)
(-71.5343263411 -11.9301002944 5.26754547837e-20)
(-72.7668203384 -20.1137495475 1.73286482711e-19)
(-74.6391827582 -28.6346389 3.79983042462e-19)
(-80.8214240787 -46.8801140822 3.24682228132e-18)
(-85.5121863047 -56.7131273053 7.2194633715e-18)
(-85.5121863047 -56.7131273053 7.2194633715e-18)
(-67.7254172788 -40.3601500314 4.90235591453e-18)
(-67.7254172788 -40.3601500314 4.90235591453e-18)
(-67.7254172788 -40.3601500314 4.90235591453e-18)
)
;
    }
    procBoundary3to5
    {
        type            processor;
        value           nonuniform List<vector> 10((-128.986422561 -86.7483495244 4.75636314979e-18) (-141.343458266 -95.1917573941 5.41376264782e-18) (-155.332276049 -103.240047642 5.59667091768e-18) (-171.268761623 -111.17620024 5.08965411441e-18) (-188.747704266 -117.856614689 2.50636663527e-18) (-207.874072529 -127.36116189 -3.88357772945e-18) (-228.038858861 -121.508005362 7.03942427264e-19) (-214.170246946 -83.7182732661 -1.14407214442e-18) (-40.6845672887 -4.96577789602 -4.08980972884e-18) (-0.333734178148 -0.0585438614099 3.91411023106e-21));
    }
    procBoundary3to6
    {
        type            processor;
        value           nonuniform List<vector> 8((-132.711002799 -51.213938517 -8.39188315585e-16) (-79.4395220471 -106.833110349 -1.48480829311e-15) (-51.6313833159 -137.491569657 -7.86113594178e-16) (-30.8907040102 -161.722271079 -5.85268459398e-16) (-5.2900249367 -174.052501495 -1.5814687333e-16) (7.67678053275 -131.421829917 -5.02782561615e-16) (-10.577096901 -13.4921901013 -6.54597915828e-16) (-0.0855890650193 -0.336369128383 -1.29178568052e-19));
    }
    procBoundary3to8
    {
        type            processor;
        value           nonuniform List<vector> 8((18.8028474815 -4.23702052674 2.13862227576e-18) (18.4737979117 -12.2183759609 9.79518993693e-18) (17.4028050171 -20.5294371503 3.6678842034e-17) (15.2535363789 -29.2568217089 1.21204679098e-16) (11.2102994919 -39.175594011 3.34566779947e-16) (3.56278542912 -50.9409695841 7.00661192185e-16) (-10.6402249398 -68.4484938238 1.97763137731e-15) (-31.2293309795 -97.9396068683 2.96848483768e-15));
    }
}


// ************************************************************************* //
