/*--------------------------------*- C++ -*----------------------------------*\
| =========                 |                                                 |
| \\      /  F ield         | OpenFOAM: The Open Source CFD Toolbox           |
|  \\    /   O peration     | Version:  v2012                                 |
|   \\  /    A nd           | Website:  www.openfoam.com                      |
|    \\/     M anipulation  |                                                 |
\*---------------------------------------------------------------------------*/
FoamFile
{
    version     2.0;
    format      ascii;
    class       volScalarField;
    location    "6";
    object      epsilon_0;
}
// * * * * * * * * * * * * * * * * * * * * * * * * * * * * * * * * * * * * * //

dimensions      [0 2 -3 0 0 0 0];


internalField   nonuniform List<scalar> 
164
(
0.000449634402819
0.000454002815322
0.000459023335571
0.000465550295285
0.000476259013682
0.000499139080101
0.000557444556102
0.000718395139866
0.00115571845136
0.00229732779685
0.00627864854379
0.0299825814463
0.153411331361
0.00035358830916
0.000370112129631
0.000408701893809
0.000425371763201
0.000438771567325
0.000443074645617
0.000447374088409
0.000452056349424
0.000457380476794
0.000464057310833
0.000474603313773
0.00049676790841
0.00055364115817
0.000712156917414
0.00114213747559
0.00224376892841
0.00583451264491
0.0267718047983
0.148056384569
0.00035030653302
0.000367100240104
0.000405521244741
0.000422189669033
0.000430487875528
0.000435775362793
0.000440204015115
0.000444692505138
0.000449695256652
0.000455422233639
0.000462450385809
0.000473339971654
0.000496009376864
0.000553180278527
0.000712016261712
0.00114648932922
0.00230215125268
0.006291462919
0.0275370550901
0.145015240455
0.000346981400159
0.00036412166971
0.000402361535169
0.000418955236607
0.00042718752405
0.000432323457687
0.00043649572796
0.000440763239723
0.000445905888009
0.000452110971463
0.000459646908781
0.000471404769009
0.000496443740316
0.000556649726584
0.000718354277709
0.00115806273103
0.00233711458298
0.00641371597652
0.0262754202359
0.128345204675
0.000343731352315
0.000361292563406
0.000399311926766
0.000415693933237
0.000423535225236
0.000427849358449
0.000430574498232
0.000433003515963
0.000437369562704
0.000443841930686
0.000451790735042
0.000464895197867
0.000495925264685
0.000565117885152
0.000735894060438
0.00118067663328
0.00231645522866
0.00611536602471
0.0244739485429
0.104360379283
0.000340642400116
0.000358699657583
0.000396444294428
0.000412379267278
0.000419223115807
0.000421222369764
0.000419122164167
0.00041318104201
0.000412973404389
0.000418511551148
0.000426507521245
0.000441321845211
0.000487488470949
0.000579532828332
0.000773881476989
0.00123850833453
0.00235454103768
0.00609253553586
0.0268229008453
0.132441528455
0.00033782785665
0.000356457849738
0.000393870722761
0.000409106129923
0.000414231152369
0.000411832982509
0.000398329486132
0.000365837186818
0.000435785075336
0.000433153098509
0.00044203900501
0.000480290711128
0.000468592776876
0.00061046925361
0.000848009652879
0.00134455938835
0.00247594111274
0.0064775101374
0.0311739947566
0.154157917987
0.000335352503507
0.000354534950579
0.000391700142851
0.000406268602265
0.000409776677236
0.000403404014165
0.000378868601675
0.000392363948513
0.000333738279104
0.000353449377727
0.000390503479253
0.000404683161132
0.000407288019767
0.000398944339174
0.000369853640222
0.000365271464561
0.000333698115301
0.000353432775139
0.00039049716504
0.000404683343102
0.000407293540015
0.000398954654265
0.000369860885449
0.000365304409565
0.000335294568488
0.000354498783375
0.00039168366683
0.000406262497478
0.000409771281523
0.000403393474568
0.000378841270321
0.00039232573625
)
;

boundaryField
{
    back
    {
        lowReCorrection 0;
        blending        stepwise;
        n               2;
        type            epsilonWallFunction;
        value           nonuniform List<scalar> 
164
(
0.000449634402819
0.000454002815322
0.000459023335571
0.000465550295285
0.000476259013682
0.000499139080101
0.000557444556102
0.000718395139866
0.00115571845136
0.00229732779685
0.00627864854379
0.0299825814463
0.153411331361
0.00035358830916
0.000370112129631
0.000408701893809
0.000425371763201
0.000438771567325
0.000443074645617
0.000447374088409
0.000452056349424
0.000457380476794
0.000464057310833
0.000474603313773
0.00049676790841
0.00055364115817
0.000712156917414
0.00114213747559
0.00224376892841
0.00583451264491
0.0267718047983
0.148056384569
0.00035030653302
0.000367100240104
0.000405521244741
0.000422189669033
0.000430487875528
0.000435775362793
0.000440204015115
0.000444692505138
0.000449695256652
0.000455422233639
0.000462450385809
0.000473339971654
0.000496009376864
0.000553180278527
0.000712016261712
0.00114648932922
0.00230215125268
0.006291462919
0.0275370550901
0.145015240455
0.000346981400159
0.00036412166971
0.000402361535169
0.000418955236607
0.00042718752405
0.000432323457687
0.00043649572796
0.000440763239723
0.000445905888009
0.000452110971463
0.000459646908781
0.000471404769009
0.000496443740316
0.000556649726584
0.000718354277709
0.00115806273103
0.00233711458298
0.00641371597652
0.0262754202359
0.128345204675
0.000343731352315
0.000361292563406
0.000399311926766
0.000415693933237
0.000423535225236
0.000427849358449
0.000430574498232
0.000433003515963
0.000437369562704
0.000443841930686
0.000451790735042
0.000464895197867
0.000495925264685
0.000565117885152
0.000735894060438
0.00118067663328
0.00231645522866
0.00611536602471
0.0244739485429
0.104360379283
0.000340642400116
0.000358699657583
0.000396444294428
0.000412379267278
0.000419223115807
0.000421222369764
0.000419122164167
0.00041318104201
0.000412973404389
0.000418511551148
0.000426507521245
0.000441321845211
0.000487488470949
0.000579532828332
0.000773881476989
0.00123850833453
0.00235454103768
0.00609253553586
0.0268229008453
0.132441528455
0.00033782785665
0.000356457849738
0.000393870722761
0.000409106129923
0.000414231152369
0.000411832982509
0.000398329486132
0.000365837186818
0.000435785075336
0.000433153098509
0.00044203900501
0.000480290711128
0.000468592776876
0.00061046925361
0.000848009652879
0.00134455938835
0.00247594111274
0.0064775101374
0.0311739947566
0.154157917987
0.000335352503507
0.000354534950579
0.000391700142851
0.000406268602265
0.000409776677236
0.000403404014165
0.000378868601675
0.000392363948513
0.000333738279104
0.000353449377727
0.000390503479253
0.000404683161132
0.000407288019767
0.000398944339174
0.000369853640222
0.000365271464561
0.000333698115301
0.000353432775139
0.00039049716504
0.000404683343102
0.000407293540015
0.000398954654265
0.000369860885449
0.000365304409565
0.000335294568488
0.000354498783375
0.00039168366683
0.000406262497478
0.000409771281523
0.000403393474568
0.000378841270321
0.00039232573625
)
;
    }
    sides
    {
        lowReCorrection 0;
        blending        stepwise;
        n               2;
        type            epsilonWallFunction;
        value           nonuniform List<scalar> 0();
    }
    bottom
    {
        lowReCorrection 0;
        blending        stepwise;
        n               2;
        type            epsilonWallFunction;
        value           nonuniform List<scalar> 10(0.00035358830916 0.00035030653302 0.000346981400159 0.000343731352315 0.000340642400116 0.00033782785665 0.000335352503507 0.000333738279104 0.000333698115301 0.000335294568488);
    }
    front
    {
        lowReCorrection 0;
        blending        stepwise;
        n               2;
        type            epsilonWallFunction;
        value           nonuniform List<scalar> 
164
(
0.000449634402819
0.000454002815322
0.000459023335571
0.000465550295285
0.000476259013682
0.000499139080101
0.000557444556102
0.000718395139866
0.00115571845136
0.00229732779685
0.00627864854379
0.0299825814463
0.153411331361
0.00035358830916
0.000370112129631
0.000408701893809
0.000425371763201
0.000438771567325
0.000443074645617
0.000447374088409
0.000452056349424
0.000457380476794
0.000464057310833
0.000474603313773
0.00049676790841
0.00055364115817
0.000712156917414
0.00114213747559
0.00224376892841
0.00583451264491
0.0267718047983
0.148056384569
0.00035030653302
0.000367100240104
0.000405521244741
0.000422189669033
0.000430487875528
0.000435775362793
0.000440204015115
0.000444692505138
0.000449695256652
0.000455422233639
0.000462450385809
0.000473339971654
0.000496009376864
0.000553180278527
0.000712016261712
0.00114648932922
0.00230215125268
0.006291462919
0.0275370550901
0.145015240455
0.000346981400159
0.00036412166971
0.000402361535169
0.000418955236607
0.00042718752405
0.000432323457687
0.00043649572796
0.000440763239723
0.000445905888009
0.000452110971463
0.000459646908781
0.000471404769009
0.000496443740316
0.000556649726584
0.000718354277709
0.00115806273103
0.00233711458298
0.00641371597652
0.0262754202359
0.128345204675
0.000343731352315
0.000361292563406
0.000399311926766
0.000415693933237
0.000423535225236
0.000427849358449
0.000430574498232
0.000433003515963
0.000437369562704
0.000443841930686
0.000451790735042
0.000464895197867
0.000495925264685
0.000565117885152
0.000735894060438
0.00118067663328
0.00231645522866
0.00611536602471
0.0244739485429
0.104360379283
0.000340642400116
0.000358699657583
0.000396444294428
0.000412379267278
0.000419223115807
0.000421222369764
0.000419122164167
0.00041318104201
0.000412973404389
0.000418511551148
0.000426507521245
0.000441321845211
0.000487488470949
0.000579532828332
0.000773881476989
0.00123850833453
0.00235454103768
0.00609253553586
0.0268229008453
0.132441528455
0.00033782785665
0.000356457849738
0.000393870722761
0.000409106129923
0.000414231152369
0.000411832982509
0.000398329486132
0.000365837186818
0.000435785075336
0.000433153098509
0.00044203900501
0.000480290711128
0.000468592776876
0.00061046925361
0.000848009652879
0.00134455938835
0.00247594111274
0.0064775101374
0.0311739947566
0.154157917987
0.000335352503507
0.000354534950579
0.000391700142851
0.000406268602265
0.000409776677236
0.000403404014165
0.000378868601675
0.000392363948513
0.000333738279104
0.000353449377727
0.000390503479253
0.000404683161132
0.000407288019767
0.000398944339174
0.000369853640222
0.000365271464561
0.000333698115301
0.000353432775139
0.00039049716504
0.000404683343102
0.000407293540015
0.000398954654265
0.000369860885449
0.000365304409565
0.000335294568488
0.000354498783375
0.00039168366683
0.000406262497478
0.000409771281523
0.000403393474568
0.000378841270321
0.00039232573625
)
;
    }
    atmosphere
    {
        type            inletOutlet;
        inletValue      uniform 0.1;
        value           uniform 0.1;
    }
    floatingObject
    {
        lowReCorrection 0;
        blending        stepwise;
        n               2;
        type            epsilonWallFunction;
        value           nonuniform List<scalar> 8(0.000435785075336 0.000433153098509 0.00044203900501 0.000480290711128 0.000392363948513 0.000365271464561 0.000365304409565 0.00039232573625);
    }
    procBoundary3to4
    {
        type            processor;
        value           nonuniform List<scalar> 
13
(
0.000451718832983
0.000455798946311
0.000460600491769
0.000356754775154
0.000373082693002
0.000411834639873
0.000428470819875
0.000441541012784
0.000445610220271
0.000445610220271
0.000433595184691
0.000433595184691
0.000433595184691
)
;
    }
    procBoundary3to5
    {
        type            processor;
        value           nonuniform List<scalar> 10(0.000467101916974 0.00047827358573 0.000502569270472 0.000563726927656 0.000729525981157 0.00118036810411 0.00240042282569 0.00690769439023 0.0331722660448 0.156591619149);
    }
    procBoundary3to6
    {
        type            processor;
        value           nonuniform List<scalar> 8(0.000653856080996 0.000722046840952 0.000993319886661 0.00149970109723 0.00261004271231 0.00672044606224 0.0322997873713 0.157541244264);
    }
    procBoundary3to8
    {
        type            processor;
        value           nonuniform List<scalar> 8(0.000337777981289 0.000356427635993 0.000393856628115 0.000409100616867 0.000414214200285 0.000411774339107 0.000398197756296 0.000365703996881);
    }
}


// ************************************************************************* //
