/*--------------------------------*- C++ -*----------------------------------*\
| =========                 |                                                 |
| \\      /  F ield         | OpenFOAM: The Open Source CFD Toolbox           |
|  \\    /   O peration     | Version:  v2012                                 |
|   \\  /    A nd           | Website:  www.openfoam.com                      |
|    \\/     M anipulation  |                                                 |
\*---------------------------------------------------------------------------*/
FoamFile
{
    version     2.0;
    format      ascii;
    class       volScalarField;
    location    "6";
    object      p_rgh;
}
// * * * * * * * * * * * * * * * * * * * * * * * * * * * * * * * * * * * * * //

dimensions      [1 -1 -2 0 0 0 0];


internalField   nonuniform List<scalar> 
164
(
8718.53245793
8721.85777909
8725.66940811
8729.99167433
8734.78711327
8740.06839422
8745.84341116
8752.2210474
8759.1775383
8766.98198896
7381.25157634
1070.50771325
-0.0360780533896
8710.88736255
8711.25726312
8712.0272703
8713.20583846
8716.884143
8719.45081504
8722.54586183
8726.20159865
8730.42830925
8735.23386179
8740.60909488
8746.53425319
8753.03221405
8760.20476338
8768.12258229
8777.17845555
7505.1478359
1193.20845109
-0.0510660972253
8713.62113766
8714.00765712
8714.81156936
8716.04624252
8717.73568505
8719.92518826
8722.65752889
8725.99175313
8729.97200274
8734.60702303
8739.90553566
8745.8563941
8752.4048643
8759.55670096
8767.42996405
8776.11559854
8786.18938891
7632.41942672
1279.67047479
-0.0393436757695
8715.94150344
8716.33532721
8717.15478218
8718.41560296
8720.14941693
8722.40473632
8725.25064218
8728.77915134
8733.0639411
8738.09282559
8743.87949037
8750.43169586
8757.63524908
8765.32546662
8773.74304965
8782.95005798
8793.75627595
7745.65754362
1352.74202997
-0.0331063727135
8717.84079216
8718.23204783
8719.04611911
8720.29892487
8722.02448527
8724.27718693
8727.14126974
8730.77689918
8735.3726246
8740.76829518
8747.02447423
8754.24848006
8762.31703446
8770.35214034
8779.07038851
8788.46285111
8799.41373225
7791.32599369
1428.47614675
-0.0494738190112
8719.32167675
8719.7004652
8720.48775498
8721.69610495
8723.3562936
8725.51495162
8728.22890609
8731.77326992
8736.8323344
8742.53430079
8749.18586336
8757.01067648
8766.4980549
8774.8368202
8783.54014461
8792.63670792
8803.15135371
7800.46593355
1480.05729392
-0.0429655782221
8720.39731982
8720.7553417
8721.49572961
8722.62327562
8724.16799063
8726.20317065
8728.79143463
8732.24228939
8737.59838259
8743.52030289
8750.12321063
8757.39965462
8770.94449811
8779.48942594
8787.45985632
8795.69732082
8805.20669945
7752.59031615
1516.87518031
-0.0408714186774
8721.08988168
8721.42476753
8722.1075034
8723.11115971
8724.38413061
8725.82391673
8727.2871763
8728.29888593
8721.42516127
8721.74594431
8722.39630209
8723.3413159
8724.52440691
8725.85598391
8727.11529671
8728.05731536
8721.41942193
8721.741289
8722.39423162
8723.34268865
8724.52858014
8725.86119551
8727.12588229
8728.07361587
8721.07181972
8721.40927721
8722.09814828
8723.11254008
8724.4023057
8725.85818808
8727.33064258
8728.36120676
)
;

boundaryField
{
    back
    {
        type            fixedFluxPressure;
        gradient        uniform 0;
        value           nonuniform List<scalar> 
164
(
8718.53245793
8721.85777909
8725.66940811
8729.99167433
8734.78711327
8740.06839422
8745.84341116
8752.2210474
8759.1775383
8766.98198896
7381.25157634
1070.50771325
-0.0360780533896
8710.88736255
8711.25726312
8712.0272703
8713.20583846
8716.884143
8719.45081504
8722.54586183
8726.20159865
8730.42830925
8735.23386179
8740.60909488
8746.53425319
8753.03221405
8760.20476338
8768.12258229
8777.17845555
7505.1478359
1193.20845109
-0.0510660972253
8713.62113766
8714.00765712
8714.81156936
8716.04624252
8717.73568505
8719.92518826
8722.65752889
8725.99175313
8729.97200274
8734.60702303
8739.90553566
8745.8563941
8752.4048643
8759.55670096
8767.42996405
8776.11559854
8786.18938891
7632.41942672
1279.67047479
-0.0393436757695
8715.94150344
8716.33532721
8717.15478218
8718.41560296
8720.14941693
8722.40473632
8725.25064218
8728.77915134
8733.0639411
8738.09282559
8743.87949037
8750.43169586
8757.63524908
8765.32546662
8773.74304965
8782.95005798
8793.75627595
7745.65754362
1352.74202997
-0.0331063727135
8717.84079216
8718.23204783
8719.04611911
8720.29892487
8722.02448527
8724.27718693
8727.14126974
8730.77689918
8735.3726246
8740.76829518
8747.02447423
8754.24848006
8762.31703446
8770.35214034
8779.07038851
8788.46285111
8799.41373225
7791.32599369
1428.47614675
-0.0494738190112
8719.32167675
8719.7004652
8720.48775498
8721.69610495
8723.3562936
8725.51495162
8728.22890609
8731.77326992
8736.8323344
8742.53430079
8749.18586336
8757.01067648
8766.4980549
8774.8368202
8783.54014461
8792.63670792
8803.15135371
7800.46593355
1480.05729392
-0.0429655782221
8720.39731982
8720.7553417
8721.49572961
8722.62327562
8724.16799063
8726.20317065
8728.79143463
8732.24228939
8737.59838259
8743.52030289
8750.12321063
8757.39965462
8770.94449811
8779.48942594
8787.45985632
8795.69732082
8805.20669945
7752.59031615
1516.87518031
-0.0408714186774
8721.08988168
8721.42476753
8722.1075034
8723.11115971
8724.38413061
8725.82391673
8727.2871763
8728.29888593
8721.42516127
8721.74594431
8722.39630209
8723.3413159
8724.52440691
8725.85598391
8727.11529671
8728.05731536
8721.41942193
8721.741289
8722.39423162
8723.34268865
8724.52858014
8725.86119551
8727.12588229
8728.07361587
8721.07181972
8721.40927721
8722.09814828
8723.11254008
8724.4023057
8725.85818808
8727.33064258
8728.36120676
)
;
    }
    sides
    {
        type            fixedFluxPressure;
        gradient        nonuniform List<scalar> 0();
        value           nonuniform List<scalar> 0();
    }
    bottom
    {
        type            fixedFluxPressure;
        gradient        uniform 0;
        value           nonuniform List<scalar> 10(8710.88736255 8713.62113766 8715.94150344 8717.84079216 8719.32167675 8720.39731982 8721.08988168 8721.42516127 8721.41942193 8721.07181972);
    }
    front
    {
        type            fixedFluxPressure;
        gradient        uniform 0;
        value           nonuniform List<scalar> 
164
(
8718.53245793
8721.85777909
8725.66940811
8729.99167433
8734.78711327
8740.06839422
8745.84341116
8752.2210474
8759.1775383
8766.98198896
7381.25157634
1070.50771325
-0.0360780533896
8710.88736255
8711.25726312
8712.0272703
8713.20583846
8716.884143
8719.45081504
8722.54586183
8726.20159865
8730.42830925
8735.23386179
8740.60909488
8746.53425319
8753.03221405
8760.20476338
8768.12258229
8777.17845555
7505.1478359
1193.20845109
-0.0510660972253
8713.62113766
8714.00765712
8714.81156936
8716.04624252
8717.73568505
8719.92518826
8722.65752889
8725.99175313
8729.97200274
8734.60702303
8739.90553566
8745.8563941
8752.4048643
8759.55670096
8767.42996405
8776.11559854
8786.18938891
7632.41942672
1279.67047479
-0.0393436757695
8715.94150344
8716.33532721
8717.15478218
8718.41560296
8720.14941693
8722.40473632
8725.25064218
8728.77915134
8733.0639411
8738.09282559
8743.87949037
8750.43169586
8757.63524908
8765.32546662
8773.74304965
8782.95005798
8793.75627595
7745.65754362
1352.74202997
-0.0331063727135
8717.84079216
8718.23204783
8719.04611911
8720.29892487
8722.02448527
8724.27718693
8727.14126974
8730.77689918
8735.3726246
8740.76829518
8747.02447423
8754.24848006
8762.31703446
8770.35214034
8779.07038851
8788.46285111
8799.41373225
7791.32599369
1428.47614675
-0.0494738190112
8719.32167675
8719.7004652
8720.48775498
8721.69610495
8723.3562936
8725.51495162
8728.22890609
8731.77326992
8736.8323344
8742.53430079
8749.18586336
8757.01067648
8766.4980549
8774.8368202
8783.54014461
8792.63670792
8803.15135371
7800.46593355
1480.05729392
-0.0429655782221
8720.39731982
8720.7553417
8721.49572961
8722.62327562
8724.16799063
8726.20317065
8728.79143463
8732.24228939
8737.59838259
8743.52030289
8750.12321063
8757.39965462
8770.94449811
8779.48942594
8787.45985632
8795.69732082
8805.20669945
7752.59031615
1516.87518031
-0.0408714186774
8721.08988168
8721.42476753
8722.1075034
8723.11115971
8724.38413061
8725.82391673
8727.2871763
8728.29888593
8721.42516127
8721.74594431
8722.39630209
8723.3413159
8724.52440691
8725.85598391
8727.11529671
8728.05731536
8721.41942193
8721.741289
8722.39423162
8723.34268865
8724.52858014
8725.86119551
8727.12588229
8728.07361587
8721.07181972
8721.40927721
8722.09814828
8723.11254008
8724.4023057
8725.85818808
8727.33064258
8728.36120676
)
;
    }
    atmosphere
    {
        type            totalPressure;
        rho             rho;
        psi             none;
        gamma           1;
        p0              uniform 0;
        value           nonuniform List<scalar> 7(-0.00144813869996 -0.00235241269935 -0.00189467631458 -0.00215355460675 -0.00353131316214 -0.00339342150235 -0.0026287809599);
    }
    floatingObject
    {
        type            fixedFluxPressure;
        gradient        uniform 0;
        value           nonuniform List<scalar> 8(8737.59838259 8743.52030289 8750.12321063 8757.39965462 8728.29888593 8728.05731536 8728.07361587 8728.36120676);
    }
    procBoundary3to4
    {
        type            processor;
        value           nonuniform List<scalar> 
13
(
8714.02145001
8716.97605405
8720.37176679
8707.75717129
8708.10432421
8708.8254593
8709.92927372
8713.34459692
8715.70443681
8715.70443681
8714.81618125
8714.81618125
8714.81618125
)
;
    }
    procBoundary3to5
    {
        type            processor;
        value           nonuniform List<scalar> 10(8724.18768031 8728.39018699 8733.01538433 8738.08779061 8743.62075376 8749.56766822 8756.01963117 7254.75810117 932.244886087 -0.0140878086257);
    }
    procBoundary3to6
    {
        type            processor;
        value           nonuniform List<scalar> 8(8782.27891634 8785.51442267 8790.9697895 8797.75972215 8805.64931453 7638.74031175 1576.82447422 -0.0494324498418);
    }
    procBoundary3to8
    {
        type            processor;
        value           nonuniform List<scalar> 8(8720.36567188 8720.72801493 8721.47671868 8722.61695865 8724.17498612 8726.22877423 8728.84494293 8732.33386466);
    }
}


// ************************************************************************* //
