/*--------------------------------*- C++ -*----------------------------------*\
| =========                 |                                                 |
| \\      /  F ield         | OpenFOAM: The Open Source CFD Toolbox           |
|  \\    /   O peration     | Version:  v2012                                 |
|   \\  /    A nd           | Website:  www.openfoam.com                      |
|    \\/     M anipulation  |                                                 |
\*---------------------------------------------------------------------------*/
FoamFile
{
    version     2.0;
    format      ascii;
    class       volVectorField;
    location    "6";
    object      U;
}
// * * * * * * * * * * * * * * * * * * * * * * * * * * * * * * * * * * * * * //

dimensions      [0 1 -1 0 0 0 0];


internalField   nonuniform List<vector> 
164
(
(-0.0203052723418 -0.0167121148713 9.28577512234e-21)
(-0.0213892365634 -0.018996068935 1.29198981231e-20)
(-0.0227164517511 -0.021279052975 1.45383103186e-20)
(-0.024420620725 -0.0233775143167 1.57881732296e-20)
(-0.0264140701718 -0.0249821850158 1.80317758787e-20)
(-0.0283843616605 -0.0259442975543 1.84778913974e-20)
(-0.0301439497841 -0.0265462500282 1.57736592022e-20)
(-0.0319045540805 -0.0274343748661 9.94766313389e-21)
(-0.033211458548 -0.0280399000621 3.70532255324e-21)
(-0.0337854344494 -0.0314231986784 5.22682124212e-21)
(-0.0294896812561 -0.0215322372049 8.23882423134e-21)
(-0.0790089206625 -0.0348100561441 1.3198297303e-20)
(-0.0524641747331 -0.0539641728882 1.12542829098e-20)
(-0.0173807725727 -0.00117638130777 1.20292848975e-21)
(-0.0166556261185 -0.00346469816315 6.69773810371e-22)
(-0.0160947188378 -0.00575096867325 5.17049958921e-22)
(-0.0158443966989 -0.00802415296151 1.22933994388e-21)
(-0.0163543809247 -0.01274915455 1.08004872496e-20)
(-0.017009845772 -0.0152116089688 2.54174790854e-20)
(-0.0179000523877 -0.0177010080588 4.7005073136e-20)
(-0.0189468113243 -0.0202709963513 6.52110559693e-20)
(-0.0203302473943 -0.0229737808186 7.37074229871e-20)
(-0.0224258793869 -0.0255040386394 8.34998676847e-20)
(-0.0251477438111 -0.0272813551431 1.01735951989e-19)
(-0.0278103706357 -0.0279396133772 1.07069008874e-19)
(-0.0295748032264 -0.0280638207609 8.95235248427e-20)
(-0.0308213853456 -0.0287481440498 4.8561142324e-20)
(-0.0319200784137 -0.0298999654044 2.28200789997e-20)
(-0.0331464472421 -0.0330770583299 1.50462153913e-20)
(-0.0268436215489 -0.0225603853243 1.91149603e-20)
(-0.0618537427087 -0.0382907402881 3.47473200469e-20)
(-0.0439980011208 -0.0686979580746 2.97462225246e-20)
(-0.0150411550867 -0.00120309606159 1.4307852518e-21)
(-0.0143569560756 -0.00355053468108 1.04671422208e-21)
(-0.0137970710646 -0.00590372022239 1.58801543031e-21)
(-0.0135050686867 -0.00826021400118 4.95199703437e-21)
(-0.0135299143225 -0.0107072864347 1.62807663662e-20)
(-0.0138303119261 -0.0132826282868 4.73123588815e-20)
(-0.0143816927613 -0.0159954924447 1.1300207652e-19)
(-0.0151996017485 -0.0187796358855 2.0971747248e-19)
(-0.0160689735372 -0.0217810207244 2.87404049668e-19)
(-0.0173690809134 -0.0251862269398 3.21101359734e-19)
(-0.0200330570147 -0.0285094569017 3.77039757279e-19)
(-0.0239621009244 -0.030671389299 4.87879766793e-19)
(-0.0278169124487 -0.0308219768461 5.14649988914e-19)
(-0.0292682803327 -0.0303147150769 4.21189585644e-19)
(-0.0292509320931 -0.0312263283617 2.21928956867e-19)
(-0.0294223348594 -0.0339945624894 9.04524147361e-20)
(-0.0306684256163 -0.0410628537597 5.2546500098e-20)
(-0.0234434179882 -0.0299961082985 4.39913614656e-20)
(-0.0482527044556 -0.0445772477958 3.55147732472e-20)
(-0.0351658956191 -0.0615846562257 3.10543473359e-20)
(-0.0126603555712 -0.00120814441287 1.77928212134e-21)
(-0.0120154060476 -0.00358513004624 1.96229958357e-21)
(-0.0114438580983 -0.00597352061425 5.02230928246e-21)
(-0.0110828150341 -0.0083878936587 1.78460359795e-20)
(-0.0109780726515 -0.0109470386857 6.02515257003e-20)
(-0.0110858824652 -0.0137444690295 1.77915959094e-19)
(-0.0113708998898 -0.0168538684552 4.26579973818e-19)
(-0.0119616627861 -0.0200876465559 7.88888023815e-19)
(-0.0124143262112 -0.0236954797158 1.05554672452e-18)
(-0.0132927454616 -0.0281106192379 1.16227371875e-18)
(-0.016636273422 -0.0325873653075 1.35959397788e-18)
(-0.0225954853888 -0.0354263171352 1.76898836877e-18)
(-0.0287077064551 -0.0345641736071 1.81088003674e-18)
(-0.0293215014417 -0.0328536359995 1.4592679125e-18)
(-0.0267656308962 -0.0339537349542 7.87468032031e-19)
(-0.0243569646134 -0.0384029650602 3.24860604407e-19)
(-0.0248403044438 -0.0489153981222 1.65569268036e-19)
(-0.0207658351814 -0.0378530178789 1.10845056921e-19)
(-0.0447949958993 -0.0523209756897 6.29306336133e-20)
(-0.0293181254994 -0.0656181081606 5.57320775063e-20)
(-0.0102727735966 -0.00120588824916 2.06439392613e-21)
(-0.00966397193288 -0.00357083863311 4.20028644445e-21)
(-0.00906050046143 -0.005951594555 1.46017586299e-20)
(-0.00858258726901 -0.00838561581034 5.47119913827e-20)
(-0.00827598714135 -0.0110242735406 1.87484430146e-19)
(-0.00812410420977 -0.0140313555012 5.61880622358e-19)
(-0.00814751923326 -0.0177210115283 1.35260064259e-18)
(-0.00849864557988 -0.0217154751657 2.45492224865e-18)
(-0.00859718728209 -0.0260952412307 3.20493984964e-18)
(-0.00855604865588 -0.0312068210683 3.44000010513e-18)
(-0.0126674749702 -0.0367621423006 3.62907764463e-18)
(-0.0215956726494 -0.0405765582625 4.29238500919e-18)
(-0.0315888597468 -0.0384370983345 4.32728483128e-18)
(-0.0298990674251 -0.0349812414247 3.46889854076e-18)
(-0.0236657928532 -0.0365244164077 1.92757955204e-18)
(-0.0180833186094 -0.0418902545833 8.35239238026e-19)
(-0.017295309481 -0.0525386748183 4.21171035883e-19)
(-0.0159985726758 -0.0421539672269 2.99221706262e-19)
(-0.036554845734 -0.0596478741595 2.47491002784e-19)
(-0.0240973841864 -0.0841331430868 2.16157154862e-19)
(-0.00792219976182 -0.00119447266902 2.78745785283e-21)
(-0.00735775309173 -0.00349471988514 9.25880551045e-21)
(-0.00672059254793 -0.00580492147266 3.60924429001e-20)
(-0.00604897354861 -0.00821177941007 1.35720401473e-19)
(-0.00529878100298 -0.0109229037676 4.63681716685e-19)
(-0.00452799822357 -0.0142046738456 1.39582500525e-18)
(-0.00401346459105 -0.0186221121966 3.36017848988e-18)
(-0.00385481696048 -0.0239198274349 6.09651463921e-18)
(-0.00312978538732 -0.0285057287249 8.01358647171e-18)
(-0.00278560916815 -0.0326467468274 8.10281476971e-18)
(-0.00719973161565 -0.0381975626461 7.34657671666e-18)
(-0.018025445305 -0.0439638404144 8.44986391073e-18)
(-0.039401357996 -0.0410132840736 7.20747771836e-18)
(-0.0316832623468 -0.0357501159515 5.15759484597e-18)
(-0.0204980722635 -0.039883175838 2.99287554072e-18)
(-0.0116616886957 -0.0456166823106 1.36592013304e-18)
(-0.00953154647944 -0.0553092168571 7.60482510384e-19)
(-0.0100228924151 -0.0447341692495 5.6985878428e-19)
(-0.0245704103943 -0.0610816678379 4.62990049502e-19)
(-0.0197791453186 -0.0825354657777 4.06429953343e-19)
(-0.00560728870944 -0.00118319378362 4.38429707023e-21)
(-0.00511710689132 -0.00337309977767 1.8283286388e-20)
(-0.00448377587292 -0.00549748589951 7.20665136236e-20)
(-0.00364941573191 -0.00760401415549 2.63471276631e-19)
(-0.00238494851303 -0.00993793697148 8.69690921312e-19)
(-0.000411960634027 -0.0127954417335 2.50444171062e-18)
(0.0021786155747 -0.017284660361 5.92142033816e-18)
(0.00597208675282 -0.0251347014286 1.1287859308e-17)
(-0.0020239219749 -0.0314544411755 1.79581620419e-17)
(0.00129125973975 -0.0329458640467 1.9299287474e-17)
(-0.00158338729853 -0.0322371781244 1.37052889595e-17)
(-0.0150018969181 -0.0487148488631 1.48264108204e-17)
(-0.0527540525601 -0.0465534516567 8.86778259822e-18)
(-0.0301243270263 -0.0359930411611 5.60305805457e-18)
(-0.0140283043559 -0.0427362407893 3.06744325515e-18)
(-0.00458763965762 -0.0481721229435 1.68274884479e-18)
(-0.00169867363507 -0.0557450872327 1.10669716486e-18)
(-0.00593515814998 -0.0453270639456 8.86670479524e-19)
(-0.0187636909275 -0.0587940211518 7.84908632589e-19)
(-0.0171030441029 -0.0724741449733 6.96162189666e-19)
(-0.00338572231161 -0.00113625564223 7.16169544615e-21)
(-0.00303478003099 -0.00317827399244 3.03356222004e-20)
(-0.00254332071411 -0.00504965500519 1.15428304304e-19)
(-0.00180833349656 -0.00664898252915 3.97004566457e-19)
(-0.000658156390098 -0.00776025908479 1.22685241805e-18)
(0.0012811763069 -0.00818224694869 3.33029098438e-18)
(0.00397142741572 -0.00751288830461 7.22279530698e-18)
(0.00821953385242 -0.00341768429906 1.24578633157e-17)
(-0.00125658662012 -0.00111736581615 1.03291754183e-20)
(-0.00112748881273 -0.00306169963763 4.19004347497e-20)
(-0.000940415346589 -0.0047479954345 1.5766215976e-19)
(-0.000634127067532 -0.0060535380187 5.24842182662e-19)
(-0.000183751977331 -0.00667506637154 1.54565262709e-18)
(0.000502218127 -0.00638298860833 4.35823529882e-18)
(0.00115007028046 -0.00516475568955 1.04443348113e-17)
(0.00129903162906 -0.00150889471701 2.33839238456e-17)
(0.000870673020453 -0.00111268663657 1.08355714177e-20)
(0.000741335492028 -0.00305174154414 4.22083656913e-20)
(0.000567362615317 -0.00474069697961 1.57858155663e-19)
(0.000293729778777 -0.00605276176959 5.25659674916e-19)
(-0.000106414484839 -0.00667223189628 1.5458534098e-18)
(-0.000750313353635 -0.00637147793261 4.35856818778e-18)
(-0.00131106444824 -0.00514891530703 1.04450558894e-17)
(-0.00136177376263 -0.0015103074838 2.3401103407e-17)
(0.0029868996224 -0.00112250970259 8.25049147028e-21)
(0.00264253473072 -0.00315461964265 3.07878497443e-20)
(0.00216787642012 -0.00501779384845 1.15537071096e-19)
(0.00146566803995 -0.00660898862673 3.97258096717e-19)
(0.000356577154973 -0.00774899403448 1.2285263668e-18)
(-0.00150277770576 -0.00817861338716 3.3331091658e-18)
(-0.00411318184228 -0.0074807840449 7.22941912487e-18)
(-0.00823904642342 -0.00340638275057 1.24681076396e-17)
)
;

boundaryField
{
    back
    {
        type            noSlip;
    }
    sides
    {
        type            noSlip;
    }
    bottom
    {
        type            noSlip;
    }
    front
    {
        type            noSlip;
    }
    atmosphere
    {
        type            pressureInletOutletVelocity;
        value           nonuniform List<vector> 7((0 -0.0539641728882 0) (0 -0.0686979580746 0) (0 -0.0615846562257 0) (0 -0.0656181081606 0) (0 -0.0841331430868 0) (0 -0.0825354657777 0) (0 -0.0724741449733 0));
    }
    floatingObject
    {
        type            movingWallVelocity;
        value           nonuniform List<vector> 8((0 -1.66533453694e-15 2.08166817117e-16) (0 0 2.08166817117e-16) (0 0 0) (0 -3.33066907388e-15 2.08166817117e-16) (4.16333634234e-16 0 0) (0 0 2.08166817117e-16) (0 0 2.08166817117e-16) (0 0 0));
    }
    procBoundary3to4
    {
        type            processor;
        value           nonuniform List<vector> 
13
(
(-0.0225006758037 -0.0157462943646 1.74718361964e-21)
(-0.0235584009628 -0.0178306260669 2.38224221814e-21)
(-0.0247829320875 -0.0198673524086 2.65738312886e-21)
(-0.0196574466991 -0.00113703847788 1.15202216713e-21)
(-0.018886005281 -0.00334612029897 4.83749484342e-22)
(-0.0183145410374 -0.00554219012338 1.64681061201e-22)
(-0.0180857320386 -0.0077149321149 2.96737783035e-22)
(-0.0186950508248 -0.0121639371 2.21657354266e-21)
(-0.0193944171837 -0.0144363796229 5.09930099388e-21)
(-0.0193944171837 -0.0144363796229 5.09930099388e-21)
(-0.0159494871131 -0.0103510529384 3.83336341834e-21)
(-0.0159494871131 -0.0103510529384 3.83336341834e-21)
(-0.0159494871131 -0.0103510529384 3.83336341834e-21)
)
;
    }
    procBoundary3to5
    {
        type            processor;
        value           nonuniform List<vector> 10((-0.0262041428116 -0.0217503399486 2.89015529169e-21) (-0.0277618169039 -0.023329288561 3.2412552358e-21) (-0.0293367808479 -0.0245621816604 3.60444189444e-21) (-0.0310158617112 -0.0255880101784 3.97302515944e-21) (-0.033015319082 -0.0267415843163 4.20403917966e-21) (-0.0346666892574 -0.0272419627979 3.50108989845e-21) (-0.0349088808703 -0.0313868695228 6.09498688162e-21) (-0.0304628600237 -0.0218395465921 7.65089009644e-21) (-0.0864587613322 -0.0331191209384 1.49546094339e-20) (-0.0578816507496 -0.0380888905282 1.31457078569e-20));
    }
    procBoundary3to6
    {
        type            processor;
        value           nonuniform List<vector> 8((-0.0470197042902 -0.0169750651496 4.54590669e-18) (-0.021598266661 -0.0360618746911 3.67583278133e-18) (-0.00803913933738 -0.0460176994725 2.52835506326e-18) (-0.00091776293383 -0.0490733498697 1.79685768033e-18) (0.00124433598079 -0.0502247130767 1.33166858105e-18) (-0.0024233838121 -0.0409333988484 1.15196036816e-18) (-0.00753062548358 -0.0532586250388 1.04067194328e-18) (-0.00913194656491 -0.0742533126364 9.31324659303e-19));
    }
    procBoundary3to8
    {
        type            processor;
        value           nonuniform List<vector> 8((0.00518485501436 -0.0011678564767 5.09051518542e-21) (0.00471646751676 -0.00334525074165 1.8596909118e-20) (0.00411435325637 -0.00546463923283 7.20373613613e-20) (0.00330942046154 -0.0075755651238 2.63382174271e-19) (0.00209535928751 -0.00988807861299 8.70912860633e-19) (0.000210687281755 -0.0127337586099 2.5128213599e-18) (-0.00229697422301 -0.0171968450042 5.9446762222e-18) (-0.00602215225474 -0.024975830414 1.13064415229e-17));
    }
}


// ************************************************************************* //
