/*--------------------------------*- C++ -*----------------------------------*\
| =========                 |                                                 |
| \\      /  F ield         | OpenFOAM: The Open Source CFD Toolbox           |
|  \\    /   O peration     | Version:  v2012                                 |
|   \\  /    A nd           | Website:  www.openfoam.com                      |
|    \\/     M anipulation  |                                                 |
\*---------------------------------------------------------------------------*/
FoamFile
{
    version     2.0;
    format      ascii;
    class       volVectorField;
    location    "5.8";
    object      ddt0(rho,U);
}
// * * * * * * * * * * * * * * * * * * * * * * * * * * * * * * * * * * * * * //

dimensions      [1 -2 -2 0 0 0 0];


internalField   nonuniform List<vector> 
166
(
(143.076669517 0.53748844866 3.57725480172e-21)
(144.055998552 1.83381308923 1.69726082819e-21)
(145.34041237 3.03240787943 2.48087011959e-21)
(147.22697114 4.20842027503 -2.48349678606e-20)
(149.721579107 5.36057553581 -4.25733828218e-21)
(152.856662801 6.46254989187 1.24134462374e-20)
(156.646904059 7.487211723 -6.31761497508e-22)
(161.099180914 8.39872200574 1.42314983858e-21)
(166.220847355 9.15035498757 -1.67642679626e-20)
(172.017972848 9.67416308799 -5.43321095428e-21)
(178.494359261 9.88960936933 2.03986709444e-20)
(185.634884264 9.64041440632 -3.21247856853e-20)
(193.4020212 8.79462399333 -9.31492549899e-20)
(201.699325595 7.25029122193 -1.31980777083e-20)
(210.411089361 4.99462996447 3.38832359414e-19)
(219.935379919 0.769339712119 -1.70324215659e-18)
(231.918518126 -6.90508613593 -1.23240767255e-18)
(175.232396958 -3.47534993638 -7.03497063264e-19)
(-13.1023235358 5.38404903012 7.03637096788e-19)
(0.0321259435645 0.0905429781814 7.55202983385e-20)
(141.520224636 0.849793694334 1.72080871418e-20)
(142.510135935 2.7624173659 8.09244937113e-21)
(143.797650542 4.5911746956 -1.20749506145e-22)
(145.698995255 6.40543731844 -1.01646739192e-20)
(148.223023695 8.20753787554 -1.21900163392e-20)
(151.411032717 9.97196374798 -9.70403532488e-21)
(155.285182302 11.6718578871 -3.28126667874e-20)
(159.865387793 13.2712571967 2.70517218567e-20)
(165.177560378 14.7177641989 -5.73408206107e-20)
(171.249740414 15.9393285269 -2.03287585037e-20)
(178.114625687 16.8506326328 5.44140943276e-20)
(185.778874157 17.3144205047 -6.39502064285e-20)
(194.250515362 17.1809172354 -1.62315047027e-19)
(203.455212106 16.2161544266 7.34911792481e-20)
(213.067648565 14.4779149043 -3.43305911341e-19)
(223.08045109 10.7475193555 -6.40081821015e-19)
(235.62517722 4.86810748786 9.15466001977e-19)
(172.592135708 2.21783097473 -2.93006589088e-18)
(-17.2385112597 5.04094864028 8.55328545355e-19)
(0.0183929284588 0.458310775072 9.52894682004e-20)
(139.34835369 1.16770184505 -2.62697191523e-20)
(140.34419578 3.69881370082 2.01201372005e-20)
(141.625633713 6.1601029456 1.78865808509e-21)
(143.528892891 8.62252121335 2.59015942608e-21)
(146.065162084 11.0898908516 3.74479661023e-21)
(149.284322069 13.5420349175 -2.46643679787e-20)
(153.21706248 15.9548758217 -1.02621419298e-21)
(157.899472772 18.2975594334 -4.4663567364e-20)
(163.374284259 20.5164541462 -5.97377324118e-21)
(169.691664827 22.5413948982 -2.01091072694e-20)
(176.909734097 24.284025128 -3.98816872438e-20)
(185.097728051 25.5983123385 -1.02408850522e-19)
(194.31138652 26.3086228397 -1.61615238654e-19)
(204.560691636 26.0510532589 -1.50862351246e-19)
(215.351672786 24.8283855515 -4.31308354774e-19)
(226.353577625 20.2721250531 1.54444438153e-20)
(239.861186185 13.6123601863 5.05980229959e-18)
(149.963174333 4.41570181638 4.37420076661e-18)
(-17.0638200681 3.12981272798 2.04117285884e-18)
(0.613039675254 2.10695084349 -2.01528841758e-20)
(136.555010636 1.48669318869 2.0412271062e-20)
(137.548391717 4.6315216309 1.14050904779e-20)
(138.812270829 7.7239661548 1.29346422626e-20)
(140.697977364 10.8390558911 -2.72548827862e-20)
(143.222922567 13.981969274 -3.4270430271e-21)
(146.439348661 17.1417384622 -3.68907749311e-21)
(150.392039937 20.3030587424 -1.83111717176e-20)
(155.131214007 23.4466171793 5.96098335656e-21)
(160.71143722 26.5259964304 -3.96088646338e-20)
(167.216455754 29.4705950989 -3.49513915934e-20)
(174.739220614 32.201188316 -4.78669448812e-20)
(183.416519695 34.571185459 -2.28856104825e-19)
(193.363883875 36.4062153423 -2.54312401176e-19)
(204.760529541 37.2384504085 1.07732668526e-19)
(217.252355038 36.9423572774 3.11489175286e-19)
(230.564221284 32.5453142932 5.08419836294e-19)
(246.310057821 24.1431104323 1.10551631209e-17)
(117.561738751 11.562789826 -6.0655507591e-19)
(-0.950593857244 -0.211840140037 -1.02028645725e-19)
(0.192753287167 -0.872932491447 1.45637611112e-19)
(133.146069635 1.80326169144 -2.22881648989e-21)
(134.129258738 5.55138157156 2.89924629782e-20)
(135.361752328 9.26636045328 -5.96932627007e-22)
(137.207181656 13.031774753 -1.05734259322e-20)
(139.690001458 16.8499808071 -2.0700890315e-20)
(142.859141697 20.7254811251 -1.64408448728e-20)
(146.776102062 24.657590284 -1.79941267058e-20)
(151.502787411 28.6333730207 3.71684842446e-20)
(157.111933289 32.6286713684 -1.91298016197e-20)
(163.713117746 36.5950629792 -3.24770656516e-20)
(171.443644515 40.4703914111 -2.53977571088e-20)
(180.476289253 44.137240765 -2.17078433124e-19)
(191.043241389 47.4513510431 -3.19399260938e-19)
(203.504575673 49.9549455521 -3.84217711098e-19)
(217.861868863 51.5477147261 1.15041313572e-18)
(234.194534528 49.7136812883 1.31349662008e-18)
(251.843812258 39.7483868767 3.02164487023e-18)
(115.475361536 23.6841343397 2.56848094082e-17)
(0.324677077983 -0.138562715855 -5.92669566226e-20)
(-0.327136060211 -0.85961004909 -7.9599114072e-20)
(129.140061704 2.1133460817 6.81049987091e-21)
(130.101824991 6.44802651231 -3.20889858376e-20)
(131.287654153 10.7682573932 -1.67038473915e-20)
(133.065350306 15.1700164518 -5.5698228417e-20)
(135.464248775 19.6525006321 -1.02853138479e-20)
(138.542077049 24.2376696589 -9.26155242653e-21)
(142.358356446 28.9430479003 1.2049863772e-21)
(146.982649795 33.7665864177 1.27206992875e-21)
(152.517461643 38.7120657038 -3.34387667652e-20)
(159.083675813 43.7714517068 -4.63061145615e-20)
(166.849616253 48.9097646226 4.43877152711e-20)
(176.015328249 54.0688985704 -1.63139202183e-19)
(186.922363182 59.1822952796 -2.51304024007e-19)
(200.055933383 63.9601266223 -6.86572435556e-19)
(215.847481062 68.5002258772 4.46361650319e-19)
(234.775688221 70.5306963015 -1.17486786907e-18)
(250.320871148 61.4926232426 9.45330972102e-19)
(116.286750995 35.2972232273 4.54332772431e-18)
(0.390120462293 0.00348589834666 -2.9447246367e-20)
(-0.217265723089 -0.403195231609 7.25004823378e-20)
(124.560779662 2.4153045537 -7.14278703427e-20)
(125.49363412 7.3089997992 -4.23044779661e-20)
(126.610681478 12.205497954 -2.69005200282e-20)
(128.293048964 17.2143698693 -3.30446074216e-20)
(130.565457474 22.344032657 5.80385192257e-21)
(133.497620636 27.6260860549 -2.4205835156e-20)
(137.140097435 33.0891738984 4.89840440259e-21)
(141.57309659 38.7645595168 1.73148000771e-20)
(146.901076217 44.6799253327 -1.39943298419e-20)
(153.263136367 50.8606129075 -4.44095970418e-20)
(160.806203798 57.3095753738 -1.05654914178e-20)
(169.81536846 64.0660212157 -1.04558900424e-19)
(180.616663085 71.1783470269 -1.87780917803e-19)
(193.81102696 78.6448298063 -6.6128963175e-21)
(210.135479299 86.863327289 -1.88806103246e-19)
(230.14938331 94.0272590918 1.89761548697e-18)
(243.756418573 86.176009652 7.57605015276e-19)
(114.092263386 44.7863187277 1.66278160694e-18)
(0.275754531139 0.082445451113 -2.15259963149e-20)
(-0.0150765868044 -0.0320227353522 -1.01893078177e-19)
(119.430057254 2.70286956213 -6.75042054206e-20)
(120.337767909 8.11549723328 9.13135544476e-21)
(121.369799018 13.5490711416 -3.58705753184e-20)
(122.920750561 19.1330812115 -1.34882526964e-20)
(125.027264358 24.8739909393 -1.85262106292e-20)
(127.746812628 30.8191735844 2.14049339004e-21)
(131.140720951 37.0158117449 -6.84380994132e-21)
(135.280604515 43.5147569674 -5.70290518956e-21)
(140.264686732 50.3765402497 -6.22854050928e-20)
(146.209926354 57.6349158592 -5.05512233467e-20)
(153.327484484 65.3878127319 -2.78950627885e-20)
(161.78304801 73.7278824776 -1.06768360733e-19)
(171.970502492 82.8352154452 -2.06840138252e-19)
(184.442205051 93.0796225421 -2.02937749743e-19)
(200.086070785 105.096034372 -3.1402038519e-19)
(219.230538083 118.708255764 -1.66560588526e-18)
(231.346121009 111.558233833 -9.77961173104e-18)
(108.208492181 53.6644388129 4.66713684444e-18)
(0.201603712108 0.142287031694 1.26806922565e-21)
(0.0767327728841 0.104391741175 -2.27281324363e-21)
(113.809678475 2.97649640975 -5.86899239212e-20)
(114.688078795 8.86868018487 -4.53318584661e-20)
(115.605474849 14.7737335779 -1.35109124939e-20)
(107.721648863 3.25777213459 -6.68709318009e-20)
(101.26751594 3.51712994026 -2.99773910402e-20)
(94.5691045201 3.73376526962 -1.12582265884e-19)
)
;

boundaryField
{
    back
    {
        type            calculated;
        value           uniform (0 0 0);
    }
    sides
    {
        type            calculated;
        value           nonuniform List<vector> 0();
    }
    bottom
    {
        type            calculated;
        value           uniform (0 0 0);
    }
    front
    {
        type            calculated;
        value           uniform (0 0 0);
    }
    atmosphere
    {
        type            calculated;
        value           nonuniform List<vector> 8((0.000893603248194 0.0905429780752 4.04600247545e-23) (0.00036675172917 0.458310775168 4.19231809122e-23) (0.000171669821584 2.1069508435 4.09332463068e-23) (-0.981750287141 -0.872932491447 1.63487742844e-19) (-0.536041793291 -0.859610049082 -6.10810130921e-20) (-1.2283539761 -0.403195231598 5.99647289338e-19) (-0.126079132271 -0.0320227353718 -1.16504997088e-19) (0.0244986890272 0.104391741175 -8.94653863939e-21));
    }
    floatingObject
    {
        type            calculated;
        value           nonuniform List<vector> 0();
    }
    procBoundary9to6
    {
        type            processor;
        value           nonuniform List<vector> 4((225.886343728 -17.6048736936 2.5538250715e-17) (171.380858521 -10.7906918716 -1.96601126238e-18) (-8.06248754632 5.47966468554 7.95668334326e-19) (0.0840033138989 0.0158970321035 -3.24653433801e-20));
    }
    procBoundary9to7
    {
        type            processor;
        value           nonuniform List<vector> 
16
(
(144.014099758 0.225826965611 2.25278984238e-20)
(144.982624683 0.907676903887 2.02168626961e-20)
(146.256426388 1.48527398788 1.56989678995e-21)
(148.120499309 2.03698783625 -6.3537063387e-20)
(150.574926995 2.56033516023 -3.25849135257e-20)
(153.645400085 3.02834240119 -2.73690349847e-20)
(157.3389085 3.41466305091 -2.55694340573e-20)
(161.651698871 3.68616667221 6.54968293358e-21)
(166.575114073 3.79812492531 -3.70353496492e-20)
(172.094189532 3.68487217856 -2.78721388611e-20)
(178.184465967 3.27998731042 4.16768390655e-21)
(184.818155779 2.45788065159 -5.0169123692e-20)
(191.915851926 1.08645792747 -1.15531485081e-19)
(199.393064572 -0.932172461274 -2.82489277639e-19)
(207.219340117 -3.68113688404 8.72915089197e-19)
(215.746888631 -8.93628603595 2.86060859527e-18)
)
;
    }
    procBoundary9to10
    {
        type            processor;
        value           nonuniform List<vector> 
15
(
(116.987213867 20.8821063143 -1.19015063215e-20)
(118.880179119 27.1894343399 8.11255515605e-21)
(121.328955749 33.7487627345 2.8706008719e-21)
(124.388459623 40.6229640097 1.46629018564e-21)
(128.120035551 47.8850471341 -4.24587740256e-21)
(132.618122636 55.6035664738 -2.34389710201e-20)
(137.983089953 63.9089268951 -1.31809251553e-21)
(144.39245282 72.8405705612 -1.13590308985e-20)
(108.598368597 9.54923528334 5.82098525462e-20)
(116.987213867 20.8821063143 -1.19015063215e-20)
(109.36621169 15.8409570551 -1.99553719862e-21)
(108.598368597 9.54923528334 5.82098525462e-20)
(102.06598247 10.1509414395 -5.50816980055e-20)
(95.0536011892 10.6480839594 -3.99226456779e-20)
(87.5282493292 3.70663936236 -5.26298962375e-20)
)
;
    }
    procBoundary9to11
    {
        type            processor;
        value           nonuniform List<vector> 9((151.989804651 82.5866500644 -7.81521034573e-20) (161.056594284 93.5384233293 -2.56739074101e-19) (172.001617258 106.240318232 -3.70620107714e-19) (185.612355594 121.668645366 1.4921026868e-18) (201.88560133 142.379878196 2.83855479673e-18) (212.594240542 137.677964048 -5.20625881689e-18) (99.5614614179 62.7368724646 5.34450378705e-18) (0.200368601146 0.180594649948 6.14405259225e-21) (0.0732765387169 0.208879315375 3.18501545546e-21));
    }
}


// ************************************************************************* //
