/*--------------------------------*- C++ -*----------------------------------*\
| =========                 |                                                 |
| \\      /  F ield         | OpenFOAM: The Open Source CFD Toolbox           |
|  \\    /   O peration     | Version:  v2012                                 |
|   \\  /    A nd           | Website:  www.openfoam.com                      |
|    \\/     M anipulation  |                                                 |
\*---------------------------------------------------------------------------*/
FoamFile
{
    version     2.0;
    format      ascii;
    class       volVectorField;
    location    "5.8";
    object      ddtCorrDdt0(U);
}
// * * * * * * * * * * * * * * * * * * * * * * * * * * * * * * * * * * * * * //

dimensions      [0 1 -2 0 0 0 0];


internalField   nonuniform List<vector> 
166
(
(0.143334734276 0.000538455858501 3.58187542715e-24)
(0.144315789539 0.00183711306212 1.69896689098e-24)
(0.145602467202 0.00303786283459 2.48469922516e-24)
(0.147492370266 0.00421598771502 -2.48797489468e-23)
(0.149991450303 0.00537021171907 -4.26494259984e-24)
(0.153132234285 0.00647416604365 1.24358419073e-23)
(0.15692944046 0.00750067441703 -6.32901061437e-25)
(0.161389941088 0.00841383284133 1.42571958339e-24)
(0.166521328907 0.00916684387128 -1.67945158184e-23)
(0.172329819415 0.00969164424802 -5.44302432093e-24)
(0.178819696567 0.00990751901243 2.04359579676e-23)
(0.185974355114 0.00965806182518 -3.21834864396e-23)
(0.19375569129 0.00881072652419 -9.33192905401e-23)
(0.202068169091 0.00726357212437 -1.32213478352e-23)
(0.210795603549 0.00500396213353 3.39461544768e-22)
(0.220334066592 0.000770994301473 -1.70631251648e-21)
(0.232340060739 -0.00691764235388 -1.23464632251e-21)
(0.286671832858 -0.0208428014092 -4.75757050211e-21)
(0.459863662711 -0.0023026123169 1.24918129993e-22)
(0.0321393952437 0.0905400364372 7.55205421713e-20)
(0.141775405596 0.000851324522925 1.72378336954e-23)
(0.142767071933 0.00276739277968 8.10611905712e-24)
(0.144056881812 0.004599442395 -1.21438560092e-25)
(0.145961642296 0.00641697033696 -1.01831199553e-23)
(0.148490246436 0.00822231454229 -1.22120287211e-23)
(0.15168408721 0.00998991812411 -9.72157153529e-24)
(0.155565346052 0.011692876292 -3.2871862942e-23)
(0.160154031579 0.0132951653412 2.71005606153e-23)
(0.165476037983 0.0147442894636 -5.74443455387e-23)
(0.171559504661 0.0159680561338 -2.03656150608e-23)
(0.178437334164 0.0168810349087 5.45124810228e-23)
(0.186115888801 0.0173456418833 -6.40679392912e-23)
(0.194604330961 0.0172119717786 -1.62616982126e-22)
(0.203827091751 0.0162456662495 7.36169816555e-23)
(0.213454136905 0.0145041341015 -3.43931156721e-22)
(0.223484096062 0.0107668387507 -6.4125261477e-22)
(0.236052034582 0.00487646041562 9.1702504867e-22)
(0.296296223597 -0.0125698242574 -1.00822271715e-20)
(0.300049332109 0.0698746106367 -5.05284598947e-21)
(0.0183927198129 0.458310775548 9.52894315279e-20)
(0.139599586326 0.00116980555937 -2.63183569576e-23)
(0.140597208305 0.00370547664425 2.01553884725e-23)
(0.141880949163 0.00617119837089 1.79129824368e-24)
(0.143787650422 0.00863805073909 2.59454044739e-24)
(0.146328540356 0.0111098642644 3.75138540134e-24)
(0.149553601552 0.0135664275432 -2.47089329795e-23)
(0.153493602466 0.0159836207471 -1.02809755118e-24)
(0.158184741844 0.0183305411568 -4.47442755182e-23)
(0.163669594685 0.0205534405247 -5.98438691974e-24)
(0.169998386648 0.0225820327582 -2.01453282148e-23)
(0.177229523645 0.0243277870218 -3.9954233455e-23)
(0.185433149542 0.0256445060217 -1.02597709516e-22)
(0.194662877562 0.0263560337809 -1.61914054557e-22)
(0.204930470505 0.0260979209761 -1.51152700613e-22)
(0.215741234237 0.0248731742572 -4.32097900584e-22)
(0.22676262715 0.0203087109502 1.54683594725e-23)
(0.240307008581 0.0136194040302 5.06768520925e-21)
(0.271747417497 -0.00955278296769 -7.92177030688e-22)
(-0.900339528031 0.34205244379 6.34471360993e-20)
(0.6130397211 2.10695084555 -2.01528840841e-20)
(0.136801201029 0.00148937185274 2.04476666914e-23)
(0.137796367835 0.0046398660018 1.14245648776e-23)
(0.13906252781 0.00773788113473 1.2957199931e-23)
(0.140951654116 0.0108585821335 -2.73044756167e-23)
(0.143481207804 0.0140071583931 -3.43353701798e-24)
(0.146703538807 0.0171726241822 -3.69584159751e-24)
(0.15066356389 0.0203396534555 -1.83443283916e-23)
(0.155411644162 0.0234889073771 5.97192927047e-24)
(0.161002560699 0.0265739101465 -3.96802235914e-23)
(0.167519617888 0.0295238342789 -3.50145085571e-23)
(0.175055995498 0.0322593321638 -4.79540931117e-23)
(0.183748937378 0.0346335869911 -2.29275757746e-22)
(0.193713653939 0.0364718852285 -2.54780949044e-22)
(0.205130616144 0.0373055016819 1.07900029571e-22)
(0.217644964412 0.0370088683832 3.12023094715e-22)
(0.230980924291 0.0326037839377 5.09314914097e-22)
(0.246994530101 0.0239545596559 1.10692173764e-20)
(0.23235607417 -0.00170993497559 -1.23934289455e-20)
(-1.29387179219 -0.365303087643 -6.119614979e-20)
(0.19274630109 -0.872937333763 1.45636249052e-19)
(0.133386128855 0.00180651127236 -2.23420145574e-24)
(0.134371084838 0.00556138513941 2.90436437672e-23)
(0.135605799892 0.00928305760092 -5.98753332694e-25)
(0.13745457157 0.013055255899 -1.05929525229e-23)
(0.13994191423 0.0168803421343 -2.07384841296e-23)
(0.143116860984 0.0207628296631 -1.64705937371e-23)
(0.147041070941 0.0247020381604 -1.80266654525e-23)
(0.151776624537 0.0286850237562 3.72357698142e-23)
(0.157396466762 0.032687603952 -1.91642616595e-23)
(0.164009976395 0.0366612108309 -3.25359770624e-23)
(0.171754522146 0.0405435304873 -2.54437450877e-23)
(0.180803445285 0.044216931641 -2.17477171473e-22)
(0.191389657973 0.0475370655861 -3.19995593442e-22)
(0.203873014434 0.0500451129204 -3.84946109317e-22)
(0.218255479216 0.0516405819654 1.15245525365e-21)
(0.234617616622 0.0498032004288 1.31584872532e-21)
(0.252964236315 0.0394087692939 3.01674712686e-21)
(0.239301755393 0.0205017862802 3.38974564756e-20)
(-0.811063986254 0.00251793435574 1.05834394245e-19)
(-0.327130508021 -0.859605990446 -7.95974332787e-20)
(0.129372912738 0.00211715518973 6.82178693721e-24)
(0.130336392033 0.00645964801427 -3.21474160491e-23)
(0.131524352678 0.0107876646048 -1.67343250781e-23)
(0.13330526046 0.0151973532266 -5.57988380808e-23)
(0.135708507633 0.0196879129717 -1.03039631262e-23)
(0.13879196096 0.0242813460625 -9.27831023477e-24)
(0.142615215691 0.0289952065847 1.20709422201e-24)
(0.147248031579 0.0338274438746 1.27435785624e-24)
(0.152792999696 0.0387818394269 -3.34993018349e-23)
(0.159371424691 0.043850376036 -4.63902002688e-23)
(0.167151589415 0.0489979947656 4.44662956442e-23)
(0.176333693269 0.0541662780626 -1.63438919565e-22)
(0.187261463949 0.0592892190057 -2.51772994557e-22)
(0.200418873515 0.0640756546094 -6.87843469387e-22)
(0.216237526082 0.0686235860934 4.47128068519e-22)
(0.235199814594 0.0706576021336 -1.17703953543e-21)
(0.252092253615 0.0611113459862 7.5209062344e-22)
(0.251878130319 0.0468526969937 -4.71971418294e-22)
(0.0372136516566 0.0785039389975 -3.74198650187e-22)
(-0.217264737102 -0.403193904822 7.24999918428e-20)
(0.124785365698 0.00241965860601 -7.15569401102e-23)
(0.125719882447 0.00732217479595 -4.23808419357e-23)
(0.126838968117 0.012227496143 -2.69490641633e-23)
(0.128524317051 0.0172453920179 -3.31041186768e-23)
(0.130800833042 0.0223842912505 5.81430732387e-24)
(0.133738318831 0.0276758626406 -2.42494560841e-23)
(0.137387503882 0.033148797008 4.9071870479e-24)
(0.141828591137 0.0388344145204 1.7346244417e-23)
(0.147166347591 0.0447604292436 -1.4019220775e-23)
(0.153539929259 0.0509522891475 -4.44896811868e-23)
(0.161097004831 0.0574127079569 -1.0586443072e-23)
(0.170122603478 0.0641814507677 -1.04751942022e-22)
(0.180944279543 0.0713067333489 -1.88137299542e-22)
(0.194162416357 0.0787867781674 -6.65702726666e-24)
(0.210515347381 0.0870196084897 -1.89209494201e-22)
(0.23056547852 0.0941963294138 1.90092237438e-21)
(0.246280696588 0.0859671913008 5.08744243798e-22)
(0.259691491373 0.0732700570175 -4.09513864533e-21)
(0.209408389669 0.106732386344 -1.66047745959e-20)
(-0.0150770078168 -0.0320223235092 -1.01893119532e-19)
(0.119645385531 0.00270774204931 -6.76259879025e-23)
(0.120554728703 0.0081301260978 9.14791845314e-24)
(0.121588551638 0.0135734927683 -3.59352726831e-23)
(0.123142325597 0.019167558701 -1.35123933922e-23)
(0.125252585541 0.0249188045509 -1.85595662307e-23)
(0.127977098737 0.0308746941562 2.14434275315e-24)
(0.131377203525 0.0370825071536 -6.85614766403e-24)
(0.135524742901 0.0435931712739 -5.71310783579e-24)
(0.140517887636 0.05046734085 -6.2397361582e-23)
(0.146474356425 0.0577386871044 -5.06419309327e-23)
(0.153604522026 0.0655056522782 -2.79460522391e-23)
(0.162076236007 0.073860611449 -1.06968951833e-22)
(0.172281834925 0.082984478508 -2.07234859326e-22)
(0.184775929637 0.0932471478879 -2.03377636566e-22)
(0.200447970415 0.105285111764 -3.14710592331e-22)
(0.219626851901 0.118921934437 -1.66874888681e-21)
(0.234595777385 0.111788438782 -9.98941309035e-21)
(0.259243336528 0.101975872417 3.66759866084e-21)
(0.207344524867 0.141554057922 5.82356977225e-22)
(0.0767322901902 0.104391776212 -2.27283385182e-21)
(0.11401477771 0.00298186136042 -5.87957077184e-23)
(0.114894776148 0.00888466565321 -4.54136736152e-23)
(0.115813872894 0.0148003608206 -1.35350943645e-23)
(0.107915727551 0.00326364319503 -6.69915553047e-23)
(0.101450207741 0.00352346978029 -3.00298825921e-23)
(0.0947394723624 0.00374049145799 -1.12784920459e-22)
)
;

boundaryField
{
    back
    {
        type            calculated;
        value           uniform (0 0 0);
    }
    sides
    {
        type            calculated;
        value           nonuniform List<vector> 0();
    }
    bottom
    {
        type            calculated;
        value           uniform (0 0 0);
    }
    front
    {
        type            calculated;
        value           uniform (0 0 0);
    }
    atmosphere
    {
        type            calculated;
        value           nonuniform List<vector> 8((0.000907054844768 0.0905400364372 4.07038600892e-23) (0.000366417378994 0.458310775548 4.18830163019e-23) (0.000171668140014 2.10695084555 4.0933266271e-23) (-0.981757344622 -0.872937333763 1.63486364929e-19) (-0.536036241106 -0.859605990446 -6.10793323015e-20) (-1.22835298798 -0.403193904822 5.99646799188e-19) (-0.126079553282 -0.0320223235092 -1.16505038442e-19) (0.0244982059346 0.104391776212 -8.946559266e-21));
    }
    floatingObject
    {
        type            calculated;
        value           nonuniform List<vector> 0();
    }
    procBoundary9to6
    {
        type            processor;
        value           nonuniform List<vector> 4((0.226297584158 -0.017636737291 2.55847293102e-20) (0.267928141256 -0.0310121942612 -5.76228244602e-21) (0.492670638834 -0.032850037033 2.91001123263e-21) (0.0840199938776 0.0158862039608 -3.24670497469e-20));
    }
    procBoundary9to7
    {
        type            processor;
        value           nonuniform List<vector> 
16
(
(0.144273838629 0.00022623289756 2.25673752203e-23)
(0.145244066059 0.000909309018309 2.02524331388e-23)
(0.146520104696 0.00148794353288 1.57232951231e-24)
(0.148387469913 0.00204064722647 -6.3651540418e-23)
(0.150846273699 0.00256493273443 -3.26435712288e-23)
(0.15392229784 0.00303377954769 -2.74183432673e-23)
(0.157622568043 0.00342079550279 -2.56155421944e-23)
(0.161943282768 0.00369279417488 6.56149052791e-24)
(0.166876026571 0.00380496878288 -3.71022464182e-23)
(0.172405852249 0.00369153568227 -2.79226284833e-23)
(0.178508207314 0.00328595571478 4.17521424149e-24)
(0.185155206246 0.00246236891006 -5.02606584187e-23)
(0.192266765183 0.00108845990455 -1.15742729821e-22)
(0.199757646266 -0.000933780843921 -2.83003955004e-22)
(0.207596448013 -0.00368761801226 8.7451514239e-22)
(0.216139081843 -0.00895263243612 2.86580754815e-21)
)
;
    }
    procBoundary9to10
    {
        type            processor;
        value           nonuniform List<vector> 
15
(
(0.117198028179 0.0209197334627 -1.19229258052e-23)
(0.119094427177 0.0272384163474 8.12715718011e-24)
(0.121547646007 0.0338095607535 2.87574595331e-24)
(0.124612820514 0.040696155216 1.46897262616e-24)
(0.128351266821 0.0479713375933 -4.25312326134e-24)
(0.132857785586 0.0557037539853 -2.34796807379e-23)
(0.138232300324 0.0640240720413 -1.32030482764e-24)
(0.144654365431 0.0729715822476 -1.13826167684e-23)
(0.1087940936 0.00956644401598 5.83148792159e-23)
(0.117198028179 0.0209197334627 -1.19229258052e-23)
(0.109563309167 0.0158695043101 -1.99909835686e-24)
(0.1087940936 0.00956644401598 5.83148792159e-23)
(0.102249834138 0.0101692284067 -5.51812106594e-23)
(0.0952250196885 0.0106672758515 -3.99918513756e-23)
(0.0876860893257 0.00371331994015 -5.27207259376e-23)
)
;
    }
    procBoundary9to11
    {
        type            processor;
        value           nonuniform List<vector> 9((0.152265181357 0.0827352224147 -7.83040322287e-23) (0.161348442733 0.0937066547565 -2.57242583542e-22) (0.172313058102 0.106431493841 -3.71395150923e-22) (0.185948223518 0.121887713156 1.4946266688e-21) (0.202250015101 0.142636515083 2.84362792176e-21) (0.216371452999 0.13863400512 -5.44954965978e-21) (0.250202767133 0.133944637432 5.7525998593e-21) (0.198963219881 0.179955363058 6.10639408674e-21) (0.0732765369912 0.208879315343 3.18501539331e-21));
    }
}


// ************************************************************************* //
