/*--------------------------------*- C++ -*----------------------------------*\
| =========                 |                                                 |
| \\      /  F ield         | OpenFOAM: The Open Source CFD Toolbox           |
|  \\    /   O peration     | Version:  v2012                                 |
|   \\  /    A nd           | Website:  www.openfoam.com                      |
|    \\/     M anipulation  |                                                 |
\*---------------------------------------------------------------------------*/
FoamFile
{
    version     2.0;
    format      ascii;
    class       surfaceVectorField;
    location    "5.8";
    object      Uf_0;
}
// * * * * * * * * * * * * * * * * * * * * * * * * * * * * * * * * * * * * * //

dimensions      [0 1 -1 0 0 0 0];


internalField   nonuniform List<vector> 
300
(
(0.0110446330794 -0.000711276771409 -2.86926077761e-22)
(0.0119182978899 -0.000338856387683 -3.45383129801e-22)
(0.010167736031 -0.00146566149598 -1.67234667106e-22)
(0.0109251926431 -0.00106437397119 -2.28312441882e-22)
(0.00957896862596 -0.00227065843095 -5.39753564187e-23)
(0.0102134919741 -0.00181952072088 -1.06876468541e-22)
(0.00928779235803 -0.00312946608615 3.26610882105e-24)
(0.00980041800127 -0.00263720731929 -1.54237817352e-23)
(0.00923422847542 -0.0040447163554 6.57971032521e-24)
(0.0096901613083 -0.00351236559266 1.0993954667e-24)
(0.0093102415978 -0.00502504446721 1.53858186846e-24)
(0.00975595936921 -0.00444852676251 -1.90807464607e-24)
(0.00944341102738 -0.00608025751957 1.04058201964e-25)
(0.00991077724242 -0.0054562129835 -7.99850454957e-25)
(0.00959893799179 -0.00722306871767 4.23515959021e-24)
(0.0101050087545 -0.00654983182185 7.45518341336e-25)
(0.00976310767663 -0.00846711844772 7.13516023601e-24)
(0.0103182922925 -0.00774278242617 7.78797162865e-24)
(0.0099304315438 -0.00983107125294 9.09734491983e-24)
(0.0105461793017 -0.00905330030088 -1.71676637085e-24)
(0.0101043123138 -0.0113418676997 -9.99217290337e-24)
(0.0107883915987 -0.0105159255727 -1.21192146705e-24)
(0.01029799347 -0.0130512514546 -1.21269149269e-22)
(0.0110646777498 -0.0121357701493 -7.91598791593e-23)
(0.0105189300215 -0.0149973665738 -3.9880276615e-22)
(0.0113913521915 -0.0139407978996 -3.09269695087e-22)
(0.0107142590943 -0.0172567313022 -7.31039226016e-22)
(0.0117791453126 -0.0159859904817 -8.66580715677e-22)
(0.0107132960995 -0.0199929154615 -1.19734062212e-21)
(0.0121745793681 -0.0185175169007 -1.03513866635e-21)
(0.0107026380775 -0.0231770831816 -3.50695640154e-21)
(0.0122674720341 -0.021916487947 -1.90065309786e-21)
(0.0136221713643 -0.026505543726 -5.37044959117e-21)
(0.012447900391 -0.0254797465532 -5.42245430715e-21)
(0.0727652464445 -0.0328917247144 -5.01184078637e-21)
(0.0196698275129 -0.0221489058644 -6.36516693383e-21)
(0.0839410812286 -0.055151211023 -2.25064416318e-21)
(0.140377735584 -0.035121132182 -5.88973025357e-21)
(0.0389453553344 -0.0578254447023 -3.18292744726e-21)
(0.0117610754057 -0.000679501791883 -2.86769493923e-22)
(0.0125978029331 -0.000321277159713 -3.4566713105e-22)
(0.0109299999513 -0.00139813733676 -1.67954243317e-22)
(0.0116438235329 -0.00100186534345 -2.35386044598e-22)
(0.0103946463462 -0.00216929058382 -6.83248938577e-23)
(0.010984628752 -0.00171782409184 -1.18994584105e-22)
(0.0101607955824 -0.00299796199132 -1.75904950896e-23)
(0.010629061251 -0.0024977786321 -4.2341220273e-23)
(0.0101698545551 -0.00388561832148 -7.38838950458e-24)
(0.0105777838047 -0.00333767030256 -1.79845156429e-23)
(0.0103180733626 -0.00484284889073 -4.24650696948e-24)
(0.0107131622407 -0.00424118229198 -9.9526389894e-24)
(0.0105368358084 -0.00588176197094 -1.58390315585e-25)
(0.0109496846724 -0.00521987151447 -2.69663500313e-24)
(0.0107919965372 -0.00701827301302 4.29833037978e-24)
(0.0112415522228 -0.0062927422879 -1.89439514328e-24)
(0.0110718703427 -0.0082681033201 -1.06395497822e-24)
(0.0115682027645 -0.00747417357977 1.17262064626e-23)
(0.0113784397029 -0.00964814882214 -1.20260327577e-23)
(0.0119263472876 -0.00878210368834 6.39764373992e-25)
(0.0117249517508 -0.0111843926496 -7.0379627723e-23)
(0.0123247714484 -0.0102461263135 -2.87547921657e-23)
(0.0121281472056 -0.0129062215734 -2.67160424978e-22)
(0.0127866043857 -0.0118764084508 -1.8207071248e-22)
(0.012625973593 -0.0148371536334 -7.77047644615e-22)
(0.0133222881553 -0.0136901810514 -4.8994600893e-22)
(0.0132335765397 -0.0171095282273 -1.17068015601e-21)
(0.0140514041733 -0.0157243195013 -1.26869057927e-21)
(0.0137087603224 -0.0198979760051 -1.73845114209e-21)
(0.0149628218561 -0.0182974920021 -1.3640841644e-21)
(0.0139505296637 -0.023124823437 -3.81615100347e-21)
(0.01549414196 -0.0216590178672 -2.0738917362e-21)
(0.0183833413578 -0.0263600896797 -6.4171716498e-21)
(0.0156831049244 -0.0252353334175 -3.5770260694e-21)
(0.0856691813142 -0.0321918255944 -7.24305640103e-21)
(0.0255014396009 -0.0227970221171 -9.31830833669e-21)
(0.094170206326 -0.0453103174199 -6.82201353765e-21)
(0.153495672274 -0.0276449729235 -1.08193332867e-20)
(0.0429903017355 -0.0112812841605 -6.01845881609e-21)
(0.0124365330336 -0.000631897148029 -2.94283681725e-22)
(0.0132297018853 -0.00029918741028 -3.54641151634e-22)
(0.0116521355948 -0.00130444185258 -1.86426385385e-22)
(0.0123163644825 -0.000920004155152 -2.49693083406e-22)
(0.0111715541163 -0.00203071859904 -9.301091052e-23)
(0.0117108931519 -0.0015827982364 -1.45104470002e-22)
(0.0109969104772 -0.00281404364386 -4.27352408263e-23)
(0.0114123655772 -0.00231306453506 -7.24868588773e-23)
(0.0110721120512 -0.00366075695845 -2.05487651277e-23)
(0.0114244732223 -0.00310418849609 -3.94444790229e-23)
(0.0112977474094 -0.00457934926485 -8.40276702305e-24)
(0.0116317376336 -0.00395996049203 -1.37865071857e-23)
(0.011609162306 -0.00558367193591 -4.43263983082e-24)
(0.0119540107721 -0.00489166473101 -7.72838938334e-24)
(0.0119738082509 -0.00669330304579 5.53348093952e-24)
(0.0123512196856 -0.00592100614844 4.65656227533e-24)
(0.0123805799159 -0.00792268076623 1.34299258148e-23)
(0.0127976556281 -0.00706242650932 1.92697378375e-23)
(0.0128345356687 -0.00929351362647 -1.6088995034e-23)
(0.0132972862088 -0.00833424768122 1.08176220442e-23)
(0.01334912009 -0.0108259907865 -1.40445876923e-22)
(0.013857359072 -0.00976955514493 -3.32705677202e-23)
(0.0139533425682 -0.0125356854131 -4.04856296433e-22)
(0.0144963729521 -0.0113876500621 -2.62716500063e-22)
(0.014728135837 -0.0144871143128 -9.81588943588e-22)
(0.0152737166953 -0.0132035276042 -6.65979026973e-22)
(0.0157694629977 -0.0167448713636 -1.46209458767e-21)
(0.0163090769868 -0.0152270130827 -1.66338929476e-21)
(0.0167790565296 -0.0195245853832 -1.69952475851e-21)
(0.017742401143 -0.0178326831717 -1.95590714892e-21)
(0.017273518745 -0.0228960993317 -1.83476680213e-21)
(0.0188655495686 -0.0211160040832 -1.70039960564e-21)
(0.0224410922493 -0.0263189262278 -6.47816275629e-21)
(0.0191058987552 -0.0248516873007 -1.27674818861e-21)
(0.0801675434525 -0.0293676564929 -1.28945852224e-20)
(0.0285500582303 -0.0237159241471 -1.19453639817e-20)
(0.097354372208 0.0315868343665 -1.00157785652e-20)
(0.0925406983858 -0.0224132477537 -1.44883265885e-20)
(0.0822701779057 0.0404396468598 4.63357945902e-21)
(0.0130587610815 -0.000569482607462 -3.10050553315e-22)
(0.0137991865745 -0.00027096157256 -3.64916623182e-22)
(0.0123227498013 -0.00118311562363 -2.08371168023e-22)
(0.0129299954191 -0.000818124947517 -2.62440063315e-22)
(0.0118981871895 -0.00185078469748 -1.2458041836e-22)
(0.0123785533729 -0.00141555923313 -1.66835809627e-22)
(0.0117835493105 -0.00257875186623 -6.91960970739e-23)
(0.012140317507 -0.00208507707995 -9.06355104376e-23)
(0.0119258394352 -0.00337236124501 -3.26822210809e-23)
(0.0122180654734 -0.0028132993364 -4.77816032426e-23)
(0.0122299604279 -0.00423390504656 -1.3112129546e-23)
(0.0124932716386 -0.00360631997648 -1.39081722464e-23)
(0.012634404028 -0.00517977380485 1.36081272282e-24)
(0.012899889235 -0.00447560527863 -9.32973789599e-24)
(0.0131136002837 -0.00622347566374 1.83928191733e-23)
(0.0133949617792 -0.00543974147802 1.28159799106e-23)
(0.0136569511508 -0.00740125029219 1.66574340669e-23)
(0.0139755053064 -0.00651628205436 1.56982700884e-23)
(0.014265532872 -0.00872811089949 -6.36395064196e-24)
(0.0146242483377 -0.00772648722286 3.36848956079e-24)
(0.0149540619481 -0.0102307097847 -1.5554119086e-22)
(0.0153600619959 -0.00910837182742 -1.12593191133e-23)
(0.0157666821364 -0.0119249120785 -5.23839230603e-22)
(0.0161906493672 -0.0106853350437 -2.72583368528e-22)
(0.0168132701409 -0.0138491691151 -1.34777937815e-21)
(0.0171979910916 -0.0124754292619 -8.27281711037e-22)
(0.0182691739816 -0.0160976682705 -2.15720185601e-21)
(0.0185575357607 -0.0144776178586 -2.11376246446e-21)
(0.0198763036979 -0.0188679552716 -1.95678199605e-21)
(0.0205126159518 -0.0171160779576 -2.5896065325e-21)
(0.0208407771931 -0.0223720164445 -1.14238099213e-21)
(0.0223695578546 -0.0203562560215 -1.5733514784e-21)
(0.0252826526179 -0.0263452454583 -6.74394941404e-21)
(0.0230791120182 -0.0243460468681 -7.5036903204e-22)
(0.0453623879557 -0.0276061803605 -1.35391053478e-20)
(0.0298109284333 -0.0245837685503 -1.35369715722e-20)
(0.0681564319146 0.0256351769699 1.610314357e-22)
(0.0392990252236 -0.0266449905411 -1.42692860615e-20)
(0.0674894755186 0.0341443846528 1.70553225016e-20)
(0.0136158143599 -0.000494885415774 -3.17306133182e-22)
(0.0142940757776 -0.000235397430202 -3.36865731638e-22)
(0.0129297742121 -0.00103830478448 -2.20904704919e-22)
(0.0134734144463 -0.000698971797664 -2.31395845133e-22)
(0.0125618389692 -0.00163742583336 -1.32890901705e-22)
(0.0129776675089 -0.00122055593068 -1.44780586697e-22)
(0.0125069901513 -0.00229535596823 -6.92210166062e-23)
(0.0127982355664 -0.00181804760805 -7.08562202976e-23)
(0.0127162590939 -0.00301993817404 -2.90075544082e-23)
(0.0129426344667 -0.00246891355744 -3.21653309605e-23)
(0.0130990556365 -0.00381351041605 -1.01257805965e-23)
(0.0132868380867 -0.00318401111717 -1.05759392885e-23)
(0.0135955505919 -0.00468951947535 2.12542929179e-24)
(0.0137759117301 -0.0039780074584 -6.88732655529e-24)
(0.014188007007 -0.00566710520397 1.01214308256e-23)
(0.0143725912409 -0.0048627909244 5.39103168808e-24)
(0.0148701888787 -0.00676628209184 2.4093255822e-24)
(0.015074761054 -0.0058596912872 -8.21787506287e-25)
(0.015639051531 -0.00802420829724 -1.52687891054e-24)
(0.01588228168 -0.00699172179774 -1.17693828503e-23)
(0.0165154065046 -0.00945451678267 -1.28301496781e-22)
(0.016790485375 -0.00829172955832 -3.64229473116e-23)
(0.0175529762876 -0.0111002804925 -5.76025848962e-22)
(0.017836508467 -0.00979149030877 -2.20845984796e-22)
(0.0188801791358 -0.0130178857334 -1.59326479734e-21)
(0.0191156505381 -0.0115215297215 -7.1716383361e-22)
(0.0207362141379 -0.0152826367834 -2.54616714094e-21)
(0.0208223012813 -0.0134811035358 -1.68149738517e-21)
(0.0229770110243 -0.0179959668769 -2.20617601485e-21)
(0.0232259340902 -0.0161033512766 -2.47226119604e-21)
(0.024699350483 -0.0215454385423 -1.18133951831e-21)
(0.025919020372 -0.0192472926912 -2.13766545886e-21)
(0.0277784956817 -0.0259624476579 -7.54339119021e-21)
(0.0274961177014 -0.023428889913 -4.00489546493e-21)
(0.0303077911791 -0.026824506943 -1.42671522859e-20)
(0.0306729327151 -0.0246140161033 -1.25662200578e-20)
(0.0425246781175 -0.0112011564109 2.62500500438e-21)
(0.0236755305166 -0.0286394483877 -1.25253276527e-20)
(0.0326609677149 0.00312938171247 3.96605242442e-21)
(0.0140954330174 -0.000407166814662 -2.5095544359e-22)
(0.0147012471297 -0.000196200714356 -2.4019120227e-22)
(0.0134628251763 -0.000872408787804 -1.55271726911e-22)
(0.013938654983 -0.000566230778661 -1.27793153395e-22)
(0.0131522689511 -0.00139038837298 -8.2745905289e-23)
(0.0134956392064 -0.00100087042439 -6.51430100145e-23)
(0.0131584641793 -0.00196899406878 -3.38005346518e-23)
(0.0133768308183 -0.00151221553279 -1.61754852079e-23)
(0.0134330227273 -0.00260374078966 -1.37337158408e-23)
(0.0135773700497 -0.00207268809021 -1.02069547366e-23)
(0.0138922179898 -0.00331288902395 -7.33748524732e-24)
(0.0139959826828 -0.00269388891676 -3.42639538729e-24)
(0.0144838202386 -0.00410548729673 -3.62172415901e-24)
(0.0145685275722 -0.00339202596392 -5.66656171327e-24)
(0.0151887079923 -0.00499990375089 -5.55218664383e-24)
(0.0152670624659 -0.00417984708637 8.47147351984e-24)
(0.0160035440581 -0.00601519480618 -1.50004959388e-23)
(0.0160901509548 -0.00507814849696 4.22165105143e-24)
(0.0169349438234 -0.0071728196954 -4.66654512514e-23)
(0.0170400478856 -0.00610573977716 -8.40832509343e-24)
(0.0180053966618 -0.00851624456019 -1.28967435327e-22)
(0.0181340610013 -0.00729318372857 -6.19299129905e-23)
(0.0192778789417 -0.0100683658464 -3.61983969445e-22)
(0.0193888117619 -0.00868152538078 -1.61051390089e-22)
(0.02091423822 -0.0118926089183 -8.05396421435e-22)
(0.0209400520064 -0.0103044112593 -4.79461796586e-22)
(0.0231703756759 -0.0140694085831 -1.60759144026e-21)
(0.0229992170572 -0.0121804127112 -1.06751915976e-21)
(0.0260121640638 -0.0167024462233 -2.40375064005e-21)
(0.0258590414792 -0.0146673778493 -2.1242788542e-21)
(0.0285209823046 -0.0200816508412 -4.96122140548e-21)
(0.0292982667265 -0.0175476696831 -3.13839203048e-21)
(0.0302748877246 -0.0241791701652 -9.02772433255e-21)
(0.0315936516544 -0.0217914572365 -7.38830109778e-21)
(0.0271259270585 -0.0254999306144 -1.08243954246e-20)
(0.0319936638317 -0.0234385438581 -1.00569029949e-20)
(0.0225054020579 -0.0257333300443 -1.11842802326e-20)
(0.0239088825879 -0.0251963297202 -1.01466201677e-20)
(0.00923188136437 -0.0157688589405 -7.06100078125e-21)
(0.0144864973816 -0.00031729808487 -1.17028912076e-22)
(0.015018545538 -0.000155828909086 -1.14797713498e-22)
(0.0139090539567 -0.000687851907495 -3.76644364985e-23)
(0.014309205567 -0.000420396171566 -7.19246031719e-24)
(0.0136558987895 -0.00111463743694 1.42741006667e-24)
(0.0139224234738 -0.000755540196643 2.9423146744e-23)
(0.0137222112966 -0.00159735055928 7.4180947074e-24)
(0.0138595344696 -0.00116642226235 3.08580682503e-23)
(0.0140591371789 -0.00213441440588 1.00365716988e-25)
(0.0141144231337 -0.00162397767439 3.41737958776e-24)
(0.0145898565429 -0.00273907680687 -1.75547185323e-24)
(0.0146006444487 -0.00213622773953 -1.76617009055e-26)
(0.0152709299175 -0.00342282059964 6.42663596558e-24)
(0.0152523042451 -0.00271702958093 -2.48905990505e-24)
(0.0160842794001 -0.0042025036824 1.82453112151e-23)
(0.0160468260811 -0.00338341285254 1.15388078126e-23)
(0.0170323045682 -0.00509684260138 1.08138218968e-23)
(0.0169846416567 -0.0041527562005 2.28962475561e-23)
(0.0181277079187 -0.00613826764557 -2.36727868326e-23)
(0.0180816552634 -0.00504333966078 7.20190659242e-24)
(0.0193936273421 -0.00734507797399 -9.40138677518e-23)
(0.0193412350304 -0.00608673509671 -4.0123151251e-23)
(0.0209077295708 -0.00878210961879 -2.7852921723e-22)
(0.0208261687629 -0.00732449040967 -1.41704309105e-22)
(0.022852348164 -0.0104806615014 -7.41584534915e-22)
(0.0226388972038 -0.00878637604398 -5.00625103802e-22)
(0.0254602582769 -0.0125015879145 -1.5842065737e-21)
(0.0250203464584 -0.0105120750391 -1.46807429603e-21)
(0.0288074085782 -0.0148381237821 -2.85892024463e-21)
(0.0281957396325 -0.012700358629 -2.69752728697e-21)
(0.0319417397897 -0.0177600033093 -5.56547172278e-21)
(0.0322202142562 -0.0151876726321 -4.21725030504e-21)
(0.0330354077316 -0.021164026661 -8.41747976018e-21)
(0.0349976999126 -0.0195927484582 -5.53431673854e-21)
(0.0289505435533 -0.0236820161888 -9.37912773801e-21)
(0.034511680114 -0.0213757921057 -9.26072915192e-21)
(0.0118985129438 -0.0272539779248 -6.02334071631e-21)
(0.0274806718853 -0.0205689449396 -9.29806503062e-21)
(-0.00225480804066 -0.0226953854214 -2.01397996702e-21)
(0.0147827890143 -0.000217983350797 -4.96126173899e-24)
(0.0152365341382 -0.000107287853531 -2.88374931521e-23)
(0.014256645829 -0.000484596472322 5.98951229253e-23)
(0.0145758175205 -0.000258240858886 6.10405824117e-23)
(0.014057667529 -0.00080681933603 5.88538049276e-23)
(0.0142446362526 -0.000482780655979 7.41388280292e-23)
(0.0141788101781 -0.00118012985104 2.68573531306e-23)
(0.0145747333414 -0.00160644362531 3.29935216987e-24)
(0.0151726439122 -0.00209005891594 -7.51249752724e-25)
(0.0159327754789 -0.00264539781865 2.62311194194e-24)
(0.0168467172244 -0.00329263147427 1.61897441536e-23)
(0.0179243346465 -0.00404401630459 1.92843322518e-23)
(0.0191765600255 -0.0049272188398 -9.24845782606e-24)
(0.0206366892559 -0.00597718486922 -8.78135926043e-23)
(0.0223945902107 -0.00722892543335 -3.63800195677e-22)
(0.0246082770342 -0.00873357360233 -1.22711486492e-21)
(0.0274772019321 -0.0104806652163 -2.58139500929e-21)
(0.0311966388307 -0.0123978880747 -4.05585734737e-21)
(0.0347723322724 -0.0147398509378 -4.18609532079e-21)
(0.0360521272388 -0.0174552315502 -6.37756613028e-21)
(0.0324276942848 -0.0208801474885 -9.17966644452e-21)
(0.0116262055436 -0.024557022726 -5.28870428133e-21)
(0.0149687117553 -0.000103273588272 3.71643509986e-23)
(0.0153397915024 -5.00707444665e-05 1.64084648114e-23)
(0.0144948457909 -0.00025886009411 7.52842875156e-23)
(0.0153202554579 1.06510594097e-05 8.7845012347e-23)
(0.015175864508 7.62084703194e-05 2.21280989992e-22)
)
;

boundaryField
{
    back
    {
        type            calculated;
        value           uniform (0 0 0);
    }
    sides
    {
        type            calculated;
        value           nonuniform List<vector> 0();
    }
    bottom
    {
        type            calculated;
        value           uniform (0 0 0);
    }
    front
    {
        type            calculated;
        value           uniform (0 0 0);
    }
    atmosphere
    {
        type            calculated;
        value           nonuniform List<vector> 8((0 -0.0567027199116 0) (0 -0.0493558169059 0) (0 -0.00769332022224 0) (0.0750997637276 0.0404157289085 1.46626041776e-20) (0.0547131716817 0.0236272590996 1.94480408255e-20) (0 -0.00230434723825 0) (0 -0.0157674629709 0) (0 -0.0218141878565 0));
    }
    floatingObject
    {
        type            calculated;
        value           nonuniform List<vector> 0();
    }
    procBoundary9to6
    {
        type            processor;
        value           nonuniform List<vector> 4((0.00911971752406 -0.0255447838798 -7.07444077234e-22) (0.0132838841691 -0.02176766172 -4.69141559106e-21) (0.118119983711 -0.0366078481708 -4.65165637018e-21) (0.0373968971108 -0.0644894936834 2.36699930834e-21));
    }
    procBoundary9to7
    {
        type            processor;
        value           nonuniform List<vector> 
16
(
(0.0112070116944 -0.000350440073899 -3.26289122104e-22)
(0.0101708142955 -0.00110714299092 -2.2562620858e-22)
(0.00940852695522 -0.00188730219763 -1.00423092916e-22)
(0.00894166950591 -0.0027296592276 1.37695349744e-24)
(0.00877498789836 -0.00362730497044 1.1453529488e-23)
(0.00877570453279 -0.00458299311911 2.65348128773e-24)
(0.0088556032577 -0.0056057233632 -1.98049972023e-24)
(0.00896216864067 -0.00670772619832 -8.00037140275e-25)
(0.00907411911852 -0.00790111576654 4.53242878018e-24)
(0.00918200486927 -0.00920305641032 -5.17191927373e-24)
(0.00927731276965 -0.0106491690808 2.87976180498e-23)
(0.00935503941222 -0.0122469898992 1.33416329442e-23)
(0.00944513081495 -0.0140351983813 -1.0985237986e-22)
(0.00951991892249 -0.0160730097296 -4.50592726581e-22)
(0.009438833015 -0.0185273517497 -8.98151020335e-22)
(0.00908380642004 -0.0218468661479 -8.0698103653e-22)
)
;
    }
    procBoundary9to10
    {
        type            processor;
        value           nonuniform List<vector> 
15
(
(0.0142328394468 -0.000781451697023 3.66508314162e-23)
(0.0145407286415 -0.00112233052998 2.33064513723e-24)
(0.0150842678382 -0.00151152275914 -2.81860399658e-24)
(0.0158076856913 -0.00196029988122 1.49493043798e-24)
(0.0166941728815 -0.0024835507816 1.56736232677e-23)
(0.0177361969407 -0.00309627633576 3.97401134481e-23)
(0.0189652673346 -0.00382352911596 9.44703741687e-24)
(0.0203915617813 -0.00469002291022 -3.5265391888e-23)
(0.0147314025115 -8.04477656664e-05 8.8076767091e-23)
(0.0143469093874 -0.000462712585579 5.19358545178e-23)
(0.0144484920641 -0.000184840166421 7.93185478972e-23)
(0.0150364581511 1.94996194398e-05 6.73208809037e-23)
(0.0149812688913 0.000144469718386 1.55966095171e-22)
(0.0147938193243 0.000278684885937 3.04732596239e-22)
(0.0148971331638 0.000146570830864 3.93004555608e-22)
)
;
    }
    procBoundary9to11
    {
        type            processor;
        value           nonuniform List<vector> 9((0.0220784577496 -0.00572907157775 -1.6195829572e-22) (0.0241439119174 -0.00696972723245 -6.17309748432e-22) (0.0267677464703 -0.00844820309027 -2.0209200273e-21) (0.0301131275013 -0.0101918723278 -3.85966191547e-21) (0.0345622785985 -0.0122337267632 -4.62086863586e-21) (0.0377131075645 -0.0170339414974 -4.32891932116e-21) (0.0379365323396 -0.0186829347301 -1.04373023111e-20) (0.0311573434921 -0.0158733871175 -1.0402959618e-20) (-0.00499790982027 -0.0243910388238 -2.91299418118e-21));
    }
}


// ************************************************************************* //
