/*--------------------------------*- C++ -*----------------------------------*\
| =========                 |                                                 |
| \\      /  F ield         | OpenFOAM: The Open Source CFD Toolbox           |
|  \\    /   O peration     | Version:  v2012                                 |
|   \\  /    A nd           | Website:  www.openfoam.com                      |
|    \\/     M anipulation  |                                                 |
\*---------------------------------------------------------------------------*/
FoamFile
{
    version     2.0;
    format      ascii;
    class       volScalarField;
    location    "2.4";
    object      ddt0(epsilon);
}
// * * * * * * * * * * * * * * * * * * * * * * * * * * * * * * * * * * * * * //

dimensions      [0 2 -4 0 0 0 0];


internalField   nonuniform List<scalar> 
164
(
-0.00468080550398
-0.00470382647497
-0.00472938899463
-0.00475585731071
-0.0047750652294
-0.00474330081678
-0.00448170883219
-0.00353808189557
-0.00160013808495
-0.00456054421007
-0.041687401996
-0.118359178556
-0.11241580753
-0.00385409106726
-0.00398351190206
-0.00435886467849
-0.00451064804778
-0.00461000144989
-0.00463404893827
-0.00465623065815
-0.00467983089451
-0.00470509791455
-0.00473065310513
-0.00475060742219
-0.00472587490106
-0.00444332410138
-0.00301812449604
0.0027664636117
0.0185567430021
0.0215993585255
-0.0184429744705
-0.0141051292597
-0.00381693145296
-0.0039466486551
-0.00432239549496
-0.00447684951841
-0.00454473433728
-0.00458077890696
-0.00460671147191
-0.00463122214021
-0.00465779801532
-0.0046840284351
-0.0047093238326
-0.0047317828217
-0.00471003286428
-0.00437569389393
-0.0024429847265
0.00667707065938
0.0380903153568
0.0728205009882
0.0194935556395
-0.00373139683826
-0.0037801201602
-0.00391085186976
-0.0042862573671
-0.00444223591922
-0.0045121623171
-0.00455090328204
-0.00458111414751
-0.00461168990719
-0.0046468502247
-0.00467621989372
-0.00470595297468
-0.00474855120399
-0.00474081700527
-0.00429856262798
-0.00177231808371
0.00980019147297
0.0457889881502
0.0849414044163
0.0271629755978
-0.0246560778516
-0.00374564421387
-0.00387862212379
-0.00425299642864
-0.00440922899996
-0.00448101734099
-0.00452423938131
-0.00456028390346
-0.00459637322074
-0.00464060919466
-0.00466922083481
-0.00471440587671
-0.00482509642247
-0.00481528740514
-0.00409257057125
-0.000673920550264
0.0127078117598
0.043482655835
0.0432517324727
-0.0271392668611
-0.0904008486505
-0.00371558841543
-0.00385242248718
-0.00422521305515
-0.00438088442971
-0.00445549091449
-0.00450586381657
-0.00454243542627
-0.00453704474314
-0.00448927754255
-0.00447003693668
-0.00453709975329
-0.00472026681223
-0.00455137374064
-0.0034159820952
0.000788128207208
0.00807317538978
-0.00827502910519
-0.109384591652
-0.273197637415
-0.585104266298
-0.00369172839579
-0.00383418865081
-0.00420511091128
-0.0043594921508
-0.00443884873995
-0.00451004117977
-0.00456008751271
-0.00432467144386
-0.00471615956492
-0.00436350309907
-0.0041325561601
-0.00409222086792
-0.00356506818629
-0.00302385691296
0.000907603030028
0.0131412909519
0.0302202652714
0.00520890523316
-0.339687358506
-0.769112851456
-0.00367716909846
-0.00382581146881
-0.00419569762111
-0.00434821679557
-0.0044207138974
-0.00443648233026
-0.00426175131697
-0.00435041434589
-0.00366787949504
-0.00382048843462
-0.00418942971485
-0.00434002929298
-0.00440889021876
-0.00440911273161
-0.00416069527804
-0.00407644486226
-0.00366787983926
-0.00382049891811
-0.00418944266405
-0.00434003892812
-0.00440889230899
-0.00440910213135
-0.00416068040059
-0.00407647681836
-0.00367719883981
-0.00382585150148
-0.0041957384244
-0.00434825008371
-0.00442072651298
-0.00443647299447
-0.00426172359852
-0.00435047885583
)
;

boundaryField
{
    back
    {
        type            calculated;
        value           nonuniform List<scalar> 
164
(
-0.00468080550398
-0.00470382647497
-0.00472938899463
-0.00475585731071
-0.0047750652294
-0.00474330081678
-0.00448170883219
-0.00353808189557
-0.00160013808495
-0.00456054421007
-0.041687401996
-0.118359178556
-0.11241580753
-0.00385409106726
-0.00398351190206
-0.00435886467849
-0.00451064804778
-0.00461000144989
-0.00463404893827
-0.00465623065815
-0.00467983089451
-0.00470509791455
-0.00473065310513
-0.00475060742219
-0.00472587490106
-0.00444332410138
-0.00301812449604
0.0027664636117
0.0185567430021
0.0215993585255
-0.0184429744705
-0.0141051292597
-0.00381693145296
-0.0039466486551
-0.00432239549496
-0.00447684951841
-0.00454473433728
-0.00458077890696
-0.00460671147191
-0.00463122214021
-0.00465779801532
-0.0046840284351
-0.0047093238326
-0.0047317828217
-0.00471003286428
-0.00437569389393
-0.0024429847265
0.00667707065938
0.0380903153568
0.0728205009882
0.0194935556395
-0.00373139683826
-0.0037801201602
-0.00391085186976
-0.0042862573671
-0.00444223591922
-0.0045121623171
-0.00455090328204
-0.00458111414751
-0.00461168990719
-0.0046468502247
-0.00467621989372
-0.00470595297468
-0.00474855120399
-0.00474081700527
-0.00429856262798
-0.00177231808371
0.00980019147297
0.0457889881502
0.0849414044163
0.0271629755978
-0.0246560778516
-0.00374564421387
-0.00387862212379
-0.00425299642864
-0.00440922899996
-0.00448101734099
-0.00452423938131
-0.00456028390346
-0.00459637322074
-0.00464060919466
-0.00466922083481
-0.00471440587671
-0.00482509642247
-0.00481528740514
-0.00409257057125
-0.000673920550264
0.0127078117598
0.043482655835
0.0432517324727
-0.0271392668611
-0.0904008486505
-0.00371558841543
-0.00385242248718
-0.00422521305515
-0.00438088442971
-0.00445549091449
-0.00450586381657
-0.00454243542627
-0.00453704474314
-0.00448927754255
-0.00447003693668
-0.00453709975329
-0.00472026681223
-0.00455137374064
-0.0034159820952
0.000788128207208
0.00807317538978
-0.00827502910519
-0.109384591652
-0.273197637415
-0.585104266298
-0.00369172839579
-0.00383418865081
-0.00420511091128
-0.0043594921508
-0.00443884873995
-0.00451004117977
-0.00456008751271
-0.00432467144386
-0.00471615956492
-0.00436350309907
-0.0041325561601
-0.00409222086792
-0.00356506818629
-0.00302385691296
0.000907603030028
0.0131412909519
0.0302202652714
0.00520890523316
-0.339687358506
-0.769112851456
-0.00367716909846
-0.00382581146881
-0.00419569762111
-0.00434821679557
-0.0044207138974
-0.00443648233026
-0.00426175131697
-0.00435041434589
-0.00366787949504
-0.00382048843462
-0.00418942971485
-0.00434002929298
-0.00440889021876
-0.00440911273161
-0.00416069527804
-0.00407644486226
-0.00366787983926
-0.00382049891811
-0.00418944266405
-0.00434003892812
-0.00440889230899
-0.00440910213135
-0.00416068040059
-0.00407647681836
-0.00367719883981
-0.00382585150148
-0.0041957384244
-0.00434825008371
-0.00442072651298
-0.00443647299447
-0.00426172359852
-0.00435047885583
)
;
    }
    sides
    {
        type            calculated;
        value           nonuniform List<scalar> 0();
    }
    bottom
    {
        type            calculated;
        value           nonuniform List<scalar> 10(-0.00385409106726 -0.00381693145296 -0.0037801201602 -0.00374564421387 -0.00371558841543 -0.00369172839579 -0.00367716909846 -0.00366787949504 -0.00366787983926 -0.00367719883981);
    }
    front
    {
        type            calculated;
        value           nonuniform List<scalar> 
164
(
-0.00468080550398
-0.00470382647497
-0.00472938899463
-0.00475585731071
-0.0047750652294
-0.00474330081678
-0.00448170883219
-0.00353808189557
-0.00160013808495
-0.00456054421007
-0.041687401996
-0.118359178556
-0.11241580753
-0.00385409106726
-0.00398351190206
-0.00435886467849
-0.00451064804778
-0.00461000144989
-0.00463404893827
-0.00465623065815
-0.00467983089451
-0.00470509791455
-0.00473065310513
-0.00475060742219
-0.00472587490106
-0.00444332410138
-0.00301812449604
0.0027664636117
0.0185567430021
0.0215993585255
-0.0184429744705
-0.0141051292597
-0.00381693145296
-0.0039466486551
-0.00432239549496
-0.00447684951841
-0.00454473433728
-0.00458077890696
-0.00460671147191
-0.00463122214021
-0.00465779801532
-0.0046840284351
-0.0047093238326
-0.0047317828217
-0.00471003286428
-0.00437569389393
-0.0024429847265
0.00667707065938
0.0380903153568
0.0728205009882
0.0194935556395
-0.00373139683826
-0.0037801201602
-0.00391085186976
-0.0042862573671
-0.00444223591922
-0.0045121623171
-0.00455090328204
-0.00458111414751
-0.00461168990719
-0.0046468502247
-0.00467621989372
-0.00470595297468
-0.00474855120399
-0.00474081700527
-0.00429856262798
-0.00177231808371
0.00980019147297
0.0457889881502
0.0849414044163
0.0271629755978
-0.0246560778516
-0.00374564421387
-0.00387862212379
-0.00425299642864
-0.00440922899996
-0.00448101734099
-0.00452423938131
-0.00456028390346
-0.00459637322074
-0.00464060919466
-0.00466922083481
-0.00471440587671
-0.00482509642247
-0.00481528740514
-0.00409257057125
-0.000673920550264
0.0127078117598
0.043482655835
0.0432517324727
-0.0271392668611
-0.0904008486505
-0.00371558841543
-0.00385242248718
-0.00422521305515
-0.00438088442971
-0.00445549091449
-0.00450586381657
-0.00454243542627
-0.00453704474314
-0.00448927754255
-0.00447003693668
-0.00453709975329
-0.00472026681223
-0.00455137374064
-0.0034159820952
0.000788128207208
0.00807317538978
-0.00827502910519
-0.109384591652
-0.273197637415
-0.585104266298
-0.00369172839579
-0.00383418865081
-0.00420511091128
-0.0043594921508
-0.00443884873995
-0.00451004117977
-0.00456008751271
-0.00432467144386
-0.00471615956492
-0.00436350309907
-0.0041325561601
-0.00409222086792
-0.00356506818629
-0.00302385691296
0.000907603030028
0.0131412909519
0.0302202652714
0.00520890523316
-0.339687358506
-0.769112851456
-0.00367716909846
-0.00382581146881
-0.00419569762111
-0.00434821679557
-0.0044207138974
-0.00443648233026
-0.00426175131697
-0.00435041434589
-0.00366787949504
-0.00382048843462
-0.00418942971485
-0.00434002929298
-0.00440889021876
-0.00440911273161
-0.00416069527804
-0.00407644486226
-0.00366787983926
-0.00382049891811
-0.00418944266405
-0.00434003892812
-0.00440889230899
-0.00440910213135
-0.00416068040059
-0.00407647681836
-0.00367719883981
-0.00382585150148
-0.0041957384244
-0.00434825008371
-0.00442072651298
-0.00443647299447
-0.00426172359852
-0.00435047885583
)
;
    }
    atmosphere
    {
        type            calculated;
        value           nonuniform List<scalar> 7(0 -2.19749152354e-44 1.91395634001e-35 -1.09000383682e-29 2.20629729746e-23 -1.75648448259 -2.77176431463);
    }
    floatingObject
    {
        type            calculated;
        value           nonuniform List<scalar> 8(-0.00471615956492 -0.00436350309907 -0.0041325561601 -0.00409222086792 -0.00435041434589 -0.00407644486226 -0.00407647681836 -0.00435047885583);
    }
    procBoundary3to4
    {
        type            processor;
        value           nonuniform List<scalar> 
13
(
-0.00470240679011
-0.0047254664685
-0.00475138389129
-0.00389045156006
-0.00401994189547
-0.00439413019412
-0.00454246442804
-0.00463688121172
-0.00465953258206
-0.00465953258206
-0.00457617345617
-0.00457617345617
-0.00457617345617
)
;
    }
    procBoundary3to5
    {
        type            processor;
        value           nonuniform List<scalar> 10(-0.00477880860524 -0.0047959011287 -0.00475325591641 -0.00453884640283 -0.00428720039079 -0.00599596438184 -0.0184463687393 -0.0623359867284 -0.159011835068 -0.661870394935);
    }
    procBoundary3to6
    {
        type            processor;
        value           nonuniform List<scalar> 8(-0.0031802445445 -0.00248940245895 0.00203325160241 0.0238046861375 0.0968188195024 0.21168062867 0.0816649929489 -0.080235727411);
    }
    procBoundary3to8
    {
        type            processor;
        value           nonuniform List<scalar> 8(-0.00369173816242 -0.00383421378045 -0.00420513948479 -0.00435951503203 -0.00443885210279 -0.00450999732891 -0.00456000247669 -0.00432454251348);
    }
}


// ************************************************************************* //
