/*--------------------------------*- C++ -*----------------------------------*\
| =========                 |                                                 |
| \\      /  F ield         | OpenFOAM: The Open Source CFD Toolbox           |
|  \\    /   O peration     | Version:  v2012                                 |
|   \\  /    A nd           | Website:  www.openfoam.com                      |
|    \\/     M anipulation  |                                                 |
\*---------------------------------------------------------------------------*/
FoamFile
{
    version     2.0;
    format      ascii;
    class       volVectorField;
    location    "2.4";
    object      ddtCorrDdt0(U);
}
// * * * * * * * * * * * * * * * * * * * * * * * * * * * * * * * * * * * * * //

dimensions      [0 1 -2 0 0 0 0];


internalField   nonuniform List<vector> 
164
(
(0.000619628719876 0.0328306823544 2.01356194986e-21)
(-0.00602265565006 0.0384330557182 3.21333859005e-21)
(-0.0142312453694 0.0451150820641 3.68531658978e-21)
(-0.0241967281997 0.0535770438048 2.74229963161e-21)
(-0.0352250551291 0.0653886110901 2.62026379369e-21)
(-0.0446658708335 0.0818797258905 2.53082208867e-22)
(-0.0506641022758 0.102411670001 5.99190571236e-22)
(-0.0508200635603 0.131709476975 -3.3277552594e-21)
(-0.0213318544298 0.165195919781 -7.98553657238e-21)
(0.0915685201532 0.220054216055 -7.1116926413e-20)
(0.208584359108 0.285497892898 -1.34204857845e-19)
(0.0974334563442 0.215862041807 -5.60281984022e-20)
(-0.259444044125 0.774085169804 6.51756287584e-20)
(0.017167911326 0.0011803617708 -4.63809603453e-22)
(0.0148891822274 0.00582377791542 1.17366269036e-21)
(0.0135149225727 0.00900985339754 3.10916193094e-22)
(0.011790340061 0.0125976777235 6.89631835067e-23)
(0.00599830040546 0.0195086365495 1.25661574922e-21)
(0.00160267845462 0.0230044695333 4.86145848127e-21)
(-0.00398155752004 0.0266295380369 1.25005928154e-20)
(-0.011117762182 0.0305371537817 2.26667404416e-20)
(-0.0204896085947 0.0351554281036 2.91036531805e-20)
(-0.0330267337071 0.041633296409 2.42667850572e-20)
(-0.0485425186652 0.0528758896218 2.33859987712e-20)
(-0.0633154865481 0.0709236957389 1.76391844548e-20)
(-0.0762448211813 0.094809039934 1.11185458852e-20)
(-0.0879129126902 0.132041511557 4.04746739228e-21)
(-0.075048484195 0.181478602859 -6.04077018898e-21)
(0.0112627414158 0.203905794915 -2.41148715009e-20)
(0.0536209056626 0.21087038802 5.17660116377e-20)
(0.00497969528887 0.469164807179 5.21916010873e-20)
(-0.280072575391 0.648064416012 6.51242938855e-20)
(0.0137193085967 0.000859363347018 -2.0894431593e-21)
(0.0116514407766 0.00503018768833 1.23193994362e-21)
(0.0103348993206 0.00758330744668 1.93759957531e-22)
(0.00865733205915 0.0105194046164 9.41624521897e-23)
(0.00626005006229 0.0131547195559 1.71058130914e-21)
(0.00298619340999 0.0156573200324 8.47064557334e-21)
(-0.00135864392976 0.0179504703998 3.05030241201e-20)
(-0.00676697488805 0.0199057250534 8.06348224116e-20)
(-0.0138997310316 0.0215464202197 1.48055941815e-19)
(-0.023978102977 0.0228480536611 1.84414518923e-19)
(-0.0396025974239 0.0252219872442 1.6164535592e-19)
(-0.0624739694105 0.0343103923258 1.77839341204e-19)
(-0.0845646730069 0.0537469629171 1.52262969493e-19)
(-0.103268326403 0.0808710501829 9.08105687133e-20)
(-0.121294566548 0.11800694519 3.36521948741e-20)
(-0.115303222045 0.156703251062 -3.28893272555e-20)
(-0.064113627257 0.179766364182 8.46131477958e-20)
(-0.0498153145677 0.1140007037 1.09333001417e-19)
(-0.0467272870237 0.42176209827 -1.88967414374e-20)
(-0.108660063105 0.708673005011 -8.59213387891e-20)
(0.010830209281 0.000564342177798 -2.70946506666e-21)
(0.0090251897812 0.00427974426515 1.24917268381e-21)
(0.00784553841211 0.00626610317123 -7.48990764594e-23)
(0.00635159357916 0.00855544492322 1.30872600758e-21)
(0.0041478702347 0.0104165575415 9.57049231689e-21)
(0.00119205629233 0.0119584909276 4.4971099106e-20)
(-0.00285388620391 0.012898640567 1.65897049469e-19)
(-0.00766813250058 0.0128562097492 4.35307795591e-19)
(-0.0137586486263 0.0115575482686 8.38570602719e-19)
(-0.0230616991027 0.00758428264577 9.7638736432e-19)
(-0.041742183903 0.00158537341964 8.96496706581e-19)
(-0.0760718214641 0.0052282575082 1.20727551079e-18)
(-0.10563969803 0.0282081074688 1.07378873397e-18)
(-0.1278153537 0.0584808388473 5.87897286254e-19)
(-0.155601034269 0.0966575728447 2.13624386107e-19)
(-0.179803116806 0.150069410654 1.10515427661e-19)
(-0.192691888252 0.23800992375 3.03937797876e-19)
(-0.310469956762 0.184101760727 4.13025337914e-19)
(-0.309812995212 0.640446015973 1.8619754335e-18)
(-0.0350194346578 0.738967253705 9.51689224702e-20)
(0.00843946684847 0.000327781612105 -2.33245784118e-21)
(0.00692759740507 0.00365637346936 1.07095937406e-21)
(0.00596898949782 0.00516903207683 8.34413820573e-22)
(0.00476557724059 0.00687767406053 7.68333396305e-21)
(0.0029673737649 0.00804210173629 4.12206890753e-20)
(0.000631408341712 0.00846622017424 1.91882144764e-19)
(-0.00281347307951 0.00724419351196 7.13525461533e-19)
(-0.00630983093289 0.0048002496138 1.89513014139e-18)
(-0.00721747710422 0.000863871769324 3.64398926266e-18)
(-0.0128363718272 -0.00989706785106 3.68525408704e-18)
(-0.030350918033 -0.0311226501284 3.53462862965e-18)
(-0.0778106659952 -0.038296256171 6.00099629075e-18)
(-0.128982265006 -0.0133767888603 5.32725772833e-18)
(-0.152578326133 0.00777392767421 3.25337759095e-18)
(-0.185141877763 0.0268688529904 1.41711848826e-18)
(-0.221555190022 0.0558917378152 4.57986125449e-19)
(-0.330145524559 0.171028732615 7.90803913027e-19)
(-0.555928869317 0.165340050724 6.72853209448e-19)
(0.0733226121364 0.237619603232 8.11195975059e-19)
(0.0868452460878 -0.274667935571 8.71235847109e-19)
(0.00641509805843 0.000171950503208 -1.39514823086e-21)
(0.00520140675734 0.00320428900007 8.85741906141e-22)
(0.00453259850964 0.00438172477531 5.12177263374e-21)
(0.0037584745585 0.00566272897587 2.98482874791e-20)
(0.00273117240842 0.00637709835633 1.46613878926e-19)
(0.00211667820174 0.00535673577254 7.20962270147e-19)
(8.37602206242e-05 0.000956328639151 2.72108524039e-18)
(-0.00247338190911 0.00109591492218 6.21334227939e-18)
(0.000182953396861 0.00036429968429 9.24931023863e-18)
(0.00637609635862 -0.0150967555743 5.54098392224e-18)
(0.00870574478738 -0.0379511928458 3.42079416194e-18)
(-0.0778712840918 -0.0619889051904 9.28852610505e-18)
(-0.167737636714 -0.0471765942333 5.48443354046e-18)
(-0.178838210586 -0.0596411573229 3.49707276747e-18)
(-0.209786398474 -0.0368740095555 2.33065426911e-18)
(-0.249426307009 -0.0501419404226 7.27659425369e-19)
(-0.388830822506 -0.0364193612525 5.14190635607e-19)
(-0.611822419469 0.0342144728801 -3.85794805578e-19)
(0.00454185869427 -0.817359460738 -4.91486929249e-18)
(-0.497984869637 -3.64442755867 -2.88018692564e-19)
(0.00464294628786 0.000107258133042 -1.06550751372e-21)
(0.00380205100522 0.00294167509009 2.71762855664e-21)
(0.00361507929178 0.00386624278807 1.34722442466e-20)
(0.00378500029741 0.00468606412847 7.45500818024e-20)
(0.00430188278079 0.00527832726213 3.61335138941e-19)
(0.00614589484488 0.00449099805463 1.75460984966e-18)
(0.00240239989703 0.00434994124617 6.60076247651e-18)
(-0.0166644638066 0.00904059999983 1.36690498068e-17)
(0.00658687870884 0.0260660154665 3.14979150744e-18)
(0.00547283954746 0.0478225887889 -3.72351204322e-18)
(-0.0328895171553 0.0451138472029 -1.08730204752e-17)
(-0.182010581819 -0.0309489236077 -1.99996950608e-17)
(-0.146454974417 -0.0229245380275 -9.57410525337e-18)
(-0.171291138669 -0.095083942814 -6.95971362136e-18)
(-0.224658941783 -0.0898446896219 -7.7758312882e-20)
(-0.256152451187 -0.170838758359 -6.32252965856e-19)
(-0.225324516773 -0.240957798622 1.21700185033e-18)
(-0.238463155817 -0.34347955484 1.52164583152e-19)
(2.11074033483 -0.586071368829 6.82041666725e-18)
(-3.59738898438 -6.02404716544 -4.18784229029e-18)
(0.002799259703 0.000249724105235 1.27802481418e-21)
(0.00230297423541 0.00317504125869 6.31335774963e-21)
(0.00233806181469 0.00453367730188 2.86168307006e-20)
(0.00277733778058 0.00604573948296 1.35336622113e-19)
(0.00382190914472 0.00770430991419 5.20453646081e-19)
(0.00590863054062 0.00914274964956 1.55076861868e-18)
(0.0016233457293 0.0165409490365 3.14510862846e-18)
(-0.0197965158014 -0.00894441116223 2.58887242818e-18)
(0.000814396373674 0.000280271338272 -5.20035265058e-22)
(0.000623631690919 0.00317767896507 7.5052337066e-21)
(0.000592694921365 0.00450574851206 5.05483083573e-20)
(0.000630731569739 0.00594293301472 2.84899359969e-19)
(0.000860117360303 0.00835220427854 1.06520083632e-18)
(0.00142998581336 0.0103708275987 1.76257820843e-18)
(0.00146663909687 0.0155951046652 3.60531188686e-18)
(-0.0101967928854 0.00492141173807 -4.85369026327e-18)
(-0.00110748684089 0.000281865633525 -6.14927550672e-22)
(-0.000911989986104 0.00318438623811 7.46440205019e-21)
(-0.000863085293863 0.00452078464078 5.0511366888e-20)
(-0.000863237431948 0.00597039011824 2.84154626404e-19)
(-0.00102534913756 0.00839593308279 1.06103780716e-18)
(-0.00149912273305 0.0104259072503 1.76699363974e-18)
(-0.0014159721483 0.0156468163051 3.60494618268e-18)
(0.0103549543009 0.00494291653326 -4.8515560864e-18)
(-0.0030532395212 0.000255416572149 -5.88909849606e-22)
(-0.00255117624069 0.003195569647 2.54357392705e-21)
(-0.00256827541096 0.00457870152382 2.72438549478e-20)
(-0.00297057993885 0.00612722940405 1.34349367485e-19)
(-0.00395338833235 0.00782968936934 5.20790688177e-19)
(-0.00594955257604 0.00930680331478 1.54558897534e-18)
(-0.00154362746571 0.0167144106184 3.14471291516e-18)
(0.0200518425524 -0.00885798304873 2.61246039616e-18)
)
;

boundaryField
{
    back
    {
        type            calculated;
        value           uniform (0 0 0);
    }
    sides
    {
        type            calculated;
        value           nonuniform List<vector> 0();
    }
    bottom
    {
        type            calculated;
        value           uniform (0 0 0);
    }
    front
    {
        type            calculated;
        value           uniform (0 0 0);
    }
    atmosphere
    {
        type            calculated;
        value           nonuniform List<vector> 7((0 0.774085169804 0) (-1.68746537833e-43 0.648064416012 2.0014139363e-64) (5.28527479353e-34 0.708673005011 -2.18869186345e-54) (-2.77427092828e-28 0.738967253705 -3.07218057443e-48) (5.27761280164e-22 -0.274667935571 -4.281352012e-41) (-4.06652327962 -3.64442755867 -3.14434418586e-18) (-4.59707913477 -6.02404716544 -2.82549516051e-17));
    }
    floatingObject
    {
        type            calculated;
        value           nonuniform List<vector> 8((0 -8.91214185793e-15 1.11401773224e-15) (0 0 1.11401773224e-15) (0 0 0) (0 -1.78242837159e-14 1.11401773224e-15) (2.22803546448e-15 0 0) (0 0 1.11401773224e-15) (0 0 1.11401773224e-15) (0 0 0));
    }
    procBoundary3to4
    {
        type            processor;
        value           nonuniform List<vector> 
13
(
(0.00651936444337 0.0385257139625 4.25033138179e-22)
(0.000632735233666 0.0453994028893 -2.96499722567e-22)
(-0.00637231006523 0.0533157766125 1.59327500063e-22)
(0.0211804743405 0.0015101463558 -2.69953416622e-21)
(0.0187386492105 0.00662248543671 1.12666113756e-21)
(0.0173805104232 0.0104283092438 6.20827545895e-24)
(0.015722134076 0.0146814628961 -4.60734383481e-23)
(0.0101055961166 0.0232925375742 3.06381781086e-22)
(0.00592369433168 0.0278893208826 8.58040322974e-22)
(0.00592369433168 0.0278893208826 8.58040322974e-22)
(0.00933092957254 0.0160331122275 2.79370676081e-22)
(0.00933092957254 0.0160331122275 2.79370676081e-22)
(0.00933092957254 0.0160331122275 2.79370676081e-22)
)
;
    }
    procBoundary3to5
    {
        type            processor;
        value           nonuniform List<vector> 10((-0.0143465642855 0.0626439107507 1.55744632064e-21) (-0.022704804016 0.0736640673707 1.35969123381e-21) (-0.029886766016 0.0855394792715 1.79259089978e-21) (-0.0350152632542 0.0963063875487 1.34494487509e-21) (-0.0375637445534 0.107662451615 6.48869574062e-22) (-0.0177870865149 0.110782376561 -2.29921976863e-20) (0.0995268574561 0.144933863076 -3.91944271875e-20) (0.33916957906 0.18704759019 -8.3391570919e-20) (0.340946690286 -0.157905792357 -2.61754934781e-19) (0.160115030933 0.746287705121 8.29230256797e-19));
    }
    procBoundary3to6
    {
        type            processor;
        value           nonuniform List<vector> 8((-0.110124079225 -0.0957981876132 -6.08291933551e-18) (-0.12993233334 -0.0834584362875 -4.517789495e-18) (-0.154178219987 -0.140125583396 -3.80512189057e-18) (-0.16576907725 -0.321974732607 -2.60899908667e-18) (-0.00128792620939 -0.360483267278 3.65575456559e-19) (0.335741584076 -0.778820084581 1.79904076006e-18) (10.8046465478 4.53878697616 -4.35512257824e-17) (-8.80348840801 0.893034966396 -9.29861650982e-18));
    }
    procBoundary3to8
    {
        type            processor;
        value           nonuniform List<vector> 8((-0.00480789160624 0.000115824906889 -2.67446126801e-22) (-0.00395956711317 0.00297414075911 2.79115699129e-21) (-0.00375468368654 0.00393750994049 1.38809500457e-20) (-0.00389423283035 0.00481379589666 7.28954272569e-20) (-0.00436469671792 0.00547620461684 3.66400298995e-19) (-0.00614188190461 0.00476233121309 1.75801785908e-18) (-0.00230652137085 0.00469480422074 6.58854235663e-18) (0.0168971049155 0.00953047525997 1.36776612881e-17));
    }
}


// ************************************************************************* //
