/*--------------------------------*- C++ -*----------------------------------*\
| =========                 |                                                 |
| \\      /  F ield         | OpenFOAM: The Open Source CFD Toolbox           |
|  \\    /   O peration     | Version:  v2012                                 |
|   \\  /    A nd           | Website:  www.openfoam.com                      |
|    \\/     M anipulation  |                                                 |
\*---------------------------------------------------------------------------*/
FoamFile
{
    version     2.0;
    format      ascii;
    class       volScalarField;
    location    "3.6";
    object      ddt0(epsilon);
}
// * * * * * * * * * * * * * * * * * * * * * * * * * * * * * * * * * * * * * //

dimensions      [0 2 -4 0 0 0 0];


internalField   nonuniform List<scalar> 
167
(
-0.00111335533035
-0.00112334635102
-0.00112761264966
-0.00113063960201
-0.00113366760875
-0.00113706403262
-0.00114095776342
-0.0011463142721
-0.000990954292446
-0.00107886165589
-0.001108738466
-0.00111886167652
-0.00112319327183
-0.0011262421026
-0.00112927669933
-0.00113263278007
-0.0011365005211
-0.00114159123002
-0.00115044179555
-0.000986173098435
-0.00107403453642
-0.00110407529358
-0.00111432618294
-0.00111873658107
-0.00112183112066
-0.00112489098244
-0.00112823849363
-0.00113206841554
-0.00113692864372
-0.00114527122567
-0.000981310543933
-0.00106917225065
-0.00109937152118
-0.00110975823894
-0.00111425590677
-0.00111740696109
-0.00112050137376
-0.00112385322727
-0.00112759343136
-0.00113230114651
-0.000943093669053
-0.000976407415939
-0.00106427241037
-0.00109464003594
-0.00110516995188
-0.00110976561209
-0.00111298205857
-0.00111611733499
-0.00111948114813
-0.00112318410689
-0.00112761192162
-0.000937426717011
-0.000971520022641
-0.00105936080038
-0.00108989540081
-0.00110057822511
-0.00110528112627
-0.00110857404892
-0.00111176695282
-0.00111518835268
-0.00111874107215
-0.00112301620556
-0.000931691374262
-0.000966634925108
-0.00105445427402
-0.00108515990645
-0.00109600202562
-0.0011008256662
-0.00110421400383
-0.00110750185518
-0.00111088102755
-0.00111444662488
-0.000925994588541
-0.000961766348832
-0.00104956716329
-0.00108044951559
-0.001091464343
-0.00109642969519
-0.00109993907044
-0.00110329279097
-0.00110672248029
-0.00092037437736
-0.000956913174149
-0.00104471682394
-0.00107578633166
-0.00108699533742
-0.00109212673742
-0.00109576630667
-0.00109920125929
-0.00110269600751
-0.000914780748771
-0.000952115587683
-0.00103991792345
-0.0010711866512
-0.0010826123533
-0.0010879279878
-0.00109171597951
-0.00109528228683
-0.00109881342224
-0.00110218897535
-0.000909188949226
-0.000947331473011
-0.00103511977822
-0.0010665964605
-0.00107826331903
-0.00108379894337
-0.00108777567615
-0.0010914857316
-0.00109509248445
-0.00109837085506
-0.000903567874114
-0.00094229827092
-0.00103001552248
-0.0010616893211
-0.00107362327903
-0.00107941985191
-0.00108361676942
-0.00108750567503
-0.00109122343218
-0.00109448162396
-0.000897205434742
-0.000936134689151
-0.00102344591092
-0.0010552054969
-0.00106740077334
-0.00107348897892
-0.00107795132179
-0.00108205744485
-0.00108594829116
-0.00108920249798
-0.000887922079247
-0.00092554504348
-0.00101147861421
-0.00104295388363
-0.00105532134082
-0.00106170298972
-0.00106647031306
-0.00107086297217
-0.0010749264316
-0.00107837234377
-0.000868158894152
-0.000900344268046
-0.000982210544904
-0.0010123651333
-0.00102457879133
-0.00103116913535
-0.00103624417167
-0.00104092388168
-0.00104531160194
-0.000814502185308
-0.000830327212299
-0.000901087206186
-0.000927308422672
-0.000938418935406
-0.000944869648807
-0.000950028495087
-0.000954868849012
-0.00095946840616
-0.000729301422653
-0.000811082900267
-0.000865675378286
-0.000886256146964
-0.00089576936106
-0.000901973778271
-0.000907278409224
-0.000912291492092
-0.000917073722472
)
;

boundaryField
{
    back
    {
        type            calculated;
        value           nonuniform List<scalar> 
167
(
-0.00111335533035
-0.00112334635102
-0.00112761264966
-0.00113063960201
-0.00113366760875
-0.00113706403262
-0.00114095776342
-0.0011463142721
-0.000990954292446
-0.00107886165589
-0.001108738466
-0.00111886167652
-0.00112319327183
-0.0011262421026
-0.00112927669933
-0.00113263278007
-0.0011365005211
-0.00114159123002
-0.00115044179555
-0.000986173098435
-0.00107403453642
-0.00110407529358
-0.00111432618294
-0.00111873658107
-0.00112183112066
-0.00112489098244
-0.00112823849363
-0.00113206841554
-0.00113692864372
-0.00114527122567
-0.000981310543933
-0.00106917225065
-0.00109937152118
-0.00110975823894
-0.00111425590677
-0.00111740696109
-0.00112050137376
-0.00112385322727
-0.00112759343136
-0.00113230114651
-0.000943093669053
-0.000976407415939
-0.00106427241037
-0.00109464003594
-0.00110516995188
-0.00110976561209
-0.00111298205857
-0.00111611733499
-0.00111948114813
-0.00112318410689
-0.00112761192162
-0.000937426717011
-0.000971520022641
-0.00105936080038
-0.00108989540081
-0.00110057822511
-0.00110528112627
-0.00110857404892
-0.00111176695282
-0.00111518835268
-0.00111874107215
-0.00112301620556
-0.000931691374262
-0.000966634925108
-0.00105445427402
-0.00108515990645
-0.00109600202562
-0.0011008256662
-0.00110421400383
-0.00110750185518
-0.00111088102755
-0.00111444662488
-0.000925994588541
-0.000961766348832
-0.00104956716329
-0.00108044951559
-0.001091464343
-0.00109642969519
-0.00109993907044
-0.00110329279097
-0.00110672248029
-0.00092037437736
-0.000956913174149
-0.00104471682394
-0.00107578633166
-0.00108699533742
-0.00109212673742
-0.00109576630667
-0.00109920125929
-0.00110269600751
-0.000914780748771
-0.000952115587683
-0.00103991792345
-0.0010711866512
-0.0010826123533
-0.0010879279878
-0.00109171597951
-0.00109528228683
-0.00109881342224
-0.00110218897535
-0.000909188949226
-0.000947331473011
-0.00103511977822
-0.0010665964605
-0.00107826331903
-0.00108379894337
-0.00108777567615
-0.0010914857316
-0.00109509248445
-0.00109837085506
-0.000903567874114
-0.00094229827092
-0.00103001552248
-0.0010616893211
-0.00107362327903
-0.00107941985191
-0.00108361676942
-0.00108750567503
-0.00109122343218
-0.00109448162396
-0.000897205434742
-0.000936134689151
-0.00102344591092
-0.0010552054969
-0.00106740077334
-0.00107348897892
-0.00107795132179
-0.00108205744485
-0.00108594829116
-0.00108920249798
-0.000887922079247
-0.00092554504348
-0.00101147861421
-0.00104295388363
-0.00105532134082
-0.00106170298972
-0.00106647031306
-0.00107086297217
-0.0010749264316
-0.00107837234377
-0.000868158894152
-0.000900344268046
-0.000982210544904
-0.0010123651333
-0.00102457879133
-0.00103116913535
-0.00103624417167
-0.00104092388168
-0.00104531160194
-0.000814502185309
-0.000830327212299
-0.000901087206186
-0.000927308422672
-0.000938418935406
-0.000944869648807
-0.000950028495087
-0.000954868849012
-0.00095946840616
-0.000729301422653
-0.000811082900267
-0.000865675378286
-0.000886256146964
-0.00089576936106
-0.000901973778271
-0.000907278409224
-0.000912291492092
-0.000917073722472
)
;
    }
    sides
    {
        type            calculated;
        value           nonuniform List<scalar> 9(-0.000729301422653 -0.000811082900267 -0.000865675378286 -0.000886256146964 -0.00089576936106 -0.000901973778271 -0.000907278409224 -0.000912291492092 -0.000917073722472);
    }
    bottom
    {
        type            calculated;
        value           nonuniform List<scalar> 
13
(
-0.000943093669053
-0.000937426717011
-0.000931691374262
-0.000925994588541
-0.00092037437736
-0.000914780748771
-0.000909188949226
-0.000903567874114
-0.000897205434742
-0.000887922079247
-0.000868158894152
-0.000814502185309
-0.000729301422653
)
;
    }
    front
    {
        type            calculated;
        value           nonuniform List<scalar> 
167
(
-0.00111335533035
-0.00112334635102
-0.00112761264966
-0.00113063960201
-0.00113366760875
-0.00113706403262
-0.00114095776342
-0.0011463142721
-0.000990954292446
-0.00107886165589
-0.001108738466
-0.00111886167652
-0.00112319327183
-0.0011262421026
-0.00112927669933
-0.00113263278007
-0.0011365005211
-0.00114159123002
-0.00115044179555
-0.000986173098435
-0.00107403453642
-0.00110407529358
-0.00111432618294
-0.00111873658107
-0.00112183112066
-0.00112489098244
-0.00112823849363
-0.00113206841554
-0.00113692864372
-0.00114527122567
-0.000981310543933
-0.00106917225065
-0.00109937152118
-0.00110975823894
-0.00111425590677
-0.00111740696109
-0.00112050137376
-0.00112385322727
-0.00112759343136
-0.00113230114651
-0.000943093669053
-0.000976407415939
-0.00106427241037
-0.00109464003594
-0.00110516995188
-0.00110976561209
-0.00111298205857
-0.00111611733499
-0.00111948114813
-0.00112318410689
-0.00112761192162
-0.000937426717011
-0.000971520022641
-0.00105936080038
-0.00108989540081
-0.00110057822511
-0.00110528112627
-0.00110857404892
-0.00111176695282
-0.00111518835268
-0.00111874107215
-0.00112301620556
-0.000931691374262
-0.000966634925108
-0.00105445427402
-0.00108515990645
-0.00109600202562
-0.0011008256662
-0.00110421400383
-0.00110750185518
-0.00111088102755
-0.00111444662488
-0.000925994588541
-0.000961766348832
-0.00104956716329
-0.00108044951559
-0.001091464343
-0.00109642969519
-0.00109993907044
-0.00110329279097
-0.00110672248029
-0.00092037437736
-0.000956913174149
-0.00104471682394
-0.00107578633166
-0.00108699533742
-0.00109212673742
-0.00109576630667
-0.00109920125929
-0.00110269600751
-0.000914780748771
-0.000952115587683
-0.00103991792345
-0.0010711866512
-0.0010826123533
-0.0010879279878
-0.00109171597951
-0.00109528228683
-0.00109881342224
-0.00110218897535
-0.000909188949226
-0.000947331473011
-0.00103511977822
-0.0010665964605
-0.00107826331903
-0.00108379894337
-0.00108777567615
-0.0010914857316
-0.00109509248445
-0.00109837085506
-0.000903567874114
-0.00094229827092
-0.00103001552248
-0.0010616893211
-0.00107362327903
-0.00107941985191
-0.00108361676942
-0.00108750567503
-0.00109122343218
-0.00109448162396
-0.000897205434742
-0.000936134689151
-0.00102344591092
-0.0010552054969
-0.00106740077334
-0.00107348897892
-0.00107795132179
-0.00108205744485
-0.00108594829116
-0.00108920249798
-0.000887922079247
-0.00092554504348
-0.00101147861421
-0.00104295388363
-0.00105532134082
-0.00106170298972
-0.00106647031306
-0.00107086297217
-0.0010749264316
-0.00107837234377
-0.000868158894152
-0.000900344268046
-0.000982210544904
-0.0010123651333
-0.00102457879133
-0.00103116913535
-0.00103624417167
-0.00104092388168
-0.00104531160194
-0.000814502185309
-0.000830327212299
-0.000901087206186
-0.000927308422672
-0.000938418935406
-0.000944869648807
-0.000950028495087
-0.000954868849012
-0.00095946840616
-0.000729301422653
-0.000811082900267
-0.000865675378286
-0.000886256146964
-0.00089576936106
-0.000901973778271
-0.000907278409224
-0.000912291492092
-0.000917073722472
)
;
    }
    atmosphere
    {
        type            calculated;
        value           nonuniform List<scalar> 0();
    }
    floatingObject
    {
        type            calculated;
        value           nonuniform List<scalar> 0();
    }
    procBoundary10to9
    {
        type            processor;
        value           nonuniform List<scalar> 
15
(
-0.00111787898101
-0.00112777609196
-0.00113199006008
-0.00113497600987
-0.00113799373917
-0.00114134244513
-0.00114534597154
-0.00115061262759
-0.000995629923455
-0.00108360665261
-0.00108360665261
-0.000960053980763
-0.000954424633448
-0.000948772959703
-0.000948772959703
)
;
    }
    procBoundary10to11
    {
        type            processor;
        value           nonuniform List<scalar> 
23
(
-0.00115536210223
-0.00115536210223
-0.00116790190238
-0.00116153616681
-0.00114006382077
-0.00114006382077
-0.00113483066922
-0.00112965485211
-0.00111842606018
-0.00111842606018
-0.00111021334962
-0.00111021334962
-0.001106080566
-0.001106080566
-0.00110532542252
-0.00110124018581
-0.00109704069479
-0.00109158114555
-0.00108069910863
-0.00104907171161
-0.00104907171161
-0.000963515808736
-0.000921250212278
)
;
    }
}


// ************************************************************************* //
