/*--------------------------------*- C++ -*----------------------------------*\
| =========                 |                                                 |
| \\      /  F ield         | OpenFOAM: The Open Source CFD Toolbox           |
|  \\    /   O peration     | Version:  v2012                                 |
|   \\  /    A nd           | Website:  www.openfoam.com                      |
|    \\/     M anipulation  |                                                 |
\*---------------------------------------------------------------------------*/
FoamFile
{
    version     2.0;
    format      ascii;
    class       volScalarField;
    location    "5.5";
    object      alpha.water;
}
// * * * * * * * * * * * * * * * * * * * * * * * * * * * * * * * * * * * * * //

dimensions      [0 0 0 0 0 0 0];


internalField   nonuniform List<scalar> 
166
(
1.00000038589
1.00000706627
1.00001436781
1.00002214761
1.00002668217
1.00002933201
1.0000259674
1.00000592822
1.00000000001
0.999899853767
0.577195524281
2.25875452601e-22
-2.19064489982e-28
0.999986956494
0.99998781045
0.999999505892
1.00000516977
1.00001159669
1.00001872614
1.00002381793
1.00002666794
1.00002386685
1.00000904592
1
0.999999911987
0.599669451397
5.94101111021e-07
-1.59181526674e-36
0.999997847224
0.999996465327
0.999986956504
0.999986956786
0.999990138074
0.999999506801
1.00000352287
1.00000886306
1.00001482851
1.00001963285
1.00002228211
1.00002008615
1.00000939902
1.00000000002
0.99999993495
0.619088672582
0.00347886155742
2.20581496681e-25
0.999999000702
0.999997839966
0.999994376288
0.999991740901
0.999990137192
0.999993019522
0.999994014368
0.999999230413
1.0000022142
1.00000665269
1.00001159664
1.00001585022
1.00001826041
1.00001660248
1.00000852025
1
0.999999970902
0.636856280796
0.00957816938324
-2.74122590717e-28
0.999999760623
0.999998971928
0.999997495118
0.999996628722
0.999997582654
0.99999758283
0.99999618627
0.999997443303
1.00000123274
1.00000475507
1.00000882528
1.00001245162
1.00001459275
1.00001329771
1.00000615559
1
0.999999991948
0.654160127438
0.016629821716
-9.10066880051e-32
0.999999951376
0.999999680408
0.999999003985
0.999998965277
0.999998530778
0.999997445496
0.999998429886
0.999997361063
1.00000050585
1.00000297645
1.00000609845
1.00000903287
1.00001084977
1.00000970619
1.00000256178
1
1.00000000001
0.670635587754
0.0243769535239
9.39844467681e-36
1.00000035284
1.00000003471
0.999999848094
0.999999011542
0.999997428052
0.999997428066
0.999999648299
0.999999637391
1.00000016263
1.00000137009
1.00000308068
1.00000505242
1.00000643108
1.00000534632
1.00000032818
1
1.00000000003
0.686104235319
0.0321169369824
-8.80418929133e-23
1.00000096877
1.00000067286
1.00000025825
0.999999747213
0.999998844586
0.999998139339
0.99999906674
0.999999046222
1.00000001899
1.0000003162
1.00000093713
1.0000014821
1.00000193961
1.00000147353
0.999999195162
0.999998889083
0.999999737931
0.70077302156
0.0397329647568
-5.28855267032e-22
1.00000160049
1.00000140365
1.00000095098
1.00000044226
1
0.999998960871
0.999994802576
0.999992556147
0.999993977041
0.999997810613
0.999998905803
0.999999121156
0.999999506534
0.999998676714
0.999991176207
0.999996027432
0.999997253254
0.714929944194
0.0470372671681
-9.06008171686e-22
)
;

boundaryField
{
    back
    {
        type            zeroGradient;
    }
    sides
    {
        type            zeroGradient;
    }
    bottom
    {
        type            zeroGradient;
    }
    front
    {
        type            zeroGradient;
    }
    atmosphere
    {
        type            inletOutlet;
        inletValue      uniform 0;
        value           nonuniform List<scalar> 9(0 -1.59181526674e-36 0 0 0 0 0 0 0);
    }
    floatingObject
    {
        type            zeroGradient;
    }
    procBoundary0to1
    {
        type            processor;
        value           nonuniform List<scalar> 10(1.000020552 1.00002334345 1.00002533201 1.00002182875 1 1.00000000005 0.999566327392 0.555273619833 6.62390724896e-27 5.48667543365e-15);
    }
    procBoundary0to2
    {
        type            processor;
        value           nonuniform List<scalar> 
14
(
1.00000131655
1.00000681494
1.00001349053
0.999987553844
0.999996112036
0.999996112036
0.999998098764
0.999997285485
0.999986956786
0.999986956786
0.999992997065
0.999992997065
0.999990635795
0.999990635795
)
;
    }
    procBoundary0to4
    {
        type            processor;
        value           nonuniform List<scalar> 8(1.00000217909 1.00000216954 1.00000182232 1.00000139254 1.00000102647 1.00000002016 0.999997397681 0.999992465524);
    }
    procBoundary0to5
    {
        type            processor;
        value           nonuniform List<scalar> 
12
(
0.999989152948
0.999994063156
0.999994098926
0.999994689551
0.999993259271
0.999991704477
0.99999027289
0.999992400635
0.999995443874
0.726686297049
0.0534463282406
-3.54883191268e-21
)
;
    }
}


// ************************************************************************* //
