/*--------------------------------*- C++ -*----------------------------------*\
| =========                 |                                                 |
| \\      /  F ield         | OpenFOAM: The Open Source CFD Toolbox           |
|  \\    /   O peration     | Version:  v2012                                 |
|   \\  /    A nd           | Website:  www.openfoam.com                      |
|    \\/     M anipulation  |                                                 |
\*---------------------------------------------------------------------------*/
FoamFile
{
    version     2.0;
    format      ascii;
    class       volVectorField;
    location    "5.5";
    object      ddtCorrDdt0(U);
}
// * * * * * * * * * * * * * * * * * * * * * * * * * * * * * * * * * * * * * //

dimensions      [0 1 -2 0 0 0 0];


internalField   nonuniform List<vector> 
166
(
(-0.145150296395 0.0035622894317 -2.00131342453e-23)
(-0.151072959852 0.00280371650452 2.77839855957e-24)
(-0.157654351437 0.00154135790288 -3.90957316183e-24)
(-0.164820550149 -0.000291499332804 -3.43817862177e-23)
(-0.172459708064 -0.00274723651927 -6.72716880929e-23)
(-0.180368234011 -0.00583499282289 -1.81252181952e-22)
(-0.188145737474 -0.00965694612546 -3.19895109748e-22)
(-0.195523095212 -0.0133418624186 1.76364172208e-21)
(-0.201634554817 -0.0203507867752 -1.74078477834e-21)
(-0.205952666951 -0.0257790480449 -9.84226983565e-21)
(-0.207091889336 -0.041457239162 2.87515943854e-22)
(0.515896566234 0.300443502297 -6.06554721565e-21)
(-0.560486841041 1.77258067959 -1.74933757618e-19)
(-0.135279577193 -5.26313709274e-05 -2.61133706641e-24)
(-0.139454751624 -0.000733801397209 -5.77927041675e-25)
(-0.144294829984 -0.00176439593174 -7.39225605082e-24)
(-0.149771409291 -0.00318468003125 -4.69236391817e-24)
(-0.155857376902 -0.00504496973912 -1.97332080706e-23)
(-0.162487670543 -0.00737678060157 -2.41386246863e-23)
(-0.169566592378 -0.0101801218447 -8.32581368206e-23)
(-0.176995826447 -0.0133216114802 -1.92173039557e-22)
(-0.184421718461 -0.0169371322815 -3.72441089024e-22)
(-0.191698227182 -0.0195099846203 -5.52212235022e-22)
(-0.197597215595 -0.0240581054945 9.47732219101e-22)
(-0.20286275445 -0.0254433573071 1.76623187829e-20)
(-0.238525123348 -0.0372075534214 6.60699335468e-21)
(-0.591842206478 0.130387613996 1.79037094487e-20)
(-0.177831880234 1.25559720715 1.98246516096e-20)
(-0.124828348167 -0.000312560789233 -1.11413292997e-22)
(-0.125234484161 -0.000654017181858 -9.57984021059e-23)
(-0.131194828726 -0.00266089916771 -2.48347867898e-23)
(-0.134427138898 -0.00370894673392 1.95106479255e-24)
(-0.138283076902 -0.0050448911217 2.20223120442e-24)
(-0.142764579738 -0.00670815662237 2.25797008709e-25)
(-0.14785263588 -0.00872764203797 -3.07885488349e-23)
(-0.153518086018 -0.01113740749 9.20649616431e-24)
(-0.159706765021 -0.0139477245655 -2.11553705648e-23)
(-0.166386179285 -0.0171472592714 -1.06358576509e-22)
(-0.17355460505 -0.0205152999293 -2.0694987745e-22)
(-0.181026650109 -0.0242336495552 -5.44906837133e-22)
(-0.188751159517 -0.0266256466692 1.5639738425e-21)
(-0.195625122998 -0.0301006865577 -4.61370655617e-22)
(-0.203473137025 -0.0299773322286 2.33025734358e-20)
(-0.255143070423 -0.0362008348638 4.52517683156e-21)
(-0.988956756026 0.00647962073162 1.14412291311e-22)
(-0.164507769432 0.191736336776 3.73523575715e-20)
(-0.124059833847 -0.00061905504596 1.39916746976e-23)
(-0.124412891406 -0.00159805899637 4.86424104974e-24)
(-0.125701845182 -0.00275381432591 -1.45861107765e-23)
(-0.127546395415 -0.00402279749285 -2.5723070212e-23)
(-0.129943166911 -0.00546386812713 -9.0309373992e-24)
(-0.132926497031 -0.00713014790279 2.70658998166e-24)
(-0.136490004764 -0.00906611049792 -1.46785251481e-23)
(-0.140644792389 -0.0113099715481 3.78444026623e-24)
(-0.14536772179 -0.013888231247 -2.84405474802e-23)
(-0.150650404564 -0.0168261420076 -5.46248101066e-24)
(-0.156471754983 -0.0201320489831 -1.28605022184e-23)
(-0.16282211525 -0.023805171322 -1.6466791108e-22)
(-0.169787507833 -0.0276276308794 -5.02550777053e-22)
(-0.177400364165 -0.0317726532342 -8.17595929469e-22)
(-0.185707258109 -0.0349152385232 8.24129074618e-22)
(-0.193959713131 -0.0387584422256 -3.09275585142e-21)
(-0.204090972893 -0.0399814380911 1.30167813524e-20)
(-0.260491424922 -0.0415408738938 1.55266161472e-21)
(-0.992506637527 -0.0336205922977 2.09243950271e-20)
(-0.29458064746 -0.065303894291 8.88727485048e-20)
(-0.122696472298 -0.000901477913777 1.46156509929e-22)
(-0.122991689471 -0.00247586198484 1.03911485969e-22)
(-0.124187645121 -0.00421715006914 5.26661399554e-23)
(-0.125890906803 -0.00607574817032 -1.04736200044e-23)
(-0.128101845875 -0.00809597295039 6.56945702519e-24)
(-0.130841881406 -0.0103211011385 1.29847418408e-23)
(-0.134138910103 -0.0128000207098 -5.70688760358e-25)
(-0.137978799837 -0.0155771539638 -7.81821185535e-24)
(-0.142353361136 -0.0186887925781 -2.0700852403e-23)
(-0.147262690422 -0.0221616064323 -2.75432980252e-23)
(-0.152724981356 -0.0259943106255 -4.56473177546e-23)
(-0.158759627107 -0.0302096991853 -1.37863827429e-22)
(-0.165482783789 -0.034684495402 -4.64992361928e-22)
(-0.173081258916 -0.0395537298551 -6.23700360266e-22)
(-0.181670863662 -0.0439605910473 5.20958710722e-22)
(-0.190748188698 -0.049323437974 -3.00608995075e-21)
(-0.202096585708 -0.0525579652951 -4.49500279718e-21)
(-0.258060875432 -0.0500935061438 -7.37291130801e-22)
(-0.906149067795 -0.0698207449609 1.26887915822e-20)
(-0.380039315488 -0.229510301528 1.19197928074e-20)
(-0.120769618754 -0.00116214486619 1.18452167145e-22)
(-0.1210120543 -0.00328264325752 7.22896244336e-23)
(-0.122121310599 -0.00555859737496 2.3925164878e-23)
(-0.12368471029 -0.00795243263797 -1.99508596863e-23)
(-0.1257128363 -0.0104947434258 -1.29432857783e-23)
(-0.128234311752 -0.0132392880344 -1.45243829886e-23)
(-0.131258764108 -0.0162328084832 -1.30479219051e-24)
(-0.134785283271 -0.019515010992 -3.79687002896e-24)
(-0.138818372213 -0.0231384146138 -1.33939766552e-23)
(-0.14335855182 -0.0271369304743 -2.31319583041e-23)
(-0.148427749432 -0.0315231947807 -3.54956249568e-23)
(-0.154092476109 -0.0363356313797 -7.70153634845e-23)
(-0.160456069108 -0.0415569494085 -5.0053244895e-22)
(-0.167783931842 -0.0473124063965 -5.10990262125e-22)
(-0.176202557004 -0.0532455336035 2.23586860903e-22)
(-0.185505277131 -0.0602835761617 -2.11437654759e-21)
(-0.196182165307 -0.0657310362917 -4.9018681008e-21)
(-0.244950094976 -0.0600023020143 -2.72527325996e-21)
(-0.777852419052 -0.100962693431 5.47335656243e-22)
(-0.412586500691 -0.197705678212 4.94064552325e-20)
(-0.118324584613 -0.00139798426756 3.72816385911e-23)
(-0.118527018217 -0.00401839719988 -3.88252230466e-24)
(-0.119547811333 -0.00677750023262 -2.16403837883e-23)
(-0.120975537805 -0.00965020544698 -2.61381743756e-23)
(-0.122820904088 -0.0126717558061 -1.15616674401e-23)
(-0.125123642037 -0.0158998220572 2.5956585857e-24)
(-0.127880960257 -0.0193742037828 -1.13777251256e-24)
(-0.131098663 -0.0231365407641 -6.58415687137e-24)
(-0.134784121385 -0.0272371629859 -4.07284460462e-24)
(-0.138935730483 -0.0317234893516 -8.22674613196e-24)
(-0.143585016149 -0.0366426747126 -3.25210771634e-23)
(-0.148765926213 -0.0420507469771 -5.18940463387e-23)
(-0.154614333967 -0.0480378025946 -2.57474961091e-22)
(-0.161347828988 -0.0547364684102 -5.5027304313e-22)
(-0.16917768066 -0.0622365259374 -1.23705090668e-21)
(-0.178171719784 -0.070750229205 -1.6947206957e-21)
(-0.187916474003 -0.0778271513562 1.52362270009e-21)
(-0.223608385325 -0.0678330654497 -1.68151119588e-21)
(-0.677704686812 -0.118788438832 1.38061704874e-20)
(-0.423523300983 -0.152986983259 1.07841822059e-20)
(-0.115408480018 -0.0016204364116 -9.68041506571e-24)
(-0.115591354831 -0.00469623916347 -3.63287731744e-23)
(-0.116519030912 -0.00788149976759 -3.61280986498e-23)
(-0.117809701157 -0.0111921397522 -3.80277673817e-23)
(-0.119475532683 -0.0146525321434 -1.62782735449e-23)
(-0.121549696555 -0.0183174990511 2.09309052779e-24)
(-0.124044496537 -0.0222314595246 5.18308189479e-24)
(-0.126958234237 -0.0264339169395 9.74927740713e-24)
(-0.13028853048 -0.030968986194 1.76599266988e-23)
(-0.134033732896 -0.0358980097039 -1.84020247732e-24)
(-0.138213696939 -0.0412755027032 -4.33536831585e-24)
(-0.142848393048 -0.0472146170754 -1.25852676805e-23)
(-0.14800728616 -0.05386226903 -1.99549942707e-22)
(-0.153795417961 -0.0614207489881 -2.53579460248e-22)
(-0.160476754175 -0.0702848129301 5.88548638284e-22)
(-0.168362357628 -0.0811744470539 -2.20843679439e-21)
(-0.177214918598 -0.0899396456389 -1.17605690493e-21)
(-0.20053282608 -0.0765784863298 -1.4876624131e-21)
(-0.611058094566 -0.136498304712 -8.07552794039e-21)
(-0.437374507062 -0.163595987514 9.8532610735e-20)
(-0.11203478285 -0.00184517864764 -1.07055967193e-23)
(-0.112283186554 -0.00532744756498 -5.6441210749e-23)
(-0.113081558702 -0.00887110331551 -5.8517939363e-24)
(-0.114232725943 -0.0125784700553 -1.27601767939e-23)
(-0.11572045671 -0.0164319450697 -2.87152602395e-24)
(-0.117570713337 -0.0204808010782 4.57092704666e-24)
(-0.119799078888 -0.0247743510842 7.34956090677e-24)
(-0.122405097947 -0.0293639491656 8.30714406758e-24)
(-0.125382242665 -0.0342938214687 6.11554019325e-24)
(-0.128716937879 -0.039618516787 3.14764583905e-26)
(-0.13240637991 -0.0453918210597 -2.86843427518e-23)
(-0.136466037132 -0.0517298093802 -9.22836799824e-24)
(-0.140833535405 -0.0587947091303 -2.20743412348e-22)
(-0.145476617101 -0.066841514966 -2.14192251916e-22)
(-0.15036742273 -0.0764367775216 5.80275949078e-22)
(-0.15561727984 -0.0894395284924 -1.16332828409e-21)
(-0.159797873505 -0.102498703359 9.3580459832e-21)
(-0.177448071962 -0.0916547945329 1.39505146464e-21)
(-0.51017336166 -0.184617786291 5.39250052464e-20)
(-0.450653398241 -0.320912846754 2.38352916629e-19)
)
;

boundaryField
{
    back
    {
        type            calculated;
        value           uniform (0 0 0);
    }
    sides
    {
        type            calculated;
        value           nonuniform List<vector> 0();
    }
    bottom
    {
        type            calculated;
        value           uniform (0 0 0);
    }
    front
    {
        type            calculated;
        value           uniform (0 0 0);
    }
    atmosphere
    {
        type            calculated;
        value           nonuniform List<vector> 9((-0.00113915204733 1.77258067959 6.96776782596e-23) (0.00287000847744 1.25559720715 -2.70057055607e-22) (-0.00548499480854 0.191736336776 5.35837581061e-22) (0.0100682934033 -0.065303894291 -5.03087116744e-22) (-0.0132877481471 -0.229510301528 1.03041236301e-21) (0.000203277543837 -0.197705678212 8.80432831363e-24) (0.002020915561 -0.152986983259 9.58877236027e-23) (0.000143250735569 -0.163595987514 -2.11750251318e-22) (-0.0343502243038 -0.320912846754 5.9487465429e-21));
    }
    floatingObject
    {
        type            calculated;
        value           nonuniform List<vector> 0();
    }
    procBoundary0to1
    {
        type            processor;
        value           nonuniform List<vector> 10((-0.16670852379 0.00746626414771 3.46977640719e-24) (-0.175119500831 0.00537348769511 -3.52680606233e-23) (-0.183867612771 0.00231619492437 1.30076382522e-22) (-0.192547209141 -0.00188026577663 2.93299808732e-22) (-0.200807818898 -0.0068253820559 1.72026234366e-21) (-0.208244730189 -0.016355254998 -3.65922176806e-21) (-0.213489054689 -0.0230693912568 -5.59401393409e-21) (-0.178746080755 -0.0432442000175 -2.22707252942e-20) (2.26561568978 -0.126548795796 -1.49262706075e-20) (-0.230542161043 -0.867153679275 5.06410994687e-20));
    }
    procBoundary0to2
    {
        type            processor;
        value           nonuniform List<vector> 
14
(
(-0.145270386705 0.00934863044681 -3.95151096854e-24)
(-0.151682485903 0.00932743201625 -3.29959645177e-24)
(-0.158848237989 0.00873804607895 -5.77909533428e-23)
(-0.135449641758 0.00386646702327 -1.28861879643e-23)
(-0.139934221615 0.0038949169723 -2.57281879315e-23)
(-0.139934221615 0.0038949169723 -2.57281879315e-23)
(-0.12494631947 1.49833430229e-05 -1.31226684017e-22)
(-0.125413327758 0.000343569489234 -8.44046269057e-23)
(-0.131802441617 0.000331269534919 -2.30248001353e-23)
(-0.131802441617 0.000331269534919 -2.30248001353e-23)
(-0.126616634426 -0.00118923992532 -8.47050050857e-23)
(-0.126616634426 -0.00118923992532 -8.47050050857e-23)
(-0.128600537812 -0.00184264323313 -6.42106332629e-23)
(-0.128600537812 -0.00184264323313 -6.42106332629e-23)
)
;
    }
    procBoundary0to4
    {
        type            processor;
        value           nonuniform List<vector> 8((-0.108414181234 -0.00214018338659 -2.73590705317e-24) (-0.108495591424 -0.00594456218157 7.62170664918e-24) (-0.109252768478 -0.00970696982854 1.08234467429e-23) (-0.110281066124 -0.0138079319582 -7.28099778145e-25) (-0.111595080111 -0.018013531277 8.19554546354e-24) (-0.113230729455 -0.0224040526322 6.82993196501e-24) (-0.115193876577 -0.0270299088842 2.81231418931e-24) (-0.117482238582 -0.0319440267264 -6.39731978463e-25));
    }
    procBoundary0to5
    {
        type            processor;
        value           nonuniform List<vector> 
12
(
(-0.120099890741 -0.0372047984772 5.49222347254e-24)
(-0.123039163324 -0.0428601432485 -3.29190255798e-24)
(-0.126269947771 -0.0489571201702 7.98648898277e-24)
(-0.129771222005 -0.0555398606831 -3.55452251883e-23)
(-0.133448787625 -0.0627329012155 -2.17778679166e-22)
(-0.137074231938 -0.0706876513038 -3.19984253531e-22)
(-0.14026048327 -0.0797384007222 2.20185000739e-22)
(-0.14218056051 -0.0912504008145 -1.0713378355e-21)
(-0.13960429483 -0.11181959141 -1.65941047346e-21)
(-0.15924022293 -0.104382897043 5.15195118128e-21)
(-0.414968844517 -0.165199444808 8.36562979161e-22)
(-0.639158404081 -0.432198302896 1.86690430174e-20)
)
;
    }
}


// ************************************************************************* //
