/*--------------------------------*- C++ -*----------------------------------*\
| =========                 |                                                 |
| \\      /  F ield         | OpenFOAM: The Open Source CFD Toolbox           |
|  \\    /   O peration     | Version:  v2012                                 |
|   \\  /    A nd           | Website:  www.openfoam.com                      |
|    \\/     M anipulation  |                                                 |
\*---------------------------------------------------------------------------*/
FoamFile
{
    version     2.0;
    format      ascii;
    class       volScalarField;
    location    "5.5";
    object      nut;
}
// * * * * * * * * * * * * * * * * * * * * * * * * * * * * * * * * * * * * * //

dimensions      [0 2 -1 0 0 0 0];


internalField   nonuniform List<scalar> 
166
(
0.000455080147448
0.000455955561206
0.000457093910894
0.000458820374004
0.000461986007193
0.000468948922797
0.000486373721539
0.000532544180874
0.000653292856437
0.000933100654525
0.00142264077341
0.00200187604367
0.00272004414465
0.000454090879174
0.000454834305653
0.000455567102097
0.000456412994976
0.000457501090473
0.000459125637924
0.000462059327673
0.000468444661132
0.000484379639954
0.000526708504536
0.000638407494646
0.000902967019655
0.00138526087827
0.00198318584985
0.00269857437678
0.000290748927201
0.000432464069794
0.000453548485393
0.00045456944752
0.000455299346654
0.00045601428424
0.000456833913816
0.000457877659426
0.000459410732753
0.000462140250042
0.00046803873232
0.000482811626368
0.000522391181396
0.000626952502005
0.000875186794093
0.00134086569504
0.00200631512155
0.00303578276726
0.000290994383528
0.00043286605945
0.000446728549688
0.000451917551204
0.000453987029523
0.00045500048492
0.000455719167674
0.000456419485423
0.000457217740072
0.00045822506989
0.000459683120493
0.000462244427337
0.000467763857231
0.000481704302075
0.000519565838577
0.000619499734051
0.00085235375565
0.00129428712869
0.00201648985812
0.003058014567
0.000291221552038
0.000433208765915
0.000447099669248
0.000452300567425
0.000454371680354
0.000455379924195
0.000456090967441
0.000456780671468
0.000457562561675
0.000458540703971
0.000459938616864
0.000462367855491
0.000467605248925
0.000481015338697
0.000518068259456
0.000615816591568
0.00083675097938
0.00125617299518
0.00200572926049
0.00306519433913
0.000291422323846
0.000433488226823
0.000447406719797
0.000452622997451
0.000454699466592
0.000455706541184
0.000456413078014
0.000457095699973
0.000457866115453
0.000458821677657
0.000460172092249
0.000462499638478
0.000467535397784
0.000480648181076
0.000517586386027
0.00061467571856
0.000826467691131
0.00123036183408
0.00199844174573
0.00306516273148
0.000291588969561
0.000433705912812
0.000447651412366
0.000452885405784
0.000454970171964
0.000455979891616
0.000456684858764
0.000457363227859
0.000458125852536
0.000459064513497
0.000460377595221
0.000462625715912
0.000467518513108
0.000480461142563
0.00051747419558
0.000614036169185
0.000816912077819
0.00120327433021
0.00198206472178
0.00306268247921
0.000291716696798
0.000433861410442
0.000447834522875
0.00045308841548
0.000455184431778
0.000456199102114
0.000456905060247
0.000457581645852
0.000458339112419
0.00045926541207
0.000460549215549
0.000462734888031
0.0004675152986
0.000480323162498
0.000517354248393
0.000613330754548
0.000807589092969
0.00116788133735
0.00192856886605
0.00305253824137
0.000291801426745
0.000433956286905
0.000447956684843
0.000453231876379
0.000455341123966
0.00045636244487
0.000457071679532
0.000457749278205
0.000458504702431
0.00045942263902
0.00046068370467
0.00046281837949
0.000467498335852
0.000480159746301
0.000517068803106
0.000612451196272
0.000800252275989
0.00113110392312
0.00184443655653
0.00303567315472
)
;

boundaryField
{
    back
    {
        type            nutkWallFunction;
        blending        stepwise;
        Cmu             0.09;
        kappa           0.41;
        E               9.8;
        value           nonuniform List<scalar> 
166
(
4.86545779072e-05
4.87381319151e-05
4.88459159461e-05
4.90073850486e-05
4.92985547223e-05
4.99266178317e-05
5.14679810124e-05
5.54616588993e-05
6.56113486655e-05
8.90017633949e-05
0.000132012773127
0.000239647465431
0.000336198193176
4.85593252636e-05
4.86309230957e-05
4.87012167108e-05
4.87820147445e-05
4.88852149727e-05
4.90375703098e-05
4.93084686837e-05
4.98874062619e-05
5.13062406414e-05
5.5000719037e-05
6.44875099676e-05
8.67092212689e-05
0.000128562167839
0.000236462796397
0.000335261824703
4.20433500569e-05
4.6448078031e-05
4.85063509158e-05
4.86050946235e-05
4.86753752512e-05
4.87439946046e-05
4.88223793939e-05
4.89215813082e-05
4.90658007335e-05
4.93189132713e-05
4.98565928692e-05
5.11811692182e-05
5.46719095673e-05
6.36832696115e-05
8.47754846102e-05
0.000124646989765
0.000209098046667
0.000343500239068
4.20752990341e-05
4.64870649791e-05
4.78419013603e-05
4.83473230669e-05
4.8548241647e-05
4.86462202959e-05
4.87154360041e-05
4.87827156672e-05
4.88591753325e-05
4.89551385281e-05
4.90927651854e-05
4.93313458821e-05
4.98372700673e-05
5.10959825452e-05
5.44702804701e-05
6.32279751572e-05
8.33224551323e-05
0.00012085303973
0.000194225075073
0.000342885717574
4.21050844063e-05
4.65202007942e-05
4.78774746272e-05
4.83838667706e-05
4.85848706325e-05
4.86823435394e-05
4.87508596289e-05
4.88171891796e-05
4.88922043112e-05
4.89856094189e-05
4.91180096548e-05
4.9345286823e-05
4.98279532239e-05
5.10467900739e-05
5.43807586256e-05
6.30853390593e-05
8.24735753497e-05
0.000117995447012
0.000186582181741
0.000342452415378
4.21315738875e-05
4.65471521637e-05
4.79068083962e-05
4.84145237842e-05
4.86159889542e-05
4.87133634318e-05
4.87814869658e-05
4.88472029205e-05
4.89212337433e-05
4.90126987794e-05
4.91410148384e-05
4.93597001715e-05
4.98261729905e-05
5.10252902108e-05
5.43776818285e-05
6.31469356774e-05
8.1984390442e-05
0.000116034733566
0.00018354340229
0.00034302695641
4.21537262685e-05
4.65681136562e-05
4.79301177823e-05
4.84393872093e-05
4.86415982017e-05
4.87392327429e-05
4.88072463901e-05
4.88726219214e-05
4.89460184522e-05
4.9036067368e-05
4.91612242437e-05
4.93732890708e-05
4.98287915696e-05
5.10196089391e-05
5.44059203584e-05
6.32365117832e-05
8.1494478064e-05
0.000113808948415
0.000180962864304
0.000343431167268
4.21707981783e-05
4.65830429477e-05
4.79474808566e-05
4.84585140023e-05
4.86617588907e-05
4.87598712021e-05
4.88280210167e-05
4.88932966747e-05
4.89663074708e-05
4.90553592637e-05
4.91780801844e-05
4.93850475779e-05
4.98323088214e-05
5.10178629697e-05
5.44306823109e-05
6.32973502387e-05
8.10000598779e-05
0.000111261177256
0.000175788588327
0.000342844295936
4.21823332026e-05
4.65921281883e-05
4.79589652773e-05
4.84718990827e-05
4.86763656207e-05
4.8775124135e-05
4.8843629659e-05
4.89090700441e-05
4.89819840955e-05
4.90704057962e-05
4.91912813356e-05
4.93941826551e-05
4.9834213138e-05
5.10134273202e-05
5.44392573369e-05
6.3322850159e-05
8.06393511862e-05
0.000108897473286
0.000168544280024
0.000340213806579
)
;
    }
    sides
    {
        type            nutkWallFunction;
        blending        stepwise;
        Cmu             0.09;
        kappa           0.41;
        E               9.8;
        value           nonuniform List<scalar> 0();
    }
    bottom
    {
        type            nutkWallFunction;
        blending        stepwise;
        Cmu             0.09;
        kappa           0.41;
        E               9.8;
        value           nonuniform List<scalar> 7(2.22856649227e-05 2.23027748699e-05 2.23187260361e-05 2.23329120617e-05 2.23447753723e-05 2.23539178971e-05 2.23600952371e-05);
    }
    front
    {
        type            nutkWallFunction;
        blending        stepwise;
        Cmu             0.09;
        kappa           0.41;
        E               9.8;
        value           nonuniform List<scalar> 
166
(
4.86545779072e-05
4.87381319151e-05
4.88459159461e-05
4.90073850486e-05
4.92985547223e-05
4.99266178317e-05
5.14679810124e-05
5.54616588993e-05
6.56113486655e-05
8.90017633949e-05
0.000132012773127
0.000239647465431
0.000336198193176
4.85593252636e-05
4.86309230957e-05
4.87012167108e-05
4.87820147445e-05
4.88852149727e-05
4.90375703098e-05
4.93084686837e-05
4.98874062619e-05
5.13062406414e-05
5.5000719037e-05
6.44875099676e-05
8.67092212689e-05
0.000128562167839
0.000236462796397
0.000335261824703
4.20433500569e-05
4.6448078031e-05
4.85063509158e-05
4.86050946235e-05
4.86753752512e-05
4.87439946046e-05
4.88223793939e-05
4.89215813082e-05
4.90658007335e-05
4.93189132713e-05
4.98565928692e-05
5.11811692182e-05
5.46719095673e-05
6.36832696115e-05
8.47754846102e-05
0.000124646989765
0.000209098046667
0.000343500239068
4.20752990341e-05
4.64870649791e-05
4.78419013603e-05
4.83473230669e-05
4.8548241647e-05
4.86462202959e-05
4.87154360041e-05
4.87827156672e-05
4.88591753325e-05
4.89551385281e-05
4.90927651854e-05
4.93313458821e-05
4.98372700673e-05
5.10959825452e-05
5.44702804701e-05
6.32279751572e-05
8.33224551323e-05
0.00012085303973
0.000194225075073
0.000342885717574
4.21050844063e-05
4.65202007942e-05
4.78774746272e-05
4.83838667706e-05
4.85848706325e-05
4.86823435394e-05
4.87508596289e-05
4.88171891796e-05
4.88922043112e-05
4.89856094189e-05
4.91180096548e-05
4.9345286823e-05
4.98279532239e-05
5.10467900739e-05
5.43807586256e-05
6.30853390593e-05
8.24735753497e-05
0.000117995447012
0.000186582181741
0.000342452415378
4.21315738875e-05
4.65471521637e-05
4.79068083962e-05
4.84145237842e-05
4.86159889542e-05
4.87133634318e-05
4.87814869658e-05
4.88472029205e-05
4.89212337433e-05
4.90126987794e-05
4.91410148384e-05
4.93597001715e-05
4.98261729905e-05
5.10252902108e-05
5.43776818285e-05
6.31469356774e-05
8.1984390442e-05
0.000116034733566
0.00018354340229
0.00034302695641
4.21537262685e-05
4.65681136562e-05
4.79301177823e-05
4.84393872093e-05
4.86415982017e-05
4.87392327429e-05
4.88072463901e-05
4.88726219214e-05
4.89460184522e-05
4.9036067368e-05
4.91612242437e-05
4.93732890708e-05
4.98287915696e-05
5.10196089391e-05
5.44059203584e-05
6.32365117832e-05
8.1494478064e-05
0.000113808948415
0.000180962864304
0.000343431167268
4.21707981783e-05
4.65830429477e-05
4.79474808566e-05
4.84585140023e-05
4.86617588907e-05
4.87598712021e-05
4.88280210167e-05
4.88932966747e-05
4.89663074708e-05
4.90553592637e-05
4.91780801844e-05
4.93850475779e-05
4.98323088214e-05
5.10178629697e-05
5.44306823109e-05
6.32973502387e-05
8.10000598779e-05
0.000111261177256
0.000175788588327
0.000342844295936
4.21823332026e-05
4.65921281883e-05
4.79589652773e-05
4.84718990827e-05
4.86763656207e-05
4.8775124135e-05
4.8843629659e-05
4.89090700441e-05
4.89819840955e-05
4.90704057962e-05
4.91912813356e-05
4.93941826551e-05
4.9834213138e-05
5.10134273202e-05
5.44392573369e-05
6.3322850159e-05
8.06393511862e-05
0.000108897473286
0.000168544280024
0.000340213806579
)
;
    }
    atmosphere
    {
        type            calculated;
        value           nonuniform List<scalar> 9(0.00272004414465 0.00269857437678 0.009 0.009 0.009 0.009 0.009 0.009 0.009);
    }
    floatingObject
    {
        type            nutkWallFunction;
        blending        stepwise;
        Cmu             0.09;
        kappa           0.41;
        E               9.8;
        value           nonuniform List<scalar> 0();
    }
    procBoundary0to1
    {
        type            processor;
        value           nonuniform List<scalar> 10(0.00045849123703 0.000461908854478 0.000469513743782 0.000488655674452 0.00053933377008 0.000670224489016 0.000962183718728 0.00145212454098 0.00209167250466 0.00304203043697);
    }
    procBoundary0to2
    {
        type            processor;
        value           nonuniform List<scalar> 
14
(
0.000454554757969
0.000455461470677
0.000456654573397
0.000453567507395
0.000454326588496
0.000454326588496
0.000290476910416
0.000432005532928
0.000453060268862
0.000453060268862
0.000446296441492
0.000446296441492
0.000451476898628
0.000451476898628
)
;
    }
    procBoundary0to4
    {
        type            processor;
        value           nonuniform List<scalar> 8(0.000291840294199 0.000433989443184 0.000448017419739 0.000453315043147 0.000455439047397 0.000456469203501 0.000457183914043 0.000457865300022);
    }
    procBoundary0to5
    {
        type            processor;
        value           nonuniform List<scalar> 
12
(
0.000458622208223
0.000459535566867
0.000460778886941
0.000462867711627
0.000467449201129
0.000479941451931
0.000516654095745
0.000611479897388
0.000794147041076
0.00109560015931
0.00174942713669
0.00303461331617
)
;
    }
}


// ************************************************************************* //
