/*--------------------------------*- C++ -*----------------------------------*\
| =========                 |                                                 |
| \\      /  F ield         | OpenFOAM: The Open Source CFD Toolbox           |
|  \\    /   O peration     | Version:  v2012                                 |
|   \\  /    A nd           | Website:  www.openfoam.com                      |
|    \\/     M anipulation  |                                                 |
\*---------------------------------------------------------------------------*/
FoamFile
{
    version     2.0;
    format      ascii;
    class       volVectorField;
    location    "4";
    object      ddt0(rho,U);
}
// * * * * * * * * * * * * * * * * * * * * * * * * * * * * * * * * * * * * * //

dimensions      [1 -2 -2 0 0 0 0];


internalField   nonuniform List<vector> 
166
(
(120.974713661 -2.71600795101 9.97606133964e-20)
(122.887753677 -8.60211717529 -3.5925636474e-20)
(124.29242548 -14.4913853346 6.70290025116e-21)
(126.378975393 -20.7677481281 3.66948772111e-20)
(129.237399703 -27.5721336037 -1.24073985979e-21)
(132.950538734 -35.0785321892 -1.56994281287e-20)
(137.578265769 -43.4933953835 2.41486540151e-21)
(143.191547687 -53.0498798124 -7.34149810619e-21)
(149.89473115 -64.0220881888 8.60981202365e-20)
(157.823790291 -76.7344744762 -5.91741518915e-21)
(167.152696646 -91.5730669897 -1.19861011195e-20)
(178.099188292 -109.011574754 1.24236579881e-19)
(190.931766514 -129.653522538 4.85283521879e-20)
(205.907518004 -154.168058635 7.89454412663e-19)
(223.475810752 -183.326322685 3.86618409185e-19)
(243.348961305 -219.139675229 -1.35552412972e-18)
(266.614887792 -233.175037608 -1.14581539526e-17)
(238.289585719 -118.780555 3.42165996933e-18)
(64.0235897155 -0.394145607652 -1.50108906953e-17)
(0.40612328921 -1.65435904157 2.5291000017e-20)
(126.19320953 -2.30745591006 2.04959968961e-19)
(128.203071214 -7.44993533953 -3.28863029952e-20)
(129.865165806 -12.5363688625 -2.77651747356e-20)
(132.357433765 -17.9767016293 1.34093862393e-21)
(135.78626784 -23.8897395467 3.13895452872e-21)
(140.255031414 -30.4301176455 5.34130137606e-20)
(145.856256893 -37.780430644 1.82140054136e-20)
(152.706769416 -46.1467551939 -1.09596294461e-20)
(160.962598519 -55.7699450439 1.98720512238e-21)
(170.830745288 -66.9341886359 2.09455671616e-20)
(182.575462169 -79.9821091763 -4.35860926516e-20)
(196.505075409 -95.3363201807 5.84740996414e-20)
(212.988798989 -113.551583378 2.05315541177e-19)
(232.360256854 -135.43742701 5.24378882091e-19)
(254.955648132 -161.968451349 9.8292968702e-19)
(279.577000957 -196.476306209 2.4117809258e-18)
(305.969443587 -213.429729883 4.09853264984e-18)
(262.873289615 -108.86253274 1.52423862808e-17)
(69.1040026195 -8.99871723075 -1.06414143294e-18)
(7.05116298234 -6.07324510624 6.75934557573e-19)
(130.633416918 -1.84001922244 1.95702357543e-19)
(132.723754796 -6.1132092585 -6.58318066552e-20)
(134.613020415 -10.2606489627 9.75563982623e-21)
(137.463644658 -14.7186228503 2.71232860533e-20)
(141.394530691 -19.5753105992 1.82853831937e-20)
(146.525790017 -24.9619274553 1.6739758154e-20)
(152.970717645 -31.026784449 1.44450378784e-20)
(160.883124297 -37.9404359536 3.30560556215e-20)
(170.462741787 -45.8991036618 -1.29954194076e-21)
(181.971560985 -55.127823163 9.12628412956e-22)
(195.73083723 -65.9089305759 -3.98281331759e-22)
(212.162553605 -78.5928048341 1.83364196797e-19)
(231.750699958 -93.6652660226 2.61481623492e-19)
(255.039943529 -111.897758572 7.57671238872e-19)
(282.907733254 -134.60216915 4.49305583675e-18)
(315.00118004 -166.45164236 3.80022251556e-18)
(356.246605472 -183.170714385 5.09889551338e-18)
(337.150347512 -78.9114803678 -1.03857986741e-18)
(109.826384169 1.56645635079 6.65999710326e-17)
(18.3265342972 -4.75184439284 -8.40704086497e-20)
(134.144516647 -1.31780474355 1.39122020852e-19)
(136.304047484 -4.61153265213 -3.93511955598e-21)
(138.375937011 -7.70999236694 7.1931621401e-20)
(141.521525069 -11.0623559036 2.88605985494e-20)
(145.863778217 -14.7254815052 4.31700541921e-20)
(151.534380047 -18.8035365014 -1.17013322072e-22)
(158.668355034 -23.4026492361 1.49298306179e-20)
(167.440779687 -28.6453290343 -5.14059782492e-20)
(178.078849222 -34.6763007241 1.26044121552e-19)
(190.883021216 -41.6629465728 1.51275230612e-19)
(206.224253268 -49.7841834801 -9.5940310645e-20)
(224.608484062 -59.2791373512 1.54513224992e-19)
(246.594591644 -70.4746908106 2.36253755994e-19)
(272.937505039 -83.8380929539 7.86588679809e-19)
(304.830322386 -99.9287978141 7.56038939181e-19)
(343.308502255 -121.689393115 -1.0253572361e-18)
(395.63578118 -116.989138303 -3.34684856653e-18)
(362.673126356 -16.055989513 -5.44917319924e-18)
(91.2968919966 16.1557859795 1.93512844435e-16)
(1.42591516943 18.565907976 -2.77960046776e-18)
(136.646479785 -0.754685433724 1.39560211374e-19)
(138.833902837 -2.97880558418 -6.98267488467e-20)
(141.045052443 -4.94500229461 7.51917603922e-20)
(144.411642302 -7.09419999045 1.08993051498e-20)
(149.062293982 -9.45975844686 1.80882853516e-20)
(155.133576353 -12.1072475248 2.06242098686e-20)
(162.772918477 -15.1008794036 4.35878054943e-20)
(172.165867905 -18.5201916517 -9.19759484057e-20)
(183.560480886 -22.44769595 1.20798789199e-19)
(197.275454492 -26.9707537361 2.91794081437e-20)
(213.734278215 -32.1640944332 -5.26086740581e-20)
(233.365511448 -38.1591415755 1.15984034561e-19)
(256.856794733 -45.0773702963 2.55165167827e-21)
(285.024991229 -52.9856199334 5.43218718169e-20)
(318.709003539 -61.7183677101 -2.45829566896e-18)
(359.251356447 -73.9262121475 6.35701107887e-18)
(412.798002707 -58.567059839 -3.34853562027e-17)
(336.96059655 17.74990749 -8.69047526692e-18)
(45.5598566922 12.4885960268 1.47854972156e-19)
(-8.10899570539 -3.22412031761 -1.65612168222e-18)
(138.050560093 -0.167723545129 4.42500703015e-20)
(140.238859727 -1.26114297693 -4.72523814006e-20)
(142.537904055 -2.02834403217 -2.6285703429e-20)
(146.049353719 -2.90996223493 -1.4592462718e-20)
(150.8940087 -3.905626493 -1.68582258666e-20)
(157.212951703 -5.04747045126 2.24279321571e-20)
(165.153922183 -6.35412615638 2.67071425223e-21)
(174.911055884 -7.85119990633 -6.54553058827e-21)
(186.735520047 -9.56139296372 8.29820452945e-22)
(200.956138739 -11.4883437809 -3.50474452215e-21)
(217.931097448 -13.6806705973 4.75647516801e-20)
(238.169282291 -16.0845066972 -1.08147791943e-20)
(262.306192482 -18.5241318446 -1.01584552402e-19)
(290.890756314 -21.1499701662 1.58463482527e-19)
(324.677760748 -23.2423755306 -1.26255170367e-18)
(364.875437595 -26.0370390606 5.23050419656e-18)
(416.215265791 -4.26074119393 6.75734791349e-18)
(316.686291535 44.4954713085 -4.89060957642e-18)
(34.1478400101 11.7328399935 -2.73049959311e-18)
(-3.92848486626 -1.44065675131 -6.17057793829e-19)
(138.305846846 0.434038952307 2.7217096537e-21)
(140.46898863 0.506798075767 -1.79065475817e-19)
(142.809833403 0.969818495693 -1.41018808794e-19)
(146.381212068 1.39069767932 -6.79069295673e-20)
(151.302927213 1.79518424378 -3.02102987873e-20)
(157.711253173 2.1931990501 6.69735088995e-20)
(165.753647849 2.60994908981 1.88554968609e-20)
(175.608578329 3.06539050352 -1.1834925259e-20)
(187.542412165 3.59779513351 -1.69365207966e-20)
(201.807686129 4.23139243122 -2.27221921007e-20)
(218.804101136 5.07305321728 -4.4924078307e-20)
(239.008779906 6.28849235506 6.96486144385e-20)
(262.894744628 7.97593498003 6.86546393571e-20)
(290.968151251 10.3220104311 3.88544055859e-19)
(324.004027967 14.0368301684 -5.26061961042e-20)
(362.245056328 18.5908679881 6.29541291423e-18)
(411.270196405 40.7521498307 8.90204847002e-18)
(295.464063976 61.319319228 1.18604866386e-18)
(25.9024761186 7.63336680942 1.9781679846e-18)
(-1.00862412306 -0.403605290334 5.85790688951e-19)
(137.41563379 1.03274451868 -1.34347484953e-20)
(139.517923339 2.28645296424 -1.50158627945e-19)
(141.848645641 3.98610115132 -5.22173906081e-20)
(145.38820505 5.70590914703 -7.60440109552e-21)
(150.272069486 7.50968054193 5.06522859975e-20)
(156.617501576 9.43904859583 8.20242839463e-21)
(164.559308586 11.553059598 2.09877921086e-21)
(174.27794005 13.9372962039 -6.72794746413e-21)
(185.960226197 16.6407540553 6.60396309255e-20)
(199.911817119 19.7897860382 8.85547385126e-20)
(216.461013003 23.5528620619 -2.09927324552e-21)
(236.021236104 28.1128643902 1.39534302396e-19)
(258.992622171 33.7674375048 1.10283791591e-19)
(285.963943224 40.7606657606 3.76576500258e-19)
(317.368128742 49.4227631152 4.56736826344e-18)
(353.474329474 60.0679146977 7.53034589853e-19)
(402.217783947 81.801266455 -1.82725330211e-17)
(274.506126641 75.0131915991 -9.24803655233e-18)
(18.3986907601 4.33100846302 -5.76648680462e-19)
(2.12055050793 -4.30852368747 1.08244218315e-19)
(135.375741799 1.61847329843 1.49835012157e-20)
(137.390953834 4.03409951566 -6.55740199427e-20)
(139.658805773 6.93896514394 3.7121153215e-20)
(132.212549868 2.1703982381 6.43366397507e-20)
(127.905313246 2.68939121975 -9.42025635618e-20)
(122.539046703 3.18953683182 -4.23133182331e-20)
)
;

boundaryField
{
    back
    {
        type            calculated;
        value           uniform (0 0 0);
    }
    sides
    {
        type            calculated;
        value           nonuniform List<vector> 0();
    }
    bottom
    {
        type            calculated;
        value           uniform (0 0 0);
    }
    front
    {
        type            calculated;
        value           uniform (0 0 0);
    }
    atmosphere
    {
        type            calculated;
        value           nonuniform List<vector> 8((-9.48957766597 -1.65435995177 2.01658983338e-18) (-2.96791972775 -6.07324510624 2.1513697616e-18) (10.3156182126 -4.75184437566 -1.37844121922e-20) (5.89718054559 18.5659079758 -3.36935729837e-18) (2.08449035609 -3.22412030806 -1.18492758131e-18) (-2.8230286305 -1.44065678642 -1.57009705378e-19) (-0.92979040802 -0.403605290333 5.83413354008e-19) (2.16648217486 -4.30852368772 1.13307429666e-19));
    }
    floatingObject
    {
        type            calculated;
        value           nonuniform List<vector> 0();
    }
    procBoundary9to6
    {
        type            processor;
        value           nonuniform List<vector> 4((226.052170489 -264.698064778 2.90520513932e-17) (221.787026926 -152.359103542 -1.72279829367e-17) (62.6493609729 -14.8727404109 -1.73619119838e-17) (-1.17853261633 -0.972354273756 8.13078752026e-19));
    }
    procBoundary9to7
    {
        type            processor;
        value           nonuniform List<vector> 
16
(
(115.088845263 -3.06577811519 1.67280748788e-19)
(116.888610392 -9.55569359532 -3.449709796e-21)
(118.015034799 -16.0970436014 5.52145960129e-20)
(119.664262763 -23.0472515857 -2.34458474684e-20)
(121.904932686 -30.5577063336 1.95732109984e-20)
(124.796801449 -38.8125736908 2.74062807359e-20)
(128.36165123 -48.0316910923 2.32472733784e-20)
(132.620986336 -58.4627110301 -9.57038581556e-21)
(137.616270747 -70.3988705926 -9.63360447743e-21)
(143.402539171 -84.1888978209 1.35872026949e-20)
(150.055795221 -100.257586735 2.60628788515e-20)
(157.691004667 -119.135197297 6.30904967303e-20)
(166.474026469 -141.498221517 1.65838322851e-20)
(176.611024823 -168.16580306 -7.16792793058e-19)
(188.927896125 -200.260819572 -8.41307584747e-19)
(204.006173815 -240.793205087 -7.46228755346e-18)
)
;
    }
    procBoundary9to10
    {
        type            processor;
        value           nonuniform List<vector> 
15
(
(143.108150137 9.92855804458 6.30901767759e-20)
(147.834810732 13.1023247186 3.28249603402e-20)
(153.966299589 16.5106188388 -3.42252495267e-21)
(161.61807972 20.2740320238 -3.18994653157e-21)
(170.944589445 24.4688282848 7.04915475187e-20)
(182.118518293 29.2433301683 1.31056387843e-19)
(195.42544492 34.7512311244 1.42674597739e-20)
(211.125577651 41.233754864 2.50180260066e-20)
(134.119897581 5.71060884505 -4.31756069198e-20)
(143.108150137 9.92855804458 6.30901767759e-20)
(136.25971934 9.79840509535 7.91151695542e-20)
(134.119897581 5.71060884505 -4.31756069198e-20)
(129.710441394 7.26841073877 -8.38711582455e-20)
(124.198690483 8.72165821138 -1.66462099233e-19)
(116.247836077 3.61421382669 -1.69636782824e-19)
)
;
    }
    procBoundary9to11
    {
        type            processor;
        value           nonuniform List<vector> 9((229.534297923 48.9392552569 1.83544654943e-20) (251.116258711 58.170544454 1.20791402036e-19) (276.271244518 69.2583528839 5.10076994901e-19) (305.497202784 82.8263863093 -2.041238906e-18) (339.200651708 99.7272815504 6.25607017231e-19) (386.769732989 122.867532426 -8.19164944289e-18) (245.054193544 87.300332824 -8.21023296584e-18) (8.10761434879 2.79795039067 -1.07757456374e-18) (2.13069740444 3.20273173534 -7.88233287406e-20));
    }
}


// ************************************************************************* //
