/*--------------------------------*- C++ -*----------------------------------*\
| =========                 |                                                 |
| \\      /  F ield         | OpenFOAM: The Open Source CFD Toolbox           |
|  \\    /   O peration     | Version:  v2012                                 |
|   \\  /    A nd           | Website:  www.openfoam.com                      |
|    \\/     M anipulation  |                                                 |
\*---------------------------------------------------------------------------*/
FoamFile
{
    version     2.0;
    format      ascii;
    class       volScalarField;
    location    "4";
    object      ddt0(epsilon);
}
// * * * * * * * * * * * * * * * * * * * * * * * * * * * * * * * * * * * * * //

dimensions      [0 2 -4 0 0 0 0];


internalField   nonuniform List<scalar> 
166
(
-0.000681551230351
-0.0007182616449
-0.000783037879158
-0.000804358451704
-0.000811028830071
-0.000813622340627
-0.000815448341323
-0.000817344492504
-0.000819504073962
-0.000822138092975
-0.000826049867316
-0.000833972163886
-0.000854074863871
-0.000909682902444
-0.00107831887943
-0.00172541943297
-0.00469635757276
-0.0145781591842
-0.00717478644587
-0.615441260793
-0.000681703673473
-0.000718756243963
-0.000782932422474
-0.000803863734062
-0.000810342963345
-0.000812883982352
-0.000814738981161
-0.000816724626922
-0.000819033206411
-0.000821927445794
-0.000826350634931
-0.000835382797755
-0.00085797162368
-0.000919317850402
-0.001104315789
-0.0018207662402
-0.00509087003995
-0.016839005927
-0.0306458364005
-0.189910910972
-0.000681701122957
-0.000719031990661
-0.000782669668567
-0.000803268647108
-0.000809596948567
-0.000812116511892
-0.000814017262409
-0.000816100589608
-0.000818563556024
-0.000821712902046
-0.000826627796264
-0.000836756885118
-0.00086178605468
-0.000928519831467
-0.00112829377459
-0.00190400618737
-0.00543040846835
-0.0182504609593
-0.0444041255995
-0.299340539919
-0.000681495538806
-0.000719049727323
-0.000782204304279
-0.000802520170882
-0.000808735347569
-0.000811254934747
-0.000813229912406
-0.000815437967261
-0.00081808128461
-0.000821517655683
-0.000826986132629
-0.000838288203023
-0.000865838966946
-0.000938134718898
-0.00115270291502
-0.00197788748825
-0.00562536795412
-0.0178683750857
-0.037329196259
-0.796808087171
-0.000681169072479
-0.000718835474828
-0.000781526652199
-0.000801598899177
-0.00080773734657
-0.000810287681209
-0.00081236074565
-0.000814711428265
-0.000817565783215
-0.000821331647378
-0.000827400151897
-0.000839876686085
-0.000870017932921
-0.000947940562642
-0.0011759889712
-0.0020349172617
-0.00572376732917
-0.0179300872104
-0.039366073092
-0.696597760948
-0.000680652560405
-0.000718381797189
-0.000780613634735
-0.000800493673586
-0.00080659580677
-0.000809199201693
-0.000811385082453
-0.00081389891574
-0.000816977713902
-0.000821081293568
-0.000827706682975
-0.00084137019109
-0.000874013902268
-0.000956705831191
-0.00119503629556
-0.0020688037464
-0.00572833964545
-0.0185211797004
-0.0554819972482
-0.324365238707
-0.000680054057939
-0.000717594169609
-0.000779453345117
-0.000799188813137
-0.000805285012479
-0.000807971657324
-0.000810279521315
-0.000812959400824
-0.000816252042106
-0.000820669210056
-0.000827780334184
-0.000842617907171
-0.000877253666236
-0.000963424608823
-0.00120635580145
-0.00207628861008
-0.00568815868213
-0.0188643393944
-0.0606650824105
-0.221377643096
-0.000679196275853
-0.000716537757233
-0.000778034158077
-0.000797678643087
-0.000803800547986
-0.000806574984119
-0.000809023964875
-0.000811859861231
-0.000815361702501
-0.000819983974873
-0.000827752160848
-0.000843312671799
-0.000879504555779
-0.000967105198948
-0.00120866792188
-0.00206553593718
-0.00561574535728
-0.0189835547088
-0.0644094551792
-0.190342523275
-0.000678073893199
-0.000715191162375
-0.000776395875913
-0.000676836609392
-0.000675436021292
-0.000673724767562
)
;

boundaryField
{
    back
    {
        type            calculated;
        value           nonuniform List<scalar> 
166
(
-0.000681551230351
-0.0007182616449
-0.000783037879158
-0.000804358451704
-0.000811028830071
-0.000813622340627
-0.000815448341323
-0.000817344492504
-0.000819504073962
-0.000822138092975
-0.000826049867316
-0.000833972163886
-0.000854074863871
-0.000909682902444
-0.00107831887943
-0.00172541943297
-0.00469635757276
-0.0145781591842
-0.00717478644587
-0.615441260793
-0.000681703673473
-0.000718756243963
-0.000782932422474
-0.000803863734062
-0.000810342963345
-0.000812883982352
-0.000814738981161
-0.000816724626922
-0.000819033206411
-0.000821927445794
-0.000826350634931
-0.000835382797755
-0.00085797162368
-0.000919317850402
-0.001104315789
-0.0018207662402
-0.00509087003995
-0.016839005927
-0.0306458364005
-0.189910910972
-0.000681701122957
-0.000719031990661
-0.000782669668567
-0.000803268647108
-0.000809596948567
-0.000812116511892
-0.000814017262409
-0.000816100589608
-0.000818563556024
-0.000821712902046
-0.000826627796264
-0.000836756885118
-0.00086178605468
-0.000928519831467
-0.00112829377459
-0.00190400618737
-0.00543040846835
-0.0182504609593
-0.0444041255995
-0.299340539919
-0.000681495538806
-0.000719049727323
-0.000782204304279
-0.000802520170882
-0.000808735347569
-0.000811254934747
-0.000813229912406
-0.000815437967261
-0.00081808128461
-0.000821517655683
-0.000826986132629
-0.000838288203023
-0.000865838966946
-0.000938134718898
-0.00115270291502
-0.00197788748825
-0.00562536795412
-0.0178683750857
-0.037329196259
-0.796808087171
-0.000681169072479
-0.000718835474828
-0.000781526652199
-0.000801598899177
-0.00080773734657
-0.000810287681209
-0.00081236074565
-0.000814711428265
-0.000817565783215
-0.000821331647378
-0.000827400151897
-0.000839876686085
-0.000870017932921
-0.000947940562642
-0.0011759889712
-0.0020349172617
-0.00572376732917
-0.0179300872104
-0.039366073092
-0.696597760948
-0.000680652560405
-0.000718381797189
-0.000780613634735
-0.000800493673586
-0.00080659580677
-0.000809199201693
-0.000811385082453
-0.00081389891574
-0.000816977713902
-0.000821081293568
-0.000827706682975
-0.00084137019109
-0.000874013902268
-0.000956705831191
-0.00119503629556
-0.0020688037464
-0.00572833964545
-0.0185211797004
-0.0554819972482
-0.324365238707
-0.000680054057939
-0.000717594169609
-0.000779453345117
-0.000799188813137
-0.000805285012479
-0.000807971657324
-0.000810279521315
-0.000812959400824
-0.000816252042106
-0.000820669210056
-0.000827780334184
-0.000842617907171
-0.000877253666236
-0.000963424608823
-0.00120635580145
-0.00207628861008
-0.00568815868213
-0.0188643393944
-0.0606650824105
-0.221377643096
-0.000679196275853
-0.000716537757233
-0.000778034158077
-0.000797678643087
-0.000803800547986
-0.000806574984119
-0.000809023964875
-0.000811859861231
-0.000815361702501
-0.000819983974873
-0.000827752160848
-0.000843312671799
-0.000879504555779
-0.000967105198948
-0.00120866792188
-0.00206553593718
-0.00561574535728
-0.0189835547088
-0.0644094551792
-0.190342523275
-0.000678073893199
-0.000715191162375
-0.000776395875913
-0.000676836609392
-0.000675436021292
-0.000673724767562
)
;
    }
    sides
    {
        type            calculated;
        value           nonuniform List<scalar> 0();
    }
    bottom
    {
        type            calculated;
        value           nonuniform List<scalar> 
12
(
-0.000681551230351
-0.000681703673473
-0.000681701122957
-0.000681495538806
-0.000681169072479
-0.000680652560405
-0.000680054057939
-0.000679196275853
-0.000678073893199
-0.000676836609392
-0.000675436021292
-0.000673724767562
)
;
    }
    front
    {
        type            calculated;
        value           nonuniform List<scalar> 
166
(
-0.000681551230351
-0.0007182616449
-0.000783037879158
-0.000804358451704
-0.000811028830071
-0.000813622340627
-0.000815448341323
-0.000817344492504
-0.000819504073962
-0.000822138092975
-0.000826049867316
-0.000833972163886
-0.000854074863871
-0.000909682902444
-0.00107831887943
-0.00172541943297
-0.00469635757276
-0.0145781591842
-0.00717478644587
-0.615441260793
-0.000681703673473
-0.000718756243963
-0.000782932422474
-0.000803863734062
-0.000810342963345
-0.000812883982352
-0.000814738981161
-0.000816724626922
-0.000819033206411
-0.000821927445794
-0.000826350634931
-0.000835382797755
-0.00085797162368
-0.000919317850402
-0.001104315789
-0.0018207662402
-0.00509087003995
-0.016839005927
-0.0306458364005
-0.189910910972
-0.000681701122957
-0.000719031990661
-0.000782669668567
-0.000803268647108
-0.000809596948567
-0.000812116511892
-0.000814017262409
-0.000816100589608
-0.000818563556024
-0.000821712902046
-0.000826627796264
-0.000836756885118
-0.00086178605468
-0.000928519831467
-0.00112829377459
-0.00190400618737
-0.00543040846835
-0.0182504609593
-0.0444041255995
-0.299340539919
-0.000681495538806
-0.000719049727323
-0.000782204304279
-0.000802520170882
-0.000808735347569
-0.000811254934747
-0.000813229912406
-0.000815437967261
-0.00081808128461
-0.000821517655683
-0.000826986132629
-0.000838288203023
-0.000865838966946
-0.000938134718898
-0.00115270291502
-0.00197788748825
-0.00562536795412
-0.0178683750857
-0.037329196259
-0.796808087171
-0.000681169072479
-0.000718835474828
-0.000781526652199
-0.000801598899177
-0.00080773734657
-0.000810287681209
-0.00081236074565
-0.000814711428265
-0.000817565783215
-0.000821331647378
-0.000827400151897
-0.000839876686085
-0.000870017932921
-0.000947940562642
-0.0011759889712
-0.0020349172617
-0.00572376732917
-0.0179300872104
-0.039366073092
-0.696597760948
-0.000680652560405
-0.000718381797189
-0.000780613634735
-0.000800493673586
-0.00080659580677
-0.000809199201693
-0.000811385082453
-0.00081389891574
-0.000816977713902
-0.000821081293568
-0.000827706682975
-0.00084137019109
-0.000874013902268
-0.000956705831191
-0.00119503629556
-0.0020688037464
-0.00572833964545
-0.0185211797004
-0.0554819972482
-0.324365238707
-0.000680054057939
-0.000717594169609
-0.000779453345117
-0.000799188813137
-0.000805285012479
-0.000807971657324
-0.000810279521315
-0.000812959400824
-0.000816252042106
-0.000820669210056
-0.000827780334184
-0.000842617907171
-0.000877253666236
-0.000963424608823
-0.00120635580145
-0.00207628861008
-0.00568815868213
-0.0188643393944
-0.0606650824105
-0.221377643096
-0.000679196275853
-0.000716537757233
-0.000778034158077
-0.000797678643087
-0.000803800547986
-0.000806574984119
-0.000809023964875
-0.000811859861231
-0.000815361702501
-0.000819983974873
-0.000827752160848
-0.000843312671799
-0.000879504555779
-0.000967105198948
-0.00120866792188
-0.00206553593718
-0.00561574535728
-0.0189835547088
-0.0644094551792
-0.190342523275
-0.000678073893199
-0.000715191162375
-0.000776395875913
-0.000676836609392
-0.000675436021292
-0.000673724767562
)
;
    }
    atmosphere
    {
        type            calculated;
        value           nonuniform List<scalar> 8(-2.2702549815 0.858985272004 0.189471328545 -1.90602144426 -2.68801665982 0.725103700121 -0.217789593182 -0.225983313627);
    }
    floatingObject
    {
        type            calculated;
        value           nonuniform List<scalar> 0();
    }
    procBoundary9to6
    {
        type            processor;
        value           nonuniform List<scalar> 4(-0.00424732173943 -0.013139810523 -0.00709004048371 -0.0178340717437);
    }
    procBoundary9to7
    {
        type            processor;
        value           nonuniform List<scalar> 
16
(
-0.000681349206582
-0.00071749451701
-0.000782892469895
-0.000804650145922
-0.000811545813988
-0.00081421529904
-0.000816036347494
-0.00081788668505
-0.000819970997593
-0.000822466193025
-0.000826050366394
-0.000833104353577
-0.000850950699125
-0.000900847041857
-0.00105127562611
-0.00161557797512
)
;
    }
    procBoundary9to10
    {
        type            processor;
        value           nonuniform List<scalar> 
15
(
-0.000795982225456
-0.000802138397096
-0.000805009734756
-0.000807564085874
-0.000810540268974
-0.000814176829257
-0.000819177317805
-0.000827141224447
-0.000713617752581
-0.000795982225456
-0.000774531029932
-0.000713617752581
-0.000711811533223
-0.000709798829641
-0.000671902778586
)
;
    }
    procBoundary9to11
    {
        type            processor;
        value           nonuniform List<scalar> 9(-0.000843542281114 -0.000880486046098 -0.000967599958717 -0.00120234447198 -0.00203158829413 -0.00548288429633 -0.0185695768928 -0.0752146063003 -0.288393444076);
    }
}


// ************************************************************************* //
