/*--------------------------------*- C++ -*----------------------------------*\
| =========                 |                                                 |
| \\      /  F ield         | OpenFOAM: The Open Source CFD Toolbox           |
|  \\    /   O peration     | Version:  v2012                                 |
|   \\  /    A nd           | Website:  www.openfoam.com                      |
|    \\/     M anipulation  |                                                 |
\*---------------------------------------------------------------------------*/
FoamFile
{
    version     2.0;
    format      ascii;
    class       volScalarField;
    location    "4";
    object      k_0;
}
// * * * * * * * * * * * * * * * * * * * * * * * * * * * * * * * * * * * * * //

dimensions      [0 2 -2 0 0 0 0];


internalField   nonuniform List<scalar> 
166
(
0.00214136076399
0.00266814824725
0.00283844733966
0.00290065624635
0.00292406821662
0.00293475870202
0.00294207119848
0.00294913017795
0.00295701479239
0.0029664564775
0.00297900528067
0.00299909791654
0.00303925517116
0.00313503700536
0.00339690323459
0.00419179666968
0.00647095486435
0.0116366080397
0.0231372480541
0.0588619063036
0.00213904327089
0.00266515641004
0.00283496633038
0.00289688046096
0.00292010964064
0.00293065707334
0.00293782792844
0.00294473480653
0.00295246599898
0.00296180904224
0.00297447070486
0.00299526045728
0.00303749299938
0.00313871872152
0.00341636862731
0.00425790611489
0.00662736546856
0.0118037625571
0.0216568637293
0.0459135096555
0.00213622741439
0.00266171757527
0.00283101381412
0.00289263270093
0.00291568650625
0.00292610612288
0.00293315531026
0.00293993588982
0.00294754715422
0.00295683435394
0.00296967641964
0.00299128659479
0.0030358260518
0.0031428522382
0.0034363079444
0.00432169915102
0.00678070961562
0.0121095755811
0.0223528787729
0.0496977035787
0.00213291290551
0.00265783034125
0.00282662650631
0.00288795429708
0.00291084117449
0.00292114679665
0.00292809626697
0.00293477676275
0.00294229991489
0.00295157708053
0.00296467553885
0.00298724418323
0.00303439176458
0.00314789886355
0.00345813357621
0.00438488585455
0.00691749672423
0.0124377868786
0.0243195497594
0.0575758500573
0.00212916994864
0.00265353849982
0.00282183956201
0.00288287745049
0.00290560658444
0.00291581522657
0.00292268825641
0.00292929655905
0.00293676946241
0.00294608534639
0.00295950371846
0.00298317163077
0.0030332654589
0.00315399742819
0.00348214753396
0.00444792382809
0.00703591526253
0.012640029031
0.0247629702524
0.0588277761439
0.00212502828191
0.00264889236947
0.00281668231593
0.00287742982459
0.00290001424114
0.00291014588549
0.00291696826357
0.00292353690843
0.002930990926
0.00294037845834
0.00295417951562
0.0029790622894
0.0030322952869
0.00316058423754
0.00350632674346
0.00450748431405
0.00714325518149
0.0127715113671
0.023919177943
0.0469415682009
0.00212058847689
0.00264390731403
0.00281116113697
0.00287163109342
0.00289409004431
0.00290417174911
0.00291097115051
0.00291752711313
0.00292499016239
0.00293448940356
0.00294871974918
0.00297484926566
0.00303115797153
0.00316633023297
0.00352748469751
0.00455998595011
0.00724615840376
0.0129237418007
0.0233229597804
0.0382490430384
0.002115785931
0.00263857063956
0.00280529946214
0.00286550426969
0.00288786145109
0.00289791771675
0.00290472374658
0.00291129372573
0.00291880552326
0.00292845164198
0.0029431413562
0.00297043897652
0.00302938748978
0.00316993885397
0.00354295061713
0.00460362606515
0.00735929592061
0.0132094722837
0.0236990331454
0.0383188474866
0.00211062104097
0.00263290100875
0.00279910593527
0.00210519188737
0.00209948049937
0.00209350263458
)
;

boundaryField
{
    back
    {
        type            kqRWallFunction;
        value           nonuniform List<scalar> 
166
(
0.00214136076399
0.00266814824725
0.00283844733966
0.00290065624635
0.00292406821662
0.00293475870202
0.00294207119848
0.00294913017795
0.00295701479239
0.0029664564775
0.00297900528067
0.00299909791654
0.00303925517116
0.00313503700536
0.00339690323459
0.00419179666968
0.00647095486435
0.0116366080397
0.0231372480541
0.0588619063036
0.00213904327089
0.00266515641004
0.00283496633038
0.00289688046096
0.00292010964064
0.00293065707334
0.00293782792844
0.00294473480653
0.00295246599898
0.00296180904224
0.00297447070486
0.00299526045728
0.00303749299938
0.00313871872152
0.00341636862731
0.00425790611489
0.00662736546856
0.0118037625571
0.0216568637293
0.0459135096555
0.00213622741439
0.00266171757527
0.00283101381412
0.00289263270093
0.00291568650625
0.00292610612288
0.00293315531026
0.00293993588982
0.00294754715422
0.00295683435394
0.00296967641964
0.00299128659479
0.0030358260518
0.0031428522382
0.0034363079444
0.00432169915102
0.00678070961562
0.0121095755811
0.0223528787729
0.0496977035787
0.00213291290551
0.00265783034125
0.00282662650631
0.00288795429708
0.00291084117449
0.00292114679665
0.00292809626697
0.00293477676275
0.00294229991489
0.00295157708053
0.00296467553885
0.00298724418323
0.00303439176458
0.00314789886355
0.00345813357621
0.00438488585455
0.00691749672423
0.0124377868786
0.0243195497594
0.0575758500573
0.00212916994864
0.00265353849982
0.00282183956201
0.00288287745049
0.00290560658444
0.00291581522657
0.00292268825641
0.00292929655905
0.00293676946241
0.00294608534639
0.00295950371846
0.00298317163077
0.0030332654589
0.00315399742819
0.00348214753396
0.00444792382809
0.00703591526253
0.012640029031
0.0247629702524
0.0588277761439
0.00212502828191
0.00264889236947
0.00281668231593
0.00287742982459
0.00290001424114
0.00291014588549
0.00291696826357
0.00292353690843
0.002930990926
0.00294037845834
0.00295417951562
0.0029790622894
0.0030322952869
0.00316058423754
0.00350632674346
0.00450748431405
0.00714325518149
0.0127715113671
0.023919177943
0.0469415682009
0.00212058847689
0.00264390731403
0.00281116113697
0.00287163109342
0.00289409004431
0.00290417174911
0.00291097115051
0.00291752711313
0.00292499016239
0.00293448940356
0.00294871974918
0.00297484926566
0.00303115797153
0.00316633023297
0.00352748469751
0.00455998595011
0.00724615840376
0.0129237418007
0.0233229597804
0.0382490430384
0.002115785931
0.00263857063956
0.00280529946214
0.00286550426969
0.00288786145109
0.00289791771675
0.00290472374658
0.00291129372573
0.00291880552326
0.00292845164198
0.0029431413562
0.00297043897652
0.00302938748978
0.00316993885397
0.00354295061713
0.00460362606515
0.00735929592061
0.0132094722837
0.0236990331454
0.0383188474866
0.00211062104097
0.00263290100875
0.00279910593527
0.00210519188737
0.00209948049937
0.00209350263458
)
;
    }
    sides
    {
        type            kqRWallFunction;
        value           nonuniform List<scalar> 0();
    }
    bottom
    {
        type            kqRWallFunction;
        value           nonuniform List<scalar> 
12
(
0.00214136076399
0.00213904327089
0.00213622741439
0.00213291290551
0.00212916994864
0.00212502828191
0.00212058847689
0.002115785931
0.00211062104097
0.00210519188737
0.00209948049937
0.00209350263458
)
;
    }
    front
    {
        type            kqRWallFunction;
        value           nonuniform List<scalar> 
166
(
0.00214136076399
0.00266814824725
0.00283844733966
0.00290065624635
0.00292406821662
0.00293475870202
0.00294207119848
0.00294913017795
0.00295701479239
0.0029664564775
0.00297900528067
0.00299909791654
0.00303925517116
0.00313503700536
0.00339690323459
0.00419179666968
0.00647095486435
0.0116366080397
0.0231372480541
0.0588619063036
0.00213904327089
0.00266515641004
0.00283496633038
0.00289688046096
0.00292010964064
0.00293065707334
0.00293782792844
0.00294473480653
0.00295246599898
0.00296180904224
0.00297447070486
0.00299526045728
0.00303749299938
0.00313871872152
0.00341636862731
0.00425790611489
0.00662736546856
0.0118037625571
0.0216568637293
0.0459135096555
0.00213622741439
0.00266171757527
0.00283101381412
0.00289263270093
0.00291568650625
0.00292610612288
0.00293315531026
0.00293993588982
0.00294754715422
0.00295683435394
0.00296967641964
0.00299128659479
0.0030358260518
0.0031428522382
0.0034363079444
0.00432169915102
0.00678070961562
0.0121095755811
0.0223528787729
0.0496977035787
0.00213291290551
0.00265783034125
0.00282662650631
0.00288795429708
0.00291084117449
0.00292114679665
0.00292809626697
0.00293477676275
0.00294229991489
0.00295157708053
0.00296467553885
0.00298724418323
0.00303439176458
0.00314789886355
0.00345813357621
0.00438488585455
0.00691749672423
0.0124377868786
0.0243195497594
0.0575758500573
0.00212916994864
0.00265353849982
0.00282183956201
0.00288287745049
0.00290560658444
0.00291581522657
0.00292268825641
0.00292929655905
0.00293676946241
0.00294608534639
0.00295950371846
0.00298317163077
0.0030332654589
0.00315399742819
0.00348214753396
0.00444792382809
0.00703591526253
0.012640029031
0.0247629702524
0.0588277761439
0.00212502828191
0.00264889236947
0.00281668231593
0.00287742982459
0.00290001424114
0.00291014588549
0.00291696826357
0.00292353690843
0.002930990926
0.00294037845834
0.00295417951562
0.0029790622894
0.0030322952869
0.00316058423754
0.00350632674346
0.00450748431405
0.00714325518149
0.0127715113671
0.023919177943
0.0469415682009
0.00212058847689
0.00264390731403
0.00281116113697
0.00287163109342
0.00289409004431
0.00290417174911
0.00291097115051
0.00291752711313
0.00292499016239
0.00293448940356
0.00294871974918
0.00297484926566
0.00303115797153
0.00316633023297
0.00352748469751
0.00455998595011
0.00724615840376
0.0129237418007
0.0233229597804
0.0382490430384
0.002115785931
0.00263857063956
0.00280529946214
0.00286550426969
0.00288786145109
0.00289791771675
0.00290472374658
0.00291129372573
0.00291880552326
0.00292845164198
0.0029431413562
0.00297043897652
0.00302938748978
0.00316993885397
0.00354295061713
0.00460362606515
0.00735929592061
0.0132094722837
0.0236990331454
0.0383188474866
0.00211062104097
0.00263290100875
0.00279910593527
0.00210519188737
0.00209948049937
0.00209350263458
)
;
    }
    atmosphere
    {
        type            inletOutlet;
        inletValue      uniform 0.1;
        value           nonuniform List<scalar> 8(0.1 0.1 0.1 0.0575758500573 0.1 0.1 0.0382490430384 0.0383188474866);
    }
    floatingObject
    {
        type            kqRWallFunction;
        value           nonuniform List<scalar> 0();
    }
    procBoundary9to6
    {
        type            processor;
        value           nonuniform List<scalar> 4(0.00630153301764 0.0114691498966 0.0240521557923 0.0707018061926);
    }
    procBoundary9to7
    {
        type            processor;
        value           nonuniform List<scalar> 
16
(
0.00214320790808
0.00267064124082
0.00284140438965
0.00290390960522
0.00292751808892
0.00293837192163
0.00294585063509
0.00295309247045
0.0029611695049
0.00297076341608
0.00298328052148
0.00300281090436
0.00304113115906
0.00313190489868
0.00337800493263
0.00412144813944
)
;
    }
    procBoundary9to10
    {
        type            processor;
        value           nonuniform List<scalar> 
15
(
0.00285906641046
0.00288134626961
0.00289140616238
0.00289824578318
0.00290487244431
0.00291247264724
0.00292231604957
0.00293744928905
0.00262686244103
0.00285906641046
0.00279257857139
0.00262686244103
0.00262051299934
0.00261389873496
0.00208728054333
)
;
    }
    procBoundary9to11
    {
        type            processor;
        value           nonuniform List<scalar> 9(0.0029658168694 0.00302682765814 0.00317079790007 0.00355081557739 0.00463600631252 0.00748883820863 0.0137211577019 0.0257272469396 0.044866981076);
    }
}


// ************************************************************************* //
