/*--------------------------------*- C++ -*----------------------------------*\
| =========                 |                                                 |
| \\      /  F ield         | OpenFOAM: The Open Source CFD Toolbox           |
|  \\    /   O peration     | Version:  v2012                                 |
|   \\  /    A nd           | Website:  www.openfoam.com                      |
|    \\/     M anipulation  |                                                 |
\*---------------------------------------------------------------------------*/
FoamFile
{
    version     2.0;
    format      ascii;
    class       volVectorField;
    location    "4";
    object      U;
}
// * * * * * * * * * * * * * * * * * * * * * * * * * * * * * * * * * * * * * //

dimensions      [0 1 -1 0 0 0 0];


internalField   nonuniform List<vector> 
166
(
(0.0453336840148 0.000468618094697 -4.49324040833e-22)
(0.0441476646201 0.00123254954122 -2.39612212535e-22)
(0.043524312504 0.00201257777418 -1.18597744555e-22)
(0.0435697810875 0.00282532453184 4.83516814385e-23)
(0.0441398865224 0.00366472481404 2.21087985093e-23)
(0.0450608137745 0.00456856929874 -5.22576525594e-24)
(0.0462441662064 0.00556104443398 -6.14967003283e-25)
(0.0476685423249 0.00666273222594 9.05115082761e-25)
(0.0493392927619 0.00790008507894 1.12606944645e-23)
(0.051277374204 0.00930448008651 8.23436836856e-24)
(0.0535148879219 0.0109107524773 -2.84768140805e-23)
(0.0561010268389 0.0127619379311 -5.13847805774e-24)
(0.0591148654886 0.014906351243 -8.77389029273e-23)
(0.0626884757291 0.0174026852145 -8.54903804523e-23)
(0.0668387696493 0.0200544616538 -1.98775711501e-21)
(0.0709325756687 0.024872067397 1.71888481171e-21)
(0.0750996633409 0.0274343437999 -5.54378371636e-21)
(0.0799881282637 0.0363163575817 -1.24358526871e-20)
(0.1491197661 0.0343654516305 -1.29021861141e-20)
(0.123177006085 0.000873284474982 -1.61001837974e-20)
(0.0444185776192 0.000558342070439 -4.61816333262e-22)
(0.043254723488 0.00151021178417 -2.23529523033e-22)
(0.0426356579943 0.00247106134604 -9.07347453927e-23)
(0.0426550378167 0.00347171639777 1.14058537407e-23)
(0.0431695379651 0.00450421404312 5.3463004782e-24)
(0.0440098568787 0.00560749361372 3.11951640451e-24)
(0.0450888118249 0.00680931804403 2.13587591841e-23)
(0.0463819563922 0.00813364788818 -6.51720983171e-24)
(0.0478928824813 0.00961096734641 3.48768577595e-23)
(0.0496361445005 0.0112784464517 5.01226414508e-23)
(0.0516324375551 0.0131790049538 -1.16294609759e-23)
(0.0539239295181 0.0153623335266 -3.03967769426e-23)
(0.0565796022443 0.0178845131955 -2.09923009063e-22)
(0.059732280757 0.0208429411766 -7.77727800654e-22)
(0.0635204816806 0.02396402152 -1.6447387153e-21)
(0.0675192686334 0.0291070660901 8.57902919646e-22)
(0.0717226769838 0.0309843294255 -4.79404782994e-21)
(0.0767466647761 0.0372354009184 -1.38085222958e-20)
(0.155189494863 0.0303344739127 -1.51230720082e-20)
(0.24412034137 -0.0704578071333 -9.27830859437e-21)
(0.0433253704642 0.000641042475292 -4.42000110702e-22)
(0.0421851197561 0.00176721009931 -2.02132063989e-22)
(0.041569870216 0.00289307682771 -1.05805545803e-22)
(0.0415598854345 0.00406357433566 -4.3867598073e-23)
(0.0420133338413 0.00526871727837 -2.42093323464e-23)
(0.0427654397888 0.0065496671798 -7.34285159674e-24)
(0.0437320900973 0.00793568644545 -1.22094144405e-24)
(0.0448835002797 0.00945415161269 1.79646417462e-23)
(0.046218071533 0.011137607668 -9.91389183813e-25)
(0.0477421325275 0.0130224435561 -4.60090673114e-26)
(0.0494714347289 0.015159287905 -1.20181267965e-23)
(0.0514256742962 0.0176069924256 -9.04456965518e-23)
(0.0536742408773 0.0204290846062 -3.61529160285e-22)
(0.0563636519728 0.0237419681975 -1.15455219772e-21)
(0.0597206132384 0.027315791992 -1.17683646361e-21)
(0.0638308564095 0.032975579944 -1.88420375072e-21)
(0.0684744477377 0.0348495175478 -1.02934274028e-20)
(0.0750741916455 0.0410511501728 -1.23151573644e-20)
(0.170246416093 0.0374660149946 9.21130620871e-21)
(0.510359436577 -0.115064392276 1.9275062242e-21)
(0.0420740954162 0.000712891807884 -4.74513459721e-22)
(0.0409544737033 0.00199879066455 -2.43750405691e-22)
(0.0403449016786 0.00327326528321 -1.78315464927e-22)
(0.040304755932 0.0045945058917 -7.61170134146e-23)
(0.0406954858103 0.00595116873394 -3.85189219421e-23)
(0.0413568806107 0.00738851152542 -1.61982905273e-23)
(0.0422045293861 0.00893340437715 3.81206545118e-24)
(0.0432057151543 0.0106113723277 -1.06688402601e-23)
(0.0443548726092 0.0124582015092 3.3288078042e-23)
(0.0456493342896 0.0145170158218 2.48983218094e-23)
(0.0470969403083 0.0168307880125 -1.17475730409e-23)
(0.0486901807849 0.0194615995689 -1.08400501867e-22)
(0.050502545431 0.0224834675539 -4.44368043146e-22)
(0.0526809173387 0.0260234081711 -1.38818977168e-21)
(0.0555103780904 0.0299511063647 -3.05557913259e-21)
(0.0593422283592 0.0361479444012 1.90025946637e-22)
(0.063644485288 0.0387598501463 -1.20678473233e-20)
(0.0696427375117 0.045005089536 -1.60428099821e-20)
(0.164434178114 0.0502866535099 1.16027368003e-19)
(0.059144378714 0.580778694355 -2.23149290727e-20)
(0.040674232724 0.000772506023525 -4.84866489083e-22)
(0.0395815216135 0.00220230610735 -2.68177755204e-22)
(0.0389789427209 0.0036104718504 -2.51354704514e-22)
(0.0389091413775 0.00506249361688 -1.07224761106e-22)
(0.0392365632439 0.00655012753095 -4.60292845767e-23)
(0.0398060883056 0.00811768775722 -2.23496129355e-24)
(0.0405326354834 0.00979104296488 9.21278211813e-24)
(0.0413837308542 0.0115984220762 -1.94085294499e-23)
(0.0423468786786 0.0135727715334 3.76695987602e-25)
(0.0434095716285 0.0157527448752 -1.44038727725e-23)
(0.0445549571659 0.0181695510859 -3.52080649613e-23)
(0.0458090228951 0.0208999820669 -8.87538477074e-23)
(0.0471862784771 0.0240188800767 -4.36773280505e-22)
(0.04879395488 0.0275942391448 -1.4159516146e-21)
(0.051093594971 0.031483511633 -3.78100179797e-21)
(0.0543844674048 0.037786368023 2.39038826147e-21)
(0.0573249510569 0.0403937459048 -1.62367693738e-20)
(0.0616530776102 0.0452943417716 -2.09905972355e-20)
(0.140360770273 0.0526035345467 -2.47879006709e-20)
(-0.353642788978 -0.102059064246 -3.90994276771e-20)
(0.0391479254335 0.000826342093245 -4.35671590768e-22)
(0.0380854459472 0.00238274718533 -2.43954776814e-22)
(0.0374910567263 0.00390340585583 -1.81571535237e-22)
(0.0373913116635 0.00546592498479 -4.27646272247e-23)
(0.0376568216666 0.00706260019511 -2.40911511855e-23)
(0.0381371112244 0.00873797581078 -5.02361714429e-24)
(0.0387481650232 0.0105153528765 3.48310347999e-25)
(0.0394559383521 0.0124183514284 -5.11580786679e-24)
(0.0402394245123 0.0144743779511 -6.16734366675e-24)
(0.0410792360488 0.0167108373067 -1.36598837894e-23)
(0.0419654095319 0.0191942913411 -7.74009687751e-23)
(0.0428970867657 0.0219633209818 -7.35966278435e-23)
(0.0438524814546 0.0250000154875 -2.59261467068e-22)
(0.0450003384597 0.0284899124395 -8.15322750432e-22)
(0.0468063672904 0.0322010041438 -2.67320424669e-21)
(0.0494960908467 0.0380647949884 -4.76221722163e-22)
(0.0508677924532 0.0401242040081 -4.92642663917e-21)
(0.0550020786904 0.0437074270733 -1.15724810233e-20)
(0.145644968301 0.0531839797126 -1.52714485508e-20)
(-0.0749375370098 -0.0277823919876 -3.03894300126e-20)
(0.0375184759284 0.00086662482969 -2.25228405537e-22)
(0.0364876884647 0.0025346083962 -1.94997448802e-23)
(0.0359010570626 0.00415229664835 3.41101271519e-23)
(0.0357729428766 0.00580671213913 5.18747155329e-23)
(0.0359807397236 0.00749503898902 6.35399694382e-24)
(0.0363759069683 0.00925669003157 2.98144174269e-25)
(0.036877538976 0.0111118835421 -4.450811728e-24)
(0.0374528041514 0.013080922379 7.3339177564e-24)
(0.0380690414756 0.0151850161767 1.30096009896e-23)
(0.0387261642421 0.0174639804329 1.84040817622e-23)
(0.0394020346744 0.0199501705951 -4.62716492462e-23)
(0.0400428720934 0.0226448748671 -7.31776214671e-23)
(0.0406858796937 0.0255977931071 -2.2095579086e-22)
(0.0415009343657 0.0288991917446 -7.61048384447e-22)
(0.0428018790049 0.0322236901567 -2.29264182945e-21)
(0.0448019991323 0.0375887708211 -8.33906337768e-22)
(0.0448602636263 0.0388716723562 -2.03699106006e-21)
(0.0488298514401 0.0409942730552 -1.018697727e-20)
(0.148415383247 0.0484887262577 2.42975038882e-21)
(0.0611202252278 0.00478281140575 8.95611685574e-21)
(0.0357910465713 0.000897805097773 -1.01088197899e-22)
(0.0348024115366 0.00266105432762 1.53451560651e-22)
(0.0342241151227 0.00435737645305 1.25308052569e-22)
(0.0340721844895 0.00608902481433 7.14617450569e-23)
(0.0342260289118 0.00784994818668 -1.09788578221e-23)
(0.034541123523 0.00967721850112 -1.23770398498e-23)
(0.0349400989441 0.0115918175797 -7.18740944777e-25)
(0.0353868620972 0.0135991744521 1.32265325207e-23)
(0.0358729588023 0.0157359560022 5.43965528289e-23)
(0.0363750301232 0.0180284709025 2.16412677148e-23)
(0.0368611241785 0.020473343805 -1.68455605248e-23)
(0.0372970392134 0.023100705241 -7.77961084048e-23)
(0.0377411063882 0.0259054250643 -2.45787510094e-22)
(0.0382868524609 0.0289157051928 -9.67985854925e-22)
(0.039239407645 0.0319979156598 -2.6599307085e-21)
(0.0404896365551 0.036938802513 -8.34328631947e-21)
(0.0395133789859 0.0372205565998 -1.16122374958e-20)
(0.0434879591133 0.038194826564 -1.10755557169e-20)
(0.146136378037 0.0451167154972 -2.83738331716e-22)
(0.117405334973 0.026330144535 9.603788587e-22)
(0.0339868497585 0.000931377536422 -4.30488698572e-23)
(0.0330385666381 0.00276976752118 1.79243545683e-22)
(0.0324741076291 0.0045250664307 8.89236588959e-23)
(0.0321225649077 0.000953989401036 -1.78495897475e-23)
(0.0302074227877 0.000965988083941 1.24635391157e-22)
(0.028257244346 0.00098091731817 2.63480488961e-22)
)
;

boundaryField
{
    back
    {
        type            noSlip;
    }
    sides
    {
        type            noSlip;
    }
    bottom
    {
        type            noSlip;
    }
    front
    {
        type            noSlip;
    }
    atmosphere
    {
        type            pressureInletOutletVelocity;
        value           nonuniform List<vector> 8((0 0.000873284474982 0) (0 -0.0704578071333 0) (0 -0.115064392276 0) (0.059144378714 0.580778694355 -2.23149290727e-20) (0 -0.102059064246 0) (0 -0.0277823919876 0) (0 0.00478281140575 0) (0 0.026330144535 0));
    }
    floatingObject
    {
        type            movingWallVelocity;
        value           nonuniform List<vector> 0();
    }
    procBoundary9to6
    {
        type            processor;
        value           nonuniform List<vector> 4((0.0785671128304 0.0217797841272 -1.81063041347e-20) (0.0842987558361 0.0319946990876 -1.4158768065e-20) (0.149009342097 0.0307111227013 -6.81182747645e-21) (0.095929701803 -0.00456536409479 -6.05677072088e-20));
    }
    procBoundary9to7
    {
        type            processor;
        value           nonuniform List<vector> 
16
(
(0.0460592821898 0.000375724107949 -3.92396159308e-22)
(0.0448502975569 0.000935719621254 -2.27069591516e-22)
(0.0442204230819 0.00151987016252 -1.32516995855e-22)
(0.0442866978358 0.00213029937732 7.16677767805e-23)
(0.044904435578 0.00276009654667 3.44134703942e-23)
(0.0458957464173 0.00344465569987 1.90822785639e-23)
(0.0471707144499 0.00420400615821 1.01070001055e-23)
(0.0487082488902 0.00505551018833 -1.24952799386e-23)
(0.0505167303469 0.00602096399215 3.017831746e-23)
(0.0526212173459 0.00712285156656 1.97143072444e-23)
(0.0550591053268 0.00838694628859 1.06482442092e-23)
(0.0578841622692 0.00984440741597 9.86603430382e-23)
(0.0611857510392 0.0115220670808 2.08656089869e-22)
(0.0650984190546 0.0134869462176 4.67642627808e-22)
(0.0695783106777 0.0154652680976 -1.77380306668e-21)
(0.0740364560142 0.0195293868337 1.85921889748e-21)
)
;
    }
    procBoundary9to10
    {
        type            processor;
        value           nonuniform List<vector> 
15
(
(0.0323032862321 0.00631856119474 3.85995316071e-23)
(0.0324088496217 0.00813459863893 -2.17663102618e-23)
(0.0326545007258 0.010008301057 -1.07354774347e-23)
(0.032965796094 0.0119554113503 1.22562988441e-24)
(0.033309226165 0.0140025941436 2.12742498504e-23)
(0.0336781914953 0.0161592896601 4.06660349919e-23)
(0.0340323111806 0.0184313826253 1.05844938876e-23)
(0.0343523155745 0.0208285697303 -1.12291679147e-23)
(0.0312107117287 0.00285353431037 1.77714218012e-22)
(0.0323032862321 0.00631856119474 3.85995316071e-23)
(0.0306683024859 0.00466114119653 7.30355763055e-25)
(0.0312107117287 0.00285353431037 1.77714218012e-22)
(0.0293408489692 0.00292277578241 1.64405988843e-22)
(0.0274353542868 0.00297953462041 4.04791208709e-22)
(0.0262728508402 0.000988083121347 6.13693546314e-22)
)
;
    }
    procBoundary9to11
    {
        type            processor;
        value           nonuniform List<vector> 9((0.0346533258915 0.0233715593609 -6.55277086781e-23) (0.0349279756943 0.0260533659851 -2.65707905024e-22) (0.0353019542148 0.0289244564318 -1.10906626083e-21) (0.0359849090756 0.0318780399841 -4.0535202961e-21) (0.0365225795386 0.0365320745253 -5.32760136623e-21) (0.0347211581519 0.0358345641372 -1.18977154293e-20) (0.0386446935242 0.0360649922439 -1.59074990454e-20) (0.123197094078 0.0502505295219 -1.47424852907e-20) (-0.0336159729811 0.309956004575 -1.53543316487e-21));
    }
}


// ************************************************************************* //
