/*--------------------------------*- C++ -*----------------------------------*\
| =========                 |                                                 |
| \\      /  F ield         | OpenFOAM: The Open Source CFD Toolbox           |
|  \\    /   O peration     | Version:  v2012                                 |
|   \\  /    A nd           | Website:  www.openfoam.com                      |
|    \\/     M anipulation  |                                                 |
\*---------------------------------------------------------------------------*/
FoamFile
{
    version     2.0;
    format      ascii;
    class       surfaceVectorField;
    location    "4";
    object      Uf_0;
}
// * * * * * * * * * * * * * * * * * * * * * * * * * * * * * * * * * * * * * //

dimensions      [0 1 -1 0 0 0 0];


internalField   nonuniform List<vector> 
300
(
(0.0409797766269 0.00102397201865 -3.45893624291e-22)
(0.0410989564934 0.000603932515058 -4.60358000724e-22)
(0.0400223722866 0.00202838839215 -1.78557040957e-22)
(0.0398589354371 0.00165689462208 -2.30475874166e-22)
(0.0396806900358 0.00303571382752 -3.56230609263e-23)
(0.0391934735089 0.00272278777496 -1.04228553324e-22)
(0.0399141902693 0.00408177061242 3.46834730733e-23)
(0.039157581855 0.00383783229058 2.9320754765e-23)
(0.0405612910075 0.00520071022763 8.34256830623e-24)
(0.0396062357219 0.00499965872332 1.33757249645e-23)
(0.0414889436133 0.00642373902101 -2.99415532561e-24)
(0.0403646758222 0.00625256711072 -1.60785854573e-24)
(0.0426406497985 0.00778076784567 2.24487582098e-25)
(0.0413445368972 0.00762968010886 1.00357256795e-23)
(0.0440061719598 0.00930527846557 5.37590254126e-24)
(0.0425192176645 0.00916151891598 -2.36106183419e-24)
(0.0455955534985 0.0110360295136 9.0323148948e-24)
(0.0438918921493 0.0108865532421 2.18858141608e-23)
(0.0474312921543 0.013020193292 -1.04225366255e-23)
(0.0454718760677 0.0128513254043 2.86599815353e-23)
(0.0495488823636 0.0153146982016 -1.90262364731e-23)
(0.0472850679186 0.0151098457867 -2.00094982325e-23)
(0.0520057278695 0.0179885316213 -5.15666843154e-23)
(0.0493625006946 0.0177271569914 -2.1111261883e-23)
(0.0548991331125 0.021138585482 -1.03354757416e-22)
(0.0517723166648 0.02077876471 -1.55398332075e-22)
(0.0582891035811 0.0248552904202 -1.05708942813e-21)
(0.0546231284165 0.0243709058742 -4.46855439767e-22)
(0.0618464367643 0.0290635296085 -9.55917879507e-23)
(0.0580217368719 0.0283009749251 -1.8207696822e-21)
(0.0652539590012 0.0338525937848 -1.65079125931e-21)
(0.0612591247491 0.0345864645896 1.31293415397e-21)
(0.0693119468303 0.0392166937665 -8.94037146587e-21)
(0.0642567811262 0.0374828077589 -5.01227715558e-21)
(0.108214451682 0.0458294135648 -1.11701298225e-20)
(0.0680075010185 0.0436047113716 -1.35814659539e-20)
(0.125965385503 0.0512974287879 -1.47178468685e-20)
(0.141022336028 0.041855489153 -1.28307144907e-20)
(0.15193567634 0.0130885864383 -2.6178563206e-20)
(0.039886737727 0.00118482357905 -3.449402506e-22)
(0.0399149486321 0.00067636953958 -4.5765407017e-22)
(0.0389362635878 0.00234653652719 -1.56147386533e-22)
(0.0386982746817 0.00188552347705 -2.10958906815e-22)
(0.0385719856717 0.00351436086707 -3.92847376324e-23)
(0.0380268779656 0.00309741382337 -9.80795083191e-23)
(0.0387474020968 0.00472428007995 8.01300665623e-24)
(0.0379490481921 0.00436335567663 -1.67967864693e-23)
(0.0393029928242 0.00601123920487 3.42529811252e-24)
(0.0383207887321 0.00567824401168 -1.00509897382e-23)
(0.0401076681423 0.00740739833977 1.14220224594e-23)
(0.0389700857931 0.00708744124867 -3.06972816519e-24)
(0.0411026587579 0.00894766652702 7.45017626322e-24)
(0.039805780405 0.00862574389598 9.51384986297e-24)
(0.0422736319122 0.0106639888129 1.41488497854e-23)
(0.0408042081287 0.0103261508513 5.51214349122e-24)
(0.0436243598104 0.0126034773586 4.15134808013e-23)
(0.0419533773554 0.0122289899437 1.66041577092e-23)
(0.0451654444084 0.0148143921892 1.90730199283e-23)
(0.0432615015644 0.0143817268272 2.46748356157e-23)
(0.0469195475196 0.0173662486097 -2.20945236425e-23)
(0.0447333114657 0.0168444888947 -1.13464638276e-23)
(0.0489313428236 0.0203292961221 -1.24942909643e-22)
(0.0463992235337 0.0196878309435 -6.46109536683e-23)
(0.0512891998643 0.0237972075284 -4.98899014426e-22)
(0.048304063424 0.0229917605866 -2.93085736057e-22)
(0.054114278096 0.0278379183166 -1.21053569383e-21)
(0.0505822045821 0.0268895140827 -9.79901762417e-22)
(0.057261650539 0.032466960366 -4.12243740275e-22)
(0.0533927384214 0.0311611444261 -1.48244069479e-21)
(0.0604996094142 0.0370859960863 -2.0485517423e-21)
(0.0566403157416 0.0377432785946 -5.85805886927e-22)
(0.0645946887844 0.0410996342803 -9.65337164359e-21)
(0.0602433979967 0.0402009634522 -7.76534132718e-21)
(0.106451352534 0.0425357264511 -1.5242050622e-20)
(0.0665713187783 0.0452776600076 -1.34901550852e-20)
(0.183795586105 0.0303163561772 -2.42914308282e-20)
(0.153226209581 0.043736775105 -4.45126285399e-21)
(0.202585530736 -0.0038381120352 -1.67970431628e-20)
(0.0386425922836 0.00132192031301 -3.23672726385e-22)
(0.0385942330534 0.000737826859713 -4.6354102892e-22)
(0.037700243164 0.00262598452315 -1.528910286e-22)
(0.0373956322899 0.00208487348948 -2.21586701135e-22)
(0.0373126905343 0.00393330587086 -7.5591557156e-23)
(0.0367211219759 0.0034221841995 -1.43464180216e-22)
(0.0374274172504 0.00528252303371 -3.48607828638e-23)
(0.0366015048062 0.00481554213784 -6.07220634695e-23)
(0.0378873583497 0.00671155456835 -1.65460160159e-23)
(0.0368934942955 0.00625719710666 -3.21317261209e-23)
(0.0385644971141 0.00824866604804 -4.97790076161e-24)
(0.037434692603 0.0077948897862 -1.2217391309e-23)
(0.0393978077055 0.00993502792416 7.57581709097e-24)
(0.0381209967727 0.00946175038187 5.11836778542e-25)
(0.0403661294176 0.011803467367 7.96745141501e-24)
(0.0389370725289 0.0112902106468 3.47717939696e-24)
(0.0414645717014 0.0138998401245 -2.34487476454e-25)
(0.039857915909 0.0133216610778 1.49735253167e-23)
(0.0426948596725 0.0162692234706 -5.7446481402e-24)
(0.0408925842731 0.0156045828018 1.10732810902e-23)
(0.0440626469687 0.0189883598288 -5.38628938534e-23)
(0.0420142393321 0.0181963246267 -1.05875097475e-23)
(0.0455976413914 0.0221463206243 -2.32753780082e-22)
(0.0432410786663 0.0211705738123 -1.03648535128e-22)
(0.0473912166298 0.0258345448788 -7.74088484047e-22)
(0.0446156325163 0.0246128735662 -4.10666613545e-22)
(0.0496089326155 0.0301228343413 -1.25180676338e-21)
(0.0462938879881 0.0286670138568 -1.29676738951e-21)
(0.0524071018589 0.0350540251815 -1.65600284144e-21)
(0.048461755839 0.0331862117535 -2.20673093494e-21)
(0.0556862915582 0.0402057081099 -6.30259547181e-21)
(0.051488927124 0.040134653518 -8.62598633118e-22)
(0.0602063732095 0.0456729876003 -1.16021247687e-20)
(0.0547764024763 0.0428006923864 -1.13523401078e-20)
(0.105769992425 0.0516580567984 -2.69936731713e-21)
(0.0605851150421 0.0480322811821 -1.4856992701e-20)
(0.212028740629 0.0475960866759 3.04312481142e-21)
(0.157316218436 0.0553219295778 3.84685393113e-20)
(0.308894294413 0.180951812035 -1.74522804108e-20)
(0.0372695122648 0.00144233721527 -3.61455003671e-22)
(0.0371533879374 0.000785965345975 -4.84043081286e-22)
(0.0363355821654 0.00286555615719 -2.1215985275e-22)
(0.0359740861138 0.00225205615932 -2.54692788309e-22)
(0.0359269704341 0.00428925888608 -1.28594686529e-22)
(0.0352992036899 0.00369551392662 -2.17331860653e-22)
(0.0359821897058 0.00575309260026 -5.79930067266e-23)
(0.0351395249027 0.00519264168848 -9.18049402471e-23)
(0.0363477503662 0.00729429147869 -2.7803101414e-23)
(0.0353541654691 0.00673568718921 -4.27276064165e-23)
(0.0368970990037 0.00894890927231 -6.72765376886e-24)
(0.0357818704914 0.00837289555942 -9.84480935259e-24)
(0.0375667103159 0.0107426078118 -3.58680091547e-24)
(0.0363288874189 0.010134303714 5.26698098518e-24)
(0.0383309083773 0.0127151195624 1.04832532986e-23)
(0.0369658125603 0.0120512131335 -1.34569666997e-23)
(0.0391768484603 0.0149111835075 2.62812938833e-23)
(0.0376626559061 0.0141632282415 1.39203697267e-23)
(0.0400958491448 0.0173861206276 6.2304194829e-24)
(0.0384179817668 0.0165175199331 2.23689653282e-24)
(0.0410732686937 0.0201887770563 -6.03731510217e-23)
(0.0392115240411 0.0191581912136 -2.16737835405e-23)
(0.0421242004182 0.0234192700367 -2.81561368591e-22)
(0.0400103232147 0.0221642735138 -1.02541826426e-22)
(0.0433374521367 0.0271754103314 -9.33345519005e-22)
(0.0408592506586 0.0256216535205 -4.44130792588e-22)
(0.0448994194282 0.0315798754411 -2.25169156107e-21)
(0.0418893744133 0.0296409947646 -1.41045544483e-21)
(0.0471042078506 0.0366907355821 -1.41332672661e-21)
(0.0433510554549 0.0341036279381 -3.40404117067e-21)
(0.0497630389369 0.0423736421839 -5.91234326911e-21)
(0.0458062224951 0.0411000709825 1.30045401347e-21)
(0.0533561693901 0.0495843299425 -1.46072080401e-20)
(0.047565824684 0.0437130651146 -1.39845634668e-20)
(0.100448127764 0.0594700082302 2.63109139274e-20)
(0.0506971187864 0.048392083576 -1.94226088892e-20)
(0.0768814991149 0.085742634625 1.7973134089e-20)
(0.131139988652 0.0603998573211 1.84087788321e-20)
(-0.24903257309 0.17203983653 -2.6145794516e-20)
(0.035784818788 0.00154662498292 -3.77280865925e-22)
(0.0356083764638 0.000823820474963 -4.62631144034e-22)
(0.0348644674473 0.00306563658386 -2.59864796212e-22)
(0.0344568281883 0.00238951811746 -2.53918615552e-22)
(0.0344375779637 0.00458263705622 -1.80542114371e-22)
(0.033784043408 0.00391815393652 -2.17161183211e-22)
(0.034436096062 0.00613724341238 -7.6539539937e-23)
(0.0335867967574 0.00549578072574 -7.41412510023e-23)
(0.034710323716 0.0077658725096 -2.47693143551e-23)
(0.0337274018054 0.00711550943206 -3.49107227422e-23)
(0.0351355011033 0.00949944698776 2.14982540145e-24)
(0.0340500573814 0.00882399998977 -4.62455180056e-24)
(0.0356473296026 0.0113660217867 -4.60318479906e-24)
(0.034463831908 0.010648011189 3.71210315156e-24)
(0.0362160151317 0.013404671876 -1.00198502717e-23)
(0.0349283040365 0.0126161612669 -1.09084961947e-23)
(0.0368193105157 0.0156490333974 -1.01240276238e-23)
(0.0354189468138 0.0147616104065 -4.92389504876e-24)
(0.0374295677665 0.0181567453014 -2.56673064906e-23)
(0.0359104199625 0.017120641337 -1.62137164599e-23)
(0.0380361791137 0.0209339640772 -6.38424589444e-23)
(0.0364340449227 0.0197466295573 -5.36701110358e-23)
(0.0386395041439 0.0241469780979 -2.65111250423e-22)
(0.0367968427525 0.0227017651801 -8.39515134862e-23)
(0.0392740183785 0.027831474073 -9.21240718408e-22)
(0.0371743005424 0.0260175825066 -3.46613559631e-22)
(0.0401946649526 0.0320219374663 -2.56280505442e-21)
(0.0376986216801 0.0298284596181 -1.11137802135e-21)
(0.0417471251898 0.0369095446483 -6.90260430584e-22)
(0.0384633463639 0.0339426262476 -3.18307594796e-21)
(0.0432781958385 0.0426265175474 -6.77176618422e-21)
(0.0400892179024 0.0404518085356 8.80947266536e-22)
(0.0453315584751 0.0498175458515 -1.87999643159e-20)
(0.0403748245413 0.0424149141481 -1.04211283246e-20)
(0.0869123032305 0.0575375011021 -2.73247439845e-20)
(0.042975684344 0.0459764955201 -1.66521874653e-20)
(-0.0300788381382 0.0608669858459 -2.57101497729e-20)
(0.127852999954 0.0569264817946 -2.24583089173e-20)
(-0.0808823954632 -0.0111346365019 -1.5332280868e-20)
(0.0342119983491 0.00163170862491 -3.39268893661e-22)
(0.0339782361206 0.000851158562682 -3.29796436457e-22)
(0.0333087624511 0.00322295103985 -2.11215002551e-22)
(0.0328672591329 0.00249830643249 -1.27692660061e-22)
(0.0328661663395 0.00481397568178 -1.10760319842e-22)
(0.0321947504198 0.00409177249711 -7.05465923469e-23)
(0.0328117324929 0.00643892259146 -3.25124338075e-23)
(0.0319637135401 0.0057283800031 6.35967529647e-24)
(0.0330011137875 0.00812662945249 -1.47659601876e-23)
(0.0320415687888 0.00740289319567 -8.04978094879e-24)
(0.0333121889245 0.00991331122869 -3.06227405045e-24)
(0.0322651848542 0.00915820839733 -3.69054214217e-24)
(0.0336801305702 0.011822391847 -2.5932082441e-24)
(0.032556297414 0.0110167348381 -2.71728401047e-24)
(0.0340696776811 0.0138810624112 -5.81254097183e-24)
(0.0328707737406 0.0130012495604 1.49238114315e-24)
(0.0344503243172 0.0161224316952 -1.10135838848e-23)
(0.0331781160331 0.0151367103347 3.42405688485e-24)
(0.034794706808 0.0185635873722 -4.42165210051e-23)
(0.0334691615632 0.0174575605174 2.47818178011e-25)
(0.0350813965741 0.0213325170951 -7.37791655776e-23)
(0.033664415123 0.020014341383 -5.89341101008e-23)
(0.0352777026247 0.0243803501513 -1.65453822694e-22)
(0.0337479474567 0.022825908642 -7.54766807363e-23)
(0.0354340708558 0.0277412858149 -5.3675086257e-22)
(0.0338121759917 0.0259065566874 -2.39828747939e-22)
(0.0358399671075 0.0316966274925 -1.73164891488e-21)
(0.0337422039115 0.0293957395955 -7.97654871037e-22)
(0.0368043593789 0.0360410742334 -1.61186825084e-21)
(0.0341180891748 0.0329948319305 -2.48719086558e-21)
(0.0372110217561 0.0410670441196 -2.7684148738e-21)
(0.0350627278566 0.038724912852 -8.0555447069e-22)
(0.0382250105691 0.0476016022895 -8.27335147393e-21)
(0.033840136249 0.039773579074 -3.51508583248e-21)
(0.0827786902946 0.0546117558172 -1.17857523982e-20)
(0.035964046456 0.0421502065803 -1.12151586419e-20)
(0.0386366711194 0.0537272754538 -1.20804400124e-20)
(0.12874378442 0.0515343414253 -1.18906890899e-20)
(0.00159226980232 0.0130295396279 -1.13890318814e-21)
(0.0325753410881 0.00169044900325 -1.18220202857e-22)
(0.0322891853869 0.000866786461537 -1.62258611863e-22)
(0.0316910793007 0.0033442319256 1.29757501433e-23)
(0.0312149601258 0.00257860655794 7.27881876043e-23)
(0.0312356481713 0.00498704895756 4.65734027919e-23)
(0.0305538217633 0.00421894999145 8.31701033682e-23)
(0.0311346061213 0.00665820199708 3.08223281552e-23)
(0.0302944537368 0.00589694200476 6.25672063966e-23)
(0.0312480018342 0.00839024349252 3.02563709669e-24)
(0.0303115741852 0.0076070242808 -2.4956954603e-24)
(0.0314561836725 0.0102044468458 -3.34555210219e-24)
(0.0304528828171 0.00938699111055 -7.29401861339e-24)
(0.0316965913225 0.0121255303417 1.36830537679e-24)
(0.030636941555 0.0112567498179 -3.15003334369e-24)
(0.0319285745888 0.0141728016179 1.07289789998e-23)
(0.0308245940562 0.0132279045222 1.06113057131e-23)
(0.0321261171619 0.0163639571433 1.46854589477e-23)
(0.0309873143981 0.0153283356925 3.32487851489e-23)
(0.0322659728336 0.0187635350449 -1.44697709176e-23)
(0.0310689175564 0.0175894596846 1.77921332965e-23)
(0.0322932940241 0.0213612785247 -6.06316252595e-23)
(0.0310649451299 0.0200222797276 -3.07087675676e-23)
(0.0321808871081 0.0241591404203 -1.49851605982e-22)
(0.0309475900096 0.0226386077329 -7.97783062111e-23)
(0.0320123876694 0.0273122275685 -5.00732756406e-22)
(0.0306566007864 0.0254562281399 -2.36403494782e-22)
(0.0320011600053 0.0307211711983 -1.55319682173e-21)
(0.0303311096434 0.0285279049488 -8.78660953187e-22)
(0.0323854411787 0.0343750768185 -1.68087708543e-21)
(0.0304625196789 0.0316076514725 -2.56268119887e-21)
(0.0318458725264 0.0388534211295 -1.55222542936e-21)
(0.0305834717368 0.0366150511521 -4.71541028996e-21)
(0.0320316559495 0.0443471898017 -6.45689300048e-21)
(0.0283460318255 0.0366855201396 -6.55872402345e-21)
(0.0791067981927 0.0496852328039 -1.13200953336e-20)
(0.0306265066385 0.0380118063934 -1.09863388322e-20)
(0.0879275401969 0.0469146342047 -9.49152265593e-22)
(0.131518807561 0.0464384327158 -1.06745634238e-20)
(0.0373346273341 0.0799388897278 4.7196247556e-21)
(0.0308851936235 0.00173467987165 2.8749778598e-23)
(0.0305557523643 0.000879280485057 -7.23613726812e-23)
(0.0300270067735 0.00342686118572 1.42982540829e-22)
(0.0295244595653 0.00263733254889 1.70341366645e-22)
(0.0295635941755 0.00510775041797 9.91639069729e-23)
(0.0288745384606 0.00430532717879 1.07394084083e-22)
(0.029423524855 0.00680955640644 2.92491827811e-23)
(0.0294699853449 0.00856072508607 -1.28153511704e-23)
(0.0295872404107 0.0103852756166 -7.09849985489e-24)
(0.0297130038294 0.0123005765246 6.09296699263e-24)
(0.0298182440127 0.0142958562088 3.31311118622e-23)
(0.0298778865758 0.016454936163 3.63554594977e-23)
(0.0298519786825 0.0187375798107 1.55313664657e-24)
(0.0296929992141 0.0211564798534 -4.98554485191e-23)
(0.0293964739221 0.0237623028575 -1.66330195012e-22)
(0.0290178519804 0.0265174638685 -6.14331691563e-22)
(0.0287332715481 0.0293903105803 -1.88814533033e-21)
(0.0286174191854 0.0326672460454 -5.5972144034e-21)
(0.0272256296606 0.0365166474551 -9.72190888405e-21)
(0.0267296539354 0.0411607972011 -1.10881698552e-20)
(0.0716272914212 0.0464224244661 -1.03408069224e-20)
(0.0685474300736 0.0736360900744 -5.00578640257e-21)
(0.0291568008258 0.00175926725603 6.92302153656e-23)
(0.0287976848379 0.000887907935792 -3.17714907537e-23)
(0.0283276738205 0.00348237925038 1.34752909899e-22)
(0.0270171936683 0.000886503124453 5.37213422923e-23)
(0.0252206104772 0.000882696333831 1.96006780302e-22)
)
;

boundaryField
{
    back
    {
        type            calculated;
        value           uniform (0 0 0);
    }
    sides
    {
        type            calculated;
        value           nonuniform List<vector> 0();
    }
    bottom
    {
        type            calculated;
        value           uniform (0 0 0);
    }
    front
    {
        type            calculated;
        value           uniform (0 0 0);
    }
    atmosphere
    {
        type            calculated;
        value           nonuniform List<vector> 8((0 -0.0106012068737 0) (0 -0.0202824188812 0) (0 -0.0587834805536 0) (0.00846259098933 0.643544048918 -3.38036680726e-20) (0 -0.107336367929 0) (0 -0.0287221152222 0) (0.0507142851898 0.0111852532251 9.89883440029e-21) (0.0214334018107 0.129950892886 -4.59584889088e-22));
    }
    floatingObject
    {
        type            calculated;
        value           nonuniform List<vector> 0();
    }
    procBoundary9to6
    {
        type            processor;
        value           nonuniform List<vector> 4((0.0696209523302 0.0339582515667 -1.21992422677e-20) (0.0746204408243 0.0419647532148 -1.33022637416e-20) (0.146474039616 0.0436832870906 -3.49543145844e-20) (0.0900416360532 0.00455956287665 -4.65522603994e-20));
    }
    procBoundary9to7
    {
        type            processor;
        value           nonuniform List<vector> 
16
(
(0.0421224462636 0.000524351217658 -4.25432103021e-22)
(0.0408625734466 0.00140163148474 -2.33081754427e-22)
(0.0401997312672 0.00230096009417 -1.26511521762e-22)
(0.0402022513608 0.00324341341061 5.97623067289e-23)
(0.0407234646792 0.00422753786082 2.81450908179e-23)
(0.0415857417069 0.00529625682316 6.73111137296e-24)
(0.0426995074565 0.00647931283637 4.62655444825e-24)
(0.0440418022456 0.00780447103758 -5.59651783798e-24)
(0.0456211121017 0.00930654880885 1.99786651941e-23)
(0.0474551346351 0.0110255840551 1.3866251731e-23)
(0.0495794250026 0.0130081277123 -9.9664433346e-24)
(0.0520368961927 0.0153117304453 4.36265824584e-23)
(0.0549233938777 0.0180002236256 5.68549287936e-23)
(0.058340956663 0.0211691528924 1.94249198908e-22)
(0.0622308236584 0.0246308868979 -1.87368071042e-21)
(0.0660485208747 0.030544579897 1.98608072143e-21)
)
;
    }
    procBoundary9to10
    {
        type            processor;
        value           nonuniform List<vector> 
15
(
(0.0285946018873 0.00600985415938 5.36541151924e-23)
(0.0285622820811 0.00773744581316 -1.77747946752e-23)
(0.0286302940513 0.00952248266693 -1.18053142962e-23)
(0.0287231983892 0.0113813276246 5.20625994762e-26)
(0.0288303675022 0.0133274986471 1.70436416115e-23)
(0.0288282696668 0.0153808239021 4.5154947696e-23)
(0.0287848237444 0.0175528577583 1.4943699404e-23)
(0.0286432469007 0.0198406924866 -1.4218734373e-23)
(0.0278023633159 0.00267590095492 1.80716086597e-22)
(0.0278640808523 0.00518697339785 6.18842923027e-23)
(0.027171357534 0.00435959876568 4.27118828413e-23)
(0.0274048751858 0.00178110504365 7.9714380478e-23)
(0.0256429833129 0.00179591381364 1.47175203563e-22)
(0.0238797283658 0.00178849692902 3.37412554177e-22)
(0.0234319081862 0.000877913302339 4.42211156798e-22)
)
;
    }
    procBoundary9to11
    {
        type            processor;
        value           nonuniform List<vector> 9((0.0283382717338 0.0222634147632 -7.47320431993e-23) (0.0278981557701 0.0248061777802 -2.59853943819e-22) (0.0274553920096 0.0274993716647 -1.05351116303e-21) (0.0271835666507 0.0302085441806 -3.39512703722e-21) (0.0267328817178 0.0346159406748 -6.86594098317e-21) (0.023701481815 0.033636526393 -1.14991194611e-20) (0.0253665265732 0.0341339157662 -1.36961248201e-20) (0.104332511785 0.0456931770092 -1.4702333333e-20) (-0.0189953271751 0.140022037173 8.49057300079e-21));
    }
}


// ************************************************************************* //
