/*--------------------------------*- C++ -*----------------------------------*\
| =========                 |                                                 |
| \\      /  F ield         | OpenFOAM: The Open Source CFD Toolbox           |
|  \\    /   O peration     | Version:  v2012                                 |
|   \\  /    A nd           | Website:  www.openfoam.com                      |
|    \\/     M anipulation  |                                                 |
\*---------------------------------------------------------------------------*/
FoamFile
{
    version     2.0;
    format      ascii;
    class       volScalarField;
    location    "1";
    object      p;
}
// * * * * * * * * * * * * * * * * * * * * * * * * * * * * * * * * * * * * * //

dimensions      [1 -1 -2 0 0 0 0];


internalField   nonuniform List<scalar> 
164
(
4806.99400546
4313.38614525
3819.06503818
3323.91939963
2827.80037737
2330.54083283
1831.9609373
1331.93361739
830.164598958
339.357274707
46.5051867727
-9.56217021413
4812.04783135
4318.73476208
3824.76671654
3330.04668709
2834.40004128
2337.66221458
1839.62547206
1340.16198273
840.146674498
347.84304468
49.690331711
-9.56189307217
3831.14082443
3337.00151221
2841.96815098
2345.9443543
1848.67404597
1349.71115132
852.221641992
358.363253745
53.872964477
-9.57112099901
3838.19569292
3344.63268315
2850.3724644
2355.30067801
1859.2369486
1361.86813165
863.603600586
370.89521077
59.3108779532
-9.56197169916
3845.73213455
3352.86494688
2859.48162698
2365.5113837
1870.84996498
1375.26685765
878.917302996
387.009658573
66.590115786
-9.55489308267
3853.63371788
3361.51746485
2869.07070953
2376.28822599
1883.17375971
1389.69386101
896.180479878
405.611184517
75.4037830678
-9.62682694753
3861.76353357
3370.40366272
2878.8900745
2387.28109945
1895.69754521
1404.34651315
913.941013182
425.533794517
85.7047567557
-9.86729148427
3869.98353309
3379.34494339
2888.6969415
2398.13848122
1907.85986636
1418.20111568
930.084168843
444.700979069
98.0497423106
-10.7703825182
3878.16893579
3388.18916728
2898.29992528
2408.6026485
1919.27412892
1430.58812947
943.200252207
458.012081574
105.467575163
-13.393912282
3886.21581997
3396.82426155
2907.5837233
2418.56755305
1929.87625274
1441.5982377
954.0951964
467.059346371
97.01444861
-20.2755153068
3894.04012146
3405.17354107
2916.49858015
2428.0552574
1939.86228929
1451.76151177
963.311646695
476.103100846
-23.9487792621
-61.5184053656
3901.56846734
3413.17628572
2925.01740564
2437.11909982
1949.53433039
1462.46192436
977.050671832
499.095751744
125.605427883
-21.7442936318
3908.72715304
3420.76551955
2933.08887931
2445.71226389
1958.63940549
1471.78132545
984.518973514
494.011911874
114.16298699
-20.1686805778
3915.43429848
3427.85647235
2940.63113075
2453.75703429
1967.10069346
1480.19060639
992.239737837
501.62640402
89.8048157395
-33.4609590252
3921.59610939
3434.3406759
2947.53612556
2461.25319903
1975.41621249
1489.23956796
1000.23427714
516.738818718
-91.2418640978
-111.748879852
3927.1075547
3440.07612787
2953.60656122
2467.95916826
1983.79655063
1502.56216487
1026.62581138
573.694826383
195.202837863
-26.0212701541
)
;

boundaryField
{
    back
    {
        type            calculated;
        value           nonuniform List<scalar> 
164
(
4806.99400546
4313.38614525
3819.06503818
3323.91939963
2827.80037737
2330.54083283
1831.9609373
1331.93361739
830.164598958
339.357274707
46.5051867727
-9.56217021413
4812.04783135
4318.73476208
3824.76671654
3330.04668709
2834.40004128
2337.66221458
1839.62547206
1340.16198273
840.146674498
347.84304468
49.690331711
-9.56189307217
3831.14082443
3337.00151221
2841.96815098
2345.9443543
1848.67404597
1349.71115132
852.221641992
358.363253745
53.872964477
-9.57112099901
3838.19569292
3344.63268315
2850.3724644
2355.30067801
1859.2369486
1361.86813165
863.603600586
370.89521077
59.3108779532
-9.56197169916
3845.73213455
3352.86494688
2859.48162698
2365.5113837
1870.84996498
1375.26685765
878.917302996
387.009658573
66.590115786
-9.55489308267
3853.63371788
3361.51746485
2869.07070953
2376.28822599
1883.17375971
1389.69386101
896.180479878
405.611184517
75.4037830678
-9.62682694753
3861.76353357
3370.40366272
2878.8900745
2387.28109945
1895.69754521
1404.34651315
913.941013182
425.533794517
85.7047567557
-9.86729148427
3869.98353309
3379.34494339
2888.6969415
2398.13848122
1907.85986636
1418.20111568
930.084168843
444.700979069
98.0497423106
-10.7703825182
3878.16893579
3388.18916728
2898.29992528
2408.6026485
1919.27412892
1430.58812947
943.200252207
458.012081574
105.467575163
-13.393912282
3886.21581997
3396.82426155
2907.5837233
2418.56755305
1929.87625274
1441.5982377
954.0951964
467.059346371
97.01444861
-20.2755153068
3894.04012146
3405.17354107
2916.49858015
2428.0552574
1939.86228929
1451.76151177
963.311646695
476.103100846
-23.9487792621
-61.5184053656
3901.56846734
3413.17628572
2925.01740564
2437.11909982
1949.53433039
1462.46192436
977.050671832
499.095751744
125.605427883
-21.7442936318
3908.72715304
3420.76551955
2933.08887931
2445.71226389
1958.63940549
1471.78132545
984.518973514
494.011911874
114.16298699
-20.1686805778
3915.43429848
3427.85647235
2940.63113075
2453.75703429
1967.10069346
1480.19060639
992.239737837
501.62640402
89.8048157395
-33.4609590252
3921.59610939
3434.3406759
2947.53612556
2461.25319903
1975.41621249
1489.23956796
1000.23427714
516.738818718
-91.2418640978
-111.748879852
3927.1075547
3440.07612787
2953.60656122
2467.95916826
1983.79655063
1502.56216487
1026.62581138
573.694826383
195.202837863
-26.0212701541
)
;
    }
    sides
    {
        type            calculated;
        value           nonuniform List<scalar> 0();
    }
    bottom
    {
        type            calculated;
        value           nonuniform List<scalar> 0();
    }
    front
    {
        type            calculated;
        value           nonuniform List<scalar> 
164
(
4806.99400546
4313.38614525
3819.06503818
3323.91939963
2827.80037737
2330.54083283
1831.9609373
1331.93361739
830.164598958
339.357274707
46.5051867727
-9.56217021413
4812.04783135
4318.73476208
3824.76671654
3330.04668709
2834.40004128
2337.66221458
1839.62547206
1340.16198273
840.146674498
347.84304468
49.690331711
-9.56189307217
3831.14082443
3337.00151221
2841.96815098
2345.9443543
1848.67404597
1349.71115132
852.221641992
358.363253745
53.872964477
-9.57112099901
3838.19569292
3344.63268315
2850.3724644
2355.30067801
1859.2369486
1361.86813165
863.603600586
370.89521077
59.3108779532
-9.56197169916
3845.73213455
3352.86494688
2859.48162698
2365.5113837
1870.84996498
1375.26685765
878.917302996
387.009658573
66.590115786
-9.55489308267
3853.63371788
3361.51746485
2869.07070953
2376.28822599
1883.17375971
1389.69386101
896.180479878
405.611184517
75.4037830678
-9.62682694753
3861.76353357
3370.40366272
2878.8900745
2387.28109945
1895.69754521
1404.34651315
913.941013182
425.533794517
85.7047567557
-9.86729148427
3869.98353309
3379.34494339
2888.6969415
2398.13848122
1907.85986636
1418.20111568
930.084168843
444.700979069
98.0497423106
-10.7703825182
3878.16893579
3388.18916728
2898.29992528
2408.6026485
1919.27412892
1430.58812947
943.200252207
458.012081574
105.467575163
-13.393912282
3886.21581997
3396.82426155
2907.5837233
2418.56755305
1929.87625274
1441.5982377
954.0951964
467.059346371
97.01444861
-20.2755153068
3894.04012146
3405.17354107
2916.49858015
2428.0552574
1939.86228929
1451.76151177
963.311646695
476.103100846
-23.9487792621
-61.5184053656
3901.56846734
3413.17628572
2925.01740564
2437.11909982
1949.53433039
1462.46192436
977.050671832
499.095751744
125.605427883
-21.7442936318
3908.72715304
3420.76551955
2933.08887931
2445.71226389
1958.63940549
1471.78132545
984.518973514
494.011911874
114.16298699
-20.1686805778
3915.43429848
3427.85647235
2940.63113075
2453.75703429
1967.10069346
1480.19060639
992.239737837
501.62640402
89.8048157395
-33.4609590252
3921.59610939
3434.3406759
2947.53612556
2461.25319903
1975.41621249
1489.23956796
1000.23427714
516.738818718
-91.2418640978
-111.748879852
3927.1075547
3440.07612787
2953.60656122
2467.95916826
1983.79655063
1502.56216487
1026.62581138
573.694826383
195.202837863
-26.0212701541
)
;
    }
    atmosphere
    {
        type            calculated;
        value           nonuniform List<scalar> 
16
(
-9.81034373292
-9.81007627512
-9.81000077008
-9.81
-9.81
-9.84329757022
-9.81011278695
-9.8111570874
-9.83288298973
-9.97001141248
-465.938746139
-9.98310992755
-10.002962272
-10.068618234
-1871.67552632
-9.82078595831
)
;
    }
    floatingObject
    {
        type            calculated;
        value           nonuniform List<scalar> 0();
    }
    procBoundary5to0
    {
        type            processor;
        value           nonuniform List<scalar> 
12
(
4802.51480914
4308.68482507
3814.10535801
3318.663371
2822.21927473
2324.61184047
1825.66786368
1325.19864819
822.490204055
333.060586248
44.2859064487
-9.56773133543
)
;
    }
    procBoundary5to3
    {
        type            processor;
        value           nonuniform List<scalar> 10(3931.85069895 3444.8958937 2958.56824202 2473.19533988 1989.3235919 1507.71391405 1026.98820291 543.308137793 137.388470232 -18.3333538908);
    }
    procBoundary5to4
    {
        type            processor;
        value           nonuniform List<scalar> 
18
(
5299.97466097
5304.77907933
4817.63438914
4324.67287255
4324.67287255
4331.19815364
4338.15259556
4345.43800098
4352.94415161
4360.55901526
4368.17723753
4375.70442596
4383.05741049
4390.16035169
4396.93927778
4403.3179783
4409.21716684
4414.55246811
)
;
    }
}


// ************************************************************************* //
