/*--------------------------------*- C++ -*----------------------------------*\
| =========                 |                                                 |
| \\      /  F ield         | OpenFOAM: The Open Source CFD Toolbox           |
|  \\    /   O peration     | Version:  v2012                                 |
|   \\  /    A nd           | Website:  www.openfoam.com                      |
|    \\/     M anipulation  |                                                 |
\*---------------------------------------------------------------------------*/
FoamFile
{
    version     2.0;
    format      ascii;
    class       volScalarField;
    location    "1";
    object      p_rgh;
}
// * * * * * * * * * * * * * * * * * * * * * * * * * * * * * * * * * * * * * //

dimensions      [1 -1 -2 0 0 0 0];


internalField   nonuniform List<scalar> 
164
(
8968.74022659
8964.74986981
8960.04647326
8954.51866863
8948.01736805
8940.37483935
8931.40921727
8920.99866741
8908.84675257
8299.83776755
2108.30993962
0.00257978587274
8973.79374278
8970.09831921
8965.74793723
8960.64566654
8954.61670839
8947.49591581
8939.07424634
8929.22703273
8918.8288245
8366.44561591
2229.5810105
0.00285692783467
8972.12232327
8967.60044671
8962.18480071
8955.77810438
8948.12345691
8938.77620132
8930.90379199
8447.23731984
2389.964721
-0.006370999009
8979.17742525
8975.23174956
8970.58930176
8965.13469197
8958.68687495
8950.93349627
8942.28575059
8546.57354881
2594.56574187
0.00277830084476
8986.71408518
8983.46423033
8979.69873803
8975.34573133
8970.30034903
8964.33306122
8957.599453
8667.51395485
2869.42350337
0.0098569173335
8994.6158723
8992.11698216
8989.28809627
8986.12288861
8982.62445576
8978.76052714
8974.86265363
8800.25132068
3208.60812412
-0.029611816565
9002.74586303
9001.00338625
8999.10768036
8997.11600012
8995.14844001
8993.41357768
8992.62367056
8947.74459181
3611.14503541
-0.235739607764
9010.96599962
9009.94482361
9008.91467688
9007.97350854
9007.31087362
9007.26835092
9008.76717401
9013.00022907
4109.28805897
5.16891735507
9019.15150261
9018.78915192
9018.51769246
9018.43768227
9018.72514019
9019.65534531
9021.88344792
9026.31133157
4494.95614148
9.66085558753
9027.19845704
9027.42430779
9027.80143587
9028.40248134
9029.32718882
9030.66538564
9032.77842353
9035.35859637
4565.9840185
-10.7107653068
9035.02280608
9035.773619
9036.71617278
9037.8899803
9039.31308914
9040.8285504
9041.99475337
9044.40235085
7103.25302522
392.77187212
9042.55118973
9043.7763781
9045.23483599
9046.95352604
9048.98489199
9051.52869751
9055.7335494
9067.39500174
5715.06301792
-12.1795436318
9049.70994267
9051.36563388
9053.3061332
9055.54633126
9058.08959071
9060.84758525
9063.20146763
9062.31118359
5222.32538425
-10.6039305778
9056.41757411
9058.45707922
9060.84863255
9063.59098396
9066.55022913
9069.25581284
9070.92113976
9069.92565402
5341.93234966
-23.8962090252
9062.58071704
9064.94211906
9067.75414895
9071.08671927
9074.86466655
9078.30273351
9078.91382133
9085.03806758
8890.73574886
1713.13475831
9068.09316921
9070.67841171
9073.82477211
9077.79238242
9083.24364345
9091.6237625
9105.30406534
9141.99407283
8492.65929623
45.4374406472
)
;

boundaryField
{
    back
    {
        type            fixedFluxPressure;
        gradient        uniform 0;
        value           nonuniform List<scalar> 
164
(
8968.74022659
8964.74986981
8960.04647326
8954.51866863
8948.01736805
8940.37483935
8931.40921727
8920.99866741
8908.84675257
8299.83776755
2108.30993962
0.00257978587274
8973.79374278
8970.09831921
8965.74793723
8960.64566654
8954.61670839
8947.49591581
8939.07424634
8929.22703273
8918.8288245
8366.44561591
2229.5810105
0.00285692783467
8972.12232327
8967.60044671
8962.18480071
8955.77810438
8948.12345691
8938.77620132
8930.90379199
8447.23731984
2389.964721
-0.006370999009
8979.17742525
8975.23174956
8970.58930176
8965.13469197
8958.68687495
8950.93349627
8942.28575059
8546.57354881
2594.56574187
0.00277830084476
8986.71408518
8983.46423033
8979.69873803
8975.34573133
8970.30034903
8964.33306122
8957.599453
8667.51395485
2869.42350337
0.0098569173335
8994.6158723
8992.11698216
8989.28809627
8986.12288861
8982.62445576
8978.76052714
8974.86265363
8800.25132068
3208.60812412
-0.029611816565
9002.74586303
9001.00338625
8999.10768036
8997.11600012
8995.14844001
8993.41357768
8992.62367056
8947.74459181
3611.14503541
-0.235739607764
9010.96599962
9009.94482361
9008.91467688
9007.97350854
9007.31087362
9007.26835092
9008.76717401
9013.00022907
4109.28805897
5.16891735507
9019.15150261
9018.78915192
9018.51769246
9018.43768227
9018.72514019
9019.65534531
9021.88344792
9026.31133157
4494.95614148
9.66085558753
9027.19845704
9027.42430779
9027.80143587
9028.40248134
9029.32718882
9030.66538564
9032.77842353
9035.35859637
4565.9840185
-10.7107653068
9035.02280608
9035.773619
9036.71617278
9037.8899803
9039.31308914
9040.8285504
9041.99475337
9044.40235085
7103.25302522
392.77187212
9042.55118973
9043.7763781
9045.23483599
9046.95352604
9048.98489199
9051.52869751
9055.7335494
9067.39500174
5715.06301792
-12.1795436318
9049.70994267
9051.36563388
9053.3061332
9055.54633126
9058.08959071
9060.84758525
9063.20146763
9062.31118359
5222.32538425
-10.6039305778
9056.41757411
9058.45707922
9060.84863255
9063.59098396
9066.55022913
9069.25581284
9070.92113976
9069.92565402
5341.93234966
-23.8962090252
9062.58071704
9064.94211906
9067.75414895
9071.08671927
9074.86466655
9078.30273351
9078.91382133
9085.03806758
8890.73574886
1713.13475831
9068.09316921
9070.67841171
9073.82477211
9077.79238242
9083.24364345
9091.6237625
9105.30406534
9141.99407283
8492.65929623
45.4374406472
)
;
    }
    sides
    {
        type            fixedFluxPressure;
        gradient        nonuniform List<scalar> 0();
        value           nonuniform List<scalar> 0();
    }
    bottom
    {
        type            fixedFluxPressure;
        gradient        nonuniform List<scalar> 0();
        value           nonuniform List<scalar> 0();
    }
    front
    {
        type            fixedFluxPressure;
        gradient        uniform 0;
        value           nonuniform List<scalar> 
164
(
8968.74022659
8964.74986981
8960.04647326
8954.51866863
8948.01736805
8940.37483935
8931.40921727
8920.99866741
8908.84675257
8299.83776755
2108.30993962
0.00257978587274
8973.79374278
8970.09831921
8965.74793723
8960.64566654
8954.61670839
8947.49591581
8939.07424634
8929.22703273
8918.8288245
8366.44561591
2229.5810105
0.00285692783467
8972.12232327
8967.60044671
8962.18480071
8955.77810438
8948.12345691
8938.77620132
8930.90379199
8447.23731984
2389.964721
-0.006370999009
8979.17742525
8975.23174956
8970.58930176
8965.13469197
8958.68687495
8950.93349627
8942.28575059
8546.57354881
2594.56574187
0.00277830084476
8986.71408518
8983.46423033
8979.69873803
8975.34573133
8970.30034903
8964.33306122
8957.599453
8667.51395485
2869.42350337
0.0098569173335
8994.6158723
8992.11698216
8989.28809627
8986.12288861
8982.62445576
8978.76052714
8974.86265363
8800.25132068
3208.60812412
-0.029611816565
9002.74586303
9001.00338625
8999.10768036
8997.11600012
8995.14844001
8993.41357768
8992.62367056
8947.74459181
3611.14503541
-0.235739607764
9010.96599962
9009.94482361
9008.91467688
9007.97350854
9007.31087362
9007.26835092
9008.76717401
9013.00022907
4109.28805897
5.16891735507
9019.15150261
9018.78915192
9018.51769246
9018.43768227
9018.72514019
9019.65534531
9021.88344792
9026.31133157
4494.95614148
9.66085558753
9027.19845704
9027.42430779
9027.80143587
9028.40248134
9029.32718882
9030.66538564
9032.77842353
9035.35859637
4565.9840185
-10.7107653068
9035.02280608
9035.773619
9036.71617278
9037.8899803
9039.31308914
9040.8285504
9041.99475337
9044.40235085
7103.25302522
392.77187212
9042.55118973
9043.7763781
9045.23483599
9046.95352604
9048.98489199
9051.52869751
9055.7335494
9067.39500174
5715.06301792
-12.1795436318
9049.70994267
9051.36563388
9053.3061332
9055.54633126
9058.08959071
9060.84758525
9063.20146763
9062.31118359
5222.32538425
-10.6039305778
9056.41757411
9058.45707922
9060.84863255
9063.59098396
9066.55022913
9069.25581284
9070.92113976
9069.92565402
5341.93234966
-23.8962090252
9062.58071704
9064.94211906
9067.75414895
9071.08671927
9074.86466655
9078.30273351
9078.91382133
9085.03806758
8890.73574886
1713.13475831
9068.09316921
9070.67841171
9073.82477211
9077.79238242
9083.24364345
9091.6237625
9105.30406534
9141.99407283
8492.65929623
45.4374406472
)
;
    }
    atmosphere
    {
        type            totalPressure;
        rho             rho;
        psi             none;
        gamma           1;
        p0              uniform 0;
        value           nonuniform List<scalar> 
16
(
-0.00034373291999
-7.62751173981e-05
-7.70076908524e-07
0
0
0
-0.000112786948555
-0.00115708740408
-0.0228829897295
-0.160011412476
0
-0.173109927546
-0.19296227197
-0.258618233968
0
-0.0107859583054
)
;
    }
    floatingObject
    {
        type            fixedFluxPressure;
        gradient        nonuniform List<scalar> 0();
        value           nonuniform List<scalar> 0();
    }
    procBoundary5to0
    {
        type            processor;
        value           nonuniform List<scalar> 
12
(
8964.26084336
8960.04833473
8955.08644691
8949.26210719
8942.43549222
8934.44482639
8925.11581368
8914.26370855
8901.17236461
8250.61674517
2024.48302045
-0.00298133542643
)
;
    }
    procBoundary5to3
    {
        type            processor;
        value           nonuniform List<scalar> 10(9072.83733937 9075.49983408 9078.78778635 9083.02838278 9088.76930713 9096.77131322 9105.6629506 9111.60734696 6167.07322773 -8.76860389083);
    }
    procBoundary5to4
    {
        type            processor;
        value           nonuniform List<scalar> 
18
(
8972.10327558
8976.90738054
8979.38027187
8976.03666292
8976.03666292
8982.56185573
8989.51633598
8996.80183793
9004.30809208
9011.92304463
9019.54133872
9027.06858716
9034.42162551
9041.52462346
9048.30364121
9054.68272358
9060.58274446
9065.9186675
)
;
    }
}


// ************************************************************************* //
