/*--------------------------------*- C++ -*----------------------------------*\
| =========                 |                                                 |
| \\      /  F ield         | OpenFOAM: The Open Source CFD Toolbox           |
|  \\    /   O peration     | Version:  v2012                                 |
|   \\  /    A nd           | Website:  www.openfoam.com                      |
|    \\/     M anipulation  |                                                 |
\*---------------------------------------------------------------------------*/
FoamFile
{
    version     2.0;
    format      ascii;
    class       surfaceScalarField;
    location    "1";
    object      phi;
}
// * * * * * * * * * * * * * * * * * * * * * * * * * * * * * * * * * * * * * //

dimensions      [0 3 -1 0 0 0 0];
oriented        oriented;


internalField   nonuniform List<scalar> 
300
(
-4.78969735547e-05
0.000856041740142
-5.53806834415e-05
0.000882628633842
-6.34112859888e-05
0.000912445869541
-7.19779251077e-05
0.000945590245317
-8.10839230146e-05
0.000982266275172
-9.07748796532e-05
0.00102275221013
-0.00010121044828
0.00106714682134
-0.000112459514785
0.00111409305573
-0.000121854081183
0.00115692833518
-0.000133950465049
0.00118986528256
-0.000137219492738
0.00117717135669
0.00104004727146
-2.13121525947e-05
-2.55669343853e-05
-3.02763112428e-05
0.000917155357955
-3.53224982103e-05
0.000950636478924
-4.06180430808e-05
0.000987561809193
-4.61456784737e-05
0.00102827978862
-5.20864103278e-05
0.00107308746941
-5.9425781388e-05
0.00112143234183
-6.25214132504e-05
0.00116002391162
-6.92040915736e-05
0.00119654795012
-6.56738405601e-05
0.0011736400794
0.00105129283646
3.48208491766e-06
0.000918562047629
1.77676574412e-06
0.000952341840835
2.06818402713e-07
0.000989131721911
-1.131760142e-06
0.00102961827576
-1.75959144416e-06
0.0010737151806
-2.15283103119e-06
0.00112182546597
-6.66651062549e-06
0.00116453751811
-9.15358659541e-06
0.00119903501224
-2.93850137667e-07
0.00116477912275
0.00106507310963
3.71204748255e-05
0.000916769041341
3.89932915226e-05
0.000950469070614
4.07571978659e-05
0.000987367763059
4.32351293103e-05
0.00102714022339
4.68159763031e-05
0.00107013418178
5.31434315801e-05
0.00111549786898
5.6459378114e-05
0.00116122148352
6.46342559277e-05
0.00119086011713
8.57274424638e-05
0.00114368445275
0.00108445954621
7.07463360857e-05
0.00091200705024
7.53984319363e-05
0.000945817030557
8.04250686292e-05
0.000982341063032
8.61947964162e-05
0.00102137035326
9.36204862187e-05
0.00106270831649
0.000103766484802
0.00110535170923
0.000117785866123
0.00114720200521
0.000135191723276
0.00117345425252
0.000161082984059
0.00111778617786
0.00112036186544
0.000104495841235
0.00090446687643
0.000111859000681
0.000938453936727
0.000119369847094
0.000974830147678
0.000127532414539
0.00101320763024
0.000137287935271
0.00105295260619
0.000149934782217
0.00109270469027
0.000168339311981
0.00112879737109
0.000191151750583
0.00115064177818
0.0002165246824
0.0010924131689
0.00118307610397
0.000138448216463
0.000894275431478
0.0001481707977
0.000928731426238
0.000157679938777
0.000965320934709
0.000167346900203
0.00100354050762
0.000177739838768
0.00104255947384
0.000189930577519
0.00108051377805
0.000205561724013
0.00111316611999
0.000227740816897
0.00112846265441
0.000245747102014
0.00107440605732
0.0014556452191
0.000172840822293
0.000881596474826
0.000184708515767
0.000916863800682
0.000195821161289
0.000954208215525
0.000206307717982
0.00099305379156
0.000216293045988
0.00103257395855
0.00022513265998
0.00107167399986
0.000230762667169
0.00110753601349
0.000233872587189
0.00112535271646
0.00019380746206
0.00111446957786
0.00221215820335
0.000208057673604
0.000866409843582
0.000221987315771
0.000902934215351
0.000234582281549
0.000941613175914
0.000245743899258
0.000981892024702
0.000255221504572
0.00102309618425
0.000261918484509
0.0010649768768
0.000264352857992
0.00110510155673
0.000255546233351
0.00113415931611
-1.90985284033e-05
0.00138911462422
0.00396201821868
0.000244521939413
0.000848639683846
0.000260586189463
0.000886870005407
0.000274741327815
0.000927457967349
0.000286753924382
0.000969879299352
0.000296304237916
0.00101354573295
0.000301857300916
0.00105942370393
0.000296619472654
0.00111033932644
0.000270979985743
0.0011597988352
-0.000310495803354
0.00197058533343
0.00847985875562
0.00028268912388
0.000828087262131
0.000301074154084
0.000868484997521
0.000317009202726
0.000911522859074
0.000330212018988
0.000956676386569
0.000340988728834
0.00100276892979
0.000353785213093
0.0010466271554
0.000387584557029
0.00107653995582
0.000506121782162
0.00104126151969
0.00183226032974
0.000644448210662
-0.00475300516741
0.000323019227755
0.000804473674389
0.000343999531118
0.000847504703157
0.000361967960073
0.00089355439129
0.000376313466465
0.000942330829015
0.000385283843941
0.000993798516791
0.00038148726361
0.00105042372746
0.000333851191586
0.0011241760393
0.000157306511623
0.00121780631838
-0.000345645874342
0.00114738881007
-4.22630253425e-07
0.000366009981635
0.000777418812582
0.000389930528133
0.000823584162874
0.000410385994468
0.000873098920554
0.000426794173209
0.000925922658635
0.00043689410468
0.000983698619585
0.00043373728634
0.00105358059986
0.000417974540412
0.00113993883894
0.000383523138905
0.00125225775372
-0.000328233799771
0.00185914415588
0.00477749590752
0.000412155609171
0.000746478155509
0.000439354530263
0.000796385273539
0.000462761003373
0.00084969251753
0.000483388037726
0.000905295735804
0.000503666728716
0.000963420081984
0.000525681210926
0.00103156627185
0.000539909985481
0.00112571019247
0.000596050868238
0.00119611695172
-0.000322184980774
0.00277737807363
0.0106100639435
0.000462082724562
0.000711090993529
0.000492751789672
0.000765716326376
0.000518492067497
0.000823952427323
0.000541215243032
0.000882572837135
0.000573109743833
0.000931525870186
0.000647931547079
0.000956744755774
0.000845165501837
0.000928476425872
0.00126015905274
0.000781123481688
0.00379064903929
0.000246888117253
-0.00404602303075
0.000516711847762
0.000551193876084
0.000578340393647
0.000596343647244
0.000597461266766
0.000556446326044
0.000411916451392
3.31606451335e-05
4.43160980662e-05
)
;

boundaryField
{
    back
    {
        type            calculated;
        value           uniform 0;
    }
    sides
    {
        type            calculated;
        value           nonuniform List<scalar> 0();
    }
    bottom
    {
        type            calculated;
        value           nonuniform List<scalar> 0();
    }
    front
    {
        type            calculated;
        value           uniform 0;
    }
    atmosphere
    {
        type            calculated;
        value           nonuniform List<scalar> 
16
(
-0.000149165770218
-7.6918412281e-05
-1.4072934495e-05
6.63362122767e-05
0.000125200102065
0.000153803810187
-2.68219472061e-05
-0.000562699147596
-0.00176896100667
-0.00482832756481
0.0150651178034
-0.00509821388474
-0.00510615089282
-0.00615475022229
0.0184467341784
-0.00166221350623
)
;
    }
    floatingObject
    {
        type            calculated;
        value           nonuniform List<scalar> 0();
    }
    procBoundary5to0
    {
        type            processor;
        value           nonuniform List<scalar> 
12
(
-0.000849072292724
-0.000875144726548
-0.000904415122381
-0.000937023515871
-0.0009731602431
-0.00101306127131
-0.00105671130775
-0.00110284405797
-0.00114753381768
-0.0011777689109
-0.00117390311985
-0.00102810020782
)
;
    }
    procBoundary5to3
    {
        type            processor;
        value           nonuniform List<scalar> 10(0.000670465119624 0.000731234475422 0.000796806208152 0.000864569931877 0.000930408639329 0.000997760003265 0.00107300652122 0.00115987935819 0.000235732463129 -0.00233948784463);
    }
    procBoundary5to4
    {
        type            processor;
        value           nonuniform List<scalar> 
18
(
4.09278304894e-05
1.74153127058e-05
0.000859938870938
0.000886883585633
-4.88853095769e-06
-3.5327169921e-05
-6.59839749582e-05
-9.69552311737e-05
-0.000128256291968
-0.000160161376909
-0.000192870581983
-0.000226751381217
-0.000262136389538
-0.000299405424146
-0.000338954997651
-0.000381214902434
-0.000426695522462
-0.000476085910249
)
;
    }
}


// ************************************************************************* //
