/*--------------------------------*- C++ -*----------------------------------*\
| =========                 |                                                 |
| \\      /  F ield         | OpenFOAM: The Open Source CFD Toolbox           |
|  \\    /   O peration     | Version:  v2012                                 |
|   \\  /    A nd           | Website:  www.openfoam.com                      |
|    \\/     M anipulation  |                                                 |
\*---------------------------------------------------------------------------*/
FoamFile
{
    version     2.0;
    format      ascii;
    class       volScalarField;
    location    "1";
    object      rAU;
}
// * * * * * * * * * * * * * * * * * * * * * * * * * * * * * * * * * * * * * //

dimensions      [-1 3 1 0 0 0 0];


internalField   nonuniform List<scalar> 
164
(
8.17360200064e-06
8.17326469579e-06
8.17299954071e-06
8.17281683967e-06
8.17249266502e-06
8.17146960159e-06
8.1685073853e-06
8.1642254779e-06
8.13340089624e-06
8.73977398846e-06
3.51272438827e-05
0.00406958985637
8.17185660275e-06
8.17179630813e-06
8.17171497338e-06
8.17179759372e-06
8.17165553772e-06
8.17083739362e-06
8.16738847553e-06
8.16537452247e-06
8.14300881081e-06
8.68724050247e-06
3.33096179274e-05
0.00400068036283
8.17036261066e-06
8.17075987723e-06
8.17106533597e-06
8.17084392351e-06
8.16852459699e-06
8.16315355172e-06
8.15390722882e-06
8.6283404442e-06
3.11926190411e-05
0.00389114203888
8.16920793372e-06
8.16963941705e-06
8.17039459688e-06
8.17106819012e-06
8.17082682448e-06
8.15972135242e-06
8.15078413663e-06
8.53562746527e-06
2.87975888803e-05
0.00393042381573
8.16800681815e-06
8.16867891236e-06
8.16971992857e-06
8.17113116744e-06
8.17267739093e-06
8.16556213877e-06
8.14706688922e-06
8.41908747771e-06
2.61065329576e-05
0.00371456766919
8.16658497446e-06
8.16777054191e-06
8.16915350597e-06
8.17112352092e-06
8.17400150836e-06
8.1718102249e-06
8.15030179146e-06
8.3058333156e-06
2.34313698967e-05
0.00351406094798
8.16530527705e-06
8.16652726198e-06
8.16804319227e-06
8.17019038732e-06
8.17390716334e-06
8.1746384588e-06
8.15980277442e-06
8.2088580368e-06
2.08608492965e-05
0.00321860717156
8.16407869728e-06
8.16506731093e-06
8.16632236395e-06
8.16790820112e-06
8.17010830674e-06
8.16830623015e-06
8.13599807839e-06
8.14302216596e-06
1.80098401009e-05
0.00237307084256
8.16288782171e-06
8.16355829762e-06
8.16431170313e-06
8.16495623962e-06
8.164569306e-06
8.15876577813e-06
8.10100557948e-06
8.01796058314e-06
1.61292694209e-05
0.00176326605828
8.16180376359e-06
8.16214758844e-06
8.16241526934e-06
8.16234297686e-06
8.15985087001e-06
8.14671716687e-06
8.09245598359e-06
7.93419353968e-06
1.54513174601e-05
0.00229750070619
8.16087553285e-06
8.16093179691e-06
8.1608669683e-06
8.16090906081e-06
8.16237073614e-06
8.16819083235e-06
7.94824558158e-06
7.82510162136e-06
9.96851672061e-06
0.000120179256858
8.16011306336e-06
8.15993345188e-06
8.15951017225e-06
8.15868588296e-06
8.15620290847e-06
8.14983197387e-06
7.84934286555e-06
7.8211485575e-06
1.2892561853e-05
0.00213697760944
8.15950802064e-06
8.15919014109e-06
8.15836027756e-06
8.15508336591e-06
8.14238657958e-06
8.10569496499e-06
7.96093406625e-06
7.86895354949e-06
1.38032959231e-05
0.00237412603076
8.15902372444e-06
8.15885787163e-06
8.15879696146e-06
8.15697520793e-06
8.14661427565e-06
8.09590866313e-06
8.03336271088e-06
7.92554137161e-06
1.29562522669e-05
0.00180532560321
8.15852262757e-06
8.15864718188e-06
8.16036616139e-06
8.16722722524e-06
8.18647745108e-06
8.00841039652e-06
7.87737249646e-06
7.71468410995e-06
7.484120539e-06
2.83908974179e-05
8.15782478895e-06
8.15775697429e-06
8.15939110409e-06
8.16773415792e-06
8.16864972891e-06
7.86354327198e-06
7.83107844497e-06
7.87828168468e-06
8.84944175394e-06
0.000594921648786
)
;

boundaryField
{
    back
    {
        type            calculated;
        value           nonuniform List<scalar> 
164
(
8.17360200064e-06
8.17326469579e-06
8.17299954071e-06
8.17281683967e-06
8.17249266502e-06
8.17146960159e-06
8.1685073853e-06
8.1642254779e-06
8.13340089624e-06
8.73977398846e-06
3.51272438827e-05
0.00406958985637
8.17185660275e-06
8.17179630813e-06
8.17171497338e-06
8.17179759372e-06
8.17165553772e-06
8.17083739362e-06
8.16738847553e-06
8.16537452247e-06
8.14300881081e-06
8.68724050247e-06
3.33096179274e-05
0.00400068036283
8.17036261066e-06
8.17075987723e-06
8.17106533597e-06
8.17084392351e-06
8.16852459699e-06
8.16315355172e-06
8.15390722882e-06
8.6283404442e-06
3.11926190411e-05
0.00389114203888
8.16920793372e-06
8.16963941705e-06
8.17039459688e-06
8.17106819012e-06
8.17082682448e-06
8.15972135242e-06
8.15078413663e-06
8.53562746527e-06
2.87975888803e-05
0.00393042381573
8.16800681815e-06
8.16867891236e-06
8.16971992857e-06
8.17113116744e-06
8.17267739093e-06
8.16556213877e-06
8.14706688922e-06
8.41908747771e-06
2.61065329576e-05
0.00371456766919
8.16658497446e-06
8.16777054191e-06
8.16915350597e-06
8.17112352092e-06
8.17400150836e-06
8.1718102249e-06
8.15030179146e-06
8.3058333156e-06
2.34313698967e-05
0.00351406094798
8.16530527705e-06
8.16652726198e-06
8.16804319227e-06
8.17019038732e-06
8.17390716334e-06
8.1746384588e-06
8.15980277442e-06
8.2088580368e-06
2.08608492965e-05
0.00321860717156
8.16407869728e-06
8.16506731093e-06
8.16632236395e-06
8.16790820112e-06
8.17010830674e-06
8.16830623015e-06
8.13599807839e-06
8.14302216596e-06
1.80098401009e-05
0.00237307084256
8.16288782171e-06
8.16355829762e-06
8.16431170313e-06
8.16495623962e-06
8.164569306e-06
8.15876577813e-06
8.10100557948e-06
8.01796058314e-06
1.61292694209e-05
0.00176326605828
8.16180376359e-06
8.16214758844e-06
8.16241526934e-06
8.16234297686e-06
8.15985087001e-06
8.14671716687e-06
8.09245598359e-06
7.93419353968e-06
1.54513174601e-05
0.00229750070619
8.16087553285e-06
8.16093179691e-06
8.1608669683e-06
8.16090906081e-06
8.16237073614e-06
8.16819083235e-06
7.94824558158e-06
7.82510162136e-06
9.96851672061e-06
0.000120179256858
8.16011306336e-06
8.15993345188e-06
8.15951017225e-06
8.15868588296e-06
8.15620290847e-06
8.14983197387e-06
7.84934286555e-06
7.8211485575e-06
1.2892561853e-05
0.00213697760944
8.15950802064e-06
8.15919014109e-06
8.15836027756e-06
8.15508336591e-06
8.14238657958e-06
8.10569496499e-06
7.96093406625e-06
7.86895354949e-06
1.38032959231e-05
0.00237412603076
8.15902372444e-06
8.15885787163e-06
8.15879696146e-06
8.15697520793e-06
8.14661427565e-06
8.09590866313e-06
8.03336271088e-06
7.92554137161e-06
1.29562522669e-05
0.00180532560321
8.15852262757e-06
8.15864718188e-06
8.16036616139e-06
8.16722722524e-06
8.18647745108e-06
8.00841039652e-06
7.87737249646e-06
7.71468410995e-06
7.484120539e-06
2.83908974179e-05
8.15782478895e-06
8.15775697429e-06
8.15939110409e-06
8.16773415792e-06
8.16864972891e-06
7.86354327198e-06
7.83107844497e-06
7.87828168468e-06
8.84944175394e-06
0.000594921648786
)
;
    }
    sides
    {
        type            calculated;
        value           nonuniform List<scalar> 0();
    }
    bottom
    {
        type            calculated;
        value           nonuniform List<scalar> 0();
    }
    front
    {
        type            calculated;
        value           nonuniform List<scalar> 
164
(
8.17360200064e-06
8.17326469579e-06
8.17299954071e-06
8.17281683967e-06
8.17249266502e-06
8.17146960159e-06
8.1685073853e-06
8.1642254779e-06
8.13340089624e-06
8.73977398846e-06
3.51272438827e-05
0.00406958985637
8.17185660275e-06
8.17179630813e-06
8.17171497338e-06
8.17179759372e-06
8.17165553772e-06
8.17083739362e-06
8.16738847553e-06
8.16537452247e-06
8.14300881081e-06
8.68724050247e-06
3.33096179274e-05
0.00400068036283
8.17036261066e-06
8.17075987723e-06
8.17106533597e-06
8.17084392351e-06
8.16852459699e-06
8.16315355172e-06
8.15390722882e-06
8.6283404442e-06
3.11926190411e-05
0.00389114203888
8.16920793372e-06
8.16963941705e-06
8.17039459688e-06
8.17106819012e-06
8.17082682448e-06
8.15972135242e-06
8.15078413663e-06
8.53562746527e-06
2.87975888803e-05
0.00393042381573
8.16800681815e-06
8.16867891236e-06
8.16971992857e-06
8.17113116744e-06
8.17267739093e-06
8.16556213877e-06
8.14706688922e-06
8.41908747771e-06
2.61065329576e-05
0.00371456766919
8.16658497446e-06
8.16777054191e-06
8.16915350597e-06
8.17112352092e-06
8.17400150836e-06
8.1718102249e-06
8.15030179146e-06
8.3058333156e-06
2.34313698967e-05
0.00351406094798
8.16530527705e-06
8.16652726198e-06
8.16804319227e-06
8.17019038732e-06
8.17390716334e-06
8.1746384588e-06
8.15980277442e-06
8.2088580368e-06
2.08608492965e-05
0.00321860717156
8.16407869728e-06
8.16506731093e-06
8.16632236395e-06
8.16790820112e-06
8.17010830674e-06
8.16830623015e-06
8.13599807839e-06
8.14302216596e-06
1.80098401009e-05
0.00237307084256
8.16288782171e-06
8.16355829762e-06
8.16431170313e-06
8.16495623962e-06
8.164569306e-06
8.15876577813e-06
8.10100557948e-06
8.01796058314e-06
1.61292694209e-05
0.00176326605828
8.16180376359e-06
8.16214758844e-06
8.16241526934e-06
8.16234297686e-06
8.15985087001e-06
8.14671716687e-06
8.09245598359e-06
7.93419353968e-06
1.54513174601e-05
0.00229750070619
8.16087553285e-06
8.16093179691e-06
8.1608669683e-06
8.16090906081e-06
8.16237073614e-06
8.16819083235e-06
7.94824558158e-06
7.82510162136e-06
9.96851672061e-06
0.000120179256858
8.16011306336e-06
8.15993345188e-06
8.15951017225e-06
8.15868588296e-06
8.15620290847e-06
8.14983197387e-06
7.84934286555e-06
7.8211485575e-06
1.2892561853e-05
0.00213697760944
8.15950802064e-06
8.15919014109e-06
8.15836027756e-06
8.15508336591e-06
8.14238657958e-06
8.10569496499e-06
7.96093406625e-06
7.86895354949e-06
1.38032959231e-05
0.00237412603076
8.15902372444e-06
8.15885787163e-06
8.15879696146e-06
8.15697520793e-06
8.14661427565e-06
8.09590866313e-06
8.03336271088e-06
7.92554137161e-06
1.29562522669e-05
0.00180532560321
8.15852262757e-06
8.15864718188e-06
8.16036616139e-06
8.16722722524e-06
8.18647745108e-06
8.00841039652e-06
7.87737249646e-06
7.71468410995e-06
7.484120539e-06
2.83908974179e-05
8.15782478895e-06
8.15775697429e-06
8.15939110409e-06
8.16773415792e-06
8.16864972891e-06
7.86354327198e-06
7.83107844497e-06
7.87828168468e-06
8.84944175394e-06
0.000594921648786
)
;
    }
    atmosphere
    {
        type            calculated;
        value           nonuniform List<scalar> 
16
(
0.00406958985637
0.00400068036283
0.00389114203888
0.00393042381573
0.00371456766919
0.00351406094798
0.00321860717156
0.00237307084256
0.00176326605828
0.00229750070619
0.000120179256858
0.00213697760944
0.00237412603076
0.00180532560321
2.83908974179e-05
0.000594921648786
)
;
    }
    floatingObject
    {
        type            calculated;
        value           nonuniform List<scalar> 0();
    }
    procBoundary5to0
    {
        type            processor;
        value           nonuniform List<scalar> 
12
(
8.17511873697e-06
8.17457819694e-06
8.17415975697e-06
8.1738080783e-06
8.1733358692e-06
8.17212237205e-06
8.16917701829e-06
8.16413609513e-06
8.12486735595e-06
8.77162969643e-06
3.64170210026e-05
0.00411425253965
)
;
    }
    procBoundary5to3
    {
        type            processor;
        value           nonuniform List<scalar> 10(8.15700689769e-06 8.15570216459e-06 8.15248958416e-06 8.14235300823e-06 8.09230419722e-06 7.96167521723e-06 7.95652008476e-06 7.97302400335e-06 1.2051069763e-05 0.00207431050625);
    }
    procBoundary5to4
    {
        type            processor;
        value           nonuniform List<scalar> 
18
(
8.17410616376e-06
8.17197914234e-06
8.16993135086e-06
8.17015142605e-06
8.17015142605e-06
8.16851765479e-06
8.16705688613e-06
8.16567545054e-06
8.16440336803e-06
8.1632667615e-06
8.16229383143e-06
8.16147484109e-06
8.16080389881e-06
8.16026623134e-06
8.15982850315e-06
8.15942290912e-06
8.15896857286e-06
8.15840290769e-06
)
;
    }
}


// ************************************************************************* //
