/*--------------------------------*- C++ -*----------------------------------*\
| =========                 |                                                 |
| \\      /  F ield         | OpenFOAM: The Open Source CFD Toolbox           |
|  \\    /   O peration     | Version:  v2012                                 |
|   \\  /    A nd           | Website:  www.openfoam.com                      |
|    \\/     M anipulation  |                                                 |
\*---------------------------------------------------------------------------*/
FoamFile
{
    version     2.0;
    format      ascii;
    class       volVectorField;
    location    "1";
    object      U_0;
}
// * * * * * * * * * * * * * * * * * * * * * * * * * * * * * * * * * * * * * //

dimensions      [0 1 -1 0 0 0 0];


internalField   nonuniform List<vector> 
164
(
(0.171946514977 -0.00951879563558 -1.03923793588e-23)
(0.177277079063 -0.011088849972 -9.46957182042e-24)
(0.183260489437 -0.0127860606751 -1.17761532944e-24)
(0.189922105452 -0.0146203223939 -1.67658522541e-23)
(0.197297977701 -0.0165993869252 7.27621179444e-23)
(0.205440238489 -0.0187206640063 9.41274874212e-23)
(0.214355252423 -0.0209599707049 6.06656355248e-23)
(0.223804842342 -0.022955583071 1.85750732092e-22)
(0.232890581652 -0.024582787191 7.16557369602e-22)
(0.239232419633 -0.038531140231 -1.17991732451e-21)
(0.238774866365 -0.0351233205596 -7.04810388558e-21)
(0.209970240385 -0.0305926920827 -6.91417808815e-21)
(0.173166517083 -0.00443214013714 -8.69448034482e-24)
(0.178605421165 -0.00535876975767 4.72828386979e-24)
(0.184710466487 -0.00638645631798 1.87018803654e-23)
(0.191492070422 -0.00752134856935 -8.62569959954e-25)
(0.198983420358 -0.00875316929207 8.87316854158e-23)
(0.207251239732 -0.0100710142555 1.20456874975e-22)
(0.216328260123 -0.0114812384811 9.48329445065e-23)
(0.226007648973 -0.0127559742106 -1.25067225148e-21)
(0.23467942967 -0.01228137002 -7.003612745e-21)
(0.241621810646 -0.0252048495969 1.34573563551e-22)
(0.239416896588 -0.019473021665 4.761356796e-22)
(0.212465865902 -0.0157959950548 -1.1408565262e-21)
(0.18548790831 0.000120117693738 5.18442385183e-24)
(0.192355865319 -0.00032755993668 -1.2692585667e-23)
(0.199895992709 -0.000817968450929 4.20181340337e-23)
(0.208215428025 -0.00131620731184 4.35963350635e-23)
(0.217340556264 -0.00182715825053 -3.59781803283e-23)
(0.227232924139 -0.00277450918142 -1.796219708e-21)
(0.23562621155 -3.16094955714e-06 -1.24201064055e-20)
(0.242982464971 -0.0113179421478 -2.10285861028e-21)
(0.23878004795 -0.00375527553258 1.41738187264e-20)
(0.213541878339 -0.00295856805854 1.31560789168e-20)
(0.185593485092 0.00669982686381 -3.06074952984e-23)
(0.192503154727 0.0069097677038 -5.39428542441e-23)
(0.200071943003 0.00712903734998 4.68023186702e-24)
(0.208346455556 0.00741746737276 2.16458843456e-23)
(0.217366732728 0.00785527173065 9.3334479892e-23)
(0.227103989625 0.00732166046112 -9.61060748262e-22)
(0.236114100516 0.0121738407692 -1.08770660001e-20)
(0.243063391986 0.00254431410598 -1.36014281209e-20)
(0.236392829148 0.0113579854009 -1.70841865339e-21)
(0.218791678212 0.012841209512 -1.57977725787e-21)
(0.185049927153 0.0133163112643 -3.95017009984e-23)
(0.191983003453 0.0141729299807 -6.7196107685e-23)
(0.199550241677 0.0150447803022 -7.95109849122e-23)
(0.207710535526 0.0160159984582 8.1963452077e-23)
(0.216501377949 0.0172128293754 1.57013917553e-22)
(0.225768571501 0.0175931753721 -4.45528233752e-21)
(0.235087658409 0.0238700713342 -1.22800521989e-20)
(0.24120824128 0.0154793921419 -4.54120708055e-21)
(0.232184139388 0.0252446034941 -3.57781429834e-21)
(0.225344178088 0.0271693099976 -4.73963458719e-21)
(0.183901512386 0.0199786562409 -8.30134840017e-24)
(0.190872627282 0.0214321237477 3.62150974884e-23)
(0.198399260004 0.0228755198243 -7.29766940339e-24)
(0.2064317915 0.0244004251665 1.90358331508e-22)
(0.214919768827 0.026154188477 6.41401687711e-22)
(0.223669406597 0.0272711622537 -2.70167752092e-21)
(0.232198452418 0.0342864348446 -6.17694847356e-21)
(0.23760207157 0.0271448108912 4.03263225525e-21)
(0.226997517697 0.037146568244 4.10377647729e-21)
(0.235169975748 0.0353141003633 5.41421299548e-21)
(0.1821803365 0.0267047294353 1.95920297008e-23)
(0.189215603516 0.0286971278054 -1.77582883282e-23)
(0.196741870604 0.0306270678262 2.16764045217e-22)
(0.204683555514 0.0325625499038 1.09978526082e-22)
(0.212915617487 0.0346236091744 -2.99122842502e-22)
(0.221167854307 0.036012979917 4.27955066224e-21)
(0.228729045363 0.0428687477883 -1.13743746181e-20)
(0.233135623323 0.0366464036823 -2.18048386388e-20)
(0.222001226174 0.0464286008816 -1.15974592727e-20)
(0.270143802678 0.0193631833755 -1.49779788288e-21)
(0.179914704895 0.033529828277 -9.21137910129e-23)
(0.187069452369 0.0360213485426 5.12896173846e-23)
(0.194675168367 0.0383685857957 -4.98378938123e-23)
(0.202630456547 0.0405976673046 -9.15484600504e-23)
(0.210776943749 0.0427538946919 -1.72069708252e-22)
(0.21883576393 0.0439434595425 -2.05507939125e-21)
(0.226110017425 0.0494868045821 -7.96979030071e-21)
(0.229894730015 0.0428064145712 -9.48534556651e-21)
(0.221396836558 0.0521332239041 -1.84686987566e-20)
(0.354122897131 -0.0376848142612 -1.54707285579e-20)
(0.177124808069 0.0405131668451 8.11955503527e-23)
(0.18447418739 0.043488178054 -1.10953423804e-23)
(0.192265299775 0.0462185760844 5.3155345029e-23)
(0.200383977041 0.0486925474305 -1.28066157387e-22)
(0.208671697102 0.0508990871905 -5.60873034234e-22)
(0.216947824724 0.051882724249 6.14457148663e-21)
(0.224570715207 0.0565343677952 7.54748421901e-23)
(0.228283025108 0.0477464387954 -1.01040268284e-20)
(0.243540119913 0.0662780442352 -8.39462106017e-20)
(0.563884331772 -0.188875923234 2.8444839395e-20)
(0.173808300947 0.0477282969703 -7.68316896159e-23)
(0.181440378389 0.0511975477031 -6.00950418458e-23)
(0.189534823121 0.0543157369137 -1.59609426159e-22)
(0.197976321031 0.0570396763499 -8.70837079875e-23)
(0.206624183455 0.0593447100342 -3.63049700252e-22)
(0.215494975925 0.0601284572788 1.0819866285e-21)
(0.224731219457 0.0642112771191 -7.6646527449e-21)
(0.233464685945 0.057285347123 -1.3080452208e-20)
(0.360156364289 0.0477306681289 -2.42012684027e-19)
(1.82051983445 -0.549789896372 -9.3637111294e-20)
(0.169941427792 0.0552569618766 -1.4686962649e-22)
(0.177951119258 0.0592562303895 -3.76192383081e-23)
(0.186469058746 0.0627994378028 -5.37557678579e-22)
(0.195383860727 0.0658171216227 1.12395172612e-22)
(0.204517536848 0.0683678139766 1.10801967143e-22)
(0.213713566045 0.0696504651348 -5.20996752865e-21)
(0.221437764063 0.0762116925569 -1.05374072443e-20)
(0.221946362902 0.0961938706036 2.7936197273e-20)
(0.250234930822 0.0386032926133 9.17565003272e-19)
(0.269019443573 1.79870146923 7.53770383e-19)
(0.165479504843 0.0631846575694 2.76372120216e-22)
(0.173963770845 0.0677708761037 1.45413872638e-22)
(0.183021175561 0.0717971702235 3.07492947718e-22)
(0.192559728148 0.0751269372137 1.54075270899e-22)
(0.202441895685 0.0776396542299 -3.07258409605e-21)
(0.212542771056 0.0772824983491 -4.11037790661e-22)
(0.223070769356 0.0753232102437 -8.33056881181e-21)
(0.225698039626 0.0564742495327 -1.80018100181e-20)
(0.132941825607 0.028134424716 -8.94667773291e-20)
(-1.00794810597 -0.589780813225 -3.63497523901e-20)
(0.160358508238 0.0715999771482 -6.79221879285e-23)
(0.169416037383 0.0768482216349 1.84767900886e-22)
(0.179122346935 0.0814511694068 -1.30978018972e-22)
(0.189435497452 0.0852832350471 -1.36406022979e-22)
(0.200468365261 0.0884055521337 3.29776841857e-22)
(0.213059007784 0.0889329834695 1.37967244664e-21)
(0.228566463362 0.0906126885465 -1.65295398721e-20)
(0.245450206721 0.0718748347449 -4.22955986264e-20)
(0.275551627415 0.0911815428676 -1.26077765785e-19)
(0.608863542015 -0.613033442381 -2.36662924302e-19)
(0.154496251618 0.0805962545681 4.00343075332e-22)
(0.16423558395 0.0865863916624 -3.35953707212e-23)
(0.174671492516 0.0918475846801 8.26947407516e-23)
(0.185699370173 0.0963954684955 3.64832788343e-22)
(0.197464378235 0.100944225954 -4.11238051586e-22)
(0.211579409696 0.103871608874 1.07945125584e-21)
(0.232657038246 0.112761982994 -1.86776250236e-20)
(0.261344919843 0.119631455436 -7.40494837503e-20)
(0.572187902798 0.0851204551386 -2.04980808197e-19)
(2.31581592215 -0.725264638425 -2.06427528528e-19)
(0.147792502922 0.0902854725857 1.49615904932e-22)
(0.158364471585 0.0970877656336 1.65663833626e-22)
(0.169665096141 0.102946392019 -3.06057254306e-22)
(0.181322691154 0.107935962789 6.08288413486e-23)
(0.192569163751 0.113479812077 -7.16892428539e-22)
(0.201772037102 0.123149033207 -7.82524503553e-21)
(0.206322757307 0.134398142284 4.70189312441e-20)
(0.198010313203 0.25700681117 5.98898416071e-21)
(0.339311342181 0.125533980641 -8.7164878571e-20)
(0.312407381477 2.6349791807 -5.42706967794e-20)
(0.140116903218 0.100829665131 1.44923592179e-22)
(0.151750122843 0.108558120426 1.02748067985e-22)
(0.164238239732 0.114917166108 -3.06017233115e-22)
(0.176991133504 0.119321064401 -2.0962477868e-22)
(0.188427115087 0.121469234056 6.35083228304e-22)
(0.197461700894 0.118794725881 -9.73305321754e-21)
(0.197771217645 0.0969854383175 2.54319973731e-21)
(0.171227138426 0.0641105858226 -2.09126505641e-20)
(-0.142363202786 -0.0190481490347 1.29595516624e-19)
(-1.14543652096 -0.133419347848 6.85038141521e-20)
)
;

boundaryField
{
    back
    {
        type            noSlip;
    }
    sides
    {
        type            noSlip;
    }
    bottom
    {
        type            noSlip;
    }
    front
    {
        type            noSlip;
    }
    atmosphere
    {
        type            pressureInletOutletVelocity;
        value           nonuniform List<vector> 
16
(
(0 -0.0305926920827 0)
(0 -0.0157959950548 0)
(0 -0.00295856805854 0)
(0.218791678212 0.012841209512 -1.57977725787e-21)
(0.225344178088 0.0271693099976 -4.73963458719e-21)
(0.235169975748 0.0353141003633 5.41421299548e-21)
(0 0.0193631833755 0)
(0 -0.0376848142612 0)
(0 -0.188875923234 0)
(0 -0.549789896372 0)
(0.269019443573 1.79870146923 7.53770383e-19)
(0 -0.589780813225 0)
(0 -0.613033442381 0)
(0 -0.725264638425 0)
(0.312407381477 2.6349791807 -5.42706967794e-20)
(0 -0.133419347848 0)
)
;
    }
    floatingObject
    {
        type            movingWallVelocity;
        value           nonuniform List<vector> 0();
    }
    procBoundary5to0
    {
        type            processor;
        value           nonuniform List<vector> 
12
(
(0.170101824937 -0.0144838694262 -3.29986250729e-23)
(0.175297965519 -0.0166897839705 -2.8472658251e-23)
(0.181134231529 -0.0190485838389 -4.33574248188e-23)
(0.187638801198 -0.0215776859382 -9.70040206781e-23)
(0.194846719327 -0.0242952398461 3.5948048302e-23)
(0.202801574457 -0.0272009374268 1.8845356006e-22)
(0.211498780932 -0.0302596160899 6.75250519614e-23)
(0.220716582061 -0.0331879685513 -2.7282277748e-22)
(0.229817036281 -0.0366632427215 -7.07204209332e-21)
(0.235635502469 -0.0511768217357 -2.5767787555e-21)
(0.23650866955 -0.0500842150711 7.07650320246e-22)
(0.20693106766 -0.0461715815128 -7.36388042595e-22)
)
;
    }
    procBoundary5to3
    {
        type            processor;
        value           nonuniform List<vector> 10((0.131266091526 0.112445063994 6.70072702688e-23) (0.144247259382 0.121353662918 1.42613320884e-22) (0.158458817768 0.128509064543 4.72264381188e-23) (0.173709745335 0.132876633974 4.27078995026e-22) (0.189765322005 0.133677417088 -7.67795233989e-22) (0.206164778142 0.127020351466 -2.06262318259e-21) (0.224340189468 0.110360112472 -9.57618710647e-21) (0.247572302552 0.072763298811 2.09896631911e-21) (0.187074346123 0.0479064092045 5.61858609479e-20) (-0.127430674322 -0.496705889149 7.0778274358e-20));
    }
    procBoundary5to4
    {
        type            processor;
        value           nonuniform List<vector> 
18
(
(0.167242281566 -0.00806855843998 1.76880108422e-24)
(0.168347193655 -0.00360768823565 -5.78371178874e-24)
(0.173752049949 0.000758253271364 -1.71575776624e-23)
(0.179288115894 0.0004741074965 -1.14107595141e-23)
(0.179288115894 0.0004741074965 -1.14107595141e-23)
(0.179329595649 0.00639791834201 -9.02044738036e-24)
(0.178728310607 0.01239449119 5.72932694546e-24)
(0.177505886245 0.0184612712222 -4.64158025645e-23)
(0.175689215587 0.0246132752624 -4.7703974216e-23)
(0.173288334435 0.0308806366755 3.97508222118e-23)
(0.170306053412 0.0373067315463 3.17544494998e-23)
(0.166731495186 0.0439464249915 5.56316395206e-23)
(0.162534431035 0.0508608456769 7.0164171478e-23)
(0.157665331577 0.0581148618319 -1.06774177162e-22)
(0.152055968001 0.0657769157305 1.35344302049e-22)
(0.145612492854 0.0739189698745 2.98118993226e-23)
(0.138210482654 0.082624473236 2.10560929869e-22)
(0.129682614057 0.0919987002929 6.48329587822e-23)
)
;
    }
}


// ************************************************************************* //
