/*--------------------------------*- C++ -*----------------------------------*\
| =========                 |                                                 |
| \\      /  F ield         | OpenFOAM: The Open Source CFD Toolbox           |
|  \\    /   O peration     | Version:  v2012                                 |
|   \\  /    A nd           | Website:  www.openfoam.com                      |
|    \\/     M anipulation  |                                                 |
\*---------------------------------------------------------------------------*/
FoamFile
{
    version     2.0;
    format      ascii;
    class       surfaceScalarField;
    location    "4.6";
    object      alphaPhi0.water;
}
// * * * * * * * * * * * * * * * * * * * * * * * * * * * * * * * * * * * * * //

dimensions      [0 3 -1 0 0 0 0];
oriented        oriented;


internalField   nonuniform List<scalar> 
300
(
-4.07492330092e-06
5.36874475525e-05
-8.13406184752e-06
4.83199568124e-05
-1.21448028361e-05
4.27853490427e-05
-1.61871996512e-05
3.94571269634e-05
-2.03513412624e-05
3.79113387083e-05
-2.46997851091e-05
3.7161795989e-05
-2.93243793431e-05
3.66251587942e-05
3.60251339675e-05
-4.01355204847e-06
5.77002389037e-05
-8.07102306924e-06
5.23766445381e-05
-1.21320218161e-05
4.68456450714e-05
-1.62928336835e-05
4.36173676766e-05
-2.05939098713e-05
4.22119728307e-05
-2.51192135758e-05
4.16867249543e-05
-2.99672910756e-05
4.14728364246e-05
-3.52793013917e-05
4.13365265649e-05
-4.12180310319e-05
4.1145816927e-05
-4.81078516625e-05
4.09230316256e-05
4.06101319e-05
-3.92866968013e-06
6.16281142259e-05
-7.94861192364e-06
5.63957419318e-05
-1.20292040706e-05
5.09254552424e-05
-1.6214971746e-05
4.78024611972e-05
-2.05837559264e-05
4.6580179954e-05
-2.52304818497e-05
4.63329092817e-05
-3.01358100203e-05
4.6377575822e-05
-3.55844232272e-05
4.6784382008e-05
-4.16827188813e-05
4.72429075843e-05
-4.86798423225e-05
4.79182764809e-05
-5.69551380347e-05
4.88836247168e-05
-6.71117937616e-05
5.01306353683e-05
5.06812225396e-05
-3.82702700628e-06
6.54542905368e-05
-7.78887113263e-06
6.03566537713e-05
-1.18196819056e-05
5.49553723044e-05
-1.59786046793e-05
5.19605800743e-05
-2.03192134134e-05
5.09200506389e-05
-2.4892255938e-05
5.09052073442e-05
-2.98686772222e-05
5.135313661e-05
-3.51969403668e-05
5.21115643348e-05
-4.11069577096e-05
5.31514785194e-05
-4.77839970176e-05
5.45934171286e-05
-5.550899283e-05
5.66060914424e-05
-6.46482071593e-05
5.92678518257e-05
-7.5719641622e-05
6.17500236791e-05
6.0632650384e-05
-3.71224575055e-06
6.91654728213e-05
-7.56328998966e-06
6.42065998229e-05
-1.15009972032e-05
5.88920610619e-05
-1.55723122387e-05
5.60309410532e-05
-1.98204055052e-05
5.5167223616e-05
-2.42886944818e-05
5.5372527448e-05
-2.90466459444e-05
5.61099328105e-05
-3.41397305779e-05
5.72031984276e-05
-3.96713633336e-05
5.86812764817e-05
-4.56993448136e-05
6.06191822026e-05
-5.23942668101e-05
6.32984260528e-05
-5.98908647604e-05
6.67611047022e-05
-6.8521860634e-05
7.03783861129e-05
7.11681574498e-05
-3.56610588361e-06
7.2730430559e-05
-7.26691303807e-06
6.79061889737e-05
-1.10765651226e-05
6.27005702546e-05
-1.50230427232e-05
5.99763187679e-05
-1.91216538193e-05
5.92647416221e-05
-2.33979273955e-05
5.96476188407e-05
-2.78799340851e-05
6.05905235841e-05
-3.26203207123e-05
6.19418039554e-05
-3.76008376779e-05
6.36595818832e-05
-4.29373697951e-05
6.5953083812e-05
-4.85206873759e-05
6.88787775522e-05
-5.43379479586e-05
7.25746965707e-05
-6.05667249397e-05
7.66028027217e-05
7.85728760041e-05
-3.35893889986e-06
7.60882205812e-05
-6.89981734261e-06
7.14457891259e-05
-1.05635370855e-05
6.63629938624e-05
-1.43511680002e-05
6.37627284558e-05
-1.82596091995e-05
6.31719463722e-05
-2.22979055408e-05
6.36845596498e-05
-2.64794412508e-05
6.47704437921e-05
-3.08064343384e-05
6.62667792663e-05
-3.53295154122e-05
6.81801672348e-05
-3.99357095616e-05
7.05563187824e-05
-4.45777176589e-05
7.35175020909e-05
-4.91806090886e-05
7.71736365005e-05
-5.38235235118e-05
8.12408219245e-05
8.41145116136e-05
-3.14043459364e-06
7.92274027944e-05
-6.49614796144e-06
7.4800144497e-05
-9.98172809197e-06
6.98472043082e-05
-1.35685444336e-05
6.73482241757e-05
-1.72593964374e-05
6.68614593952e-05
-2.10527000887e-05
6.74763952028e-05
-2.49485487454e-05
6.86645579199e-05
-2.89297559657e-05
7.02458417219e-05
-3.29607767691e-05
7.22085471037e-05
-3.7008666576e-05
7.46010790294e-05
-4.09672151259e-05
7.74725193576e-05
-4.47912744732e-05
8.09936280394e-05
-4.85216810167e-05
8.49668759966e-05
8.84929256541e-05
-2.94763041663e-06
8.21736050023e-05
-6.08305943758e-06
7.79341119909e-05
-9.3523379317e-06
7.31150227794e-05
-1.27338113031e-05
7.07282922589e-05
-1.62012887444e-05
7.03275273548e-05
-1.97429981649e-05
7.10165836054e-05
-2.33457213184e-05
7.22655162222e-05
-2.69866891655e-05
7.38846592701e-05
-3.06309739812e-05
7.58501965065e-05
-3.42175573427e-05
7.81845487965e-05
-3.76978730572e-05
8.09493616724e-05
-4.09435911722e-05
8.42353615711e-05
-4.40149681929e-05
8.80343714625e-05
9.17895426638e-05
-2.73417541852e-06
8.4905862166e-05
-5.64617888637e-06
8.08441826863e-05
-8.70255296794e-06
7.61695590545e-05
-1.1868503399e-05
7.38924734524e-05
-1.51100065294e-05
7.35673239994e-05
-1.84052611593e-05
7.43101014035e-05
-2.17353366143e-05
7.55936912123e-05
-2.50731803582e-05
7.72202819327e-05
-2.83791902837e-05
7.91535317285e-05
-3.16000409503e-05
8.14022383434e-05
-3.46627373373e-05
8.40084822316e-05
-3.74763828375e-05
8.70452974304e-05
-4.00134384756e-05
9.05678123353e-05
-4.24453270591e-05
9.42183242811e-05
-4.55599397262e-05
9.59931214484e-05
9.35086786521e-05
-2.4954907133e-06
8.73987252174e-05
-5.18797218589e-06
8.35339883716e-05
-8.03104646973e-06
7.90100922331e-05
-1.09830195226e-05
7.6842099768e-05
-1.40012975689e-05
7.65834277954e-05
-1.70596012278e-05
7.73663341617e-05
-2.01359566384e-05
7.86679130474e-05
-2.32067777379e-05
8.02886976734e-05
-2.62246855481e-05
8.21686122573e-05
-2.91359287909e-05
8.43099663869e-05
-3.18671402797e-05
8.67357822838e-05
-3.43309526616e-05
8.95050923427e-05
-3.6483022351e-05
9.27161871161e-05
-3.84098818312e-05
9.61426011175e-05
-4.06056448564e-05
9.81854964092e-05
9.64552943749e-05
-2.26198407192e-06
-4.72071722406e-06
-7.34492587552e-06
-1.00799924421e-05
-1.28793520209e-05
-1.57132236568e-05
-1.85602226705e-05
-2.13892661069e-05
-2.41643506583e-05
-2.68186401164e-05
-2.92879586784e-05
-3.14878961866e-05
-3.33234920617e-05
-3.49089560176e-05
-3.68905367591e-05
)
;

boundaryField
{
    back
    {
        type            calculated;
        value           uniform 0;
    }
    sides
    {
        type            calculated;
        value           nonuniform List<scalar> 0();
    }
    bottom
    {
        type            calculated;
        value           uniform 0;
    }
    front
    {
        type            calculated;
        value           uniform 0;
    }
    atmosphere
    {
        type            calculated;
        value           nonuniform List<scalar> 0();
    }
    floatingObject
    {
        type            calculated;
        value           nonuniform List<scalar> 0();
    }
    procBoundary7to6
    {
        type            processor;
        value           nonuniform List<scalar> 
11
(
-8.8835226347e-05
-7.90611852732e-05
-6.79756694618e-05
-5.93704221123e-05
-5.29053307717e-05
-4.7314802985e-05
-9.28835235281e-05
-8.88086466716e-05
-5.02694393574e-05
-4.35569093063e-05
-3.96270758868e-05
)
;
    }
    procBoundary7to8
    {
        type            processor;
        value           nonuniform List<scalar> 
17
(
-4.96136221744e-05
-4.42618847312e-05
-3.87754877331e-05
-3.54153434085e-05
-3.37475635293e-05
-3.28136255158e-05
-3.20009624209e-05
-3.10001522491e-05
-3.4350200669e-05
-3.52091063383e-05
-3.40353997135e-05
-3.24070823797e-05
-5.63147755991e-05
-3.99777855612e-05
-3.8144530924e-05
-7.96520582417e-05
-4.75206316346e-05
)
;
    }
    procBoundary7to9
    {
        type            processor;
        value           nonuniform List<scalar> 
16
(
8.96576531567e-05
8.59895618862e-05
8.1631286651e-05
7.95744154048e-05
7.93803158157e-05
8.01979243994e-05
8.15126567262e-05
8.31153368488e-05
8.49407091058e-05
8.69607405646e-05
8.92011255739e-05
9.17010171757e-05
9.45482103354e-05
9.77253586315e-05
0.00010016074592
9.91867116137e-05
)
;
    }
}


// ************************************************************************* //
