/*--------------------------------*- C++ -*----------------------------------*\
| =========                 |                                                 |
| \\      /  F ield         | OpenFOAM: The Open Source CFD Toolbox           |
|  \\    /   O peration     | Version:  v2012                                 |
|   \\  /    A nd           | Website:  www.openfoam.com                      |
|    \\/     M anipulation  |                                                 |
\*---------------------------------------------------------------------------*/
FoamFile
{
    version     2.0;
    format      ascii;
    class       volScalarField;
    location    "4.6";
    object      epsilon;
}
// * * * * * * * * * * * * * * * * * * * * * * * * * * * * * * * * * * * * * //

dimensions      [0 2 -3 0 0 0 0];


internalField   nonuniform List<scalar> 
164
(
0.000739327290453
0.000769565552471
0.000844491305465
0.000874175344356
0.000887149327605
0.000894511656672
0.000900424058466
0.000906417397731
0.000742710439774
0.000773021156689
0.000848166599261
0.000877690382354
0.000890364898969
0.000897400111324
0.000902984150924
0.000908646981683
0.000915029534833
0.000922862291421
0.000934366309805
0.000745604980578
0.000776008244771
0.00085136013998
0.00088074067126
0.000893149651664
0.00089989926355
0.000905196425345
0.000910563235977
0.000916630346527
0.000924070097378
0.000934897548736
0.000955867018479
0.00100680767044
0.000748036608081
0.000778538692615
0.000854076422872
0.000883332527267
0.000895505792871
0.000902001108562
0.000907048563193
0.000912152149569
0.000917922127749
0.000924950656353
0.000934950744671
0.000953688177644
0.000998466789823
0.00111609729882
0.000750030084325
0.000780621751691
0.000856324416602
0.000885474535268
0.000897442977648
0.00090371399383
0.00090853373269
0.000913402789409
0.000918899520292
0.000925531410488
0.000934692023087
0.000951077856737
0.000989202887416
0.0010905179025
0.000751596870644
0.000782264104531
0.000858112840059
0.000887176790756
0.000898970771861
0.000905048177903
0.00090966775387
0.000914323926369
0.000919572501342
0.000925857498492
0.000934307542731
0.000948736683905
0.000981320322659
0.00106908372769
0.000752745778194
0.00078347386524
0.000859451526617
0.000888449079808
0.000900098408415
0.000906012139256
0.000910459887625
0.000914927850694
0.000919959561009
0.000925956686058
0.000933884368707
0.000946987101817
0.000975942565883
0.00105532786856
0.000753543152689
0.000784275684633
0.000860351929271
0.000889299195173
0.000900833558125
0.000906612528331
0.000910915033502
0.000915221934392
0.000920070497212
0.000925841891636
0.000933425941616
0.000945775511479
0.000972780571129
0.0010478045266
0.000754036686578
0.000784693979376
0.000860830160319
0.000889742621357
0.00090119048688
0.000906860844376
0.000911041477329
0.000915212428
0.000919908222652
0.000925507753908
0.000932883572192
0.000944876064512
0.000970999966694
0.00104383020786
0.000754200184966
0.000784739697761
0.00086090967871
0.000889801895853
0.000901187535328
0.000906772328296
0.000910851840429
0.000914907914413
0.000919476806539
0.000924946227523
0.000932202303101
0.000944074300366
0.00096992646483
0.00104193680909
0.00127863731302
0.00215015254102
0.000754027753803
0.000784436228286
0.000860618442714
0.000889499403064
0.000900840741542
0.000906358383521
0.000910354352511
0.000914313853372
0.000918778430313
0.000924150047301
0.000931343331996
0.000943220368803
0.000969127352324
0.00104125583501
0.00127937435394
0.0021586954624
0.00075352564418
0.000783810785519
0.000859981979456
0.00088885437349
0.000900164135707
0.000905629352322
0.000909556910953
0.000913436274984
0.000917815938385
0.000923114400744
0.000930280400776
0.000942221040743
0.000968291565451
0.00104071925226
0.00128016991755
0.00216453257307
)
;

boundaryField
{
    back
    {
        lowReCorrection 0;
        blending        stepwise;
        n               2;
        type            epsilonWallFunction;
        value           nonuniform List<scalar> 
164
(
0.000739327290453
0.000769565552471
0.000844491305465
0.000874175344356
0.000887149327605
0.000894511656672
0.000900424058466
0.000906417397731
0.000742710439774
0.000773021156689
0.000848166599261
0.000877690382354
0.000890364898969
0.000897400111324
0.000902984150924
0.000908646981683
0.000915029534833
0.000922862291421
0.000934366309805
0.000745604980578
0.000776008244771
0.00085136013998
0.00088074067126
0.000893149651664
0.00089989926355
0.000905196425345
0.000910563235977
0.000916630346527
0.000924070097378
0.000934897548736
0.000955867018479
0.00100680767044
0.000748036608081
0.000778538692615
0.000854076422872
0.000883332527267
0.000895505792871
0.000902001108562
0.000907048563193
0.000912152149569
0.000917922127749
0.000924950656353
0.000934950744671
0.000953688177644
0.000998466789823
0.00111609729882
0.000750030084325
0.000780621751691
0.000856324416602
0.000885474535268
0.000897442977648
0.00090371399383
0.00090853373269
0.000913402789409
0.000918899520292
0.000925531410488
0.000934692023087
0.000951077856737
0.000989202887416
0.0010905179025
0.000751596870644
0.000782264104531
0.000858112840059
0.000887176790756
0.000898970771861
0.000905048177903
0.00090966775387
0.000914323926369
0.000919572501342
0.000925857498492
0.000934307542731
0.000948736683905
0.000981320322659
0.00106908372769
0.000752745778194
0.00078347386524
0.000859451526617
0.000888449079808
0.000900098408415
0.000906012139256
0.000910459887625
0.000914927850694
0.000919959561009
0.000925956686058
0.000933884368707
0.000946987101817
0.000975942565883
0.00105532786856
0.000753543152689
0.000784275684633
0.000860351929271
0.000889299195173
0.000900833558125
0.000906612528331
0.000910915033502
0.000915221934392
0.000920070497212
0.000925841891636
0.000933425941616
0.000945775511479
0.000972780571129
0.0010478045266
0.000754036686578
0.000784693979376
0.000860830160319
0.000889742621357
0.00090119048688
0.000906860844376
0.000911041477329
0.000915212428
0.000919908222652
0.000925507753908
0.000932883572192
0.000944876064512
0.000970999966694
0.00104383020786
0.000754200184966
0.000784739697761
0.00086090967871
0.000889801895853
0.000901187535328
0.000906772328296
0.000910851840429
0.000914907914413
0.000919476806539
0.000924946227523
0.000932202303101
0.000944074300366
0.00096992646483
0.00104193680909
0.00127863731302
0.00215015254102
0.000754027753803
0.000784436228286
0.000860618442714
0.000889499403064
0.000900840741542
0.000906358383521
0.000910354352511
0.000914313853372
0.000918778430313
0.000924150047301
0.000931343331996
0.000943220368803
0.000969127352324
0.00104125583501
0.00127937435394
0.0021586954624
0.00075352564418
0.000783810785519
0.000859981979456
0.00088885437349
0.000900164135707
0.000905629352322
0.000909556910953
0.000913436274984
0.000917815938385
0.000923114400744
0.000930280400776
0.000942221040743
0.000968291565451
0.00104071925226
0.00128016991755
0.00216453257307
)
;
    }
    sides
    {
        lowReCorrection 0;
        blending        stepwise;
        n               2;
        type            epsilonWallFunction;
        value           nonuniform List<scalar> 0();
    }
    bottom
    {
        lowReCorrection 0;
        blending        stepwise;
        n               2;
        type            epsilonWallFunction;
        value           nonuniform List<scalar> 
12
(
0.000739327290453
0.000742710439774
0.000745604980578
0.000748036608081
0.000750030084325
0.000751596870644
0.000752745778194
0.000753543152689
0.000754036686578
0.000754200184966
0.000754027753803
0.00075352564418
)
;
    }
    front
    {
        lowReCorrection 0;
        blending        stepwise;
        n               2;
        type            epsilonWallFunction;
        value           nonuniform List<scalar> 
164
(
0.000739327290453
0.000769565552471
0.000844491305465
0.000874175344356
0.000887149327605
0.000894511656672
0.000900424058466
0.000906417397731
0.000742710439774
0.000773021156689
0.000848166599261
0.000877690382354
0.000890364898969
0.000897400111324
0.000902984150924
0.000908646981683
0.000915029534833
0.000922862291421
0.000934366309805
0.000745604980578
0.000776008244771
0.00085136013998
0.00088074067126
0.000893149651664
0.00089989926355
0.000905196425345
0.000910563235977
0.000916630346527
0.000924070097378
0.000934897548736
0.000955867018479
0.00100680767044
0.000748036608081
0.000778538692615
0.000854076422872
0.000883332527267
0.000895505792871
0.000902001108562
0.000907048563193
0.000912152149569
0.000917922127749
0.000924950656353
0.000934950744671
0.000953688177644
0.000998466789823
0.00111609729882
0.000750030084325
0.000780621751691
0.000856324416602
0.000885474535268
0.000897442977648
0.00090371399383
0.00090853373269
0.000913402789409
0.000918899520292
0.000925531410488
0.000934692023087
0.000951077856737
0.000989202887416
0.0010905179025
0.000751596870644
0.000782264104531
0.000858112840059
0.000887176790756
0.000898970771861
0.000905048177903
0.00090966775387
0.000914323926369
0.000919572501342
0.000925857498492
0.000934307542731
0.000948736683905
0.000981320322659
0.00106908372769
0.000752745778194
0.00078347386524
0.000859451526617
0.000888449079808
0.000900098408415
0.000906012139256
0.000910459887625
0.000914927850694
0.000919959561009
0.000925956686058
0.000933884368707
0.000946987101817
0.000975942565883
0.00105532786856
0.000753543152689
0.000784275684633
0.000860351929271
0.000889299195173
0.000900833558125
0.000906612528331
0.000910915033502
0.000915221934392
0.000920070497212
0.000925841891636
0.000933425941616
0.000945775511479
0.000972780571129
0.0010478045266
0.000754036686578
0.000784693979376
0.000860830160319
0.000889742621357
0.00090119048688
0.000906860844376
0.000911041477329
0.000915212428
0.000919908222652
0.000925507753908
0.000932883572192
0.000944876064512
0.000970999966694
0.00104383020786
0.000754200184966
0.000784739697761
0.00086090967871
0.000889801895853
0.000901187535328
0.000906772328296
0.000910851840429
0.000914907914413
0.000919476806539
0.000924946227523
0.000932202303101
0.000944074300366
0.00096992646483
0.00104193680909
0.00127863731302
0.00215015254102
0.000754027753803
0.000784436228286
0.000860618442714
0.000889499403064
0.000900840741542
0.000906358383521
0.000910354352511
0.000914313853372
0.000918778430313
0.000924150047301
0.000931343331996
0.000943220368803
0.000969127352324
0.00104125583501
0.00127937435394
0.0021586954624
0.00075352564418
0.000783810785519
0.000859981979456
0.00088885437349
0.000900164135707
0.000905629352322
0.000909556910953
0.000913436274984
0.000917815938385
0.000923114400744
0.000930280400776
0.000942221040743
0.000968291565451
0.00104071925226
0.00128016991755
0.00216453257307
)
;
    }
    atmosphere
    {
        type            inletOutlet;
        inletValue      nonuniform List<scalar> 0();
        value           nonuniform List<scalar> 0();
    }
    floatingObject
    {
        lowReCorrection 0;
        blending        stepwise;
        n               2;
        type            epsilonWallFunction;
        value           nonuniform List<scalar> 0();
    }
    procBoundary7to6
    {
        type            processor;
        value           nonuniform List<scalar> 
11
(
0.00144165261814
0.0013815863019
0.0013331617208
0.00130551163915
0.00129127084168
0.00128248974949
0.00128248974949
0.00216087662119
0.0055514256806
0.00556420747983
0.00555975809968
)
;
    }
    procBoundary7to8
    {
        type            processor;
        value           nonuniform List<scalar> 
17
(
0.000735416682296
0.000765628443138
0.000840326024906
0.000870189286537
0.000883494821118
0.000891224160866
0.000897508752585
0.000903880518086
0.000913148600295
0.000913148600295
0.000921367626539
0.000933383422028
0.000956935146539
0.000956935146539
0.00101188387613
0.00113936846702
0.00113936846702
)
;
    }
    procBoundary7to9
    {
        type            processor;
        value           nonuniform List<scalar> 
16
(
0.000752692990343
0.000782879943931
0.000859019146047
0.000887884190057
0.000899172552024
0.000904597478854
0.000908469082674
0.00091228154699
0.000916590728572
0.000921832441383
0.000928989405565
0.000941013269177
0.000967218320376
0.00103946669967
0.00127622627356
0.0021427602425
)
;
    }
}


// ************************************************************************* //
