/*--------------------------------*- C++ -*----------------------------------*\
| =========                 |                                                 |
| \\      /  F ield         | OpenFOAM: The Open Source CFD Toolbox           |
|  \\    /   O peration     | Version:  v2012                                 |
|   \\  /    A nd           | Website:  www.openfoam.com                      |
|    \\/     M anipulation  |                                                 |
\*---------------------------------------------------------------------------*/
FoamFile
{
    version     2.0;
    format      ascii;
    class       volScalarField;
    location    "4.6";
    object      p;
}
// * * * * * * * * * * * * * * * * * * * * * * * * * * * * * * * * * * * * * //

dimensions      [1 -1 -2 0 0 0 0];


internalField   nonuniform List<scalar> 
164
(
8319.12600638
7829.15415706
7338.8509974
6848.20565826
6357.21355288
5865.87086861
5374.17282398
4882.11314433
8323.09210468
7833.11845246
7342.80959872
6852.15490175
6361.1490857
5869.78728613
5378.06343602
4885.96988379
4393.49689035
3900.63162822
3407.36115233
8327.39964198
7837.42558819
7347.11363005
6856.45347475
6365.43906294
5874.06442808
5382.32215713
4890.20301224
4397.69574892
3904.78629261
3411.45948313
2917.69833403
2423.4786674
8332.05038772
7842.07748321
7351.76539441
6861.10427025
6370.08726514
5878.70722389
5386.95530631
4894.82069429
4402.29058115
3909.35001172
3415.98227737
2922.16910306
2427.8918978
1933.12829206
8337.04447677
7847.07444026
7356.76570516
6866.10878077
6375.0960502
5883.71914277
5391.96769943
4899.82921387
4407.28916376
3914.33131361
3420.93802864
2927.09087175
2432.77311921
1937.96823515
8342.38033055
7852.41496013
7362.11367173
6871.46695104
6380.46636632
5889.10229787
5397.36283303
4905.23356439
4412.69797345
3919.73792704
3426.33438842
2932.46847229
2438.12389848
1943.28885431
8348.05423796
7858.095647
7367.80646082
6877.17683018
6386.19745644
5894.8573839
5403.14297897
4911.03777631
4418.52279974
3925.57723301
3432.17953498
2938.30890269
2443.94753226
1949.08577304
8354.06001642
7864.11088155
7373.83896632
6883.23426687
6392.28650133
5900.98328107
5409.30908236
4917.24505877
4424.76925612
3931.85735257
3438.48382494
2944.6236954
2450.25492034
1955.3654842
8360.38883446
7870.45233404
7380.20349014
6889.63256266
6398.72823995
5907.47664105
5415.86020648
4923.85739885
4431.44279976
3938.58766163
3445.26087752
2951.43087408
2457.06754862
1962.15070252
8367.02912638
7877.10844552
7386.88928895
6896.36206488
6405.51456846
5914.33143729
5422.79305248
4930.87505181
4438.54819526
3945.77852479
3452.52800326
2958.75592213
2464.42117603
1969.48906425
1473.93659294
977.66468467
8373.96501721
7884.06380272
7393.88176399
6903.40941478
6412.63381175
5921.53825506
5430.10119824
4938.29553005
4446.08807113
3953.43930606
3460.30353436
2966.62944421
2472.3616409
1977.44644544
1481.83840296
985.40766672
8381.17662989
7891.29888893
7401.16221064
6910.75717435
6420.0702166
5929.08356367
5437.77401729
4946.11200092
4454.06069637
3961.57537227
3468.60277272
2975.08083245
2480.93895833
1986.10178924
1490.49400493
993.939777018
)
;

boundaryField
{
    back
    {
        type            calculated;
        value           nonuniform List<scalar> 
164
(
8319.12600638
7829.15415706
7338.8509974
6848.20565826
6357.21355288
5865.87086861
5374.17282398
4882.11314433
8323.09210468
7833.11845246
7342.80959872
6852.15490175
6361.1490857
5869.78728613
5378.06343602
4885.96988379
4393.49689035
3900.63162822
3407.36115233
8327.39964198
7837.42558819
7347.11363005
6856.45347475
6365.43906294
5874.06442808
5382.32215713
4890.20301224
4397.69574892
3904.78629261
3411.45948313
2917.69833403
2423.4786674
8332.05038772
7842.07748321
7351.76539441
6861.10427025
6370.08726514
5878.70722389
5386.95530631
4894.82069429
4402.29058115
3909.35001172
3415.98227737
2922.16910306
2427.8918978
1933.12829206
8337.04447677
7847.07444026
7356.76570516
6866.10878077
6375.0960502
5883.71914277
5391.96769943
4899.82921387
4407.28916376
3914.33131361
3420.93802864
2927.09087175
2432.77311921
1937.96823515
8342.38033055
7852.41496013
7362.11367173
6871.46695104
6380.46636632
5889.10229787
5397.36283303
4905.23356439
4412.69797345
3919.73792704
3426.33438842
2932.46847229
2438.12389848
1943.28885431
8348.05423796
7858.095647
7367.80646082
6877.17683018
6386.19745644
5894.8573839
5403.14297897
4911.03777631
4418.52279974
3925.57723301
3432.17953498
2938.30890269
2443.94753226
1949.08577304
8354.06001642
7864.11088155
7373.83896632
6883.23426687
6392.28650133
5900.98328107
5409.30908236
4917.24505877
4424.76925612
3931.85735257
3438.48382494
2944.6236954
2450.25492034
1955.3654842
8360.38883446
7870.45233404
7380.20349014
6889.63256266
6398.72823995
5907.47664105
5415.86020648
4923.85739885
4431.44279976
3938.58766163
3445.26087752
2951.43087408
2457.06754862
1962.15070252
8367.02912638
7877.10844552
7386.88928895
6896.36206488
6405.51456846
5914.33143729
5422.79305248
4930.87505181
4438.54819526
3945.77852479
3452.52800326
2958.75592213
2464.42117603
1969.48906425
1473.93659294
977.66468467
8373.96501721
7884.06380272
7393.88176399
6903.40941478
6412.63381175
5921.53825506
5430.10119824
4938.29553005
4446.08807113
3953.43930606
3460.30353436
2966.62944421
2472.3616409
1977.44644544
1481.83840296
985.40766672
8381.17662989
7891.29888893
7401.16221064
6910.75717435
6420.0702166
5929.08356367
5437.77401729
4946.11200092
4454.06069637
3961.57537227
3468.60277272
2975.08083245
2480.93895833
1986.10178924
1490.49400493
993.939777018
)
;
    }
    sides
    {
        type            calculated;
        value           nonuniform List<scalar> 0();
    }
    bottom
    {
        type            calculated;
        value           nonuniform List<scalar> 
12
(
8563.93510008
8567.90090419
8572.20828128
8576.85895559
8581.85282329
8587.18864175
8592.86254918
8598.86832984
8605.19716149
8611.83762685
8618.77361571
8625.98527538
)
;
    }
    front
    {
        type            calculated;
        value           nonuniform List<scalar> 
164
(
8319.12600638
7829.15415706
7338.8509974
6848.20565826
6357.21355288
5865.87086861
5374.17282398
4882.11314433
8323.09210468
7833.11845246
7342.80959872
6852.15490175
6361.1490857
5869.78728613
5378.06343602
4885.96988379
4393.49689035
3900.63162822
3407.36115233
8327.39964198
7837.42558819
7347.11363005
6856.45347475
6365.43906294
5874.06442808
5382.32215713
4890.20301224
4397.69574892
3904.78629261
3411.45948313
2917.69833403
2423.4786674
8332.05038772
7842.07748321
7351.76539441
6861.10427025
6370.08726514
5878.70722389
5386.95530631
4894.82069429
4402.29058115
3909.35001172
3415.98227737
2922.16910306
2427.8918978
1933.12829206
8337.04447677
7847.07444026
7356.76570516
6866.10878077
6375.0960502
5883.71914277
5391.96769943
4899.82921387
4407.28916376
3914.33131361
3420.93802864
2927.09087175
2432.77311921
1937.96823515
8342.38033055
7852.41496013
7362.11367173
6871.46695104
6380.46636632
5889.10229787
5397.36283303
4905.23356439
4412.69797345
3919.73792704
3426.33438842
2932.46847229
2438.12389848
1943.28885431
8348.05423796
7858.095647
7367.80646082
6877.17683018
6386.19745644
5894.8573839
5403.14297897
4911.03777631
4418.52279974
3925.57723301
3432.17953498
2938.30890269
2443.94753226
1949.08577304
8354.06001642
7864.11088155
7373.83896632
6883.23426687
6392.28650133
5900.98328107
5409.30908236
4917.24505877
4424.76925612
3931.85735257
3438.48382494
2944.6236954
2450.25492034
1955.3654842
8360.38883446
7870.45233404
7380.20349014
6889.63256266
6398.72823995
5907.47664105
5415.86020648
4923.85739885
4431.44279976
3938.58766163
3445.26087752
2951.43087408
2457.06754862
1962.15070252
8367.02912638
7877.10844552
7386.88928895
6896.36206488
6405.51456846
5914.33143729
5422.79305248
4930.87505181
4438.54819526
3945.77852479
3452.52800326
2958.75592213
2464.42117603
1969.48906425
1473.93659294
977.66468467
8373.96501721
7884.06380272
7393.88176399
6903.40941478
6412.63381175
5921.53825506
5430.10119824
4938.29553005
4446.08807113
3953.43930606
3460.30353436
2966.62944421
2472.3616409
1977.44644544
1481.83840296
985.40766672
8381.17662989
7891.29888893
7401.16221064
6910.75717435
6420.0702166
5929.08356367
5437.77401729
4946.11200092
4454.06069637
3961.57537227
3468.60277272
2975.08083245
2480.93895833
1986.10178924
1490.49400493
993.939777018
)
;
    }
    atmosphere
    {
        type            calculated;
        value           nonuniform List<scalar> 0();
    }
    floatingObject
    {
        type            calculated;
        value           nonuniform List<scalar> 0();
    }
    procBoundary7to6
    {
        type            processor;
        value           nonuniform List<scalar> 
11
(
1437.84248444
1442.65165177
1447.94547639
1453.70897827
1459.94134274
1466.66580943
1466.66580943
970.532780698
481.182137576
488.341833081
496.308619735
)
;
    }
    procBoundary7to8
    {
        type            processor;
        value           nonuniform List<scalar> 
17
(
8315.49793648
7825.52901331
7335.23404209
6844.60161988
6353.62769384
5862.30925268
5370.6426518
4878.62303144
4389.68320903
4389.68320903
3896.87375284
3403.67227738
2913.66683465
2913.66683465
2419.52195526
1928.76843634
1928.76843634
)
;
    }
    procBoundary7to9
    {
        type            processor;
        value           nonuniform List<scalar> 
16
(
8388.64060511
7898.79056593
7408.70807737
6918.38371256
6427.80351488
5936.94896871
5445.79569212
4954.31224612
4462.45901787
3970.18703545
3477.43664459
2984.13621829
2490.2011111
1995.53480865
1500.03576327
1003.48456133
)
;
    }
}


// ************************************************************************* //
