/*--------------------------------*- C++ -*----------------------------------*\
| =========                 |                                                 |
| \\      /  F ield         | OpenFOAM: The Open Source CFD Toolbox           |
|  \\    /   O peration     | Version:  v2012                                 |
|   \\  /    A nd           | Website:  www.openfoam.com                      |
|    \\/     M anipulation  |                                                 |
\*---------------------------------------------------------------------------*/
FoamFile
{
    version     2.0;
    format      ascii;
    class       volVectorField;
    location    "5.4";
    object      U;
}
// * * * * * * * * * * * * * * * * * * * * * * * * * * * * * * * * * * * * * //

dimensions      [0 1 -1 0 0 0 0];


internalField   nonuniform List<vector> 
164
(
(-0.00397214935446 0.000868108664638 4.17064863268e-21)
(-0.00424220897441 0.00273891015012 1.48186014336e-20)
(-0.00431555295556 0.0046355711207 5.99023543946e-20)
(-0.00408089618141 0.00667970029589 2.30095794845e-19)
(-0.00339115235593 0.00888701879871 8.00963472316e-19)
(-0.00188838923773 0.0114179292913 2.45070476317e-18)
(0.00238016501601 0.0145829660154 5.94653229653e-18)
(0.0103089171994 0.0216694998347 1.14426968301e-17)
(-0.000840122945462 0.0301252731205 1.83045494088e-17)
(-0.00725151074005 0.0365185238206 1.94747728038e-17)
(-0.0051615104632 0.0491530167022 1.37500874939e-17)
(0.00374984677402 0.0535621609027 1.44801927731e-17)
(-0.0106945506933 0.0485929192741 9.00262926527e-18)
(-0.0182072429563 0.0440595209486 5.16478271148e-18)
(-0.00583817246838 0.000967833106692 2.47508858756e-21)
(-0.00620322941538 0.00301898416566 7.14021109231e-21)
(-0.00635483857395 0.00513703767707 2.86350280717e-20)
(-0.00618057101032 0.0074368644961 1.14271323692e-19)
(-0.00567224648643 0.00983739626901 4.11664024854e-19)
(-0.00485784338998 0.0122972667637 1.30412404626e-18)
(-0.00355832695623 0.0152166728364 3.30170603941e-18)
(-0.00231791816992 0.0215688003531 6.18817083286e-18)
(-0.0080378072864 0.0278265524087 8.23598822953e-18)
(-0.0127752918184 0.0313026192998 8.25970962978e-18)
(-0.0121295186633 0.0349138936107 7.31754056158e-18)
(-0.00724509131675 0.0406412822702 8.43025253227e-18)
(-0.00383007112719 0.0458873110681 6.73556801702e-18)
(-0.0121119624619 0.0472364789691 5.09821303494e-18)
(-0.00788203263537 0.0010434274117 1.77012237007e-21)
(-0.00836918038069 0.00321753141274 2.98757146779e-21)
(-0.00869022741512 0.00547474298358 1.08948590908e-20)
(-0.00870156977655 0.00796259229695 4.39687112061e-20)
(-0.00838898354831 0.0106633514785 1.59944030621e-19)
(-0.00780725843593 0.0136709696016 5.03914641395e-19)
(-0.00705041762603 0.0171800988541 1.27311755322e-18)
(-0.00687127937342 0.0219868903128 2.41841696836e-18)
(-0.0104870986572 0.0264755386596 3.20099093411e-18)
(-0.0143344943073 0.0291454714806 3.49747521587e-18)
(-0.0143461212679 0.0311051140833 3.62506317308e-18)
(-0.011198824927 0.0341595753322 4.37496268313e-18)
(-0.0102260228202 0.0407029325103 4.31636355149e-18)
(-0.0165414606227 0.0466618292504 3.26195477431e-18)
(-0.0100270089554 0.00108997317109 1.55815044612e-21)
(-0.010641328499 0.00334583568862 1.3527354612e-21)
(-0.0111193280071 0.00569271517395 3.4812951856e-21)
(-0.0113220710953 0.00829276786005 1.36697878124e-20)
(-0.0112578591812 0.011122334718 4.94963535544e-20)
(-0.0110711457123 0.0142521794563 1.54332245392e-19)
(-0.0110227036451 0.017780935189 3.89332199246e-19)
(-0.0115702796781 0.0218738917991 7.49487564472e-19)
(-0.0138851506862 0.0257188212633 1.03573482509e-18)
(-0.0166557137883 0.028336338279 1.1367007338e-18)
(-0.0176050597572 0.0304653621756 1.31104987412e-18)
(-0.0169210683238 0.0335394939483 1.73156958125e-18)
(-0.0166162264758 0.0393875133906 1.76368258098e-18)
(-0.0211016221699 0.0455209508548 1.34088312901e-18)
(-0.0122297531168 0.0011058234864 1.33158322573e-21)
(-0.0129725414349 0.00339735873723 7.33554575816e-22)
(-0.0136111812894 0.00577144234708 1.01223874844e-21)
(-0.0140221428073 0.00838146406253 3.70024367543e-21)
(-0.0142267152015 0.0111962055723 1.29759035837e-20)
(-0.0143837924231 0.0142631733182 3.96698488131e-20)
(-0.0147008433045 0.0176196143234 9.92437398741e-20)
(-0.0154419611634 0.0212615286311 1.91741349961e-19)
(-0.0170690445922 0.0247786850441 2.73680006246e-19)
(-0.0190479667117 0.0276939365043 3.12528780761e-19)
(-0.0202800703351 0.0303362319567 3.60358837366e-19)
(-0.0208979271067 0.0336652463298 4.65824012279e-19)
(-0.0219209138105 0.0385261182543 4.86403394982e-19)
(-0.0254534221628 0.0437023832942 3.85538656491e-19)
(-0.0144440839517 0.00110102381648 1.25287856429e-21)
(-0.0153084100032 0.00337802782348 6.09238258682e-22)
(-0.0160976677869 0.00572605481167 3.6447232766e-22)
(-0.0166887530017 0.00828443243194 9.43199896498e-22)
(-0.0171032667137 0.0110044034677 3.07152507107e-21)
(-0.0175023110524 0.0139132095827 8.8832198461e-21)
(-0.0180602734154 0.0170216648495 2.17626627236e-20)
(-0.018934634823 0.0202948885426 4.19740140474e-20)
(-0.0203119412444 0.0235353614534 6.06259668411e-20)
(-0.0219872016992 0.0265308984581 6.99221998575e-20)
(-0.0234924904566 0.029463274629 7.86988483736e-20)
(-0.0248474020511 0.0328398108488 9.52010748814e-20)
(-0.0266031579837 0.0370185306088 9.91545291223e-20)
(-0.0295565154177 0.0413838711529 8.30457583449e-20)
(-0.0166247916531 0.00108158938092 1.29205774152e-21)
(-0.017605038502 0.0033062198851 5.46076666321e-22)
(-0.0185262964069 0.00558975218309 2.35217400793e-22)
(-0.0192638247561 0.00805649831541 3.61345822044e-22)
(-0.0198400133006 0.0106451437021 8.01556606428e-22)
(-0.0204083601544 0.0133634652937 1.84952563934e-21)
(-0.0211221116965 0.0162188529444 4.36472824596e-21)
(-0.0220881198836 0.0191876981426 8.19508468076e-21)
(-0.0233956156246 0.0221769210542 1.17741448172e-20)
(-0.0249757408366 0.0250951000242 1.35828544946e-20)
(-0.0266390017761 0.0280319482356 1.46749542839e-20)
(-0.0284226309458 0.0312452322192 1.6744220916e-20)
(-0.0305901508071 0.0348685926261 1.60065617471e-20)
(-0.0332403920398 0.0385723971781 9.41068003786e-21)
(-0.0187466863464 0.00105385644836 9.87273244186e-22)
(-0.0198315887904 0.00320003956113 3.30783756377e-22)
(-0.0208624952258 0.00539247365079 7.43378036086e-23)
(-0.0217147857023 0.00773940483728 1.74711061047e-22)
(-0.0224098123238 0.0101762815098 3.22317350556e-22)
(-0.0230968968805 0.0127027321088 4.94582936379e-22)
(-0.0239125573467 0.0153185413813 9.54321485575e-22)
(-0.0249497975177 0.018014906294 1.63792756343e-21)
(-0.0262674829066 0.020752423904 2.35555580353e-21)
(-0.0278482751185 0.0234877160895 2.70836307251e-21)
(-0.0296270107649 0.0262669776361 2.62804928358e-21)
(-0.031644732592 0.0291973040429 2.31895849417e-21)
(-0.0339732209423 0.0322734734104 2.1189762888e-22)
(-0.0364087095735 0.0353508812236 -7.9480481094e-21)
(-0.0207955248007 0.0010158543535 2.82429521594e-22)
(-0.021965525425 0.00306542573635 -6.4828330443e-23)
(-0.0230836992276 0.00514728435359 -1.52339088669e-22)
(-0.0240229673325 0.00735504477603 1.9792332178e-23)
(-0.0248003918167 0.00962536201605 1.84169893573e-22)
(-0.0255667739332 0.0119562512916 2.55282280065e-22)
(-0.0264518974794 0.0143433801471 3.24366840865e-22)
(-0.027539903717 0.0167790513918 4.3326595303e-22)
(-0.0288767984102 0.0192414325164 5.79592876308e-22)
(-0.0304634146128 0.02170355153 6.0299752413e-22)
(-0.0323033390708 0.0241804390993 3.96512577952e-22)
(-0.0344176054468 0.0267197810615 -2.0092359717e-22)
(-0.0367537044313 0.029305337273 -2.98986486611e-21)
(-0.0390772155139 0.0318980167068 -1.30132872213e-20)
(-0.0227531547927 0.000970378469615 -1.68543899426e-22)
(-0.0239881611866 0.00290645359041 -2.55988380337e-22)
(-0.0251718388557 0.00486105459221 -2.5576968937e-22)
(-0.0261740672257 0.00691723751546 -3.1684556813e-23)
(-0.0270066682012 0.00901360741024 1.48502778142e-22)
(-0.02782223827 0.0111482780946 2.00036782234e-22)
(-0.0287477562135 0.01331455293 1.9865517012e-22)
(-0.0298595269164 0.0154999346268 2.0895435939e-22)
(-0.0311936808911 0.0176883802185 2.38338350352e-22)
(-0.0327704355076 0.0198639713275 1.66350759717e-22)
(-0.0346166159477 0.0220218019871 2.15421321812e-23)
(-0.0367436208754 0.0241583135234 -5.94485748588e-22)
(-0.0390906168901 0.0262827352794 -3.38101453393e-21)
(-0.0414698267346 0.0284850398866 -1.36752199933e-20)
(-0.0246029336298 0.000918241413592 -2.43136751295e-22)
(-0.0258843369455 0.00272608000958 -3.78936716051e-22)
(-0.0271142697316 0.00454425161762 -2.22694226173e-22)
(-0.0281602397726 0.00644317967978 1.04948386058e-23)
(-0.0290292669075 0.00836559770543 1.52717844936e-22)
(-0.029874105021 0.0103105236114 1.79952694383e-22)
(-0.0308177105135 0.0122709360234 1.59054318725e-22)
(-0.0319292516707 0.014230993118 1.53575563791e-22)
(-0.0332400623598 0.0161733856745 1.45144461155e-22)
(-0.0347809778488 0.0180855500037 1.02807004415e-22)
(-0.0365884590484 0.0199425535891 -1.48750211085e-22)
(-0.0386838004638 0.0217261870226 -7.89838382389e-22)
(-0.0410754012471 0.0234581818411 -3.5308713574e-21)
(-0.043647596897 0.0252674599722 -1.21611441883e-20)
(-0.0350627611257 0.014737368101 9.24821575079e-23)
(-0.0365421391326 0.0164247051223 6.1807061511e-23)
(-0.0382519313301 0.0180270651942 -5.2416151384e-23)
(-0.0402485480984 0.0194975250652 -6.57697686143e-22)
(-0.0426125150266 0.0208186251686 -2.83916509794e-21)
(-0.0453825966719 0.0221149557866 -9.49741793121e-21)
(-0.0414726339334 0.0174792159936 -5.31945589948e-22)
(-0.0436680414681 0.0184851690312 -2.044245505e-21)
(-0.0465479695939 0.0193404334305 -6.00494467401e-21)
(-0.0472796175974 0.0171777622103 -4.43997192877e-21)
)
;

boundaryField
{
    back
    {
        type            noSlip;
    }
    sides
    {
        type            noSlip;
    }
    bottom
    {
        type            noSlip;
    }
    front
    {
        type            noSlip;
    }
    atmosphere
    {
        type            pressureInletOutletVelocity;
        value           nonuniform List<vector> 0();
    }
    floatingObject
    {
        type            movingWallVelocity;
        value           nonuniform List<vector> 4((0 -1.66533453694e-15 2.08166817117e-16) (0 -1.66533453694e-15 2.08166817117e-16) (0 0 0) (0 -3.33066907388e-15 2.08166817117e-16));
    }
    procBoundary8to3
    {
        type            processor;
        value           nonuniform List<vector> 8((-0.00224877713725 0.000797155048049 6.79782942772e-21) (-0.0024182055075 0.00254692716412 2.51951131079e-20) (-0.00244517711163 0.00428086757802 9.89021145652e-20) (-0.00224931862939 0.00597933594742 3.54177224287e-19) (-0.00165862476638 0.00751748900667 1.12774104438e-18) (-0.000244235498219 0.00824249759147 3.22486222776e-18) (0.00390317324893 0.00854110796683 7.0930340652e-18) (0.0123934994913 0.00450428665834 1.2520347915e-17));
    }
    procBoundary8to6
    {
        type            processor;
        value           nonuniform List<vector> 
16
(
(-0.00978583565207 0.00386992825861 4.55214869211e-18)
(-0.0161508808029 0.0169812157814 3.6895346751e-18)
(-0.0249401681619 0.0408077152883 2.85162396194e-18)
(-0.0242126650724 0.0468820842863 2.70131491734e-18)
(-0.0260192315018 0.0490654983457 1.6795405198e-18)
(-0.0281293542057 0.0488038625974 6.7952926128e-19)
(-0.0305757626805 0.0472574081287 1.84746045511e-19)
(-0.0332302042934 0.0448821525825 2.96153594597e-20)
(-0.0358814433745 0.0417105310285 -1.43043668805e-20)
(-0.0384703326426 0.0380159214718 -3.32563945854e-20)
(-0.0409867193686 0.0342662174509 -4.39453466197e-20)
(-0.0435517314644 0.0306992559118 -4.12763020037e-20)
(-0.0461430821567 0.027215479933 -3.58967905245e-20)
(-0.0485411958456 0.0235939075933 -2.4864055159e-20)
(-0.0504825512261 0.0202427959099 -1.6852973098e-20)
(-0.0518245593396 0.0175580645686 -9.2055008883e-21)
)
;
    }
    procBoundary8to7
    {
        type            processor;
        value           nonuniform List<vector> 
17
(
(-0.0263316656205 0.000862605611811 -2.37218031724e-22)
(-0.0276446156203 0.0025332178367 -1.73681332298e-22)
(-0.0289054294733 0.00420962128884 -1.23120815883e-22)
(-0.0299799771263 0.00595109732012 3.28482817968e-23)
(-0.0308719185258 0.00770348787131 1.32855493746e-22)
(-0.0317335634605 0.00946790546386 1.50948338296e-22)
(-0.0326831382108 0.0112386064446 1.34179847568e-22)
(-0.0337826180596 0.0130016760025 1.14056492467e-22)
(-0.0337826180596 0.0130016760025 1.14056492467e-22)
(-0.0366799889654 0.013355672484 6.08215978557e-23)
(-0.0380896857254 0.0148427881503 2.18053084871e-23)
(-0.039667922881 0.0162399534119 -1.03755039485e-22)
(-0.039667922881 0.0162399534119 -1.03755039485e-22)
(-0.0424944465242 0.0156399025871 -5.21105718053e-22)
(-0.0444337962261 0.0165175823701 -1.72242813004e-21)
(-0.0444337962261 0.0165175823701 -1.72242813004e-21)
(-0.0478158376539 0.0156363309232 -3.44238467421e-21)
)
;
    }
}


// ************************************************************************* //
