/*--------------------------------*- C++ -*----------------------------------*\
| =========                 |                                                 |
| \\      /  F ield         | OpenFOAM: The Open Source CFD Toolbox           |
|  \\    /   O peration     | Version:  v2012                                 |
|   \\  /    A nd           | Website:  www.openfoam.com                      |
|    \\/     M anipulation  |                                                 |
\*---------------------------------------------------------------------------*/
FoamFile
{
    version     2.0;
    format      ascii;
    class       volScalarField;
    location    "0.6";
    object      rAU;
}
// * * * * * * * * * * * * * * * * * * * * * * * * * * * * * * * * * * * * * //

dimensions      [-1 3 1 0 0 0 0];


internalField   nonuniform List<scalar> 
164
(
8.22815557367e-06
8.14630271698e-06
8.13478378586e-06
8.13279417651e-06
8.13146703804e-06
8.13025591788e-06
8.12916659277e-06
8.12819721455e-06
8.23099606511e-06
8.1486305701e-06
8.13649170243e-06
8.13382185404e-06
8.13194297659e-06
8.13033881847e-06
8.12898302701e-06
8.12783622798e-06
8.23513291002e-06
8.15174036834e-06
8.13837881144e-06
8.13462594648e-06
8.13202527614e-06
8.12999533156e-06
8.12839905107e-06
8.12711902271e-06
8.12606147744e-06
8.12516081552e-06
8.24155658887e-06
8.15576968449e-06
8.13998415262e-06
8.13465117007e-06
8.13129756457e-06
8.12895666948e-06
8.12724955487e-06
8.12594388324e-06
8.12489401957e-06
8.12400936576e-06
8.25222031987e-06
8.15981157676e-06
8.1397409142e-06
8.13284022839e-06
8.12921776338e-06
8.12696418627e-06
8.12541455013e-06
8.12425689831e-06
8.12332623239e-06
8.12253021201e-06
8.26108965615e-06
8.15619882742e-06
8.13412547517e-06
8.12800210866e-06
8.12545882809e-06
8.12395689106e-06
8.12291312936e-06
8.12209755783e-06
8.12139908269e-06
8.12075980729e-06
8.16867713462e-06
8.12882830328e-06
8.12108129391e-06
8.12063961065e-06
8.12047474499e-06
8.12025547915e-06
8.11996904935e-06
8.11962366155e-06
8.11922786575e-06
8.11878529104e-06
8.11088136987e-06
8.10156246976e-06
8.10811292846e-06
8.11313179767e-06
8.11531015642e-06
8.11641686505e-06
8.11691634822e-06
8.11705839365e-06
8.1169785524e-06
8.11673349662e-06
8.16014429225e-06
8.0993300103e-06
8.10218945024e-06
8.10793601158e-06
8.11126609242e-06
8.11315730129e-06
8.11416445174e-06
8.11462905063e-06
8.11477130437e-06
8.11468886061e-06
8.18195872259e-06
8.10707473609e-06
8.1023018139e-06
8.1060001571e-06
8.10903992101e-06
8.11096235733e-06
8.11207023692e-06
8.11263634174e-06
8.11284460073e-06
8.11280459082e-06
8.19344796582e-06
8.11448075256e-06
8.1049614649e-06
8.10646489065e-06
8.10846477022e-06
8.10987185826e-06
8.11074317226e-06
8.11119305834e-06
8.11130674418e-06
8.11119614978e-06
8.20057612876e-06
8.12022669955e-06
8.10799939764e-06
8.1081033602e-06
8.109021537e-06
8.10969504859e-06
8.11010821711e-06
8.11025031183e-06
8.11016249904e-06
8.10992375509e-06
8.20581868854e-06
8.12481261254e-06
8.1108368299e-06
8.11015301326e-06
8.11021497662e-06
8.11016498568e-06
8.11001235253e-06
8.10972255761e-06
8.10935441579e-06
8.10895462657e-06
8.21001902012e-06
8.12859021771e-06
8.11337372579e-06
8.11226892887e-06
8.11168895462e-06
8.11099104185e-06
8.11027933679e-06
8.10952158561e-06
8.10880524298e-06
8.10820179085e-06
8.21342215779e-06
8.13173664566e-06
8.11562758005e-06
8.11433306181e-06
8.11325193054e-06
8.11196123849e-06
8.11070898882e-06
8.10947766718e-06
8.10840936618e-06
8.10761942397e-06
8.21629598721e-06
8.13442509327e-06
8.11767694745e-06
8.11631189291e-06
8.11480574447e-06
8.1129491271e-06
8.11115176521e-06
8.10939700288e-06
8.10800973547e-06
8.10715676007e-06
8.21880702076e-06
8.13675119211e-06
8.11957909192e-06
8.11818552785e-06
8.11627856284e-06
8.11384539891e-06
8.11146356599e-06
8.11759919049e-06
)
;

boundaryField
{
    back
    {
        type            calculated;
        value           nonuniform List<scalar> 
164
(
8.22815557367e-06
8.14630271698e-06
8.13478378586e-06
8.13279417651e-06
8.13146703804e-06
8.13025591788e-06
8.12916659277e-06
8.12819721455e-06
8.23099606511e-06
8.1486305701e-06
8.13649170243e-06
8.13382185404e-06
8.13194297659e-06
8.13033881847e-06
8.12898302701e-06
8.12783622798e-06
8.23513291002e-06
8.15174036834e-06
8.13837881144e-06
8.13462594648e-06
8.13202527614e-06
8.12999533156e-06
8.12839905107e-06
8.12711902271e-06
8.12606147744e-06
8.12516081552e-06
8.24155658887e-06
8.15576968449e-06
8.13998415262e-06
8.13465117007e-06
8.13129756457e-06
8.12895666948e-06
8.12724955487e-06
8.12594388324e-06
8.12489401957e-06
8.12400936576e-06
8.25222031987e-06
8.15981157676e-06
8.1397409142e-06
8.13284022839e-06
8.12921776338e-06
8.12696418627e-06
8.12541455013e-06
8.12425689831e-06
8.12332623239e-06
8.12253021201e-06
8.26108965615e-06
8.15619882742e-06
8.13412547517e-06
8.12800210866e-06
8.12545882809e-06
8.12395689106e-06
8.12291312936e-06
8.12209755783e-06
8.12139908269e-06
8.12075980729e-06
8.16867713462e-06
8.12882830328e-06
8.12108129391e-06
8.12063961065e-06
8.12047474499e-06
8.12025547915e-06
8.11996904935e-06
8.11962366155e-06
8.11922786575e-06
8.11878529104e-06
8.11088136987e-06
8.10156246976e-06
8.10811292846e-06
8.11313179767e-06
8.11531015642e-06
8.11641686505e-06
8.11691634822e-06
8.11705839365e-06
8.1169785524e-06
8.11673349662e-06
8.16014429225e-06
8.0993300103e-06
8.10218945024e-06
8.10793601158e-06
8.11126609242e-06
8.11315730129e-06
8.11416445174e-06
8.11462905063e-06
8.11477130437e-06
8.11468886061e-06
8.18195872259e-06
8.10707473609e-06
8.1023018139e-06
8.1060001571e-06
8.10903992101e-06
8.11096235733e-06
8.11207023692e-06
8.11263634174e-06
8.11284460073e-06
8.11280459082e-06
8.19344796582e-06
8.11448075256e-06
8.1049614649e-06
8.10646489065e-06
8.10846477022e-06
8.10987185826e-06
8.11074317226e-06
8.11119305834e-06
8.11130674418e-06
8.11119614978e-06
8.20057612876e-06
8.12022669955e-06
8.10799939764e-06
8.1081033602e-06
8.109021537e-06
8.10969504859e-06
8.11010821711e-06
8.11025031183e-06
8.11016249904e-06
8.10992375509e-06
8.20581868854e-06
8.12481261254e-06
8.1108368299e-06
8.11015301326e-06
8.11021497662e-06
8.11016498568e-06
8.11001235253e-06
8.10972255761e-06
8.10935441579e-06
8.10895462657e-06
8.21001902012e-06
8.12859021771e-06
8.11337372579e-06
8.11226892887e-06
8.11168895462e-06
8.11099104185e-06
8.11027933679e-06
8.10952158561e-06
8.10880524298e-06
8.10820179085e-06
8.21342215779e-06
8.13173664566e-06
8.11562758005e-06
8.11433306181e-06
8.11325193054e-06
8.11196123849e-06
8.11070898882e-06
8.10947766718e-06
8.10840936618e-06
8.10761942397e-06
8.21629598721e-06
8.13442509327e-06
8.11767694745e-06
8.11631189291e-06
8.11480574447e-06
8.1129491271e-06
8.11115176521e-06
8.10939700288e-06
8.10800973547e-06
8.10715676007e-06
8.21880702076e-06
8.13675119211e-06
8.11957909192e-06
8.11818552785e-06
8.11627856284e-06
8.11384539891e-06
8.11146356599e-06
8.11759919049e-06
)
;
    }
    sides
    {
        type            calculated;
        value           nonuniform List<scalar> 0();
    }
    bottom
    {
        type            calculated;
        value           nonuniform List<scalar> 
17
(
8.22815557367e-06
8.23099606511e-06
8.23513291002e-06
8.24155658887e-06
8.25222031987e-06
8.26108965615e-06
8.16867713462e-06
8.11088136987e-06
8.16014429225e-06
8.18195872259e-06
8.19344796582e-06
8.20057612876e-06
8.20581868854e-06
8.21001902012e-06
8.21342215779e-06
8.21629598721e-06
8.21880702076e-06
)
;
    }
    front
    {
        type            calculated;
        value           nonuniform List<scalar> 
164
(
8.22815557367e-06
8.14630271698e-06
8.13478378586e-06
8.13279417651e-06
8.13146703804e-06
8.13025591788e-06
8.12916659277e-06
8.12819721455e-06
8.23099606511e-06
8.1486305701e-06
8.13649170243e-06
8.13382185404e-06
8.13194297659e-06
8.13033881847e-06
8.12898302701e-06
8.12783622798e-06
8.23513291002e-06
8.15174036834e-06
8.13837881144e-06
8.13462594648e-06
8.13202527614e-06
8.12999533156e-06
8.12839905107e-06
8.12711902271e-06
8.12606147744e-06
8.12516081552e-06
8.24155658887e-06
8.15576968449e-06
8.13998415262e-06
8.13465117007e-06
8.13129756457e-06
8.12895666948e-06
8.12724955487e-06
8.12594388324e-06
8.12489401957e-06
8.12400936576e-06
8.25222031987e-06
8.15981157676e-06
8.1397409142e-06
8.13284022839e-06
8.12921776338e-06
8.12696418627e-06
8.12541455013e-06
8.12425689831e-06
8.12332623239e-06
8.12253021201e-06
8.26108965615e-06
8.15619882742e-06
8.13412547517e-06
8.12800210866e-06
8.12545882809e-06
8.12395689106e-06
8.12291312936e-06
8.12209755783e-06
8.12139908269e-06
8.12075980729e-06
8.16867713462e-06
8.12882830328e-06
8.12108129391e-06
8.12063961065e-06
8.12047474499e-06
8.12025547915e-06
8.11996904935e-06
8.11962366155e-06
8.11922786575e-06
8.11878529104e-06
8.11088136987e-06
8.10156246976e-06
8.10811292846e-06
8.11313179767e-06
8.11531015642e-06
8.11641686505e-06
8.11691634822e-06
8.11705839365e-06
8.1169785524e-06
8.11673349662e-06
8.16014429225e-06
8.0993300103e-06
8.10218945024e-06
8.10793601158e-06
8.11126609242e-06
8.11315730129e-06
8.11416445174e-06
8.11462905063e-06
8.11477130437e-06
8.11468886061e-06
8.18195872259e-06
8.10707473609e-06
8.1023018139e-06
8.1060001571e-06
8.10903992101e-06
8.11096235733e-06
8.11207023692e-06
8.11263634174e-06
8.11284460073e-06
8.11280459082e-06
8.19344796582e-06
8.11448075256e-06
8.1049614649e-06
8.10646489065e-06
8.10846477022e-06
8.10987185826e-06
8.11074317226e-06
8.11119305834e-06
8.11130674418e-06
8.11119614978e-06
8.20057612876e-06
8.12022669955e-06
8.10799939764e-06
8.1081033602e-06
8.109021537e-06
8.10969504859e-06
8.11010821711e-06
8.11025031183e-06
8.11016249904e-06
8.10992375509e-06
8.20581868854e-06
8.12481261254e-06
8.1108368299e-06
8.11015301326e-06
8.11021497662e-06
8.11016498568e-06
8.11001235253e-06
8.10972255761e-06
8.10935441579e-06
8.10895462657e-06
8.21001902012e-06
8.12859021771e-06
8.11337372579e-06
8.11226892887e-06
8.11168895462e-06
8.11099104185e-06
8.11027933679e-06
8.10952158561e-06
8.10880524298e-06
8.10820179085e-06
8.21342215779e-06
8.13173664566e-06
8.11562758005e-06
8.11433306181e-06
8.11325193054e-06
8.11196123849e-06
8.11070898882e-06
8.10947766718e-06
8.10840936618e-06
8.10761942397e-06
8.21629598721e-06
8.13442509327e-06
8.11767694745e-06
8.11631189291e-06
8.11480574447e-06
8.1129491271e-06
8.11115176521e-06
8.10939700288e-06
8.10800973547e-06
8.10715676007e-06
8.21880702076e-06
8.13675119211e-06
8.11957909192e-06
8.11818552785e-06
8.11627856284e-06
8.11384539891e-06
8.11146356599e-06
8.11759919049e-06
)
;
    }
    atmosphere
    {
        type            calculated;
        value           nonuniform List<scalar> 0();
    }
    floatingObject
    {
        type            calculated;
        value           nonuniform List<scalar> 0();
    }
    procBoundary4to0
    {
        type            processor;
        value           nonuniform List<scalar> 8(8.22611832647e-06 8.14455456434e-06 8.13335339722e-06 8.13178453641e-06 8.1308469919e-06 8.12995047862e-06 8.12910227583e-06 8.12831170602e-06);
    }
    procBoundary4to3
    {
        type            processor;
        value           nonuniform List<scalar> 
13
(
8.10907849285e-06
8.10748803196e-06
8.10683528998e-06
8.22090304811e-06
8.13868933945e-06
8.12134251448e-06
8.11992918106e-06
8.1145304703e-06
8.10907849285e-06
8.11144271805e-06
8.11992918106e-06
8.1145304703e-06
8.11870715128e-06
)
;
    }
    procBoundary4to5
    {
        type            processor;
        value           nonuniform List<scalar> 
18
(
8.12733220709e-06
8.12685304701e-06
8.12685304701e-06
8.1259949661e-06
8.12437066483e-06
8.12323176696e-06
8.12181303576e-06
8.12014488998e-06
8.11829414763e-06
8.11635759595e-06
8.11441347411e-06
8.11256739346e-06
8.11095466992e-06
8.10962396197e-06
8.10856412824e-06
8.10772392053e-06
8.10707357729e-06
8.1066503041e-06
)
;
    }
}


// ************************************************************************* //
