/*--------------------------------*- C++ -*----------------------------------*\
| =========                 |                                                 |
| \\      /  F ield         | OpenFOAM: The Open Source CFD Toolbox           |
|  \\    /   O peration     | Version:  v2012                                 |
|   \\  /    A nd           | Website:  www.openfoam.com                      |
|    \\/     M anipulation  |                                                 |
\*---------------------------------------------------------------------------*/
FoamFile
{
    version     2.0;
    format      ascii;
    class       volScalarField;
    location    "0.4";
    object      ddt0(k);
}
// * * * * * * * * * * * * * * * * * * * * * * * * * * * * * * * * * * * * * //

dimensions      [0 2 -3 0 0 0 0];


internalField   nonuniform List<scalar> 
164
(
-0.0734790442621
-0.0783085356598
-0.0773075428181
-0.076731760863
-0.0765545174907
-0.0765696614906
-0.076912679661
-0.0770093081733
-0.0716302783918
-0.0709466497302
-0.0714883056022
-0.0726772792951
-0.0767887755427
-0.078359130158
-0.0734114913649
-0.0782528873296
-0.0772398702224
-0.0766505872031
-0.0764506146329
-0.0763772546839
-0.0764018883591
-0.0766087027588
-0.0762363070256
-0.0762016005904
-0.0763415033227
-0.0766293150143
-0.0770966267146
-0.0773474056002
-0.0733332653063
-0.0781753312936
-0.0771510269275
-0.076556948929
-0.0763518816044
-0.0762582682174
-0.076193685008
-0.0761678034873
-0.0761268832563
-0.0761121664558
-0.0761486567264
-0.0762681012268
-0.0764522965334
-0.0766684341045
-0.0732479311218
-0.0780791809228
-0.0770457035741
-0.0764552668098
-0.0762536312427
-0.0761601209186
-0.0760857253527
-0.0760206070448
-0.0759685458014
-0.0759294519699
-0.0759286133905
-0.0759888162046
-0.0761154015331
-0.0763127989249
-0.0731589161948
-0.0779697800433
-0.0769300236417
-0.0763503849081
-0.076156826108
-0.0760675789066
-0.0759950615088
-0.0759254889146
-0.075864095805
-0.0758143416759
-0.0757920288415
-0.0758129603913
-0.075887444751
-0.0760260332642
-0.0730691379329
-0.07785245655
-0.0768099049546
-0.0762466649505
-0.0760639184872
-0.0759798840562
-0.0759101172211
-0.0758405597632
-0.0757742343754
-0.0757155988356
-0.0756743828264
-0.0756616631525
-0.0756870383488
-0.0757596793036
-0.0729809738688
-0.0777318052908
-0.07669035212
-0.07614751175
-0.0759770048506
-0.0758982941251
-0.0758309379774
-0.0757615203968
-0.0756914316634
-0.0756245662697
-0.0755668052002
-0.0755260163438
-0.0755088596318
-0.0755198689697
-0.0728962351034
-0.077611569634
-0.0765752879369
-0.0760553854977
-0.0758975817503
-0.0758240032299
-0.0757588075858
-0.0756895417112
-0.0756165667256
-0.0755428297697
-0.0754716650653
-0.075408358487
-0.0753561746504
-0.0753114093179
-0.0728160949484
-0.0774948337839
-0.0764676957456
-0.0759719827248
-0.0758266606195
-0.0757579006052
-0.0756947957689
-0.0756259714675
-0.0755511108178
-0.075472290003
-0.0753917170475
-0.0753115807336
-0.075232939694
-0.0751453520064
-0.0727416225427
-0.0773841092241
-0.0763698340889
-0.0758984818209
-0.0757649319212
-0.0757006342865
-0.0756396193551
-0.0755717157349
-0.0754963959855
-0.0754145939007
-0.0753277757209
-0.0752359812716
-0.0751380177425
-0.075020509314
-0.0726752553294
-0.0772798563117
-0.0762828340919
-0.0758354829242
-0.0757127310203
-0.0756526149019
-0.075593873755
-0.0755275631684
-0.0754529460915
-0.0753701716943
-0.0752796484794
-0.0751816019636
-0.0750740580964
-0.0748972754394
-0.075420767547
-0.0753388511752
-0.0752486229072
-0.075134281206
-0.0750090250347
-0.0748310023134
-0.0751129501402
-0.0749873352671
-0.0748044371817
-0.0748087937399
)
;

boundaryField
{
    back
    {
        type            calculated;
        value           nonuniform List<scalar> 
164
(
-0.0734790442621
-0.0783085356598
-0.0773075428181
-0.076731760863
-0.0765545174907
-0.0765696614906
-0.076912679661
-0.0770093081733
-0.0716302783918
-0.0709466497302
-0.0714883056022
-0.0726772792951
-0.0767887755427
-0.078359130158
-0.0734114913649
-0.0782528873296
-0.0772398702224
-0.0766505872031
-0.0764506146329
-0.076377254684
-0.0764018883591
-0.0766087027588
-0.0762363070256
-0.0762016005904
-0.0763415033227
-0.0766293150143
-0.0770966267146
-0.0773474056002
-0.0733332653063
-0.0781753312936
-0.0771510269275
-0.076556948929
-0.0763518816044
-0.0762582682174
-0.076193685008
-0.0761678034873
-0.0761268832563
-0.0761121664558
-0.0761486567264
-0.0762681012268
-0.0764522965334
-0.0766684341045
-0.0732479311218
-0.0780791809228
-0.0770457035741
-0.0764552668098
-0.0762536312427
-0.0761601209186
-0.0760857253527
-0.0760206070448
-0.0759685458014
-0.0759294519699
-0.0759286133905
-0.0759888162046
-0.0761154015331
-0.0763127989249
-0.0731589161948
-0.0779697800433
-0.0769300236417
-0.0763503849081
-0.076156826108
-0.0760675789066
-0.0759950615088
-0.0759254889146
-0.075864095805
-0.0758143416759
-0.0757920288415
-0.0758129603913
-0.075887444751
-0.0760260332642
-0.0730691379329
-0.07785245655
-0.0768099049546
-0.0762466649505
-0.0760639184872
-0.0759798840562
-0.0759101172211
-0.0758405597632
-0.0757742343754
-0.0757155988356
-0.0756743828264
-0.0756616631525
-0.0756870383488
-0.0757596793036
-0.0729809738688
-0.0777318052908
-0.07669035212
-0.07614751175
-0.0759770048506
-0.0758982941251
-0.0758309379775
-0.0757615203968
-0.0756914316634
-0.0756245662697
-0.0755668052002
-0.0755260163438
-0.0755088596318
-0.0755198689697
-0.0728962351034
-0.077611569634
-0.0765752879369
-0.0760553854977
-0.0758975817503
-0.0758240032299
-0.0757588075858
-0.0756895417112
-0.0756165667256
-0.0755428297697
-0.0754716650653
-0.075408358487
-0.0753561746504
-0.0753114093179
-0.0728160949484
-0.0774948337839
-0.0764676957456
-0.0759719827248
-0.0758266606195
-0.0757579006052
-0.0756947957689
-0.0756259714675
-0.0755511108178
-0.075472290003
-0.0753917170475
-0.0753115807336
-0.075232939694
-0.0751453520064
-0.0727416225427
-0.0773841092241
-0.0763698340889
-0.0758984818209
-0.0757649319212
-0.0757006342865
-0.0756396193551
-0.0755717157349
-0.0754963959855
-0.0754145939007
-0.0753277757209
-0.0752359812716
-0.0751380177425
-0.075020509314
-0.0726752553294
-0.0772798563117
-0.0762828340919
-0.0758354829242
-0.0757127310203
-0.0756526149019
-0.075593873755
-0.0755275631684
-0.0754529460915
-0.0753701716943
-0.0752796484794
-0.0751816019636
-0.0750740580964
-0.0748972754394
-0.075420767547
-0.0753388511752
-0.0752486229072
-0.075134281206
-0.0750090250347
-0.0748310023134
-0.0751129501402
-0.0749873352671
-0.0748044371817
-0.0748087937399
)
;
    }
    sides
    {
        type            calculated;
        value           nonuniform List<scalar> 0();
    }
    bottom
    {
        type            calculated;
        value           nonuniform List<scalar> 
11
(
-0.0734790442621
-0.0734114913649
-0.0733332653063
-0.0732479311218
-0.0731589161948
-0.0730691379329
-0.0729809738688
-0.0728962351034
-0.0728160949484
-0.0727416225427
-0.0726752553294
)
;
    }
    front
    {
        type            calculated;
        value           nonuniform List<scalar> 
164
(
-0.0734790442621
-0.0783085356598
-0.0773075428181
-0.076731760863
-0.0765545174907
-0.0765696614906
-0.076912679661
-0.0770093081733
-0.0716302783918
-0.0709466497302
-0.0714883056022
-0.0726772792951
-0.0767887755427
-0.078359130158
-0.0734114913649
-0.0782528873296
-0.0772398702224
-0.0766505872031
-0.0764506146329
-0.076377254684
-0.0764018883591
-0.0766087027588
-0.0762363070256
-0.0762016005904
-0.0763415033227
-0.0766293150143
-0.0770966267146
-0.0773474056002
-0.0733332653063
-0.0781753312936
-0.0771510269275
-0.076556948929
-0.0763518816044
-0.0762582682174
-0.076193685008
-0.0761678034873
-0.0761268832563
-0.0761121664558
-0.0761486567264
-0.0762681012268
-0.0764522965334
-0.0766684341045
-0.0732479311218
-0.0780791809228
-0.0770457035741
-0.0764552668098
-0.0762536312427
-0.0761601209186
-0.0760857253527
-0.0760206070448
-0.0759685458014
-0.0759294519699
-0.0759286133905
-0.0759888162046
-0.0761154015331
-0.0763127989249
-0.0731589161948
-0.0779697800433
-0.0769300236417
-0.0763503849081
-0.076156826108
-0.0760675789066
-0.0759950615088
-0.0759254889146
-0.075864095805
-0.0758143416759
-0.0757920288415
-0.0758129603913
-0.075887444751
-0.0760260332642
-0.0730691379329
-0.07785245655
-0.0768099049546
-0.0762466649505
-0.0760639184872
-0.0759798840562
-0.0759101172211
-0.0758405597632
-0.0757742343754
-0.0757155988356
-0.0756743828264
-0.0756616631525
-0.0756870383488
-0.0757596793036
-0.0729809738688
-0.0777318052908
-0.07669035212
-0.07614751175
-0.0759770048506
-0.0758982941251
-0.0758309379775
-0.0757615203968
-0.0756914316634
-0.0756245662697
-0.0755668052002
-0.0755260163438
-0.0755088596318
-0.0755198689697
-0.0728962351034
-0.077611569634
-0.0765752879369
-0.0760553854977
-0.0758975817503
-0.0758240032299
-0.0757588075858
-0.0756895417112
-0.0756165667256
-0.0755428297697
-0.0754716650653
-0.075408358487
-0.0753561746504
-0.0753114093179
-0.0728160949484
-0.0774948337839
-0.0764676957456
-0.0759719827248
-0.0758266606195
-0.0757579006052
-0.0756947957689
-0.0756259714675
-0.0755511108178
-0.075472290003
-0.0753917170475
-0.0753115807336
-0.075232939694
-0.0751453520064
-0.0727416225427
-0.0773841092241
-0.0763698340889
-0.0758984818209
-0.0757649319212
-0.0757006342865
-0.0756396193551
-0.0755717157349
-0.0754963959855
-0.0754145939007
-0.0753277757209
-0.0752359812716
-0.0751380177425
-0.075020509314
-0.0726752553294
-0.0772798563117
-0.0762828340919
-0.0758354829242
-0.0757127310203
-0.0756526149019
-0.075593873755
-0.0755275631684
-0.0754529460915
-0.0753701716943
-0.0752796484794
-0.0751816019636
-0.0750740580964
-0.0748972754394
-0.075420767547
-0.0753388511752
-0.0752486229072
-0.075134281206
-0.0750090250347
-0.0748310023134
-0.0751129501402
-0.0749873352671
-0.0748044371817
-0.0748087937399
)
;
    }
    atmosphere
    {
        type            calculated;
        value           nonuniform List<scalar> 0();
    }
    floatingObject
    {
        type            calculated;
        value           nonuniform List<scalar> 4(-0.0716302783918 -0.0709466497302 -0.0714883056022 -0.0726772792951);
    }
    procBoundary8to3
    {
        type            processor;
        value           nonuniform List<scalar> 8(-0.0735317276917 -0.078341593586 -0.077350472093 -0.0767922538308 -0.0766487973004 -0.0767683781504 -0.0770229388747 -0.0719298033537);
    }
    procBoundary8to6
    {
        type            processor;
        value           nonuniform List<scalar> 
16
(
-0.0742355625898
-0.0781931807281
-0.0785497135242
-0.0775264071574
-0.0769841371233
-0.0766302423347
-0.076263835454
-0.0758915762374
-0.0755469023018
-0.0752353044682
-0.0749829811663
-0.07477233519
-0.0745158772825
-0.0743834722043
-0.0743312190134
-0.074340652797
)
;
    }
    procBoundary8to7
    {
        type            processor;
        value           nonuniform List<scalar> 
17
(
-0.0726221250284
-0.0771803979265
-0.0762066858253
-0.0757831727914
-0.0756703044074
-0.0756141522945
-0.0755579272852
-0.0754938121317
-0.0754938121317
-0.0753980859149
-0.0753138771586
-0.0752198414647
-0.0752198414647
-0.0751096665377
-0.0749876357898
-0.0749876357898
-0.074836635491
)
;
    }
}


// ************************************************************************* //
