/*--------------------------------*- C++ -*----------------------------------*\
| =========                 |                                                 |
| \\      /  F ield         | OpenFOAM: The Open Source CFD Toolbox           |
|  \\    /   O peration     | Version:  v2012                                 |
|   \\  /    A nd           | Website:  www.openfoam.com                      |
|    \\/     M anipulation  |                                                 |
\*---------------------------------------------------------------------------*/
FoamFile
{
    version     2.0;
    format      ascii;
    class       volScalarField;
    location    "2.1";
    object      p_rgh;
}
// * * * * * * * * * * * * * * * * * * * * * * * * * * * * * * * * * * * * * //

dimensions      [1 -1 -2 0 0 0 0];


internalField   nonuniform List<scalar> 
166
(
8603.21296807
8600.28454272
8596.78434311
8592.61889628
8587.67067298
8581.79374645
8574.80710546
8566.47237276
8556.47782131
8497.56938677
3955.84803819
1.67206741113
0.0355355295284
8606.69527297
8604.55611959
8601.9469604
8598.80507695
8595.05096967
8590.58387577
8585.27669173
8578.96555579
8571.43921723
8562.42824586
8551.58077373
8485.62375041
3845.6024176
0.519031586809
0.062703137223
8611.36927618
8611.05364933
8607.97129048
8606.17154613
8603.93299039
8601.20660369
8597.92942926
8594.0213057
8589.38059001
8583.87693681
8577.34286816
8569.56115714
8560.2481493
8549.08430859
8491.33905265
3782.66378922
0.260607662166
0.0888079909762
8611.42936243
8611.09987093
8610.41662563
8609.36242808
8607.92687455
8606.08182354
8603.79163795
8601.00985148
8597.67654582
8593.71614151
8589.03194684
8583.49995507
8576.96024789
8569.20428498
8559.95632953
8548.92199296
8497.35196879
3770.2670345
0.266474828927
0.0420676693869
8611.83052904
8611.49309021
8610.80030975
8609.73468395
8608.28777766
8606.43230215
8604.13598657
8601.35735748
8598.0428991
8594.12686804
8589.52313117
8584.12314455
8577.78643594
8570.33291222
8561.51675107
8551.07608247
8507.02560822
3821.46896477
0.705634811522
0.011999254991
8612.57897269
8612.23887852
8611.54792395
8610.48838148
8609.05310949
8607.21860251
8604.95704185
8602.23424446
8599.00566626
8595.21711031
8590.80210026
8585.67334367
8579.72153247
8572.81263521
8564.75863247
8555.36341899
8524.23375186
3929.28986935
2.27487336185
-0.0160912107528
8613.67386112
8613.3350535
8612.65680794
8611.61800641
8610.21505906
8608.4281701
8606.23587686
8603.61038826
8600.52012732
8596.92666335
8592.785163
8588.03402118
8582.60567089
8576.42068588
8569.376999
8561.36610181
8546.72258783
4086.08413299
6.30887226511
-0.0515190065743
8615.10995635
8614.7746428
8614.11944645
8613.1129977
8611.75898017
8610.04049308
8607.94215469
8605.44494018
8602.52966764
8599.17611171
8595.36381633
8591.05574114
8586.23077609
8580.8698937
8574.95961379
8568.48974687
8561.27706832
4288.59312166
12.5441569827
-0.0347932451538
8616.88136401
8616.54577741
8615.92537574
8614.95861608
8613.66486358
8612.02879933
8610.04093329
8607.69093601
8604.96903773
8601.87378362
8598.4234999
8594.57587464
8590.36891627
8585.8410552
8581.06261693
8576.08129487
8571.06136375
4507.76357564
17.6515097074
-0.0122039154261
)
;

boundaryField
{
    back
    {
        type            fixedFluxPressure;
        gradient        uniform 0;
        value           nonuniform List<scalar> 
166
(
8603.21296807
8600.28454272
8596.78434311
8592.61889628
8587.67067298
8581.79374645
8574.80710546
8566.47237276
8556.47782131
8497.56938677
3955.84803819
1.67206741113
0.0355355295284
8606.69527297
8604.55611959
8601.9469604
8598.80507695
8595.05096967
8590.58387577
8585.27669173
8578.96555579
8571.43921723
8562.42824586
8551.58077373
8485.62375041
3845.6024176
0.519031586809
0.062703137223
8611.36927618
8611.05364933
8607.97129048
8606.17154613
8603.93299039
8601.20660369
8597.92942926
8594.0213057
8589.38059001
8583.87693681
8577.34286816
8569.56115714
8560.2481493
8549.08430859
8491.33905265
3782.66378922
0.260607662166
0.0888079909762
8611.42936243
8611.09987093
8610.41662563
8609.36242808
8607.92687455
8606.08182354
8603.79163795
8601.00985148
8597.67654582
8593.71614151
8589.03194684
8583.49995507
8576.96024789
8569.20428498
8559.95632953
8548.92199296
8497.35196879
3770.2670345
0.266474828927
0.0420676693869
8611.83052904
8611.49309021
8610.80030975
8609.73468395
8608.28777766
8606.43230215
8604.13598657
8601.35735748
8598.0428991
8594.12686804
8589.52313117
8584.12314455
8577.78643594
8570.33291222
8561.51675107
8551.07608247
8507.02560822
3821.46896477
0.705634811522
0.011999254991
8612.57897269
8612.23887852
8611.54792395
8610.48838148
8609.05310949
8607.21860251
8604.95704185
8602.23424446
8599.00566626
8595.21711031
8590.80210026
8585.67334367
8579.72153247
8572.81263521
8564.75863247
8555.36341899
8524.23375186
3929.28986935
2.27487336185
-0.0160912107528
8613.67386112
8613.3350535
8612.65680794
8611.61800641
8610.21505906
8608.4281701
8606.23587686
8603.61038826
8600.52012732
8596.92666335
8592.785163
8588.03402118
8582.60567089
8576.42068588
8569.376999
8561.36610181
8546.72258783
4086.08413299
6.30887226511
-0.0515190065743
8615.10995635
8614.7746428
8614.11944645
8613.1129977
8611.75898017
8610.04049308
8607.94215469
8605.44494018
8602.52966764
8599.17611171
8595.36381633
8591.05574114
8586.23077609
8580.8698937
8574.95961379
8568.48974687
8561.27706832
4288.59312166
12.5441569827
-0.0347932451538
8616.88136401
8616.54577741
8615.92537574
8614.95861608
8613.66486358
8612.02879933
8610.04093329
8607.69093601
8604.96903773
8601.87378362
8598.4234999
8594.57587464
8590.36891627
8585.8410552
8581.06261693
8576.08129487
8571.06136375
4507.76357564
17.6515097074
-0.0122039154261
)
;
    }
    sides
    {
        type            fixedFluxPressure;
        gradient        nonuniform List<scalar> 0();
        value           nonuniform List<scalar> 0();
    }
    bottom
    {
        type            fixedFluxPressure;
        gradient        uniform 0;
        value           nonuniform List<scalar> 7(8611.36927618 8611.42936243 8611.83052904 8612.57897269 8613.67386112 8615.10995635 8616.88136401);
    }
    front
    {
        type            fixedFluxPressure;
        gradient        uniform 0;
        value           nonuniform List<scalar> 
166
(
8603.21296807
8600.28454272
8596.78434311
8592.61889628
8587.67067298
8581.79374645
8574.80710546
8566.47237276
8556.47782131
8497.56938677
3955.84803819
1.67206741113
0.0355355295284
8606.69527297
8604.55611959
8601.9469604
8598.80507695
8595.05096967
8590.58387577
8585.27669173
8578.96555579
8571.43921723
8562.42824586
8551.58077373
8485.62375041
3845.6024176
0.519031586809
0.062703137223
8611.36927618
8611.05364933
8607.97129048
8606.17154613
8603.93299039
8601.20660369
8597.92942926
8594.0213057
8589.38059001
8583.87693681
8577.34286816
8569.56115714
8560.2481493
8549.08430859
8491.33905265
3782.66378922
0.260607662166
0.0888079909762
8611.42936243
8611.09987093
8610.41662563
8609.36242808
8607.92687455
8606.08182354
8603.79163795
8601.00985148
8597.67654582
8593.71614151
8589.03194684
8583.49995507
8576.96024789
8569.20428498
8559.95632953
8548.92199296
8497.35196879
3770.2670345
0.266474828927
0.0420676693869
8611.83052904
8611.49309021
8610.80030975
8609.73468395
8608.28777766
8606.43230215
8604.13598657
8601.35735748
8598.0428991
8594.12686804
8589.52313117
8584.12314455
8577.78643594
8570.33291222
8561.51675107
8551.07608247
8507.02560822
3821.46896477
0.705634811522
0.011999254991
8612.57897269
8612.23887852
8611.54792395
8610.48838148
8609.05310949
8607.21860251
8604.95704185
8602.23424446
8599.00566626
8595.21711031
8590.80210026
8585.67334367
8579.72153247
8572.81263521
8564.75863247
8555.36341899
8524.23375186
3929.28986935
2.27487336185
-0.0160912107528
8613.67386112
8613.3350535
8612.65680794
8611.61800641
8610.21505906
8608.4281701
8606.23587686
8603.61038826
8600.52012732
8596.92666335
8592.785163
8588.03402118
8582.60567089
8576.42068588
8569.376999
8561.36610181
8546.72258783
4086.08413299
6.30887226511
-0.0515190065743
8615.10995635
8614.7746428
8614.11944645
8613.1129977
8611.75898017
8610.04049308
8607.94215469
8605.44494018
8602.52966764
8599.17611171
8595.36381633
8591.05574114
8586.23077609
8580.8698937
8574.95961379
8568.48974687
8561.27706832
4288.59312166
12.5441569827
-0.0347932451538
8616.88136401
8616.54577741
8615.92537574
8614.95861608
8613.66486358
8612.02879933
8610.04093329
8607.69093601
8604.96903773
8601.87378362
8598.4234999
8594.57587464
8590.36891627
8585.8410552
8581.06261693
8576.08129487
8571.06136375
4507.76357564
17.6515097074
-0.0122039154261
)
;
    }
    atmosphere
    {
        type            totalPressure;
        rho             rho;
        psi             none;
        gamma           1;
        p0              uniform 0;
        value           nonuniform List<scalar> 9(0 0 0 0 0 0 0 0 -2.46340768983e-08);
    }
    floatingObject
    {
        type            fixedFluxPressure;
        gradient        nonuniform List<scalar> 0();
        value           nonuniform List<scalar> 0();
    }
    procBoundary0to1
    {
        type            processor;
        value           nonuniform List<scalar> 10(8595.42806194 8590.98878171 8585.73837205 8579.53660638 8572.21768223 8563.59371068 8539.06944396 4108.69495906 4.88192962264 -0.0223886417776);
    }
    procBoundary0to2
    {
        type            processor;
        value           nonuniform List<scalar> 
14
(
8604.96845593
8602.32822316
8599.17512031
8607.63231966
8605.6422806
8605.6422806
8611.63864071
8611.34276649
8608.4103684
8608.4103684
8610.39099057
8610.39099057
8609.36736816
8609.36736816
)
;
    }
    procBoundary0to4
    {
        type            processor;
        value           nonuniform List<scalar> 8(8618.98615968 8618.62056094 8618.05859972 8617.13815903 8615.91057103 8614.36529663 8612.4960642 8610.29883235);
    }
    procBoundary0to5
    {
        type            processor;
        value           nonuniform List<scalar> 
12
(
8607.77104012
8604.912817
8601.86313725
8598.43491514
8594.79716267
8591.03369992
8587.28332163
8583.56729384
8580.41203446
4716.0659763
17.0984414882
0.00289836888903
)
;
    }
}


// ************************************************************************* //
