/*--------------------------------*- C++ -*----------------------------------*\
| =========                 |                                                 |
| \\      /  F ield         | OpenFOAM: The Open Source CFD Toolbox           |
|  \\    /   O peration     | Version:  v2012                                 |
|   \\  /    A nd           | Website:  www.openfoam.com                      |
|    \\/     M anipulation  |                                                 |
\*---------------------------------------------------------------------------*/
FoamFile
{
    version     2.0;
    format      ascii;
    class       volScalarField;
    location    "5";
    object      ddt0(k);
}
// * * * * * * * * * * * * * * * * * * * * * * * * * * * * * * * * * * * * * //

dimensions      [0 2 -3 0 0 0 0];


internalField   nonuniform List<scalar> 
164
(
-0.000514166709017
-0.000643104048985
-0.000676705892285
-0.000687675360506
-0.000691972242068
-0.000694904861493
-0.000698000891185
-0.000701649207668
-0.000514527466308
-0.000644292211911
-0.000677815561451
-0.000688490747073
-0.000692472485228
-0.000695117370854
-0.000697942353398
-0.000701331589332
-0.000705432142783
-0.00071065772025
-0.000718922101925
-0.000514557691275
-0.000645040660115
-0.000678529979173
-0.000688950275009
-0.00069265734916
-0.000695058199833
-0.000697647787801
-0.000700793059216
-0.000704632561016
-0.000709568849352
-0.000717450187298
-0.000735262614012
-0.000783807733492
-0.000514289702693
-0.00064536586936
-0.000678862644507
-0.000689082959001
-0.000692547855608
-0.000694722650867
-0.000697107462891
-0.000700020947283
-0.000703592658829
-0.000708171525451
-0.000715349696084
-0.000731163665706
-0.000774005670935
-0.000890019940424
-0.000513769304632
-0.000645293473062
-0.000678839458689
-0.000688908691383
-0.000692170282721
-0.000694136652952
-0.000696303891411
-0.000698989469649
-0.000702279196641
-0.000706438375996
-0.00071272699005
-0.000725986368328
-0.000761412767677
-0.000859046433652
-0.000513014700221
-0.000644860692216
-0.000678484272766
-0.000688448607141
-0.000691544332213
-0.000693326291717
-0.00069528447095
-0.000697731046781
-0.000700722448535
-0.000704459763208
-0.000709869779489
-0.000720647863045
-0.00074880726547
-0.000828166381267
-0.000512016218128
-0.000644064842031
-0.000677805047718
-0.0006877223627
-0.000690691490499
-0.000692314128429
-0.000694083979206
-0.000696297164929
-0.000698998130229
-0.000702332156077
-0.000707001071722
-0.000715859204339
-0.000738610075055
-0.000805199099458
-0.000510849426034
-0.000642924791086
-0.000676808252966
-0.000686729583604
-0.000689623358377
-0.000691119774939
-0.000692724616799
-0.00069472792275
-0.000697168808438
-0.000700155968904
-0.000704269382713
-0.000711860735338
-0.000731233589804
-0.00079007511229
-0.000509613236813
-0.000641439886517
-0.000675511121223
-0.000685500336385
-0.000688366657782
-0.000689768733277
-0.000691232137839
-0.000693054061149
-0.000695270387746
-0.000697976655998
-0.0007017016555
-0.000708511745271
-0.000725863295903
-0.000778987090808
-0.000508287235707
-0.000639667992636
-0.00067395234012
-0.000684068332916
-0.000686957306352
-0.000688299799346
-0.000689648003187
-0.000691313449486
-0.00069333592319
-0.000695814689403
-0.000699261524127
-0.000705621536071
-0.000721652764692
-0.00077029871158
-0.000935771562452
-0.0015830721018
-0.00050687022461
-0.000637653216918
-0.000672178239604
-0.000682470960528
-0.000685423683032
-0.00068673616336
-0.000687990150332
-0.000689517698499
-0.000691369922891
-0.000693659099772
-0.000696899550739
-0.000702952655933
-0.000718179467702
-0.000763849343014
-0.000920512173816
-0.00154142132162
-0.000505389076684
-0.000635423273355
-0.00067021855056
-0.00068072704515
-0.000683775605732
-0.000685081854352
-0.00068626213901
-0.000687675105151
-0.000689389924472
-0.000691533423486
-0.000694633211694
-0.000700508695924
-0.000715198074349
-0.000759125131185
-0.00091185810724
-0.00151955441471
)
;

boundaryField
{
    back
    {
        type            calculated;
        value           nonuniform List<scalar> 
164
(
-0.000514166709017
-0.000643104048985
-0.000676705892285
-0.000687675360506
-0.000691972242068
-0.000694904861493
-0.000698000891185
-0.000701649207668
-0.000514527466308
-0.000644292211911
-0.000677815561451
-0.000688490747073
-0.000692472485228
-0.000695117370854
-0.000697942353398
-0.000701331589332
-0.000705432142783
-0.00071065772025
-0.000718922101925
-0.000514557691275
-0.000645040660115
-0.000678529979173
-0.000688950275009
-0.00069265734916
-0.000695058199833
-0.000697647787801
-0.000700793059215
-0.000704632561016
-0.000709568849352
-0.000717450187298
-0.000735262614012
-0.000783807733492
-0.000514289702693
-0.00064536586936
-0.000678862644507
-0.000689082959001
-0.000692547855608
-0.000694722650867
-0.000697107462891
-0.000700020947283
-0.000703592658829
-0.000708171525451
-0.000715349696084
-0.000731163665706
-0.000774005670935
-0.000890019940424
-0.000513769304632
-0.000645293473062
-0.000678839458689
-0.000688908691383
-0.000692170282721
-0.000694136652952
-0.000696303891411
-0.000698989469649
-0.000702279196641
-0.000706438375996
-0.00071272699005
-0.000725986368328
-0.000761412767677
-0.000859046433652
-0.000513014700221
-0.000644860692216
-0.000678484272766
-0.000688448607141
-0.000691544332213
-0.000693326291717
-0.00069528447095
-0.000697731046781
-0.000700722448535
-0.000704459763208
-0.000709869779489
-0.000720647863045
-0.00074880726547
-0.000828166381267
-0.000512016218128
-0.000644064842031
-0.000677805047718
-0.0006877223627
-0.000690691490499
-0.000692314128429
-0.000694083979206
-0.000696297164929
-0.000698998130229
-0.000702332156077
-0.000707001071722
-0.000715859204339
-0.000738610075055
-0.000805199099458
-0.000510849426034
-0.000642924791086
-0.000676808252967
-0.000686729583604
-0.000689623358377
-0.000691119774939
-0.000692724616799
-0.00069472792275
-0.000697168808438
-0.000700155968904
-0.000704269382713
-0.000711860735338
-0.000731233589804
-0.00079007511229
-0.000509613236813
-0.000641439886517
-0.000675511121223
-0.000685500336385
-0.000688366657782
-0.000689768733277
-0.000691232137839
-0.000693054061149
-0.000695270387746
-0.000697976655998
-0.0007017016555
-0.000708511745271
-0.000725863295903
-0.000778987090809
-0.000508287235707
-0.000639667992636
-0.00067395234012
-0.000684068332916
-0.000686957306352
-0.000688299799346
-0.000689648003187
-0.000691313449486
-0.00069333592319
-0.000695814689403
-0.000699261524127
-0.000705621536071
-0.000721652764692
-0.00077029871158
-0.000935771562452
-0.0015830721018
-0.00050687022461
-0.000637653216918
-0.000672178239604
-0.000682470960528
-0.000685423683032
-0.00068673616336
-0.000687990150332
-0.000689517698499
-0.000691369922891
-0.000693659099772
-0.000696899550739
-0.000702952655933
-0.000718179467702
-0.000763849343014
-0.000920512173816
-0.00154142132162
-0.000505389076684
-0.000635423273355
-0.00067021855056
-0.00068072704515
-0.000683775605732
-0.000685081854352
-0.00068626213901
-0.000687675105151
-0.000689389924472
-0.000691533423486
-0.000694633211694
-0.000700508695924
-0.000715198074349
-0.000759125131185
-0.00091185810724
-0.00151955441471
)
;
    }
    sides
    {
        type            calculated;
        value           nonuniform List<scalar> 0();
    }
    bottom
    {
        type            calculated;
        value           nonuniform List<scalar> 
12
(
-0.000514166709017
-0.000514527466308
-0.000514557691275
-0.000514289702693
-0.000513769304632
-0.000513014700221
-0.000512016218128
-0.000510849426034
-0.000509613236813
-0.000508287235707
-0.00050687022461
-0.000505389076684
)
;
    }
    front
    {
        type            calculated;
        value           nonuniform List<scalar> 
164
(
-0.000514166709017
-0.000643104048985
-0.000676705892285
-0.000687675360506
-0.000691972242068
-0.000694904861493
-0.000698000891185
-0.000701649207668
-0.000514527466308
-0.000644292211911
-0.000677815561451
-0.000688490747073
-0.000692472485228
-0.000695117370854
-0.000697942353398
-0.000701331589332
-0.000705432142783
-0.00071065772025
-0.000718922101925
-0.000514557691275
-0.000645040660115
-0.000678529979173
-0.000688950275009
-0.00069265734916
-0.000695058199833
-0.000697647787801
-0.000700793059215
-0.000704632561016
-0.000709568849352
-0.000717450187298
-0.000735262614012
-0.000783807733492
-0.000514289702693
-0.00064536586936
-0.000678862644507
-0.000689082959001
-0.000692547855608
-0.000694722650867
-0.000697107462891
-0.000700020947283
-0.000703592658829
-0.000708171525451
-0.000715349696084
-0.000731163665706
-0.000774005670935
-0.000890019940424
-0.000513769304632
-0.000645293473062
-0.000678839458689
-0.000688908691383
-0.000692170282721
-0.000694136652952
-0.000696303891411
-0.000698989469649
-0.000702279196641
-0.000706438375996
-0.00071272699005
-0.000725986368328
-0.000761412767677
-0.000859046433652
-0.000513014700221
-0.000644860692216
-0.000678484272766
-0.000688448607141
-0.000691544332213
-0.000693326291717
-0.00069528447095
-0.000697731046781
-0.000700722448535
-0.000704459763208
-0.000709869779489
-0.000720647863045
-0.00074880726547
-0.000828166381267
-0.000512016218128
-0.000644064842031
-0.000677805047718
-0.0006877223627
-0.000690691490499
-0.000692314128429
-0.000694083979206
-0.000696297164929
-0.000698998130229
-0.000702332156077
-0.000707001071722
-0.000715859204339
-0.000738610075055
-0.000805199099458
-0.000510849426034
-0.000642924791086
-0.000676808252967
-0.000686729583604
-0.000689623358377
-0.000691119774939
-0.000692724616799
-0.00069472792275
-0.000697168808438
-0.000700155968904
-0.000704269382713
-0.000711860735338
-0.000731233589804
-0.00079007511229
-0.000509613236813
-0.000641439886517
-0.000675511121223
-0.000685500336385
-0.000688366657782
-0.000689768733277
-0.000691232137839
-0.000693054061149
-0.000695270387746
-0.000697976655998
-0.0007017016555
-0.000708511745271
-0.000725863295903
-0.000778987090809
-0.000508287235707
-0.000639667992636
-0.00067395234012
-0.000684068332916
-0.000686957306352
-0.000688299799346
-0.000689648003187
-0.000691313449486
-0.00069333592319
-0.000695814689403
-0.000699261524127
-0.000705621536071
-0.000721652764692
-0.00077029871158
-0.000935771562452
-0.0015830721018
-0.00050687022461
-0.000637653216918
-0.000672178239604
-0.000682470960528
-0.000685423683032
-0.00068673616336
-0.000687990150332
-0.000689517698499
-0.000691369922891
-0.000693659099772
-0.000696899550739
-0.000702952655933
-0.000718179467702
-0.000763849343014
-0.000920512173816
-0.00154142132162
-0.000505389076684
-0.000635423273355
-0.00067021855056
-0.00068072704515
-0.000683775605732
-0.000685081854352
-0.00068626213901
-0.000687675105151
-0.000689389924472
-0.000691533423486
-0.000694633211694
-0.000700508695924
-0.000715198074349
-0.000759125131185
-0.00091185810724
-0.00151955441471
)
;
    }
    atmosphere
    {
        type            calculated;
        value           nonuniform List<scalar> 0();
    }
    floatingObject
    {
        type            calculated;
        value           nonuniform List<scalar> 0();
    }
    procBoundary7to6
    {
        type            processor;
        value           nonuniform List<scalar> 
11
(
-0.0011957355755
-0.00112778139506
-0.00106079699867
-0.00101684317475
-0.000988376716669
-0.000960637127691
-0.000960637127691
-0.00166789949293
-0.00415869008698
-0.00398212090315
-0.0038461826012
)
;
    }
    procBoundary7to8
    {
        type            processor;
        value           nonuniform List<scalar> 
17
(
-0.000513428903848
-0.000641538026247
-0.000675254354673
-0.000686551013295
-0.00069118892859
-0.000694425835601
-0.000697799919986
-0.00070171025002
-0.000705986864492
-0.000705986864492
-0.00071142126481
-0.000719835392939
-0.000737546131695
-0.000737546131695
-0.000787998173139
-0.000912621035114
-0.000912621035114
)
;
    }
    procBoundary7to9
    {
        type            processor;
        value           nonuniform List<scalar> 
16
(
-0.0005038752853
-0.000633038647981
-0.000668131669528
-0.000678895777535
-0.00068207295731
-0.000683392825479
-0.000684508843148
-0.000685808771306
-0.000687375022863
-0.000689350503809
-0.000692275804308
-0.000697982061717
-0.000712242568998
-0.000754800696046
-0.000901446200307
-0.00147536467662
)
;
    }
}


// ************************************************************************* //
