/*--------------------------------*- C++ -*----------------------------------*\
| =========                 |                                                 |
| \\      /  F ield         | OpenFOAM: The Open Source CFD Toolbox           |
|  \\    /   O peration     | Version:  v2012                                 |
|   \\  /    A nd           | Website:  www.openfoam.com                      |
|    \\/     M anipulation  |                                                 |
\*---------------------------------------------------------------------------*/
FoamFile
{
    version     2.0;
    format      ascii;
    class       volVectorField;
    location    "5";
    object      ddtCorrDdt0(U);
}
// * * * * * * * * * * * * * * * * * * * * * * * * * * * * * * * * * * * * * //

dimensions      [0 1 -2 0 0 0 0];


internalField   nonuniform List<vector> 
164
(
(-0.0632147091618 0.00263957627656 4.7542954475e-23)
(-0.0635401445834 0.00741196500388 1.85911237562e-22)
(-0.0636975652833 0.0124193700721 5.54024348854e-23)
(-0.0641461211408 0.0175431014004 -1.98659501668e-23)
(-0.064764298802 0.0227467031624 -3.10166126119e-23)
(-0.0654957527976 0.0280878742697 -1.16199581149e-23)
(-0.0663280212941 0.0335967672229 1.39049417988e-23)
(-0.0672488830605 0.0393068199934 1.96245292594e-23)
(-0.0680784795479 0.00256397272905 6.90928179437e-23)
(-0.0684630635646 0.00718609996724 1.4745235569e-22)
(-0.0686776150014 0.0120392388693 2.33960971778e-23)
(-0.0692239447082 0.0170106264113 -1.23558301936e-23)
(-0.0699769313292 0.0220617096055 -2.05165029111e-23)
(-0.0708801587888 0.0272525710433 -1.08785853929e-23)
(-0.0719244045345 0.0326234084537 1.1332229148e-23)
(-0.073106923431 0.0382245643381 -2.83573454364e-23)
(-0.0744114806065 0.044092429906 4.59339060459e-23)
(-0.0758213916095 0.0503124896224 6.53941303668e-24)
(-0.0772614227248 0.0569635559477 8.00941985814e-24)
(-0.0727790817875 0.00246807830762 1.54947883347e-23)
(-0.073223553767 0.00690464418983 3.70821330126e-23)
(-0.0734921874954 0.0115703096941 -1.72171036131e-23)
(-0.0741322689007 0.0163537497569 1.64031277717e-24)
(-0.075015870697 0.0212160149373 -2.74525882442e-23)
(-0.0760894994704 0.0262206742397 -2.18942166799e-23)
(-0.0773448413967 0.0314053497691 -1.43551903411e-23)
(-0.0787963851736 0.0368239374179 1.27268408295e-23)
(-0.080449135569 0.0425320676242 -5.54255565198e-25)
(-0.0822811058771 0.0486111189509 7.82977091922e-23)
(-0.0842774233752 0.0551700097195 9.88076599292e-24)
(-0.0863452433341 0.0623479591958 3.79859222392e-22)
(-0.0883664282967 0.0702055915357 7.75023072373e-22)
(-0.0772767165233 0.00235269892068 -2.24646828426e-23)
(-0.0777812888689 0.00657471067838 4.60809206167e-23)
(-0.0781014911092 0.0110222856333 -8.51116422598e-24)
(-0.0788312337555 0.015581952209 -8.7985459177e-24)
(-0.0798384248351 0.0202165659393 -1.03437529732e-23)
(-0.0810766377626 0.0249924170103 5.371038532e-24)
(-0.0825481569571 0.0299469966642 3.12769110526e-23)
(-0.0842667616693 0.0351268567064 3.98008326848e-23)
(-0.0862577903608 0.0405953729041 4.59446291089e-24)
(-0.0885318903356 0.0464338302911 1.10273675112e-22)
(-0.0911062023539 0.0527476895569 1.3629853899e-22)
(-0.0939293373926 0.0596890590796 2.80059151432e-22)
(-0.096858410632 0.0674488577041 8.70223987514e-22)
(-0.099656241123 0.0762425926875 9.2807758413e-22)
(-0.0815385239601 0.00222440017038 -3.12255697169e-23)
(-0.0820990679907 0.00620216933649 4.68834324963e-23)
(-0.0824687398983 0.0103994317496 -1.44797427029e-23)
(-0.0832836681781 0.0147035611365 1.35671890555e-23)
(-0.0844081188919 0.0190768963994 1.77189362679e-23)
(-0.0857998431412 0.0235778101172 -9.32649857114e-25)
(-0.08747212586 0.0282476511921 2.60514471918e-23)
(-0.0894500117671 0.03312844917 -3.47893648391e-24)
(-0.0917710755645 0.03827431251 4.79891225304e-23)
(-0.094470281833 0.0437611910642 4.86611661119e-23)
(-0.0976003114099 0.0496948319381 7.63747354836e-23)
(-0.101179298588 0.0562214262048 4.18222721158e-22)
(-0.105094191702 0.0634949872478 5.99599366292e-22)
(-0.109064192582 0.0719301278478 1.65107321002e-21)
(-0.0855298752651 0.00208440474796 1.2189905489e-23)
(-0.086143198677 0.00578985413818 3.4959324989e-23)
(-0.0865599186383 0.00970625607327 1.38463977513e-23)
(-0.0874494223072 0.0137225893544 1.04467839358e-23)
(-0.0886820641427 0.0178020213841 -1.23103859323e-23)
(-0.0902146415147 0.0219941326096 3.94332486992e-24)
(-0.0920636124727 0.0263305279856 -6.55822478573e-25)
(-0.0942735429964 0.0308457635332 2.44277838142e-23)
(-0.0968925489514 0.0355864396783 1.61181634773e-23)
(-0.0999854316518 0.0406103337414 8.85879352013e-23)
(-0.103628584113 0.046009001912 7.27395086853e-23)
(-0.107898339316 0.0519154891181 2.329284884e-22)
(-0.112785919587 0.0584545757639 8.61755792744e-22)
(-0.118056162354 0.0660617272335 1.66605679148e-21)
(-0.0892230779867 0.00192831200484 2.43865864053e-23)
(-0.0898807313036 0.0053382467512 1.42835435626e-23)
(-0.0903379303793 0.0089495067547 3.48182544719e-24)
(-0.0912942882707 0.0126538530919 4.30124214142e-23)
(-0.0926182300167 0.0164081357114 3.27513673637e-23)
(-0.0942703970721 0.0202575476039 7.86534475805e-25)
(-0.0962720095998 0.024220284945 -9.35446941323e-24)
(-0.0986732749687 0.0283176439324 -6.53172042294e-24)
(-0.101538498021 0.0325753570294 2.51315314953e-26)
(-0.104960640575 0.0370330956523 4.08235503972e-24)
(-0.109043620109 0.0417588501998 -1.30111829464e-24)
(-0.113914999719 0.0468516342019 1.8359952172e-22)
(-0.119669589303 0.0523988886558 2.99200513438e-22)
(-0.126235960561 0.0587519093851 1.11733793681e-21)
(-0.0925860249966 0.00175976382019 3.8981037096e-23)
(-0.0932872285784 0.00485646016786 1.3805035317e-23)
(-0.0937761898997 0.00813709996906 1.12967284427e-23)
(-0.0947881800438 0.0115079381372 1.96489855811e-23)
(-0.0961846989571 0.0149163728725 6.34647401822e-24)
(-0.0979299653168 0.0183964879012 -1.37534820956e-23)
(-0.100048382273 0.0219551447239 -1.37900998521e-23)
(-0.102592990164 0.0255931333157 -1.03417054316e-23)
(-0.105643423469 0.0293089003881 -3.91181359299e-24)
(-0.109308007191 0.0331126483887 -1.45182573341e-23)
(-0.113730709256 0.037040381163 -3.45706848168e-23)
(-0.11908850557 0.0411455891946 8.95356680846e-23)
(-0.125597997177 0.0454730279519 8.30341370631e-23)
(-0.133336264625 0.0502673907074 5.56029380679e-22)
(-0.0955984131642 0.00158468469129 8.73316268576e-24)
(-0.0963446343674 0.0043488285772 -9.79331035704e-24)
(-0.0968580411762 0.00728353737658 -1.86887311255e-24)
(-0.0979077721916 0.0103029538395 -1.52717327079e-23)
(-0.099356990128 0.0133491769476 1.27246514158e-23)
(-0.101167299234 0.0164440180824 1.40665187101e-23)
(-0.103361689184 0.0195794283052 -5.14616903004e-24)
(-0.105995608127 0.0227317271709 -2.79906822569e-23)
(-0.109154108684 0.0258665653798 9.93966973476e-24)
(-0.112957745925 0.0289518362895 -8.73421636991e-24)
(-0.11758406438 0.0319736428667 -1.53912060474e-23)
(-0.12327253309 0.0348983968036 5.99786322288e-23)
(-0.130331042742 0.0377245869248 2.18842802244e-22)
(-0.138976542942 0.0406193284088 5.09917261323e-22)
(-0.0982441961846 0.00140139366803 2.2846222632e-23)
(-0.0990283839215 0.00381921887286 -5.2927097631e-24)
(-0.0995589996976 0.00639694079977 -3.76878459299e-23)
(-0.100634166467 0.00905304743064 -8.70988412579e-24)
(-0.102115977369 0.0117285798125 2.44633900541e-26)
(-0.103961984967 0.0144334091953 1.43486440942e-23)
(-0.106192603882 0.0171428281854 -1.56790236665e-24)
(-0.108859925248 0.0198069679281 3.48763716357e-24)
(-0.112046113055 0.0223530786427 -9.49902703168e-24)
(-0.115875760404 0.0246926953185 -1.71359102074e-23)
(-0.1205401662 0.0267329661312 6.30873743812e-24)
(-0.126333628554 0.0283647795938 2.8650081773e-23)
(-0.133561282798 0.0295290131803 1.96665761429e-22)
(-0.142663330054 0.030249432398 4.91646185432e-22)
(-0.15410647319 0.0305032179069 1.0383555945e-21)
(-0.16779070743 0.030575249762 3.80694006681e-21)
(-0.100504547219 0.00120855122665 2.67286420843e-24)
(-0.101318308618 0.00327476685376 -3.00505924629e-23)
(-0.101855817529 0.00549079106907 -1.95161692971e-23)
(-0.102939147279 0.00777861422021 2.24101965991e-23)
(-0.104431255122 0.0100822968663 1.05689053041e-23)
(-0.106286352394 0.0124008347686 5.48832138777e-24)
(-0.108523915439 0.0146928150894 3.66377364638e-24)
(-0.111187809447 0.0168842493059 1.94945294775e-24)
(-0.114352312209 0.0188625921184 1.16191910098e-23)
(-0.118132801158 0.0204801978113 -4.50452774757e-24)
(-0.122707734138 0.021552663246 -6.83012826067e-24)
(-0.128339328674 0.0218994509739 -1.64922137115e-23)
(-0.135403933981 0.0213120645158 1.05975879552e-22)
(-0.144374171596 0.0196157017963 5.80742785999e-22)
(-0.155771580174 0.0167859780011 1.39358104751e-21)
(-0.169743912528 0.0129867947733 5.99296921918e-21)
(-0.102379145766 0.00101359664138 5.03709786152e-24)
(-0.10321520985 0.0027281134389 -1.47193207828e-23)
(-0.103748426648 0.00458283774618 1.04968508178e-23)
(-0.104823820571 0.00650287398935 -6.49733950836e-25)
(-0.106305675867 0.00843661863641 4.44154833883e-24)
(-0.108154474412 0.010371892674 1.74742671693e-23)
(-0.110379564711 0.0122542756151 2.27887912897e-23)
(-0.113018184841 0.0139900869201 -7.4346408947e-26)
(-0.116128483093 0.0154321246007 3.23334464586e-24)
(-0.119799675973 0.0163845526537 -2.84572526433e-23)
(-0.124171671137 0.0166031277582 -2.84964548138e-23)
(-0.129424945361 0.0157688881942 -5.04449887665e-23)
(-0.135944395178 0.013574120395 -9.48310040895e-23)
(-0.144063480255 0.00969282344901 -9.83868433956e-23)
(-0.15418771794 0.00384835718804 5.40565773e-22)
(-0.166622484632 -0.00432821619929 6.44806318992e-22)
)
;

boundaryField
{
    back
    {
        type            calculated;
        value           uniform (0 0 0);
    }
    sides
    {
        type            calculated;
        value           nonuniform List<vector> 0();
    }
    bottom
    {
        type            calculated;
        value           uniform (0 0 0);
    }
    front
    {
        type            calculated;
        value           uniform (0 0 0);
    }
    atmosphere
    {
        type            calculated;
        value           nonuniform List<vector> 0();
    }
    floatingObject
    {
        type            calculated;
        value           nonuniform List<vector> 0();
    }
    procBoundary7to6
    {
        type            processor;
        value           nonuniform List<vector> 
11
(
(-0.10211020487 0.0857218622138 6.15112284826e-21)
(-0.112510265583 0.0814645353653 -1.54850617116e-22)
(-0.123107694102 0.0749652386919 4.68313314865e-21)
(-0.133291666045 0.0664731992623 2.47792766517e-21)
(-0.142300774808 0.055920215563 9.80724276505e-22)
(-0.149509976985 0.0436071987903 1.00103701175e-21)
(-0.149509976985 0.0436071987903 1.00103701175e-21)
(-0.162060846672 0.0478746064111 -4.93161372147e-21)
(-0.187698250482 0.0399469923282 -2.1539329121e-20)
(-0.190121448778 0.0178441507652 -1.88214193596e-20)
(-0.185284649339 -0.00488081131501 -1.00904951133e-20)
)
;
    }
    procBoundary7to8
    {
        type            processor;
        value           nonuniform List<vector> 
17
(
(-0.0582227886527 0.00270266669835 -2.28423667914e-23)
(-0.0584864502879 0.00759290576113 1.10379176718e-22)
(-0.0585865989453 0.0127229316417 1.710228849e-23)
(-0.0589353516214 0.0179663134826 -1.34895283172e-24)
(-0.0594183884067 0.0232871154014 -3.18039824637e-23)
(-0.0599813531089 0.0287391854911 -9.90753301055e-24)
(-0.0606119631113 0.0343444750782 -3.54173012933e-24)
(-0.0613034013731 0.0401296610574 -1.18374531043e-23)
(-0.0682393114635 0.0452682291955 -8.22932550769e-24)
(-0.0682393114635 0.0452682291955 -8.22932550769e-24)
(-0.0692750056171 0.0515229284315 1.65785682407e-23)
(-0.070280554768 0.0581328993674 6.23618706869e-23)
(-0.07869173186 0.0641015627026 3.6190726739e-22)
(-0.07869173186 0.0641015627026 3.6190726739e-22)
(-0.0800202055106 0.071846870958 1.27362877367e-21)
(-0.0903028640844 0.0789064962595 1.54903754316e-21)
(-0.0903028640844 0.0789064962595 1.54903754316e-21)
)
;
    }
    procBoundary7to9
    {
        type            processor;
        value           nonuniform List<vector> 
16
(
(-0.103860464636 0.000820263637602 2.24185560303e-23)
(-0.104708715406 0.00218727729059 2.04560286787e-24)
(-0.105224971218 0.00368382480955 7.65287628328e-24)
(-0.1062750202 0.00523914955555 -2.27903466806e-23)
(-0.107729466922 0.00680296684339 -3.58546613864e-24)
(-0.109552368651 0.00835760967146 -8.08006650922e-24)
(-0.111751007304 0.00984246463092 5.45425663778e-24)
(-0.114358371906 0.0111472246091 2.11939549562e-26)
(-0.117414741753 0.0121055563911 9.25157423985e-24)
(-0.120972481741 0.0124882729317 1.38765967245e-23)
(-0.125118221814 0.0120119646244 -9.75422232999e-25)
(-0.129917288976 0.0102624187495 -4.78678355372e-23)
(-0.135580325233 0.00681228943134 -1.06540141818e-22)
(-0.14228831926 0.00130965554685 -1.25873482665e-22)
(-0.15016319823 -0.00681037289165 5.97208207072e-22)
(-0.159338151203 -0.0186870925363 -2.41425532757e-21)
)
;
    }
}


// ************************************************************************* //
