/*--------------------------------*- C++ -*----------------------------------*\
| =========                 |                                                 |
| \\      /  F ield         | OpenFOAM: The Open Source CFD Toolbox           |
|  \\    /   O peration     | Version:  v2012                                 |
|   \\  /    A nd           | Website:  www.openfoam.com                      |
|    \\/     M anipulation  |                                                 |
\*---------------------------------------------------------------------------*/
FoamFile
{
    version     2.0;
    format      ascii;
    class       surfaceScalarField;
    location    "5";
    object      phi;
}
// * * * * * * * * * * * * * * * * * * * * * * * * * * * * * * * * * * * * * //

dimensions      [0 3 -1 0 0 0 0];
oriented        oriented;


internalField   nonuniform List<scalar> 
300
(
8.8300427456e-06
-9.58555528905e-05
1.7763191313e-05
-0.000101140949927
2.68894488516e-05
-0.000106333425163
3.62092536361e-05
-0.000109573708729
4.57343233328e-05
-0.000111053745848
5.54758671681e-05
-0.000111580822867
6.54349423416e-05
-0.000111690509512
-0.00011159207358
8.9133489009e-06
-0.000104771053645
1.78825177012e-05
-0.00011011258597
2.70058921199e-05
-0.000115459593402
3.63002976235e-05
-0.00011887107796
4.57975476447e-05
-0.00012055370607
5.55258848096e-05
-0.000121310813247
6.55009253355e-05
-0.000121665289794
7.57307764195e-05
-0.000121818571621
8.62133319527e-05
-0.000121807654103
9.6851746664e-05
-0.000121517251588
-0.000120800463786
8.93308854797e-06
-0.00011370591662
1.78853894699e-05
-0.000119066860208
2.69565598581e-05
-0.000124532963374
3.6203279264e-05
-0.000128120088677
4.56467460734e-05
-0.000129999194101
5.5323499348e-05
-0.000130988729315
6.5329292438e-05
-0.000131670689359
7.56190541787e-05
-0.000132105597312
8.62330959985e-05
-0.000132415938498
9.71636786842e-05
-0.000132439019682
0.000108391373763
-0.000132015319399
0.000119636199546
-0.000131061512131
-0.000130445461781
8.87254769864e-06
-0.000122579797083
1.774380665e-05
-0.000127939539001
2.67263315238e-05
-0.00013351704611
3.58773171889e-05
-0.00013727265721
4.52412291259e-05
-0.000139364409266
5.48857589845e-05
-0.000140633816013
6.48461694798e-05
-0.000141630394712
7.52472550006e-05
-0.000142504176423
8.610375624e-05
-0.000143267928184
9.74743440746e-05
-0.000143803175655
0.000109413739005
-0.00014394667915
0.000121997966651
-0.000143636728698
0.000135222076309
-0.000143660350526
-0.000147414462798
8.73521304628e-06
-0.000131315772549
1.74726914735e-05
-0.000136677766783
2.63060358876e-05
-0.000142351208534
3.5303623395e-05
-0.000146271050593
4.45431882038e-05
-0.000148604524093
5.41026520089e-05
-0.000150193228186
6.40517668064e-05
-0.000151578476975
7.45055139086e-05
-0.000152955644577
8.55671337744e-05
-0.000154326005775
9.74060334923e-05
-0.000155637583472
0.000110170491529
-0.000156706325147
0.000124098483331
-0.000157560177425
0.000139355139311
-0.000158914063395
-0.000163873085484
8.54419598921e-06
-0.00013986006614
1.70872119946e-05
-0.000145220788723
2.56951142654e-05
-0.00015095913929
3.44768073359e-05
-0.000155052753058
4.35182121279e-05
-0.000157645749171
5.29122833306e-05
-0.000159586702425
6.27656540106e-05
-0.000161430616298
7.31892616984e-05
-0.000163377303362
8.43657348856e-05
-0.000165500001566
9.64338727061e-05
-0.000167703178574
0.000109736530054
-0.000170007110678
0.000124599437645
-0.000172422829541
0.000141258348426
-0.000175576153982
-0.000182005155729
8.29929516913e-06
-0.000148158774244
1.65686960246e-05
-0.000153489461946
2.49078450423e-05
-0.000159297560701
3.33846033995e-05
-0.000163528781282
4.21343188737e-05
-0.000166394639153
5.12699841075e-05
-0.000168721336187
6.08997134136e-05
-0.000171059054722
7.1158670911e-05
-0.000173634804867
8.21808879598e-05
-0.000176520953418
9.42341712377e-05
-0.000179755982174
0.000107578473608
-0.00018335249936
0.00012257037743
-0.000187418872033
0.000139467994363
-0.000192483502133
-0.000200468060909
7.99009350593e-06
-0.000156147655721
1.58820213485e-05
-0.000161380019074
2.38269409069e-05
-0.000167241101546
3.19509295465e-05
-0.000171651410566
4.03464859897e-05
-0.000174788833175
4.91192033453e-05
-0.000177492688415
5.83821792913e-05
-0.000180320761108
6.82683020728e-05
-0.000183520019101
7.89391897247e-05
-0.000187191801145
9.05831198575e-05
-0.000191401447429
0.000103472668076
-0.000196245962882
0.000117864758287
-0.000201819519877
0.000133943589526
-0.000208579341496
-0.000217847381339
7.55490652236e-06
-0.000163700858097
1.50295773716e-05
-0.000168852832211
2.25435703905e-05
-0.000174753214234
3.02104337157e-05
-0.000179316413283
3.81412049923e-05
-0.000182717793005
4.64409882603e-05
-0.000185790801951
5.52171455335e-05
-0.000189095617872
6.45864841275e-05
-0.000192888848276
7.4681208163e-05
-0.000197287461408
8.56633921507e-05
-0.00020238682981
9.77043935661e-05
-0.00020829326975
0.000111034582675
-0.000215162630842
0.000125743619966
-0.000223308088358
-0.00023372124261
7.04774978194e-06
-0.000170746236879
1.40201297358e-05
-0.000175822735591
2.1014431983e-05
-0.000181744947732
2.81456549802e-05
-0.000186444976715
3.55230887741e-05
-0.000190092527567
4.32518550734e-05
-0.00019351699241
5.14294194635e-05
-0.000197271099668
6.01498792655e-05
-0.0002016083571
6.95153215605e-05
-0.000206654015505
7.96376699106e-05
-0.000212513496293
9.06310724441e-05
-0.000219295353651
0.00010263227326
-0.000227178559433
0.00011582048167
-0.000236519164277
0.000129851492027
-0.000247785719348
0.000143849376002
-0.000263552466919
-0.000285372428062
6.48008806796e-06
-0.00017722328906
1.28642935689e-05
-0.000182203673098
1.92556455746e-05
-0.000188132748659
2.57709826188e-05
-0.000192956443591
3.25085018907e-05
-0.000196825918411
3.95884471836e-05
-0.000200592815503
4.70806678176e-05
-0.000204759797107
5.50568626585e-05
-0.000209582609383
6.35885706073e-05
-0.000215186805815
7.27482218966e-05
-0.000221678985946
8.25820936283e-05
-0.000229141723613
9.32459298724e-05
-0.00023786333057
0.00010433516627
-0.000247639330978
0.000115890434006
-0.000259383227371
0.000127172394484
-0.000274884831148
-0.000296141843986
5.83149769806e-06
1.15601780123e-05
1.72771517897e-05
2.31028288584e-05
2.91364790502e-05
3.549721276e-05
4.22323918554e-05
4.94063441046e-05
5.70674346873e-05
6.52341711086e-05
7.39123420089e-05
8.29949669198e-05
9.24310130218e-05
0.000101763214027
0.000110321009206
)
;

boundaryField
{
    back
    {
        type            calculated;
        value           uniform 0;
    }
    sides
    {
        type            calculated;
        value           nonuniform List<scalar> 0();
    }
    bottom
    {
        type            calculated;
        value           uniform 0;
    }
    front
    {
        type            calculated;
        value           uniform 0;
    }
    atmosphere
    {
        type            calculated;
        value           nonuniform List<scalar> 0();
    }
    floatingObject
    {
        type            calculated;
        value           nonuniform List<scalar> 0();
    }
    procBoundary7to6
    {
        type            processor;
        value           nonuniform List<scalar> 
11
(
0.000149419913195
0.000155814167259
0.000159384271385
0.000157917408657
0.000151299772778
0.000141589547869
0.00024949890379
0.000272902333935
0.000156271816854
0.000137902005321
0.000117513651409
)
;
    }
    procBoundary7to8
    {
        type            processor;
        value           nonuniform List<scalar> 
17
(
8.70213321562e-05
9.22030149468e-05
9.72017504226e-05
0.000100248114216
0.000101523304389
0.000101836052694
0.000101731750081
0.000101442831351
7.55899242327e-05
0.000111337103472
0.00011089761812
0.000110216032529
0.000107459518079
0.000119840703974
0.000119261710158
0.000130843546958
0.00013323111548
)
;
    }
    procBoundary7to9
    {
        type            processor;
        value           nonuniform List<scalar> 
16
(
-0.000183051537085
-0.000187928761988
-0.000193845696165
-0.000198777596915
-0.000202854608042
-0.000206948491941
-0.000211490516831
-0.000216753921358
-0.000222848765521
-0.000229852288161
-0.000237834485903
-0.00024697063745
-0.00025711083941
-0.000268762355981
-0.000283491311751
-0.000303376333359
)
;
    }
}


// ************************************************************************* //
