/*--------------------------------*- C++ -*----------------------------------*\
| =========                 |                                                 |
| \\      /  F ield         | OpenFOAM: The Open Source CFD Toolbox           |
|  \\    /   O peration     | Version:  v2012                                 |
|   \\  /    A nd           | Website:  www.openfoam.com                      |
|    \\/     M anipulation  |                                                 |
\*---------------------------------------------------------------------------*/
FoamFile
{
    version     2.0;
    format      ascii;
    class       volScalarField;
    location    "1.3";
    object      alpha.water;
}
// * * * * * * * * * * * * * * * * * * * * * * * * * * * * * * * * * * * * * //

dimensions      [0 0 0 0 0 0 0];


internalField   nonuniform List<scalar> 
166
(
0.999999963547
0.999999960051
0.999999946176
0.999999937754
0.999999940526
0.999999973618
1.00000001274
1.00000009572
1.00000026816
1.00000048609
1.00000072404
1.00000094194
1.00000107384
1.00000100761
1.0000005809
1
1.00000000003
0.877718075618
0.160813267148
-1.02491623622e-23
1.00000003862
1.00000003715
1.00000002294
1.00000001665
1.00000001911
1.00000003252
1.00000007852
1.00000017158
1.00000030084
1.00000045662
1.00000061783
1.00000074844
1.00000078436
1.00000062228
1.0000001439
1
1.00000000002
0.849142441644
0.130090046134
0
1.00000006942
1.00000007238
1.00000006399
1.00000005616
1.0000000588
1.00000008573
1.00000014397
1.00000023748
1.00000036198
1.00000050762
1.00000065155
1.00000075156
1.00000073751
1.00000050415
1
1
0.999999999402
0.818613182339
0.103197112829
0
1.00000009701
1.00000010537
1.00000010291
1.00000010262
1.00000011003
1.00000014222
1.00000020439
1.000000299
1.0000004216
1.00000056358
1.00000069969
1.0000007736
1.00000070641
1.00000040101
1
1
0.999999996621
0.786775254673
0.079778759336
0
1.00000012612
1.00000014262
1.00000014588
1.00000015409
1.00000016382
1.00000020003
1.00000026554
1.00000036056
1.00000048419
1.00000062992
1.00000077081
1.00000082181
1.00000069259
1.00000030593
1
1
0.999999989995
0.754372350507
0.059725140245
-2.76443590795e-44
1.00000016371
1.00000019433
1.00000020216
1.00000022267
1.00000023204
1.00000027268
1.00000034185
1.00000043631
1.00000056312
1.00000071992
1.00000088078
1.00000090799
1.00000069956
1.00000020884
1
1
0.999999977108
0.722094102697
0.0428118114923
-1.16432194797e-38
1.00000022113
1.00000027628
1.00000028345
1.00000030641
1.00000030942
1.00000034795
1.00000042257
1.00000050742
1.00000064251
1.00000081904
1.00000103857
1.0000010048
1.00000069565
1.00000008999
1
1
0.999999953955
0.69054395681
0.0287134504822
-5.81125012986e-38
1.00000030923
1.00000039594
1.00000031937
1.00000038536
1.00000035812
1.00000040912
1.00000046368
1.00000056052
1.00000069083
1.00000094943
1.00000109003
1.00000114636
1.00000068343
1.00000000662
1
1.00000000002
0.999999912602
0.660202008954
0.0170732180892
-6.07432242729e-37
1.00000038829
1.00000048234
1.00000038431
1.00000048657
1.00000055774
1.00000060452
)
;

boundaryField
{
    back
    {
        type            zeroGradient;
    }
    sides
    {
        type            zeroGradient;
    }
    bottom
    {
        type            zeroGradient;
    }
    front
    {
        type            zeroGradient;
    }
    atmosphere
    {
        type            inletOutlet;
        inletValue      uniform 0;
        value           uniform 0;
    }
    floatingObject
    {
        type            zeroGradient;
    }
    procBoundary9to6
    {
        type            processor;
        value           nonuniform List<scalar> 4(1 0.904244530209 0.195537128606 0);
    }
    procBoundary9to7
    {
        type            processor;
        value           nonuniform List<scalar> 
16
(
0.999999941843
0.999999933153
0.999999903022
0.999999874427
0.999999875304
0.999999872716
0.999999950641
1.00000004029
1.00000021064
1.00000043491
1.00000068326
1.00000091997
1.00000108807
1.00000110229
1.00000068357
1.00000003107
)
;
    }
    procBoundary9to10
    {
        type            processor;
        value           nonuniform List<scalar> 
15
(
1.00000040566
1.00000040309
1.00000043757
1.00000051241
1.00000058048
1.00000075273
1.00000090406
1.00000129166
1.00000063014
1.00000040566
1.00000038545
1.00000063014
1.00000063413
1.00000055619
1.00000057001
)
;
    }
    procBoundary9to11
    {
        type            processor;
        value           nonuniform List<scalar> 9(1.00000111923 1.00000066704 0.999999999471 0.999999994866 0.999999997071 0.999999840164 0.631502316435 0.00752919610666 -1.26102231142e-35);
    }
}


// ************************************************************************* //
