/*--------------------------------*- C++ -*----------------------------------*\
| =========                 |                                                 |
| \\      /  F ield         | OpenFOAM: The Open Source CFD Toolbox           |
|  \\    /   O peration     | Version:  v2012                                 |
|   \\  /    A nd           | Website:  www.openfoam.com                      |
|    \\/     M anipulation  |                                                 |
\*---------------------------------------------------------------------------*/
FoamFile
{
    version     2.0;
    format      ascii;
    class       volScalarField;
    location    "1.3";
    object      rAU;
}
// * * * * * * * * * * * * * * * * * * * * * * * * * * * * * * * * * * * * * //

dimensions      [-1 3 1 0 0 0 0];


internalField   nonuniform List<scalar> 
166
(
8.28187718033e-06
8.22255519315e-06
8.20842680954e-06
8.20390754261e-06
8.20181298976e-06
8.20038631137e-06
8.19952332041e-06
8.19906568708e-06
8.19896825692e-06
8.19926807548e-06
8.20014649346e-06
8.2019048797e-06
8.20489167406e-06
8.21131299037e-06
8.20577306317e-06
8.1934599187e-06
8.18870092993e-06
9.31504083541e-06
4.94670664258e-05
0.00485980294863
8.27799818358e-06
8.21971320706e-06
8.20848808728e-06
8.20491931645e-06
8.20298550971e-06
8.20169511606e-06
8.20085886023e-06
8.20040809111e-06
8.20032055575e-06
8.20064005438e-06
8.20148404578e-06
8.20301969254e-06
8.20534194454e-06
8.20754249691e-06
8.19631613638e-06
8.18723924233e-06
8.1829095502e-06
9.61332919804e-06
6.10297204774e-05
0.00518094211224
8.27446754298e-06
8.21711594489e-06
8.20749426337e-06
8.2049791341e-06
8.20346443833e-06
8.20242535338e-06
8.20171790368e-06
8.20131884967e-06
8.20123268725e-06
8.20149171538e-06
8.20215131562e-06
8.2032303093e-06
8.20440201836e-06
8.20382799347e-06
8.19538215606e-06
8.18489392259e-06
8.17247493306e-06
9.95718822725e-06
7.61589757778e-05
0.00549451873261
8.27217182618e-06
8.21530109555e-06
8.20644073436e-06
8.20460521631e-06
8.20350141005e-06
8.20272931096e-06
8.2021824173e-06
8.20186091703e-06
8.2017794983e-06
8.2019610665e-06
8.20241600149e-06
8.2030650718e-06
8.20339512494e-06
8.20170120365e-06
8.19431005469e-06
8.17976471414e-06
8.16147846216e-06
1.03405340091e-05
9.71085387367e-05
0.00580295066232
8.27050680626e-06
8.21396007506e-06
8.20552692771e-06
8.2040923905e-06
8.2032989711e-06
8.20275292883e-06
8.20235693098e-06
8.20211638685e-06
8.20204709737e-06
8.20216475962e-06
8.20245436201e-06
8.20278829577e-06
8.20258135076e-06
8.20017712916e-06
8.19211504707e-06
8.1725401096e-06
8.15007740957e-06
1.07614464479e-05
0.000127029875126
0.00610013421796
8.26925620224e-06
8.21292851615e-06
8.20475152777e-06
8.20355928268e-06
8.20298203929e-06
8.20260723573e-06
8.20233516646e-06
8.20216751878e-06
8.20211677053e-06
8.20219456265e-06
8.20237249406e-06
8.20249574727e-06
8.20192689724e-06
8.19891335371e-06
8.19038068884e-06
8.16540440406e-06
8.13830651901e-06
1.12158731448e-05
0.000171666417098
0.00637860571942
8.26828546433e-06
8.21211614454e-06
8.20408790396e-06
8.20304681152e-06
8.20261779739e-06
8.20236653858e-06
8.20218958459e-06
8.20208278296e-06
8.20205417807e-06
8.20211454532e-06
8.2022251556e-06
8.20220791157e-06
8.20138110307e-06
8.19790867765e-06
8.18974156612e-06
8.18375152247e-06
8.15080544367e-06
1.16983487646e-05
0.000242866074588
0.00662077876963
8.26751491074e-06
8.21146857525e-06
8.20351424688e-06
8.2025696793e-06
8.20224299008e-06
8.20207899059e-06
8.20197288997e-06
8.20191493964e-06
8.20190996442e-06
8.20196809765e-06
8.20204039529e-06
8.20192000674e-06
8.20089579866e-06
8.19719471686e-06
8.19003963592e-06
8.18709461512e-06
8.14793903651e-06
1.22017847698e-05
0.000369452865354
0.00682567299922
8.26689451862e-06
8.21095031676e-06
8.20301446993e-06
8.26639029615e-06
8.26597918584e-06
8.26564320519e-06
)
;

boundaryField
{
    back
    {
        type            calculated;
        value           nonuniform List<scalar> 
166
(
8.28187718033e-06
8.22255519315e-06
8.20842680954e-06
8.20390754261e-06
8.20181298976e-06
8.20038631137e-06
8.19952332041e-06
8.19906568708e-06
8.19896825692e-06
8.19926807548e-06
8.20014649346e-06
8.2019048797e-06
8.20489167406e-06
8.21131299037e-06
8.20577306317e-06
8.1934599187e-06
8.18870092993e-06
9.31504083541e-06
4.94670664258e-05
0.00485980294863
8.27799818358e-06
8.21971320706e-06
8.20848808728e-06
8.20491931645e-06
8.20298550971e-06
8.20169511606e-06
8.20085886023e-06
8.20040809111e-06
8.20032055575e-06
8.20064005438e-06
8.20148404578e-06
8.20301969254e-06
8.20534194454e-06
8.20754249691e-06
8.19631613638e-06
8.18723924233e-06
8.1829095502e-06
9.61332919804e-06
6.10297204774e-05
0.00518094211224
8.27446754298e-06
8.21711594489e-06
8.20749426337e-06
8.2049791341e-06
8.20346443833e-06
8.20242535338e-06
8.20171790368e-06
8.20131884967e-06
8.20123268725e-06
8.20149171538e-06
8.20215131562e-06
8.2032303093e-06
8.20440201836e-06
8.20382799347e-06
8.19538215606e-06
8.18489392259e-06
8.17247493306e-06
9.95718822725e-06
7.61589757778e-05
0.00549451873261
8.27217182618e-06
8.21530109555e-06
8.20644073436e-06
8.20460521631e-06
8.20350141005e-06
8.20272931096e-06
8.2021824173e-06
8.20186091703e-06
8.2017794983e-06
8.2019610665e-06
8.20241600149e-06
8.2030650718e-06
8.20339512494e-06
8.20170120365e-06
8.19431005469e-06
8.17976471414e-06
8.16147846216e-06
1.03405340091e-05
9.71085387367e-05
0.00580295066232
8.27050680626e-06
8.21396007506e-06
8.20552692771e-06
8.2040923905e-06
8.2032989711e-06
8.20275292883e-06
8.20235693098e-06
8.20211638685e-06
8.20204709737e-06
8.20216475962e-06
8.20245436201e-06
8.20278829577e-06
8.20258135076e-06
8.20017712916e-06
8.19211504707e-06
8.1725401096e-06
8.15007740957e-06
1.07614464479e-05
0.000127029875126
0.00610013421796
8.26925620224e-06
8.21292851615e-06
8.20475152777e-06
8.20355928268e-06
8.20298203929e-06
8.20260723573e-06
8.20233516646e-06
8.20216751878e-06
8.20211677053e-06
8.20219456265e-06
8.20237249406e-06
8.20249574727e-06
8.20192689724e-06
8.19891335371e-06
8.19038068884e-06
8.16540440406e-06
8.13830651901e-06
1.12158731448e-05
0.000171666417098
0.00637860571942
8.26828546433e-06
8.21211614454e-06
8.20408790396e-06
8.20304681152e-06
8.20261779739e-06
8.20236653858e-06
8.20218958459e-06
8.20208278296e-06
8.20205417807e-06
8.20211454532e-06
8.2022251556e-06
8.20220791157e-06
8.20138110307e-06
8.19790867765e-06
8.18974156612e-06
8.18375152247e-06
8.15080544367e-06
1.16983487646e-05
0.000242866074588
0.00662077876963
8.26751491074e-06
8.21146857525e-06
8.20351424688e-06
8.2025696793e-06
8.20224299008e-06
8.20207899059e-06
8.20197288997e-06
8.20191493964e-06
8.20190996442e-06
8.20196809765e-06
8.20204039529e-06
8.20192000674e-06
8.20089579866e-06
8.19719471686e-06
8.19003963592e-06
8.18709461512e-06
8.14793903651e-06
1.22017847698e-05
0.000369452865354
0.00682567299922
8.26689451862e-06
8.21095031676e-06
8.20301446993e-06
8.26639029615e-06
8.26597918584e-06
8.26564320519e-06
)
;
    }
    sides
    {
        type            calculated;
        value           nonuniform List<scalar> 0();
    }
    bottom
    {
        type            calculated;
        value           nonuniform List<scalar> 
12
(
8.28187718033e-06
8.27799818358e-06
8.27446754298e-06
8.27217182618e-06
8.27050680626e-06
8.26925620224e-06
8.26828546433e-06
8.26751491074e-06
8.26689451862e-06
8.26639029615e-06
8.26597918584e-06
8.26564320519e-06
)
;
    }
    front
    {
        type            calculated;
        value           nonuniform List<scalar> 
166
(
8.28187718033e-06
8.22255519315e-06
8.20842680954e-06
8.20390754261e-06
8.20181298976e-06
8.20038631137e-06
8.19952332041e-06
8.19906568708e-06
8.19896825692e-06
8.19926807548e-06
8.20014649346e-06
8.2019048797e-06
8.20489167406e-06
8.21131299037e-06
8.20577306317e-06
8.1934599187e-06
8.18870092993e-06
9.31504083541e-06
4.94670664258e-05
0.00485980294863
8.27799818358e-06
8.21971320706e-06
8.20848808728e-06
8.20491931645e-06
8.20298550971e-06
8.20169511606e-06
8.20085886023e-06
8.20040809111e-06
8.20032055575e-06
8.20064005438e-06
8.20148404578e-06
8.20301969254e-06
8.20534194454e-06
8.20754249691e-06
8.19631613638e-06
8.18723924233e-06
8.1829095502e-06
9.61332919804e-06
6.10297204774e-05
0.00518094211224
8.27446754298e-06
8.21711594489e-06
8.20749426337e-06
8.2049791341e-06
8.20346443833e-06
8.20242535338e-06
8.20171790368e-06
8.20131884967e-06
8.20123268725e-06
8.20149171538e-06
8.20215131562e-06
8.2032303093e-06
8.20440201836e-06
8.20382799347e-06
8.19538215606e-06
8.18489392259e-06
8.17247493306e-06
9.95718822725e-06
7.61589757778e-05
0.00549451873261
8.27217182618e-06
8.21530109555e-06
8.20644073436e-06
8.20460521631e-06
8.20350141005e-06
8.20272931096e-06
8.2021824173e-06
8.20186091703e-06
8.2017794983e-06
8.2019610665e-06
8.20241600149e-06
8.2030650718e-06
8.20339512494e-06
8.20170120365e-06
8.19431005469e-06
8.17976471414e-06
8.16147846216e-06
1.03405340091e-05
9.71085387367e-05
0.00580295066232
8.27050680626e-06
8.21396007506e-06
8.20552692771e-06
8.2040923905e-06
8.2032989711e-06
8.20275292883e-06
8.20235693098e-06
8.20211638685e-06
8.20204709737e-06
8.20216475962e-06
8.20245436201e-06
8.20278829577e-06
8.20258135076e-06
8.20017712916e-06
8.19211504707e-06
8.1725401096e-06
8.15007740957e-06
1.07614464479e-05
0.000127029875126
0.00610013421796
8.26925620224e-06
8.21292851615e-06
8.20475152777e-06
8.20355928268e-06
8.20298203929e-06
8.20260723573e-06
8.20233516646e-06
8.20216751878e-06
8.20211677053e-06
8.20219456265e-06
8.20237249406e-06
8.20249574727e-06
8.20192689724e-06
8.19891335371e-06
8.19038068884e-06
8.16540440406e-06
8.13830651901e-06
1.12158731448e-05
0.000171666417098
0.00637860571942
8.26828546433e-06
8.21211614454e-06
8.20408790396e-06
8.20304681152e-06
8.20261779739e-06
8.20236653858e-06
8.20218958459e-06
8.20208278296e-06
8.20205417807e-06
8.20211454532e-06
8.2022251556e-06
8.20220791157e-06
8.20138110307e-06
8.19790867765e-06
8.18974156612e-06
8.18375152247e-06
8.15080544367e-06
1.16983487646e-05
0.000242866074588
0.00662077876963
8.26751491074e-06
8.21146857525e-06
8.20351424688e-06
8.2025696793e-06
8.20224299008e-06
8.20207899059e-06
8.20197288997e-06
8.20191493964e-06
8.20190996442e-06
8.20196809765e-06
8.20204039529e-06
8.20192000674e-06
8.20089579866e-06
8.19719471686e-06
8.19003963592e-06
8.18709461512e-06
8.14793903651e-06
1.22017847698e-05
0.000369452865354
0.00682567299922
8.26689451862e-06
8.21095031676e-06
8.20301446993e-06
8.26639029615e-06
8.26597918584e-06
8.26564320519e-06
)
;
    }
    atmosphere
    {
        type            calculated;
        value           nonuniform List<scalar> 8(0.00485980294863 0.00518094211224 0.00549451873261 0.00580295066232 0.00610013421796 0.00637860571942 0.00662077876963 0.00682567299922);
    }
    floatingObject
    {
        type            calculated;
        value           nonuniform List<scalar> 0();
    }
    procBoundary9to6
    {
        type            processor;
        value           nonuniform List<scalar> 4(8.15427985239e-06 9.04314091402e-06 4.07682554283e-05 0.00456193663462);
    }
    procBoundary9to7
    {
        type            processor;
        value           nonuniform List<scalar> 
16
(
8.28495859724e-06
8.22294588993e-06
8.20563931815e-06
8.20160284791e-06
8.19971518149e-06
8.19841525098e-06
8.19768836327e-06
8.19730044165e-06
8.19716323886e-06
8.19731815582e-06
8.19792815226e-06
8.19942206714e-06
8.20150716344e-06
8.20640394591e-06
8.21783653192e-06
8.20660233429e-06
)
;
    }
    procBoundary9to10
    {
        type            processor;
        value           nonuniform List<scalar> 
15
(
8.20213313583e-06
8.20187719705e-06
8.20177483352e-06
8.20172097341e-06
8.20170225312e-06
8.2017204209e-06
8.20178748324e-06
8.20183532539e-06
8.21053553232e-06
8.20213313583e-06
8.20257696354e-06
8.21053553232e-06
8.21020594853e-06
8.20994542251e-06
8.2653688487e-06
)
;
    }
    procBoundary9to11
    {
        type            processor;
        value           nonuniform List<scalar> 9(8.20163118365e-06 8.2004366187e-06 8.19665940694e-06 8.19094770698e-06 8.1866308019e-06 8.14052367486e-06 1.27153219369e-05 0.000648278210564 0.00702488609014);
    }
}


// ************************************************************************* //
