/*--------------------------------*- C++ -*----------------------------------*\
| =========                 |                                                 |
| \\      /  F ield         | OpenFOAM: The Open Source CFD Toolbox           |
|  \\    /   O peration     | Version:  v2012                                 |
|   \\  /    A nd           | Website:  www.openfoam.com                      |
|    \\/     M anipulation  |                                                 |
\*---------------------------------------------------------------------------*/
FoamFile
{
    version     2.0;
    format      ascii;
    class       volVectorField;
    location    "2.5";
    object      U_0;
}
// * * * * * * * * * * * * * * * * * * * * * * * * * * * * * * * * * * * * * //

dimensions      [0 1 -1 0 0 0 0];


internalField   nonuniform List<vector> 
167
(
(-0.000982904700041 0.000936023477644 5.25917623056e-22)
(-0.000667771915206 0.00201265703504 1.14734104934e-21)
(-0.000541808069789 0.00273557937895 4.50139230253e-22)
(-0.000526688717303 0.00356985270566 -3.31487132018e-22)
(-0.000523410339673 0.0042960466183 -9.83503894941e-22)
(-0.000485900927019 0.00490865859646 -8.65056270052e-22)
(-0.000413350020954 0.00539282914806 -6.75127099559e-22)
(-0.000305282363966 0.00568981412772 2.77545694284e-22)
(-0.00201399154369 0.000659312390649 7.35696023629e-22)
(-0.00157397756711 0.00157925761048 1.4542992237e-21)
(-0.00128878953678 0.00236493980751 4.53665842505e-22)
(-0.00115148554559 0.00324595186917 -5.77490327358e-22)
(-0.00102911656728 0.00397211361502 -1.45346759468e-21)
(-0.000853370654711 0.00455919840308 -1.41844104971e-21)
(-0.000605464473652 0.00501004059546 -1.17090071393e-21)
(-0.000275003775245 0.00528442018031 -3.27083928428e-22)
(-0.00280656275449 0.000577260320915 1.66702946703e-21)
(-0.00239586047697 0.00140781747465 2.72591624281e-21)
(-0.00205187150693 0.00220610969734 1.23392537286e-21)
(-0.00182340787094 0.00310011258038 1.57504424588e-23)
(-0.00159772681599 0.00383315183587 -6.63261846883e-22)
(-0.00130278978136 0.0044332415091 -4.78402820264e-22)
(-0.000910307204338 0.00490577741167 -4.48379746817e-22)
(-0.000401883428 0.00521421108189 1.09408783944e-22)
(-0.00380677864269 0.000629284717036 1.34837301647e-21)
(-0.00342171715508 0.00146247289153 2.29252572895e-21)
(-0.00302500868739 0.0022952149221 1.27040891021e-21)
(-0.00271335041054 0.00323338662936 3.43051435992e-22)
(-0.00238544930379 0.00402613242951 -6.79650384547e-23)
(-0.00197221985881 0.0047028397559 -1.26293535861e-22)
(-0.00143997987332 0.00527164837753 -1.95427949977e-22)
(-0.00076053192454 0.00570129038424 7.55476083408e-23)
(9.84109342389e-05 0.0059570129164 1.50486229052e-22)
(-0.00481431277038 0.000718517660848 9.16959191526e-22)
(-0.00441449115571 0.00160240904369 2.07011836772e-21)
(-0.00395620223806 0.00250323351925 1.50616878119e-21)
(-0.00357768517186 0.0035172125838 5.0458930347e-22)
(-0.00317454589625 0.00440316384953 1.08915869351e-22)
(-0.00266840494026 0.00519473455194 3.75166947077e-23)
(-0.00202293223436 0.00590446584228 2.93909901128e-23)
(-0.00120557672886 0.00650731076934 1.4274386394e-23)
(-0.000177709073501 0.00697703574608 7.64524429074e-24)
(0.00110789262379 0.00728427580427 1.4766417527e-23)
(-0.00594061021392 0.000784804438397 6.43812582557e-22)
(-0.00549385571779 0.00176908352599 1.66624338729e-21)
(-0.00496969578215 0.00275859275929 1.18695899042e-21)
(-0.00453778836028 0.00387055755178 4.13497229458e-22)
(-0.00408043293391 0.00487338893303 1.06223513971e-22)
(-0.00350818226023 0.00580598885873 2.18620409159e-23)
(-0.00277919627778 0.00668280276527 1.41508246237e-23)
(-0.00186091880665 0.00748687804129 1.08111087881e-24)
(-0.000711862441677 0.00820073842371 -1.59523792202e-23)
(0.000719340511631 0.00880511936235 7.09730918255e-24)
(-0.00718049203045 0.000838763777521 5.36157858533e-22)
(-0.00667276852184 0.00194203475259 1.42683077483e-21)
(-0.00608664937253 0.00303796600108 7.32764471959e-22)
(-0.00561304288001 0.00426375561854 2.59631267508e-22)
(-0.00511879331485 0.00539522989265 7.87210781711e-23)
(-0.00450471306685 0.00648271187645 1.44101982127e-23)
(-0.00372558533195 0.00754328630607 -1.67304675265e-24)
(-0.00274599263715 0.00856551425374 -2.45782325666e-24)
(-0.0015249293323 0.00954410984821 -1.50474542271e-23)
(-1.22385945239e-05 0.0104777387702 2.88335213308e-24)
(-0.00853286355706 0.000892444894682 9.24885553327e-22)
(-0.00796097476665 0.00211669704196 1.86910928633e-21)
(-0.00731769462961 0.00332526283782 1.24409633305e-21)
(-0.00681628248465 0.00467589900636 4.27046256389e-22)
(-0.00630393824324 0.00594463375071 9.77285485503e-23)
(-0.00567165364152 0.00719255951132 1.5204665121e-23)
(-0.00487466417392 0.00844228437276 8.88003928461e-24)
(-0.00387248978356 0.00968916370846 -8.51327502559e-25)
(-0.00262863992513 0.0109348310412 -7.99504149184e-24)
(-0.00109744916553 0.0121847277192 -7.16371458211e-25)
(-0.00999882772224 0.000942424430584 8.33537119139e-22)
(-0.00936564989922 0.00228981262638 1.75224845852e-21)
(-0.00866831322543 0.0036125537438 1.05972283574e-21)
(-0.00815257294272 0.00509043238224 4.46162857419e-22)
(-0.00764048013747 0.00649806361257 9.50803947727e-23)
(-0.00701417283312 0.00790546630468 2.98173111495e-23)
(-0.00622614862398 0.00934434307787 2.49612757985e-23)
(-0.00523920431213 0.0108151463345 2.51505051238e-25)
(-0.0040202183844 0.0123227063987 1.25929830786e-24)
(-0.00252427461984 0.0138866448483 1.31856425432e-23)
(-0.0115743820381 0.000987671333537 5.89804440369e-22)
(-0.0108824320222 0.00245789561389 1.32245767344e-21)
(-0.0101384636086 0.00389046286336 9.21636254913e-22)
(-0.00961857442545 0.00549071082673 3.43462726979e-22)
(-0.00912351849863 0.0070347340461 7.34368719593e-23)
(-0.00852516396176 0.00859908561179 1.48316353609e-23)
(-0.00777380814523 0.0102193630383 1.99583768563e-24)
(-0.00683953918138 0.0118999114353 -3.62384834614e-25)
(-0.0056908265319 0.013653749179 8.07422349033e-24)
(-0.00428294478182 0.0155140857792 1.62666883299e-23)
(-0.0132532084242 0.00102807760497 -3.28615278753e-22)
(-0.0125044247476 0.00261475761391 5.04233816157e-22)
(-0.0117230510563 0.00415145685126 1.89282501079e-22)
(-0.0112081787872 0.00586644852654 2.4858695336e-22)
(-0.01074510173 0.00753669084484 3.16589146594e-23)
(-0.0101949269373 0.0092463694291 2.3341652233e-24)
(-0.00950864264241 0.0110321864315 -2.28306430054e-24)
(-0.00866029920344 0.0129029980229 -3.00583497159e-24)
(-0.00762017732915 0.0148830844835 1.17413107229e-24)
(-0.00635014429939 0.0170110253195 1.2916124835e-23)
(-0.0150293205538 0.00106369462816 -2.58390452115e-22)
(-0.0142250695726 0.00275563630553 9.78278152869e-22)
(-0.0134141688844 0.00438594417536 6.28382484741e-22)
(-0.0129127638246 0.00620419840361 2.71233833658e-22)
(-0.0124944751399 0.0079868241661 3.07637508209e-23)
(-0.0120101709408 0.00982552228663 -2.77563342264e-24)
(-0.0114119927637 0.0117562992306 -1.37002941045e-24)
(-0.0106762893113 0.0137935909058 -7.84084015801e-24)
(-0.00977488666146 0.015968581256 1.25302021774e-23)
(-0.00868433918709 0.0183239433661 2.08231888794e-23)
(-0.0168946960845 0.0010946012678 -1.2918540186e-22)
(-0.0160379045945 0.00287598025261 1.16793779442e-21)
(-0.0152003484149 0.00458757533346 8.84622283749e-22)
(-0.0147195849506 0.00649551818391 3.1101458998e-22)
(-0.0143554860503 0.00837160362818 4.40411340499e-23)
(-0.0139496580892 0.0103177579994 3.66472308676e-24)
(-0.013455115939 0.0123680277554 -8.65331707536e-26)
(-0.012850185918 0.0145445926954 1.65597638278e-23)
(-0.012114668145 0.0168796612054 2.03341626246e-23)
(-0.0112353085395 0.0194123025738 -6.98315149796e-24)
(-0.0188285223312 0.0011175158341 -5.28515905541e-22)
(-0.0179239708967 0.00297378682501 5.05544869535e-22)
(-0.0170591951802 0.00475329971238 2.5585821152e-22)
(-0.0166087841459 0.00673453055121 2.3716625176e-22)
(-0.0163078821716 0.00868325250709 3.43862623944e-23)
(-0.0159900788431 0.0107132552092 3.8221395605e-24)
(-0.0156101099286 0.0128569565893 9.25014315013e-24)
(-0.0151500091748 0.0151379866756 -2.22346537858e-23)
(-0.0146006195615 0.0175883835691 -2.0691256622e-23)
(-0.0139526070273 0.0202474567057 -1.19964312778e-23)
(-0.0208069629814 0.00112256045791 -6.14103746183e-22)
(-0.0198550923551 0.00304858520892 -4.42307914062e-24)
(-0.0189709388921 0.00488017237382 -2.65158246115e-22)
(-0.0185574761201 0.00690903654978 -6.6012140134e-23)
(-0.0183267693946 0.00891071093792 -3.05006994862e-23)
(-0.0181053824483 0.0110019475771 -1.28579357388e-23)
(-0.0178477401864 0.0132097577546 1.62193007931e-26)
(-0.0175422676171 0.0155585934614 -1.80500759816e-23)
(-0.0171866604384 0.0180827633884 -3.18058827637e-24)
(-0.016776274002 0.0208204697445 3.03588954573e-24)
(-0.022822877899 0.0011249284391 -1.32392659974e-21)
(-0.0218219881187 0.00309403337664 -8.45401657114e-22)
(-0.0209234717363 0.0049561696131 -5.36056791819e-22)
(-0.0205489365096 0.00701478109181 -1.75334500758e-22)
(-0.0203892558156 0.00904779384374 -6.55240511822e-23)
(-0.0202671015953 0.0111768022024 -4.93048550385e-24)
(-0.0201357565799 0.0134213403334 5.63082891001e-24)
(-0.0199860481034 0.0158039127996 2.92231755522e-25)
(-0.0198202288039 0.018360934889 2.72497398955e-23)
(-0.0196445239356 0.0211268105229 3.99362084338e-23)
(-0.024872902507 0.00111301524414 -1.23060919023e-21)
(-0.0238193504494 0.00311051648926 -5.14554208428e-22)
(-0.0229057854711 0.0049845702169 -2.88988009647e-22)
(-0.0225675151936 0.00705302599424 -9.17834632708e-23)
(-0.0224760691754 0.009096720471 -4.06342638734e-23)
(-0.0224501426076 0.0112376186998 2.02085852642e-23)
(-0.0224429956332 0.0134916944128 3.41111081443e-23)
(-0.02692993496 0.00109983181116 -5.5241578013e-22)
(-0.0258219048313 0.00310177849109 2.10435688877e-22)
(-0.0248942915583 0.00496968457297 3.09408123983e-23)
(-0.0245900066921 0.00702962049456 2.79462051847e-24)
(-0.0245649524074 0.00906258031789 -3.48423736951e-23)
(-0.0268526767308 0.00491008276055 2.61648652807e-22)
(-0.0265870981658 0.00694536340611 1.94673875716e-22)
)
;

boundaryField
{
    back
    {
        type            noSlip;
    }
    sides
    {
        type            noSlip;
    }
    bottom
    {
        type            noSlip;
    }
    front
    {
        type            noSlip;
    }
    atmosphere
    {
        type            pressureInletOutletVelocity;
        value           nonuniform List<vector> 0();
    }
    floatingObject
    {
        type            movingWallVelocity;
        value           nonuniform List<vector> 0();
    }
    procBoundary2to0
    {
        type            processor;
        value           nonuniform List<vector> 
14
(
(-0.0224455266346 0.0158789553829 1.33880426891e-23)
(-0.0224625675439 0.0184304742949 1.19415449774e-24)
(-0.0225093406181 0.0211787814905 1.92406133194e-23)
(-0.0246319773947 0.0111909177306 -6.93797666411e-24)
(-0.0224455266346 0.0158789553829 1.33880426891e-23)
(-0.0247421843961 0.0134275570341 4.87594791716e-24)
(-0.0289517751827 0.00108577850638 8.38708519131e-23)
(-0.027798367429 0.00306907923362 8.73913772867e-22)
(-0.0246319773947 0.0111909177306 -6.93797666411e-24)
(-0.0266312751671 0.00894798180555 1.09075123833e-23)
(-0.027798367429 0.00306907923362 8.73913772867e-22)
(-0.0287765200784 0.0048059533484 4.39580332958e-23)
(-0.0266312751671 0.00894798180555 1.09075123833e-23)
(-0.0285492181601 0.00678995724458 8.54899177543e-23)
)
;
    }
    procBoundary2to1
    {
        type            processor;
        value           nonuniform List<vector> 
18
(
(-0.000153306270932 0.0057388032205 1.05383241661e-21)
(0.000154408399965 0.00533316690001 1.6172369134e-22)
(0.000243659499088 0.0053145922849 2.81515045949e-22)
(0.000243659499088 0.0053145922849 2.81515045949e-22)
(0.00117874318991 0.00600307326197 -1.53608764006e-22)
(0.00117874318991 0.00600307326197 -1.53608764006e-22)
(0.00270269578288 0.00740076385595 4.26766538095e-25)
(0.00249921081008 0.00930878572125 -5.89045097079e-24)
(0.00185646881189 0.0113362011563 -4.98489708604e-24)
(0.000778337816993 0.0134353982186 -2.34809409249e-23)
(-0.000692979108735 0.0155234124281 -2.29815311334e-24)
(-0.00256891328601 0.0175102036934 -4.75573450042e-24)
(-0.00481391751572 0.0193244363856 -8.53952527456e-24)
(-0.00737808441348 0.0209043550215 -8.03892246997e-24)
(-0.0101960887549 0.0221974685624 -2.38214025464e-23)
(-0.0131989013515 0.0231745490224 -2.92188293054e-23)
(-0.0163153171281 0.0238229284204 -1.7937123836e-23)
(-0.0194699209843 0.0241423938269 -3.81797716862e-23)
)
;
    }
}


// ************************************************************************* //
