/*--------------------------------*- C++ -*----------------------------------*\
| =========                 |                                                 |
| \\      /  F ield         | OpenFOAM: The Open Source CFD Toolbox           |
|  \\    /   O peration     | Version:  v2012                                 |
|   \\  /    A nd           | Website:  www.openfoam.com                      |
|    \\/     M anipulation  |                                                 |
\*---------------------------------------------------------------------------*/
FoamFile
{
    version     2.0;
    format      ascii;
    class       volScalarField;
    location    "0.8";
    object      k;
}
// * * * * * * * * * * * * * * * * * * * * * * * * * * * * * * * * * * * * * //

dimensions      [0 2 -2 0 0 0 0];


internalField   nonuniform List<scalar> 
167
(
0.025246099986
0.0252769169653
0.0253402744471
0.0255538061552
0.0263550399358
0.0290169974206
0.036254094232
0.0519680042542
0.0799947376715
0.0252423002785
0.0253034492711
0.0255088150255
0.0262850921865
0.0288914711965
0.0360556836402
0.0517666062244
0.0800352925563
0.0252092991152
0.0252685069515
0.0254661631574
0.0262182840732
0.0287698370398
0.0358598736233
0.0515546911326
0.0799718906966
0.0251482820955
0.025177958068
0.0252354860285
0.0254259601071
0.026155019092
0.0286532895664
0.0356694330082
0.0513423987988
0.0798696716479
0.0251186808272
0.0251483306831
0.0252044309687
0.0253882961647
0.0260956099034
0.0285427949013
0.0354867039674
0.0511358470929
0.0797651809452
0.0250906932283
0.0251204659419
0.0251753862531
0.0253532412596
0.0260402778042
0.0284390373263
0.0353133041748
0.0509380098619
0.0796663218445
0.0250389517109
0.0250643937958
0.0250944250088
0.0251484009301
0.0253208541328
0.0259891882562
0.0283425478162
0.0351503113669
0.0507505526492
0.0795751309777
0.0249888564146
0.02501374029
0.0250398758897
0.0250702797508
0.0251235301589
0.0252911919614
0.0259424888882
0.0282538318569
0.0349989824477
0.0505750777803
0.0794915454557
0.0249645111294
0.0249903297764
0.0250172351624
0.0250481077732
0.0251008328405
0.0252643094276
0.0259003124933
0.0281733465447
0.0348605281111
0.0504133893294
0.0794152400099
0.0249688195226
0.0249965534459
0.0250279694191
0.0250803475102
0.0252402295451
0.0258627099964
0.0281013521104
0.0347356215458
0.0502662544045
0.0793469348133
0.0249491492376
0.0249777507004
0.0250097623757
0.0250619519172
0.0252188246612
0.0258296265521
0.0280381057913
0.0346251916611
0.0501349546991
0.0792858069593
0.0249302529584
0.0249597352591
0.024992378273
0.0250445279441
0.0251989844545
0.0258000449331
0.0279829767986
0.0345292816102
0.0500195869155
0.0792313634835
0.024905527259
0.0249359048013
0.024969228707
0.0250215135247
0.0251742048819
0.0257676897201
0.0279305896224
0.034444645377
0.049918525553
0.0791811588057
0.0248415365069
0.0248728759803
0.0249070039476
0.0249596853731
0.0251113582111
0.0256997315017
0.0278498668064
0.0343463941971
0.0498188719562
0.0791331211805
0.0245586774743
0.0245908405334
0.0246232095034
0.0246582820811
0.0247115749045
0.0248626541481
0.0254477496702
0.0275942863272
0.0341042583162
0.0496250812723
0.0790610244055
0.0235576278248
0.0235903667939
0.0236232830796
0.0236587256749
0.0237114265569
0.0238582577395
0.0244299510024
0.0265563467929
0.0330928345424
0.0487695276746
0.0786850685361
0.0195046933519
0.0195380410145
0.0195711452795
0.0196053234822
0.0196500030215
0.0197600363995
0.0201968482831
0.0219514372138
0.0278483251313
0.0434832981478
0.0760997903192
)
;

boundaryField
{
    back
    {
        type            kqRWallFunction;
        value           nonuniform List<scalar> 
167
(
0.025246099986
0.0252769169653
0.0253402744471
0.0255538061552
0.0263550399358
0.0290169974206
0.036254094232
0.0519680042542
0.0799947376715
0.0252423002785
0.0253034492711
0.0255088150255
0.0262850921865
0.0288914711965
0.0360556836402
0.0517666062244
0.0800352925563
0.0252092991152
0.0252685069515
0.0254661631574
0.0262182840732
0.0287698370398
0.0358598736233
0.0515546911326
0.0799718906966
0.0251482820955
0.025177958068
0.0252354860285
0.0254259601071
0.026155019092
0.0286532895664
0.0356694330082
0.0513423987988
0.0798696716479
0.0251186808272
0.0251483306831
0.0252044309687
0.0253882961647
0.0260956099034
0.0285427949013
0.0354867039674
0.0511358470929
0.0797651809452
0.0250906932283
0.0251204659419
0.0251753862531
0.0253532412596
0.0260402778042
0.0284390373263
0.0353133041748
0.0509380098619
0.0796663218445
0.0250389517109
0.0250643937958
0.0250944250088
0.0251484009301
0.0253208541328
0.0259891882562
0.0283425478162
0.0351503113669
0.0507505526492
0.0795751309777
0.0249888564146
0.02501374029
0.0250398758897
0.0250702797508
0.0251235301589
0.0252911919614
0.0259424888882
0.0282538318569
0.0349989824477
0.0505750777803
0.0794915454557
0.0249645111294
0.0249903297764
0.0250172351624
0.0250481077732
0.0251008328405
0.0252643094276
0.0259003124933
0.0281733465447
0.0348605281111
0.0504133893294
0.0794152400099
0.0249688195226
0.0249965534459
0.0250279694191
0.0250803475102
0.0252402295451
0.0258627099964
0.0281013521104
0.0347356215458
0.0502662544045
0.0793469348133
0.0249491492376
0.0249777507004
0.0250097623757
0.0250619519172
0.0252188246612
0.0258296265521
0.0280381057913
0.0346251916611
0.0501349546991
0.0792858069593
0.0249302529584
0.0249597352591
0.024992378273
0.0250445279441
0.0251989844545
0.0258000449331
0.0279829767986
0.0345292816102
0.0500195869155
0.0792313634835
0.024905527259
0.0249359048013
0.024969228707
0.0250215135247
0.0251742048819
0.0257676897201
0.0279305896224
0.034444645377
0.049918525553
0.0791811588057
0.0248415365069
0.0248728759803
0.0249070039476
0.0249596853731
0.0251113582111
0.0256997315017
0.0278498668064
0.0343463941971
0.0498188719562
0.0791331211805
0.0245586774743
0.0245908405334
0.0246232095034
0.0246582820811
0.0247115749045
0.0248626541481
0.0254477496702
0.0275942863272
0.0341042583162
0.0496250812723
0.0790610244055
0.0235576278248
0.0235903667939
0.0236232830796
0.0236587256749
0.0237114265569
0.0238582577395
0.0244299510024
0.0265563467929
0.0330928345424
0.0487695276746
0.0786850685361
0.0195046933519
0.0195380410145
0.0195711452795
0.0196053234822
0.0196500030215
0.0197600363995
0.0201968482831
0.0219514372138
0.0278483251313
0.0434832981478
0.0760997903192
)
;
    }
    sides
    {
        type            kqRWallFunction;
        value           nonuniform List<scalar> 
11
(
0.0195046933519
0.0195380410145
0.0195711452795
0.0196053234822
0.0196500030215
0.0197600363995
0.0201968482831
0.0219514372138
0.0278483251313
0.0434832981478
0.0760997903192
)
;
    }
    bottom
    {
        type            kqRWallFunction;
        value           nonuniform List<scalar> 0();
    }
    front
    {
        type            kqRWallFunction;
        value           nonuniform List<scalar> 
167
(
0.025246099986
0.0252769169653
0.0253402744471
0.0255538061552
0.0263550399358
0.0290169974206
0.036254094232
0.0519680042542
0.0799947376715
0.0252423002785
0.0253034492711
0.0255088150255
0.0262850921865
0.0288914711965
0.0360556836402
0.0517666062244
0.0800352925563
0.0252092991152
0.0252685069515
0.0254661631574
0.0262182840732
0.0287698370398
0.0358598736233
0.0515546911326
0.0799718906966
0.0251482820955
0.025177958068
0.0252354860285
0.0254259601071
0.026155019092
0.0286532895664
0.0356694330082
0.0513423987988
0.0798696716479
0.0251186808272
0.0251483306831
0.0252044309687
0.0253882961647
0.0260956099034
0.0285427949013
0.0354867039674
0.0511358470929
0.0797651809452
0.0250906932283
0.0251204659419
0.0251753862531
0.0253532412596
0.0260402778042
0.0284390373263
0.0353133041748
0.0509380098619
0.0796663218445
0.0250389517109
0.0250643937958
0.0250944250088
0.0251484009301
0.0253208541328
0.0259891882562
0.0283425478162
0.0351503113669
0.0507505526492
0.0795751309777
0.0249888564146
0.02501374029
0.0250398758897
0.0250702797508
0.0251235301589
0.0252911919614
0.0259424888882
0.0282538318569
0.0349989824477
0.0505750777803
0.0794915454557
0.0249645111294
0.0249903297764
0.0250172351624
0.0250481077732
0.0251008328405
0.0252643094276
0.0259003124933
0.0281733465447
0.0348605281111
0.0504133893294
0.0794152400099
0.0249688195226
0.0249965534459
0.0250279694191
0.0250803475102
0.0252402295451
0.0258627099964
0.0281013521104
0.0347356215458
0.0502662544045
0.0793469348133
0.0249491492376
0.0249777507004
0.0250097623757
0.0250619519172
0.0252188246612
0.0258296265521
0.0280381057913
0.0346251916611
0.0501349546991
0.0792858069593
0.0249302529584
0.0249597352591
0.024992378273
0.0250445279441
0.0251989844545
0.0258000449331
0.0279829767986
0.0345292816102
0.0500195869155
0.0792313634835
0.024905527259
0.0249359048013
0.024969228707
0.0250215135247
0.0251742048819
0.0257676897201
0.0279305896224
0.034444645377
0.049918525553
0.0791811588057
0.0248415365069
0.0248728759803
0.0249070039476
0.0249596853731
0.0251113582111
0.0256997315017
0.0278498668064
0.0343463941971
0.0498188719562
0.0791331211805
0.0245586774743
0.0245908405334
0.0246232095034
0.0246582820811
0.0247115749045
0.0248626541481
0.0254477496702
0.0275942863272
0.0341042583162
0.0496250812723
0.0790610244055
0.0235576278248
0.0235903667939
0.0236232830796
0.0236587256749
0.0237114265569
0.0238582577395
0.0244299510024
0.0265563467929
0.0330928345424
0.0487695276746
0.0786850685361
0.0195046933519
0.0195380410145
0.0195711452795
0.0196053234822
0.0196500030215
0.0197600363995
0.0201968482831
0.0219514372138
0.0278483251313
0.0434832981478
0.0760997903192
)
;
    }
    atmosphere
    {
        type            inletOutlet;
        inletValue      uniform 0.1;
        value           uniform 0.1;
    }
    floatingObject
    {
        type            kqRWallFunction;
        value           nonuniform List<scalar> 0();
    }
    procBoundary11to9
    {
        type            processor;
        value           nonuniform List<scalar> 9(0.0252815012114 0.0253130849882 0.0253788994063 0.0256009598859 0.0264276046278 0.0291449487213 0.0364510832126 0.0521510090604 0.0799406936752);
    }
    procBoundary11to10
    {
        type            processor;
        value           nonuniform List<scalar> 
23
(
0.0252220962877
0.0252120459259
0.0252120459259
0.025179417069
0.025179417069
0.0251242073721
0.0250942763338
0.0250658297954
0.0250658297954
0.0250148962755
0.0250148962755
0.0249649815052
0.0249395801395
0.0249420007622
0.0249420007622
0.0249212825052
0.0249013262129
0.0248755348682
0.02481045597
0.02481045597
0.0245264526316
0.0235247867423
0.0194710002924
)
;
    }
}


// ************************************************************************* //
