/*--------------------------------*- C++ -*----------------------------------*\
| =========                 |                                                 |
| \\      /  F ield         | OpenFOAM: The Open Source CFD Toolbox           |
|  \\    /   O peration     | Version:  v2012                                 |
|   \\  /    A nd           | Website:  www.openfoam.com                      |
|    \\/     M anipulation  |                                                 |
\*---------------------------------------------------------------------------*/
FoamFile
{
    version     2.0;
    format      ascii;
    class       volScalarField;
    location    "0.8";
    object      rAU;
}
// * * * * * * * * * * * * * * * * * * * * * * * * * * * * * * * * * * * * * //

dimensions      [-1 3 1 0 0 0 0];


internalField   nonuniform List<scalar> 
167
(
8.15432086604e-06
8.15359827974e-06
8.15414920572e-06
8.15494264725e-06
8.13970611087e-06
8.10394765029e-06
8.06861854478e-06
1.12402714536e-05
0.00142514985397
8.15355966516e-06
8.15420142529e-06
8.15549723749e-06
8.13924251755e-06
8.09748811526e-06
8.15003564659e-06
1.09625379435e-05
0.00056999744324
8.15351203165e-06
8.15421947769e-06
8.15594623113e-06
8.13921271418e-06
8.08932697374e-06
8.14768702183e-06
1.06339040383e-05
0.000350442779641
8.15418217213e-06
8.15346511926e-06
8.15422216897e-06
8.15634742118e-06
8.13940833408e-06
8.08102451568e-06
8.130076893e-06
1.03307772247e-05
0.000249726632256
8.15414174239e-06
8.15342032479e-06
8.15422811012e-06
8.15669323297e-06
8.13953264525e-06
8.07338224918e-06
7.97632568557e-06
9.86043346156e-06
0.000192895992463
8.15411021616e-06
8.15338351605e-06
8.15422986803e-06
8.15704653987e-06
8.13927851242e-06
8.0671969164e-06
7.97068541243e-06
9.65914540221e-06
0.000156929088698
8.15434931478e-06
8.15408856295e-06
8.15335684685e-06
8.15422490048e-06
8.15733241011e-06
8.13903799494e-06
8.06133427828e-06
7.96523154182e-06
9.48775108488e-06
0.000132460092904
8.15441674945e-06
8.15432807251e-06
8.15407504014e-06
8.1533406189e-06
8.15421486823e-06
8.15755120163e-06
8.13884356836e-06
8.05592582846e-06
7.96028088937e-06
9.34204944696e-06
0.000115009937955
8.15440419534e-06
8.15431690206e-06
8.15407117101e-06
8.15333581681e-06
8.15420655397e-06
8.15771313292e-06
8.1386195963e-06
8.05061663499e-06
7.95549345856e-06
9.21889219632e-06
0.000102188052051
8.15431362362e-06
8.15407351353e-06
8.15334115717e-06
8.15419680768e-06
8.15779641245e-06
8.13844810514e-06
8.04597631848e-06
7.95128241933e-06
9.11544470941e-06
9.25124688373e-05
8.15431216734e-06
8.15407592251e-06
8.15335343343e-06
8.15419337037e-06
8.15781682501e-06
8.13826258091e-06
8.04158221352e-06
7.94730540661e-06
9.02937914778e-06
8.51384139312e-05
8.15435532252e-06
8.15412246538e-06
8.15341853703e-06
8.15424830217e-06
8.15779724581e-06
8.13817221311e-06
8.03888745779e-06
7.94482221268e-06
8.95848313739e-06
7.9464626868e-05
8.15457587576e-06
8.15434600215e-06
8.15366889707e-06
8.15450634822e-06
8.15791952288e-06
8.13828819691e-06
8.03917846786e-06
7.9448735918e-06
8.899998509e-06
7.50933439329e-05
8.15478326684e-06
8.15455331009e-06
8.15390822759e-06
8.15476957211e-06
8.15808996076e-06
8.13861031968e-06
8.0397815181e-06
7.9462959857e-06
8.86062138818e-06
7.19192178006e-05
8.15531721396e-06
8.15524449917e-06
8.15504000029e-06
8.1544461486e-06
8.15536926055e-06
8.15887657522e-06
8.14016822837e-06
8.04128926552e-06
7.94603724689e-06
8.81874516332e-06
6.9458136669e-05
8.16908044638e-06
8.1692065559e-06
8.16917732473e-06
8.16880103084e-06
8.17017305019e-06
8.17472739362e-06
8.15719317955e-06
8.05700484772e-06
7.95875902886e-06
8.81216869651e-06
6.76209925213e-05
8.24087762697e-06
8.24102261736e-06
8.24099661269e-06
8.24076171825e-06
8.24175256192e-06
8.24146359234e-06
8.21993737922e-06
8.17439364032e-06
8.2175513898e-06
9.06318802009e-06
6.97888856764e-05
)
;

boundaryField
{
    back
    {
        type            calculated;
        value           nonuniform List<scalar> 
167
(
8.15432086604e-06
8.15359827974e-06
8.15414920572e-06
8.15494264725e-06
8.13970611087e-06
8.10394765029e-06
8.06861854478e-06
1.12402714536e-05
0.00142514985397
8.15355966516e-06
8.15420142529e-06
8.15549723749e-06
8.13924251755e-06
8.09748811526e-06
8.15003564659e-06
1.09625379435e-05
0.00056999744324
8.15351203165e-06
8.15421947769e-06
8.15594623113e-06
8.13921271418e-06
8.08932697374e-06
8.14768702183e-06
1.06339040383e-05
0.000350442779641
8.15418217213e-06
8.15346511926e-06
8.15422216897e-06
8.15634742118e-06
8.13940833408e-06
8.08102451568e-06
8.130076893e-06
1.03307772247e-05
0.000249726632256
8.15414174239e-06
8.15342032479e-06
8.15422811012e-06
8.15669323297e-06
8.13953264525e-06
8.07338224918e-06
7.97632568557e-06
9.86043346156e-06
0.000192895992463
8.15411021616e-06
8.15338351605e-06
8.15422986803e-06
8.15704653987e-06
8.13927851242e-06
8.0671969164e-06
7.97068541243e-06
9.65914540221e-06
0.000156929088698
8.15434931478e-06
8.15408856295e-06
8.15335684685e-06
8.15422490048e-06
8.15733241011e-06
8.13903799494e-06
8.06133427828e-06
7.96523154182e-06
9.48775108488e-06
0.000132460092904
8.15441674945e-06
8.15432807251e-06
8.15407504014e-06
8.1533406189e-06
8.15421486823e-06
8.15755120163e-06
8.13884356836e-06
8.05592582846e-06
7.96028088937e-06
9.34204944696e-06
0.000115009937955
8.15440419534e-06
8.15431690206e-06
8.15407117101e-06
8.15333581681e-06
8.15420655397e-06
8.15771313292e-06
8.1386195963e-06
8.05061663499e-06
7.95549345856e-06
9.21889219632e-06
0.000102188052051
8.15431362362e-06
8.15407351353e-06
8.15334115717e-06
8.15419680768e-06
8.15779641245e-06
8.13844810514e-06
8.04597631848e-06
7.95128241933e-06
9.11544470941e-06
9.25124688373e-05
8.15431216734e-06
8.15407592251e-06
8.15335343343e-06
8.15419337037e-06
8.15781682501e-06
8.13826258091e-06
8.04158221352e-06
7.94730540661e-06
9.02937914778e-06
8.51384139312e-05
8.15435532252e-06
8.15412246538e-06
8.15341853703e-06
8.15424830217e-06
8.15779724581e-06
8.13817221311e-06
8.03888745779e-06
7.94482221268e-06
8.95848313739e-06
7.9464626868e-05
8.15457587576e-06
8.15434600215e-06
8.15366889707e-06
8.15450634822e-06
8.15791952288e-06
8.13828819691e-06
8.03917846786e-06
7.9448735918e-06
8.899998509e-06
7.50933439329e-05
8.15478326684e-06
8.15455331009e-06
8.15390822759e-06
8.15476957211e-06
8.15808996076e-06
8.13861031968e-06
8.0397815181e-06
7.9462959857e-06
8.86062138818e-06
7.19192178006e-05
8.15531721396e-06
8.15524449917e-06
8.15504000029e-06
8.1544461486e-06
8.15536926055e-06
8.15887657522e-06
8.14016822837e-06
8.04128926552e-06
7.94603724689e-06
8.81874516332e-06
6.9458136669e-05
8.16908044638e-06
8.1692065559e-06
8.16917732473e-06
8.16880103084e-06
8.17017305019e-06
8.17472739362e-06
8.15719317955e-06
8.05700484772e-06
7.95875902886e-06
8.81216869651e-06
6.76209925213e-05
8.24087762697e-06
8.24102261736e-06
8.24099661269e-06
8.24076171825e-06
8.24175256192e-06
8.24146359234e-06
8.21993737922e-06
8.17439364032e-06
8.2175513898e-06
9.06318802009e-06
6.97888856764e-05
)
;
    }
    sides
    {
        type            calculated;
        value           nonuniform List<scalar> 
11
(
8.24087762697e-06
8.24102261736e-06
8.24099661269e-06
8.24076171825e-06
8.24175256192e-06
8.24146359234e-06
8.21993737922e-06
8.17439364032e-06
8.2175513898e-06
9.06318802009e-06
6.97888856764e-05
)
;
    }
    bottom
    {
        type            calculated;
        value           nonuniform List<scalar> 0();
    }
    front
    {
        type            calculated;
        value           nonuniform List<scalar> 
167
(
8.15432086604e-06
8.15359827974e-06
8.15414920572e-06
8.15494264725e-06
8.13970611087e-06
8.10394765029e-06
8.06861854478e-06
1.12402714536e-05
0.00142514985397
8.15355966516e-06
8.15420142529e-06
8.15549723749e-06
8.13924251755e-06
8.09748811526e-06
8.15003564659e-06
1.09625379435e-05
0.00056999744324
8.15351203165e-06
8.15421947769e-06
8.15594623113e-06
8.13921271418e-06
8.08932697374e-06
8.14768702183e-06
1.06339040383e-05
0.000350442779641
8.15418217213e-06
8.15346511926e-06
8.15422216897e-06
8.15634742118e-06
8.13940833408e-06
8.08102451568e-06
8.130076893e-06
1.03307772247e-05
0.000249726632256
8.15414174239e-06
8.15342032479e-06
8.15422811012e-06
8.15669323297e-06
8.13953264525e-06
8.07338224918e-06
7.97632568557e-06
9.86043346156e-06
0.000192895992463
8.15411021616e-06
8.15338351605e-06
8.15422986803e-06
8.15704653987e-06
8.13927851242e-06
8.0671969164e-06
7.97068541243e-06
9.65914540221e-06
0.000156929088698
8.15434931478e-06
8.15408856295e-06
8.15335684685e-06
8.15422490048e-06
8.15733241011e-06
8.13903799494e-06
8.06133427828e-06
7.96523154182e-06
9.48775108488e-06
0.000132460092904
8.15441674945e-06
8.15432807251e-06
8.15407504014e-06
8.1533406189e-06
8.15421486823e-06
8.15755120163e-06
8.13884356836e-06
8.05592582846e-06
7.96028088937e-06
9.34204944696e-06
0.000115009937955
8.15440419534e-06
8.15431690206e-06
8.15407117101e-06
8.15333581681e-06
8.15420655397e-06
8.15771313292e-06
8.1386195963e-06
8.05061663499e-06
7.95549345856e-06
9.21889219632e-06
0.000102188052051
8.15431362362e-06
8.15407351353e-06
8.15334115717e-06
8.15419680768e-06
8.15779641245e-06
8.13844810514e-06
8.04597631848e-06
7.95128241933e-06
9.11544470941e-06
9.25124688373e-05
8.15431216734e-06
8.15407592251e-06
8.15335343343e-06
8.15419337037e-06
8.15781682501e-06
8.13826258091e-06
8.04158221352e-06
7.94730540661e-06
9.02937914778e-06
8.51384139312e-05
8.15435532252e-06
8.15412246538e-06
8.15341853703e-06
8.15424830217e-06
8.15779724581e-06
8.13817221311e-06
8.03888745779e-06
7.94482221268e-06
8.95848313739e-06
7.9464626868e-05
8.15457587576e-06
8.15434600215e-06
8.15366889707e-06
8.15450634822e-06
8.15791952288e-06
8.13828819691e-06
8.03917846786e-06
7.9448735918e-06
8.899998509e-06
7.50933439329e-05
8.15478326684e-06
8.15455331009e-06
8.15390822759e-06
8.15476957211e-06
8.15808996076e-06
8.13861031968e-06
8.0397815181e-06
7.9462959857e-06
8.86062138818e-06
7.19192178006e-05
8.15531721396e-06
8.15524449917e-06
8.15504000029e-06
8.1544461486e-06
8.15536926055e-06
8.15887657522e-06
8.14016822837e-06
8.04128926552e-06
7.94603724689e-06
8.81874516332e-06
6.9458136669e-05
8.16908044638e-06
8.1692065559e-06
8.16917732473e-06
8.16880103084e-06
8.17017305019e-06
8.17472739362e-06
8.15719317955e-06
8.05700484772e-06
7.95875902886e-06
8.81216869651e-06
6.76209925213e-05
8.24087762697e-06
8.24102261736e-06
8.24099661269e-06
8.24076171825e-06
8.24175256192e-06
8.24146359234e-06
8.21993737922e-06
8.17439364032e-06
8.2175513898e-06
9.06318802009e-06
6.97888856764e-05
)
;
    }
    atmosphere
    {
        type            calculated;
        value           nonuniform List<scalar> 
17
(
0.00142514985397
0.00056999744324
0.000350442779641
0.000249726632256
0.000192895992463
0.000156929088698
0.000132460092904
0.000115009937955
0.000102188052051
9.25124688373e-05
8.51384139312e-05
7.9464626868e-05
7.50933439329e-05
7.19192178006e-05
6.9458136669e-05
6.76209925213e-05
6.97888856764e-05
)
;
    }
    floatingObject
    {
        type            calculated;
        value           nonuniform List<scalar> 0();
    }
    procBoundary11to9
    {
        type            processor;
        value           nonuniform List<scalar> 9(8.15434887551e-06 8.15362401165e-06 8.15404195136e-06 8.15433062162e-06 8.14066358646e-06 8.10786654336e-06 8.05765956382e-06 1.1759133314e-05 0.00215312157108);
    }
    procBoundary11to10
    {
        type            processor;
        value           nonuniform List<scalar> 
23
(
8.15473278819e-06
8.1542781067e-06
8.1542781067e-06
8.15423013328e-06
8.15423013328e-06
8.15449789447e-06
8.15443601854e-06
8.1543854648e-06
8.1543854648e-06
8.15444585727e-06
8.15444585727e-06
8.15451604098e-06
8.15449998931e-06
8.15439889325e-06
8.15439889325e-06
8.15439861088e-06
8.15444194964e-06
8.1546652993e-06
8.15487759085e-06
8.15487759085e-06
8.15540796107e-06
8.16893987678e-06
8.24070647169e-06
)
;
    }
}


// ************************************************************************* //
