/*--------------------------------*- C++ -*----------------------------------*\
| =========                 |                                                 |
| \\      /  F ield         | OpenFOAM: The Open Source CFD Toolbox           |
|  \\    /   O peration     | Version:  v2012                                 |
|   \\  /    A nd           | Website:  www.openfoam.com                      |
|    \\/     M anipulation  |                                                 |
\*---------------------------------------------------------------------------*/
FoamFile
{
    version     2.0;
    format      ascii;
    class       volScalarField;
    location    "2.3";
    object      rAU;
}
// * * * * * * * * * * * * * * * * * * * * * * * * * * * * * * * * * * * * * //

dimensions      [-1 3 1 0 0 0 0];


internalField   nonuniform List<scalar> 
164
(
1.08104967732e-05
1.0841082822e-05
1.09358576323e-05
1.08170967031e-05
1.05466067775e-05
1.18496165766e-05
0.000295987213614
0.00700119618592
1.09967213131e-05
1.09335843948e-05
1.09623066099e-05
1.06399913557e-05
1.06468803374e-05
1.13120498742e-05
3.56586930911e-05
0.00143633476048
1.09967196417e-05
1.09335841666e-05
1.09623089345e-05
1.06399641683e-05
1.06468868046e-05
1.13108122421e-05
3.56183250807e-05
0.00143317444356
1.08104526853e-05
1.0841086314e-05
1.09357993361e-05
1.08169961305e-05
1.05464714384e-05
1.18492790788e-05
0.000295413152582
0.0069920556353
1.0831101266e-05
1.07065244018e-05
1.06861122576e-05
1.45487440313e-05
0.000688682710532
0.00849044830353
1.09551288233e-05
1.09989176431e-05
1.07652385457e-05
1.80945578634e-05
0.00252297276538
0.010173987939
1.10425093644e-05
1.09398089713e-05
1.06499612597e-05
1.59509322212e-05
0.00282831330371
0.00868593214235
1.09781755708e-05
1.07489680815e-05
1.05905838642e-05
1.61148101954e-05
0.00279277157265
0.00820156167273
1.08937038362e-05
1.07527937721e-05
1.07001849064e-05
1.74878291286e-05
0.00300332897482
0.00782002514301
1.09734255212e-05
1.09029987997e-05
1.08028573138e-05
1.9868715036e-05
0.00328937906433
0.00901915569971
1.09408384361e-05
1.08778013859e-05
1.08560730537e-05
2.27954329002e-05
0.00362340744042
0.00919561342761
1.0830334447e-05
1.08599780058e-05
1.08791190041e-05
2.41286832866e-05
0.00379551210099
0.0107227036444
1.0764353064e-05
1.08430095862e-05
1.1054478917e-05
2.30553991345e-05
0.00180648209693
0.0105432271674
1.08194920374e-05
1.08446947082e-05
1.10753713609e-05
2.41562366752e-05
0.00289887418953
0.0103886641311
1.08706096482e-05
1.08224113725e-05
1.10445823615e-05
2.5814450355e-05
0.00393235646497
0.0105841710518
1.07764746793e-05
1.08007085045e-05
1.09897274635e-05
2.59731745798e-05
0.00399798455588
0.00936761396319
1.08387502022e-05
1.08743042563e-05
1.09005231866e-05
2.49702347379e-05
0.00387676864438
0.00908638622236
1.08655356265e-05
1.07712595759e-05
1.08079997768e-05
2.37874155142e-05
0.00397261905834
0.00934900474887
1.08963194465e-05
1.0788270553e-05
1.08200001575e-05
2.25827043515e-05
0.00403282634661
0.0106539156975
1.091040337e-05
1.08911841695e-05
1.09062944807e-05
2.21114410135e-05
0.00394233595627
0.00943791783591
1.0940851879e-05
1.09533710512e-05
1.0987603186e-05
2.2289026114e-05
0.0039049388406
0.00936665006262
1.0974592492e-05
1.10085693449e-05
1.09763112289e-05
2.2335052225e-05
0.00391476469403
0.00932362232334
1.09701074203e-05
1.09525352925e-05
1.09115156073e-05
2.210347419e-05
0.00394756585019
0.00935559858525
1.09357511311e-05
1.08534091083e-05
1.08904829481e-05
2.1559516505e-05
0.00398876532062
0.00939513340349
1.08786609822e-05
2.06093614485e-05
0.00402360831729
0.0107155103302
1.08766959949e-05
1.957417715e-05
0.00392889833745
0.0105501172113
1.08815770824e-05
1.89411224909e-05
0.00151888313337
0.00927019019802
)
;

boundaryField
{
    back
    {
        type            calculated;
        value           nonuniform List<scalar> 
164
(
1.08104967732e-05
1.0841082822e-05
1.09358576323e-05
1.08170967031e-05
1.05466067775e-05
1.18496165766e-05
0.000295987213614
0.00700119618592
1.09967213131e-05
1.09335843948e-05
1.09623066099e-05
1.06399913557e-05
1.06468803374e-05
1.13120498742e-05
3.56586930911e-05
0.00143633476048
1.09967196417e-05
1.09335841666e-05
1.09623089345e-05
1.06399641683e-05
1.06468868046e-05
1.13108122421e-05
3.56183250807e-05
0.00143317444356
1.08104526853e-05
1.0841086314e-05
1.09357993361e-05
1.08169961305e-05
1.05464714384e-05
1.18492790788e-05
0.000295413152582
0.0069920556353
1.0831101266e-05
1.07065244018e-05
1.06861122576e-05
1.45487440313e-05
0.000688682710532
0.00849044830353
1.09551288233e-05
1.09989176431e-05
1.07652385457e-05
1.80945578634e-05
0.00252297276538
0.010173987939
1.10425093644e-05
1.09398089713e-05
1.06499612597e-05
1.59509322212e-05
0.00282831330371
0.00868593214235
1.09781755708e-05
1.07489680815e-05
1.05905838642e-05
1.61148101954e-05
0.00279277157265
0.00820156167273
1.08937038362e-05
1.07527937721e-05
1.07001849064e-05
1.74878291286e-05
0.00300332897482
0.00782002514301
1.09734255212e-05
1.09029987997e-05
1.08028573138e-05
1.9868715036e-05
0.00328937906433
0.00901915569971
1.09408384361e-05
1.08778013859e-05
1.08560730537e-05
2.27954329002e-05
0.00362340744042
0.00919561342761
1.0830334447e-05
1.08599780058e-05
1.08791190041e-05
2.41286832866e-05
0.00379551210099
0.0107227036444
1.0764353064e-05
1.08430095862e-05
1.1054478917e-05
2.30553991345e-05
0.00180648209693
0.0105432271674
1.08194920374e-05
1.08446947082e-05
1.10753713609e-05
2.41562366752e-05
0.00289887418953
0.0103886641311
1.08706096482e-05
1.08224113725e-05
1.10445823615e-05
2.5814450355e-05
0.00393235646497
0.0105841710518
1.07764746793e-05
1.08007085045e-05
1.09897274635e-05
2.59731745798e-05
0.00399798455588
0.00936761396319
1.08387502022e-05
1.08743042563e-05
1.09005231866e-05
2.49702347379e-05
0.00387676864438
0.00908638622236
1.08655356265e-05
1.07712595759e-05
1.08079997768e-05
2.37874155142e-05
0.00397261905834
0.00934900474887
1.08963194465e-05
1.0788270553e-05
1.08200001575e-05
2.25827043515e-05
0.00403282634661
0.0106539156975
1.091040337e-05
1.08911841695e-05
1.09062944807e-05
2.21114410135e-05
0.00394233595627
0.00943791783591
1.0940851879e-05
1.09533710512e-05
1.0987603186e-05
2.2289026114e-05
0.0039049388406
0.00936665006262
1.0974592492e-05
1.10085693449e-05
1.09763112289e-05
2.2335052225e-05
0.00391476469403
0.00932362232334
1.09701074203e-05
1.09525352925e-05
1.09115156073e-05
2.210347419e-05
0.00394756585019
0.00935559858525
1.09357511311e-05
1.08534091083e-05
1.08904829481e-05
2.1559516505e-05
0.00398876532062
0.00939513340349
1.08786609822e-05
2.06093614485e-05
0.00402360831729
0.0107155103302
1.08766959949e-05
1.957417715e-05
0.00392889833745
0.0105501172113
1.08815770824e-05
1.89411224909e-05
0.00151888313337
0.00927019019802
)
;
    }
    sides
    {
        type            calculated;
        value           nonuniform List<scalar> 0();
    }
    bottom
    {
        type            calculated;
        value           nonuniform List<scalar> 0();
    }
    front
    {
        type            calculated;
        value           nonuniform List<scalar> 
164
(
1.08104967732e-05
1.0841082822e-05
1.09358576323e-05
1.08170967031e-05
1.05466067775e-05
1.18496165766e-05
0.000295987213614
0.00700119618592
1.09967213131e-05
1.09335843948e-05
1.09623066099e-05
1.06399913557e-05
1.06468803374e-05
1.13120498742e-05
3.56586930911e-05
0.00143633476048
1.09967196417e-05
1.09335841666e-05
1.09623089345e-05
1.06399641683e-05
1.06468868046e-05
1.13108122421e-05
3.56183250807e-05
0.00143317444356
1.08104526853e-05
1.0841086314e-05
1.09357993361e-05
1.08169961305e-05
1.05464714384e-05
1.18492790788e-05
0.000295413152582
0.0069920556353
1.0831101266e-05
1.07065244018e-05
1.06861122576e-05
1.45487440313e-05
0.000688682710532
0.00849044830353
1.09551288233e-05
1.09989176431e-05
1.07652385457e-05
1.80945578634e-05
0.00252297276538
0.010173987939
1.10425093644e-05
1.09398089713e-05
1.06499612597e-05
1.59509322212e-05
0.00282831330371
0.00868593214235
1.09781755708e-05
1.07489680815e-05
1.05905838642e-05
1.61148101954e-05
0.00279277157265
0.00820156167273
1.08937038362e-05
1.07527937721e-05
1.07001849064e-05
1.74878291286e-05
0.00300332897482
0.00782002514301
1.09734255212e-05
1.09029987997e-05
1.08028573138e-05
1.9868715036e-05
0.00328937906433
0.00901915569971
1.09408384361e-05
1.08778013859e-05
1.08560730537e-05
2.27954329002e-05
0.00362340744042
0.00919561342761
1.0830334447e-05
1.08599780058e-05
1.08791190041e-05
2.41286832866e-05
0.00379551210099
0.0107227036444
1.0764353064e-05
1.08430095862e-05
1.1054478917e-05
2.30553991345e-05
0.00180648209693
0.0105432271674
1.08194920374e-05
1.08446947082e-05
1.10753713609e-05
2.41562366752e-05
0.00289887418953
0.0103886641311
1.08706096482e-05
1.08224113725e-05
1.10445823615e-05
2.5814450355e-05
0.00393235646497
0.0105841710518
1.07764746793e-05
1.08007085045e-05
1.09897274635e-05
2.59731745798e-05
0.00399798455588
0.00936761396319
1.08387502022e-05
1.08743042563e-05
1.09005231866e-05
2.49702347379e-05
0.00387676864438
0.00908638622236
1.08655356265e-05
1.07712595759e-05
1.08079997768e-05
2.37874155142e-05
0.00397261905834
0.00934900474887
1.08963194465e-05
1.0788270553e-05
1.08200001575e-05
2.25827043515e-05
0.00403282634661
0.0106539156975
1.091040337e-05
1.08911841695e-05
1.09062944807e-05
2.21114410135e-05
0.00394233595627
0.00943791783591
1.0940851879e-05
1.09533710512e-05
1.0987603186e-05
2.2289026114e-05
0.0039049388406
0.00936665006262
1.0974592492e-05
1.10085693449e-05
1.09763112289e-05
2.2335052225e-05
0.00391476469403
0.00932362232334
1.09701074203e-05
1.09525352925e-05
1.09115156073e-05
2.210347419e-05
0.00394756585019
0.00935559858525
1.09357511311e-05
1.08534091083e-05
1.08904829481e-05
2.1559516505e-05
0.00398876532062
0.00939513340349
1.08786609822e-05
2.06093614485e-05
0.00402360831729
0.0107155103302
1.08766959949e-05
1.957417715e-05
0.00392889833745
0.0105501172113
1.08815770824e-05
1.89411224909e-05
0.00151888313337
0.00927019019802
)
;
    }
    atmosphere
    {
        type            calculated;
        value           nonuniform List<scalar> 
27
(
0.00700119618592
0.00143633476048
0.00143317444356
0.0069920556353
0.00849044830353
0.010173987939
0.00868593214235
0.00820156167273
0.00782002514301
0.00901915569971
0.00919561342761
0.0107227036444
0.0105432271674
0.0103886641311
0.0105841710518
0.00936761396319
0.00908638622236
0.00934900474887
0.0106539156975
0.00943791783591
0.00936665006262
0.00932362232334
0.00935559858525
0.00939513340349
0.0107155103302
0.0105501172113
0.00927019019802
)
;
    }
    floatingObject
    {
        type            calculated;
        value           nonuniform List<scalar> 4(1.08104967732e-05 1.09967213131e-05 1.09967196417e-05 1.08104526853e-05);
    }
    procBoundary6to3
    {
        type            processor;
        value           nonuniform List<scalar> 8(1.0474137055e-05 1.07531720886e-05 1.08311700204e-05 1.07065974147e-05 1.06863306565e-05 1.45496491444e-05 0.000688702160186 0.0084900948104);
    }
    procBoundary6to7
    {
        type            processor;
        value           nonuniform List<scalar> 
11
(
1.09272058541e-05
1.09171001571e-05
1.09429163239e-05
1.09626853972e-05
1.09601701857e-05
1.09453149183e-05
1.09081470905e-05
1.08445330991e-05
1.08445330991e-05
1.08713081339e-05
1.08909424865e-05
)
;
    }
    procBoundary6to8
    {
        type            processor;
        value           nonuniform List<scalar> 
16
(
1.04741100277e-05
1.07531856692e-05
1.07531856692e-05
1.06916649416e-05
1.08727818215e-05
1.0945515109e-05
1.09306722651e-05
1.09668037475e-05
1.09613868985e-05
1.10219698543e-05
1.09537448742e-05
1.08790876298e-05
1.09833673488e-05
1.08322076035e-05
1.0797968894e-05
1.0890840644e-05
)
;
    }
    procBoundary6to9
    {
        type            processor;
        value           nonuniform List<scalar> 4(1.08831947888e-05 1.84582380384e-05 0.000916862947846 0.00903281895496);
    }
}


// ************************************************************************* //
