/*--------------------------------*- C++ -*----------------------------------*\
| =========                 |                                                 |
| \\      /  F ield         | OpenFOAM: The Open Source CFD Toolbox           |
|  \\    /   O peration     | Version:  v2012                                 |
|   \\  /    A nd           | Website:  www.openfoam.com                      |
|    \\/     M anipulation  |                                                 |
\*---------------------------------------------------------------------------*/
FoamFile
{
    version     2.0;
    format      ascii;
    class       volScalarField;
    location    "4.6";
    object      epsilon_0;
}
// * * * * * * * * * * * * * * * * * * * * * * * * * * * * * * * * * * * * * //

dimensions      [0 2 -3 0 0 0 0];


internalField   nonuniform List<scalar> 
167
(
0.000885838069559
0.000897533903929
0.000903130658056
0.000907023249283
0.000910784947527
0.000915059877681
0.000920451170871
0.000928245689546
0.000775975111313
0.000852746868903
0.000882317682582
0.000894085242366
0.000899743732327
0.00090368624385
0.000907492763878
0.000911815166293
0.000917275767554
0.000925219524211
0.000938973657375
0.000772348354665
0.000848981789522
0.000878587617859
0.000890434816587
0.000896168579903
0.000900175818242
0.000904042121708
0.000908428636584
0.000913979970392
0.000922084209534
0.000936112783715
0.000768539733781
0.000845019324655
0.000874662365231
0.000886599755869
0.000892423807799
0.000896512539786
0.000900454719475
0.000904923254074
0.000910588958687
0.000918884939504
0.00073540989476
0.000764550387992
0.000840867293924
0.000870560273325
0.00088260206886
0.000888532579241
0.000892720296584
0.000896755769524
0.000901325832799
0.000907114159482
0.000915652492541
0.000731238177294
0.000760403599297
0.000836557928897
0.000866304698007
0.000878464933897
0.000884519771517
0.000888825797466
0.000892974975738
0.000897644174353
0.00090361309428
0.000912384486676
0.000726851582514
0.000756111721201
0.000832111203242
0.000861922335247
0.000874214760116
0.000880413520482
0.000884858328446
0.000889126887175
0.000893959162647
0.000900077002444
0.000722281344543
0.000751726601173
0.000827552522571
0.000857434161348
0.000869877121987
0.000876241869759
0.00088084475458
0.000885274931972
0.000890258071842
0.000717547730514
0.000747216466285
0.000822886224663
0.000852854304888
0.00086546985331
0.000872025380701
0.000876814184856
0.000881430834563
0.000886586733792
0.000712642265758
0.000742587816505
0.000818100998946
0.00084816777595
0.000860978341192
0.000867752330435
0.000872758186183
0.000877573613137
0.000882932774563
0.00088964482909
0.000707511601069
0.000737768364795
0.000813088205151
0.000843252913623
0.000856278946149
0.000863297025332
0.000868541967165
0.000873579725398
0.00087915017013
0.00088610909717
0.000701956068074
0.00073244113842
0.000807446057077
0.000837673934483
0.000850921368794
0.000858201440765
0.000863702056082
0.000868971554703
0.000874750819131
0.000881923483355
0.000695259392297
0.00072560674758
0.000799954158177
0.000830112754923
0.00084354437723
0.000851081918639
0.000856835870905
0.000862325502891
0.000868264004857
0.000875664059595
0.000685266744951
0.000714333777103
0.000787143796593
0.000816853804011
0.000830323470183
0.000838058884469
0.000844027226778
0.000849666723879
0.000855787568662
0.000863231622692
0.000665716637087
0.000690469282063
0.000759503438446
0.000787819307417
0.00080093862993
0.0008086895505
0.000814747810792
0.000820477760308
0.000826580192159
0.000618858907024
0.000632029935977
0.000691900905746
0.000716617125132
0.000728448176872
0.000735757164639
0.000741616177327
0.000747170162204
0.000753056996314
0.000548908893711
0.000616139140228
0.000664291134446
0.000684986945781
0.000695927698827
0.000703566873013
0.000710195437329
0.000716723832117
0.000723546393978
)
;

boundaryField
{
    back
    {
        lowReCorrection 0;
        blending        stepwise;
        n               2;
        type            epsilonWallFunction;
        value           nonuniform List<scalar> 
167
(
0.000885838069559
0.000897533903929
0.000903130658056
0.000907023249283
0.000910784947527
0.000915059877681
0.000920451170871
0.000928245689546
0.000775975111313
0.000852746868903
0.000882317682582
0.000894085242366
0.000899743732327
0.00090368624385
0.000907492763878
0.000911815166293
0.000917275767554
0.000925219524211
0.000938973657375
0.000772348354665
0.000848981789522
0.000878587617859
0.000890434816587
0.000896168579903
0.000900175818242
0.000904042121708
0.000908428636584
0.000913979970392
0.000922084209534
0.000936112783715
0.000768539733781
0.000845019324655
0.000874662365231
0.000886599755869
0.000892423807799
0.000896512539786
0.000900454719475
0.000904923254074
0.000910588958687
0.000918884939504
0.00073540989476
0.000764550387992
0.000840867293924
0.000870560273325
0.00088260206886
0.000888532579241
0.000892720296584
0.000896755769524
0.000901325832799
0.000907114159482
0.000915652492541
0.000731238177294
0.000760403599297
0.000836557928897
0.000866304698007
0.000878464933897
0.000884519771517
0.000888825797466
0.000892974975738
0.000897644174353
0.00090361309428
0.000912384486676
0.000726851582514
0.000756111721201
0.000832111203242
0.000861922335247
0.000874214760116
0.000880413520482
0.000884858328446
0.000889126887175
0.000893959162647
0.000900077002444
0.000722281344543
0.000751726601173
0.000827552522571
0.000857434161348
0.000869877121987
0.000876241869759
0.00088084475458
0.000885274931972
0.000890258071842
0.000717547730514
0.000747216466285
0.000822886224663
0.000852854304888
0.00086546985331
0.000872025380701
0.000876814184856
0.000881430834563
0.000886586733792
0.000712642265758
0.000742587816505
0.000818100998946
0.00084816777595
0.000860978341192
0.000867752330435
0.000872758186183
0.000877573613137
0.000882932774563
0.00088964482909
0.000707511601069
0.000737768364795
0.000813088205151
0.000843252913623
0.000856278946149
0.000863297025332
0.000868541967165
0.000873579725398
0.00087915017013
0.00088610909717
0.000701956068074
0.00073244113842
0.000807446057077
0.000837673934483
0.000850921368794
0.000858201440765
0.000863702056082
0.000868971554703
0.000874750819131
0.000881923483355
0.000695259392297
0.00072560674758
0.000799954158177
0.000830112754923
0.00084354437723
0.000851081918639
0.000856835870905
0.000862325502891
0.000868264004857
0.000875664059595
0.000685266744951
0.000714333777103
0.000787143796593
0.000816853804011
0.000830323470183
0.000838058884469
0.000844027226778
0.000849666723879
0.000855787568662
0.000863231622692
0.000665716637087
0.000690469282063
0.000759503438446
0.000787819307417
0.00080093862993
0.0008086895505
0.000814747810792
0.000820477760308
0.000826580192159
0.000618858907024
0.000632029935977
0.000691900905746
0.000716617125132
0.000728448176872
0.000735757164639
0.000741616177327
0.000747170162204
0.000753056996314
0.000548908893711
0.000616139140228
0.000664291134446
0.000684986945781
0.000695927698827
0.000703566873013
0.000710195437329
0.000716723832117
0.000723546393978
)
;
    }
    sides
    {
        lowReCorrection 0;
        blending        stepwise;
        n               2;
        type            epsilonWallFunction;
        value           nonuniform List<scalar> 9(0.000548908893711 0.000616139140228 0.000664291134446 0.000684986945781 0.000695927698827 0.000703566873013 0.000710195437329 0.000716723832117 0.000723546393978);
    }
    bottom
    {
        lowReCorrection 0;
        blending        stepwise;
        n               2;
        type            epsilonWallFunction;
        value           nonuniform List<scalar> 
13
(
0.00073540989476
0.000731238177294
0.000726851582514
0.000722281344543
0.000717547730514
0.000712642265758
0.000707511601069
0.000701956068074
0.000695259392297
0.000685266744951
0.000665716637087
0.000618858907024
0.000548908893711
)
;
    }
    front
    {
        lowReCorrection 0;
        blending        stepwise;
        n               2;
        type            epsilonWallFunction;
        value           nonuniform List<scalar> 
167
(
0.000885838069559
0.000897533903929
0.000903130658056
0.000907023249283
0.000910784947527
0.000915059877681
0.000920451170871
0.000928245689546
0.000775975111313
0.000852746868903
0.000882317682582
0.000894085242366
0.000899743732327
0.00090368624385
0.000907492763878
0.000911815166293
0.000917275767554
0.000925219524211
0.000938973657375
0.000772348354665
0.000848981789522
0.000878587617859
0.000890434816587
0.000896168579903
0.000900175818242
0.000904042121708
0.000908428636584
0.000913979970392
0.000922084209534
0.000936112783715
0.000768539733781
0.000845019324655
0.000874662365231
0.000886599755869
0.000892423807799
0.000896512539786
0.000900454719475
0.000904923254074
0.000910588958687
0.000918884939504
0.00073540989476
0.000764550387992
0.000840867293924
0.000870560273325
0.00088260206886
0.000888532579241
0.000892720296584
0.000896755769524
0.000901325832799
0.000907114159482
0.000915652492541
0.000731238177294
0.000760403599297
0.000836557928897
0.000866304698007
0.000878464933897
0.000884519771517
0.000888825797466
0.000892974975738
0.000897644174353
0.00090361309428
0.000912384486676
0.000726851582514
0.000756111721201
0.000832111203242
0.000861922335247
0.000874214760116
0.000880413520482
0.000884858328446
0.000889126887175
0.000893959162647
0.000900077002444
0.000722281344543
0.000751726601173
0.000827552522571
0.000857434161348
0.000869877121987
0.000876241869759
0.00088084475458
0.000885274931972
0.000890258071842
0.000717547730514
0.000747216466285
0.000822886224663
0.000852854304888
0.00086546985331
0.000872025380701
0.000876814184856
0.000881430834563
0.000886586733792
0.000712642265758
0.000742587816505
0.000818100998946
0.00084816777595
0.000860978341192
0.000867752330435
0.000872758186183
0.000877573613137
0.000882932774563
0.00088964482909
0.000707511601069
0.000737768364795
0.000813088205151
0.000843252913623
0.000856278946149
0.000863297025332
0.000868541967165
0.000873579725398
0.00087915017013
0.00088610909717
0.000701956068074
0.00073244113842
0.000807446057077
0.000837673934483
0.000850921368794
0.000858201440765
0.000863702056082
0.000868971554703
0.000874750819131
0.000881923483355
0.000695259392297
0.00072560674758
0.000799954158177
0.000830112754923
0.00084354437723
0.000851081918639
0.000856835870905
0.000862325502891
0.000868264004857
0.000875664059595
0.000685266744951
0.000714333777103
0.000787143796593
0.000816853804011
0.000830323470183
0.000838058884469
0.000844027226778
0.000849666723879
0.000855787568662
0.000863231622692
0.000665716637087
0.000690469282063
0.000759503438446
0.000787819307417
0.00080093862993
0.0008086895505
0.000814747810792
0.000820477760308
0.000826580192159
0.000618858907024
0.000632029935977
0.000691900905746
0.000716617125132
0.000728448176872
0.000735757164639
0.000741616177327
0.000747170162204
0.000753056996314
0.000548908893711
0.000616139140228
0.000664291134446
0.000684986945781
0.000695927698827
0.000703566873013
0.000710195437329
0.000716723832117
0.000723546393978
)
;
    }
    atmosphere
    {
        type            inletOutlet;
        inletValue      nonuniform List<scalar> 0();
        value           nonuniform List<scalar> 0();
    }
    floatingObject
    {
        lowReCorrection 0;
        blending        stepwise;
        n               2;
        type            epsilonWallFunction;
        value           nonuniform List<scalar> 0();
    }
    procBoundary10to9
    {
        type            processor;
        value           nonuniform List<scalar> 
15
(
0.000889129215395
0.000900762655407
0.000906307776827
0.000910164662103
0.000913896324894
0.000918138799116
0.000923464188906
0.000931140715124
0.000779400408328
0.0008563046886
0.0008563046886
0.000746635883038
0.000743118452494
0.000739385408868
0.000739385408868
)
;
    }
    procBoundary10to11
    {
        type            processor;
        value           nonuniform List<scalar> 
23
(
0.000941768350413
0.000941768350413
0.000966855991555
0.00096433068135
0.000933268567711
0.000933268567711
0.000930464887597
0.000927650099669
0.000909107533456
0.000909107533456
0.00089655534931
0.00089655534931
0.000893098490769
0.000893098490769
0.000899507479193
0.000896242979999
0.000892347830858
0.000886283915694
0.000873962280088
0.000833887968907
0.000833887968907
0.000759935887311
0.000731214298496
)
;
    }
}


// ************************************************************************* //
