/*--------------------------------*- C++ -*----------------------------------*\
| =========                 |                                                 |
| \\      /  F ield         | OpenFOAM: The Open Source CFD Toolbox           |
|  \\    /   O peration     | Version:  v2012                                 |
|   \\  /    A nd           | Website:  www.openfoam.com                      |
|    \\/     M anipulation  |                                                 |
\*---------------------------------------------------------------------------*/
FoamFile
{
    version     2.0;
    format      ascii;
    class       volScalarField;
    location    "3.3";
    object      ddt0(k);
}
// * * * * * * * * * * * * * * * * * * * * * * * * * * * * * * * * * * * * * //

dimensions      [0 2 -3 0 0 0 0];


internalField   nonuniform List<scalar> 
167
(
-0.00190009322999
-0.00191116670845
-0.0019155061462
-0.00191838806992
-0.00192120234774
-0.00192411724026
-0.00192637858613
-0.00192629363127
-0.00175895095857
-0.00186323538888
-0.00189782768224
-0.00190903009448
-0.00191344370577
-0.00191637267333
-0.00191925223441
-0.00192222876828
-0.00192463017908
-0.00192471718562
-0.00191960208718
-0.00175611299471
-0.00186049552572
-0.00189527471728
-0.00190659000877
-0.00191106084673
-0.00191402302427
-0.0019169314741
-0.00191993302579
-0.00192239626101
-0.0019225618337
-0.00191812677181
-0.00175301411732
-0.00185749439776
-0.00189244227543
-0.00190386014661
-0.00190837145093
-0.00191134531323
-0.00191425283113
-0.00191723272918
-0.00191962431576
-0.0019198100409
-0.00140578454582
-0.00174963685822
-0.00185421874076
-0.00188934833037
-0.00190086371945
-0.00190540687444
-0.00190837242705
-0.0019112381434
-0.00191415228274
-0.00191646563937
-0.00191640995346
-0.00140290879561
-0.00174603196019
-0.00185071564659
-0.00188602379828
-0.00189763922769
-0.00190220346959
-0.00190513898319
-0.00190794522369
-0.00191082109602
-0.00191281237405
-0.00191258611823
-0.00139971034637
-0.00174223066698
-0.00184702547185
-0.00188251877525
-0.00189422892352
-0.00189880733295
-0.00190170825564
-0.00190448259856
-0.00190710678109
-0.00190894962362
-0.00139628469648
-0.00173826939709
-0.0018431895892
-0.00187887382132
-0.00189068305755
-0.00189528375666
-0.00189816817539
-0.00190082044025
-0.00190328861373
-0.00139270707898
-0.00173415396982
-0.00183925783041
-0.00187515042744
-0.00188707620888
-0.00189172070364
-0.00189457522979
-0.00189710499635
-0.00189940053893
-0.00138898306583
-0.00173001036969
-0.00183532144066
-0.00187143892575
-0.00188350612971
-0.00188820566972
-0.00189103935999
-0.00189350040501
-0.00189555816437
-0.00189629139206
-0.00138517803833
-0.00172593939308
-0.00183147367827
-0.00186783512006
-0.00188007088425
-0.00188486264585
-0.00188772547341
-0.00189012961073
-0.0018920095699
-0.00189226614694
-0.00138145192714
-0.0017218812994
-0.00182766683261
-0.00186428962622
-0.00187673603146
-0.00188167761755
-0.00188461368353
-0.00188702341908
-0.00188879315286
-0.00188871325682
-0.00137750042641
-0.00171738286603
-0.00182316691426
-0.00185998788067
-0.00187266739151
-0.00187782054254
-0.00188091969492
-0.00188342454575
-0.00188521391209
-0.0018849040981
-0.00137187089024
-0.00170940420372
-0.0018143457373
-0.00185105723296
-0.00186394068306
-0.00186937508989
-0.00187276072762
-0.00187553370799
-0.00187748940523
-0.00187734536549
-0.00135777330808
-0.00168642495317
-0.00178802464864
-0.00182368844701
-0.00183656295261
-0.00184232672645
-0.00184618243168
-0.00184944314571
-0.00185197783032
-0.00131097048423
-0.00161026462527
-0.00170130185959
-0.00173336540485
-0.00174550456237
-0.00175162877406
-0.00175616283385
-0.00176028568958
-0.00176393367015
-0.00113050379179
-0.00130620036401
-0.00136220006151
-0.00138173495246
-0.00138941714058
-0.00139354269589
-0.00139665875903
-0.00139931670676
-0.00140143123896
)
;

boundaryField
{
    back
    {
        type            calculated;
        value           nonuniform List<scalar> 
167
(
-0.00190009322999
-0.00191116670845
-0.0019155061462
-0.00191838806992
-0.00192120234774
-0.00192411724026
-0.00192637858613
-0.00192629363127
-0.00175895095857
-0.00186323538888
-0.00189782768224
-0.00190903009448
-0.00191344370577
-0.00191637267333
-0.00191925223441
-0.00192222876828
-0.00192463017908
-0.00192471718562
-0.00191960208718
-0.00175611299471
-0.00186049552572
-0.00189527471728
-0.00190659000877
-0.00191106084673
-0.00191402302427
-0.0019169314741
-0.00191993302579
-0.00192239626101
-0.0019225618337
-0.00191812677181
-0.00175301411732
-0.00185749439776
-0.00189244227543
-0.00190386014661
-0.00190837145093
-0.00191134531323
-0.00191425283113
-0.00191723272918
-0.00191962431576
-0.0019198100409
-0.00140578454582
-0.00174963685822
-0.00185421874076
-0.00188934833037
-0.00190086371945
-0.00190540687444
-0.00190837242705
-0.0019112381434
-0.00191415228274
-0.00191646563937
-0.00191640995346
-0.00140290879561
-0.00174603196019
-0.00185071564659
-0.00188602379828
-0.00189763922769
-0.00190220346959
-0.00190513898319
-0.00190794522369
-0.00191082109602
-0.00191281237405
-0.00191258611823
-0.00139971034637
-0.00174223066698
-0.00184702547185
-0.00188251877525
-0.00189422892352
-0.00189880733295
-0.00190170825564
-0.00190448259856
-0.00190710678109
-0.00190894962362
-0.00139628469648
-0.00173826939709
-0.0018431895892
-0.00187887382132
-0.00189068305755
-0.00189528375666
-0.00189816817539
-0.00190082044025
-0.00190328861373
-0.00139270707898
-0.00173415396982
-0.00183925783041
-0.00187515042744
-0.00188707620888
-0.00189172070364
-0.00189457522979
-0.00189710499635
-0.00189940053893
-0.00138898306583
-0.00173001036969
-0.00183532144066
-0.00187143892575
-0.00188350612971
-0.00188820566972
-0.00189103935999
-0.00189350040501
-0.00189555816437
-0.00189629139206
-0.00138517803833
-0.00172593939308
-0.00183147367827
-0.00186783512006
-0.00188007088425
-0.00188486264585
-0.00188772547341
-0.00189012961073
-0.0018920095699
-0.00189226614694
-0.00138145192714
-0.0017218812994
-0.00182766683261
-0.00186428962622
-0.00187673603146
-0.00188167761755
-0.00188461368353
-0.00188702341908
-0.00188879315286
-0.00188871325682
-0.00137750042641
-0.00171738286603
-0.00182316691426
-0.00185998788067
-0.00187266739151
-0.00187782054254
-0.00188091969492
-0.00188342454575
-0.00188521391209
-0.0018849040981
-0.00137187089024
-0.00170940420372
-0.0018143457373
-0.00185105723296
-0.00186394068306
-0.00186937508989
-0.00187276072762
-0.00187553370799
-0.00187748940523
-0.00187734536549
-0.00135777330808
-0.00168642495317
-0.00178802464864
-0.00182368844701
-0.00183656295261
-0.00184232672645
-0.00184618243168
-0.00184944314571
-0.00185197783032
-0.00131097048423
-0.00161026462527
-0.00170130185959
-0.00173336540485
-0.00174550456237
-0.00175162877406
-0.00175616283385
-0.00176028568958
-0.00176393367015
-0.00113050379179
-0.00130620036401
-0.00136220006151
-0.00138173495246
-0.00138941714058
-0.00139354269589
-0.00139665875903
-0.00139931670676
-0.00140143123896
)
;
    }
    sides
    {
        type            calculated;
        value           nonuniform List<scalar> 9(-0.00113050379179 -0.00130620036401 -0.00136220006151 -0.00138173495246 -0.00138941714058 -0.00139354269589 -0.00139665875903 -0.00139931670676 -0.00140143123896);
    }
    bottom
    {
        type            calculated;
        value           nonuniform List<scalar> 
13
(
-0.00140578454582
-0.00140290879561
-0.00139971034637
-0.00139628469648
-0.00139270707898
-0.00138898306583
-0.00138517803833
-0.00138145192714
-0.00137750042641
-0.00137187089024
-0.00135777330808
-0.00131097048423
-0.00113050379179
)
;
    }
    front
    {
        type            calculated;
        value           nonuniform List<scalar> 
167
(
-0.00190009322999
-0.00191116670845
-0.0019155061462
-0.00191838806992
-0.00192120234774
-0.00192411724026
-0.00192637858613
-0.00192629363127
-0.00175895095857
-0.00186323538888
-0.00189782768224
-0.00190903009448
-0.00191344370577
-0.00191637267333
-0.00191925223441
-0.00192222876828
-0.00192463017908
-0.00192471718562
-0.00191960208718
-0.00175611299471
-0.00186049552572
-0.00189527471728
-0.00190659000877
-0.00191106084673
-0.00191402302427
-0.0019169314741
-0.00191993302579
-0.00192239626101
-0.0019225618337
-0.00191812677181
-0.00175301411732
-0.00185749439776
-0.00189244227543
-0.00190386014661
-0.00190837145093
-0.00191134531323
-0.00191425283113
-0.00191723272918
-0.00191962431576
-0.0019198100409
-0.00140578454582
-0.00174963685822
-0.00185421874076
-0.00188934833037
-0.00190086371945
-0.00190540687444
-0.00190837242705
-0.0019112381434
-0.00191415228274
-0.00191646563937
-0.00191640995346
-0.00140290879561
-0.00174603196019
-0.00185071564659
-0.00188602379828
-0.00189763922769
-0.00190220346959
-0.00190513898319
-0.00190794522369
-0.00191082109602
-0.00191281237405
-0.00191258611823
-0.00139971034637
-0.00174223066698
-0.00184702547185
-0.00188251877525
-0.00189422892352
-0.00189880733295
-0.00190170825564
-0.00190448259856
-0.00190710678109
-0.00190894962362
-0.00139628469648
-0.00173826939709
-0.0018431895892
-0.00187887382132
-0.00189068305755
-0.00189528375666
-0.00189816817539
-0.00190082044025
-0.00190328861373
-0.00139270707898
-0.00173415396982
-0.00183925783041
-0.00187515042744
-0.00188707620888
-0.00189172070364
-0.00189457522979
-0.00189710499635
-0.00189940053893
-0.00138898306583
-0.00173001036969
-0.00183532144066
-0.00187143892575
-0.00188350612971
-0.00188820566972
-0.00189103935999
-0.00189350040501
-0.00189555816437
-0.00189629139206
-0.00138517803833
-0.00172593939308
-0.00183147367827
-0.00186783512006
-0.00188007088425
-0.00188486264585
-0.00188772547341
-0.00189012961073
-0.0018920095699
-0.00189226614694
-0.00138145192714
-0.0017218812994
-0.00182766683261
-0.00186428962622
-0.00187673603146
-0.00188167761755
-0.00188461368353
-0.00188702341908
-0.00188879315286
-0.00188871325682
-0.00137750042641
-0.00171738286603
-0.00182316691426
-0.00185998788067
-0.00187266739151
-0.00187782054254
-0.00188091969492
-0.00188342454575
-0.00188521391209
-0.0018849040981
-0.00137187089024
-0.00170940420372
-0.0018143457373
-0.00185105723296
-0.00186394068306
-0.00186937508989
-0.00187276072762
-0.00187553370799
-0.00187748940523
-0.00187734536549
-0.00135777330808
-0.00168642495317
-0.00178802464864
-0.00182368844701
-0.00183656295261
-0.00184232672645
-0.00184618243168
-0.00184944314571
-0.00185197783032
-0.00131097048423
-0.00161026462527
-0.00170130185959
-0.00173336540485
-0.00174550456237
-0.00175162877406
-0.00175616283385
-0.00176028568958
-0.00176393367015
-0.00113050379179
-0.00130620036401
-0.00136220006151
-0.00138173495246
-0.00138941714058
-0.00139354269589
-0.00139665875903
-0.00139931670676
-0.00140143123896
)
;
    }
    atmosphere
    {
        type            calculated;
        value           nonuniform List<scalar> 0();
    }
    floatingObject
    {
        type            calculated;
        value           nonuniform List<scalar> 0();
    }
    procBoundary10to9
    {
        type            processor;
        value           nonuniform List<scalar> 
15
(
-0.00190202901846
-0.00191296981379
-0.00191723104588
-0.00192002523493
-0.00192276164134
-0.00192553465989
-0.00192772614141
-0.00192720835802
-0.00176149774457
-0.00186568863095
-0.00186568863095
-0.00141273612603
-0.0014107286054
-0.00140840891597
-0.00140840891597
)
;
    }
    procBoundary10to11
    {
        type            processor;
        value           nonuniform List<scalar> 
23
(
-0.00192000760529
-0.00192000760529
-0.00190501284101
-0.00190634593987
-0.00191558703028
-0.00191558703028
-0.00191224119998
-0.00190824792781
-0.00190828132057
-0.00190828132057
-0.00190482320934
-0.00190482320934
-0.00190045886974
-0.00190045886974
-0.0018935124522
-0.00188868225219
-0.00188427856477
-0.00187985965962
-0.0018721329069
-0.00185246658196
-0.00185246658196
-0.00176592968529
-0.00140201396078
)
;
    }
}


// ************************************************************************* //
