/*--------------------------------*- C++ -*----------------------------------*\
| =========                 |                                                 |
| \\      /  F ield         | OpenFOAM: The Open Source CFD Toolbox           |
|  \\    /   O peration     | Version:  v2012                                 |
|   \\  /    A nd           | Website:  www.openfoam.com                      |
|    \\/     M anipulation  |                                                 |
\*---------------------------------------------------------------------------*/
FoamFile
{
    version     2.0;
    format      ascii;
    class       volScalarField;
    location    "5.5";
    object      epsilon_0;
}
// * * * * * * * * * * * * * * * * * * * * * * * * * * * * * * * * * * * * * //

dimensions      [0 2 -3 0 0 0 0];


internalField   nonuniform List<scalar> 
164
(
0.00046820537616
0.000487259208855
0.000536887225875
0.000557262971362
0.000566343834335
0.000571352220308
0.000575137492113
0.00057881011393
0.000470701528857
0.000489691967152
0.000539471248758
0.000559779381654
0.00056870033528
0.000573523950273
0.000577122340838
0.000580604070463
0.00058445711116
0.000589171061033
0.000596083514383
0.000472919513601
0.000491868824828
0.000541780478079
0.000562024126039
0.000570800359297
0.000575460842594
0.000578894822054
0.000582207759239
0.00058587246932
0.000590346818655
0.000596819055757
0.00060899046147
0.000637463682735
0.000474865429737
0.000493795763755
0.00054381713035
0.000563997188822
0.000572642307385
0.000577158525745
0.000580448534223
0.000583614201407
0.0005871124167
0.000591348041394
0.00059733540045
0.000608237502398
0.000633368355921
0.000699308488042
0.00047654419846
0.00049547116116
0.000545580439753
0.000565699859802
0.00057422740171
0.000578617449085
0.000581783522063
0.000584822685789
0.000588176613741
0.000592199873227
0.000597734111031
0.000607409008122
0.000629241454931
0.000687429343292
0.000477959151341
0.000496891527933
0.00054707131281
0.000567134656556
0.000575558609391
0.00057983980096
0.000582900847254
0.000585833747807
0.000589068231729
0.00059292126934
0.000598103578916
0.000606839270581
0.000626160773099
0.00067854627184
0.000479121189354
0.000498063522438
0.000548295984178
0.00056830494518
0.000576638907479
0.000580827877667
0.00058380068613
0.000586645495755
0.000589784070744
0.000593511788229
0.000598461031814
0.000606615336293
0.000624436293726
0.000673538478077
0.000480053339199
0.000499005441676
0.000549263954509
0.000569217989718
0.000577472002677
0.000581582926422
0.000584482341217
0.00058725463258
0.000590317077537
0.000593956674841
0.000598772333054
0.000606637116627
0.000623748237578
0.000671375402086
0.000480764253112
0.000499735469958
0.000549983442701
0.000569878475864
0.000578062079137
0.000582107156418
0.000584945569202
0.000587658138092
0.000590660191081
0.000594238944046
0.000598988850195
0.000606754637952
0.000623649193473
0.00067088367711
0.000481242981984
0.00050024731973
0.000550462509954
0.000570295485932
0.000578414889879
0.000582403552215
0.000585191044253
0.000587854507226
0.000590808760642
0.000594345938903
0.000599072463865
0.000606851393801
0.000623824139994
0.000671407506687
0.000827261316024
0.00135999032251
0.000481486286546
0.000500547887073
0.000550710846287
0.000570477154826
0.000578536264838
0.000582475719837
0.000585220793443
0.00058784446345
0.000590761597665
0.000594271696068
0.00059900100029
0.000606852719907
0.000624046528744
0.000672354219453
0.000830741421269
0.00136955056406
0.000481494221061
0.00050065047815
0.000550738467662
0.000570430643523
0.000578431328859
0.000582327513484
0.000585038107992
0.000587630992593
0.000590521529001
0.000594017730339
0.000598767820988
0.000606716939202
0.000624149781256
0.000672990182477
0.000832621780625
0.00137333755018
)
;

boundaryField
{
    back
    {
        lowReCorrection 0;
        blending        stepwise;
        n               2;
        type            epsilonWallFunction;
        value           nonuniform List<scalar> 
164
(
0.00046820537616
0.000487259208855
0.000536887225875
0.000557262971362
0.000566343834335
0.000571352220308
0.000575137492113
0.00057881011393
0.000470701528857
0.000489691967152
0.000539471248758
0.000559779381654
0.00056870033528
0.000573523950273
0.000577122340838
0.000580604070463
0.00058445711116
0.000589171061033
0.000596083514383
0.000472919513601
0.000491868824828
0.000541780478079
0.000562024126039
0.000570800359297
0.000575460842594
0.000578894822054
0.000582207759239
0.00058587246932
0.000590346818655
0.000596819055757
0.00060899046147
0.000637463682735
0.000474865429737
0.000493795763755
0.00054381713035
0.000563997188822
0.000572642307385
0.000577158525745
0.000580448534223
0.000583614201407
0.0005871124167
0.000591348041394
0.00059733540045
0.000608237502398
0.000633368355921
0.000699308488042
0.00047654419846
0.00049547116116
0.000545580439753
0.000565699859802
0.00057422740171
0.000578617449085
0.000581783522063
0.000584822685789
0.000588176613741
0.000592199873227
0.000597734111031
0.000607409008122
0.000629241454931
0.000687429343292
0.000477959151341
0.000496891527933
0.00054707131281
0.000567134656556
0.000575558609391
0.00057983980096
0.000582900847254
0.000585833747807
0.000589068231729
0.00059292126934
0.000598103578916
0.000606839270581
0.000626160773099
0.00067854627184
0.000479121189354
0.000498063522438
0.000548295984178
0.00056830494518
0.000576638907479
0.000580827877667
0.00058380068613
0.000586645495755
0.000589784070744
0.000593511788229
0.000598461031814
0.000606615336293
0.000624436293726
0.000673538478077
0.000480053339199
0.000499005441676
0.000549263954509
0.000569217989718
0.000577472002677
0.000581582926422
0.000584482341217
0.00058725463258
0.000590317077537
0.000593956674841
0.000598772333054
0.000606637116627
0.000623748237578
0.000671375402086
0.000480764253112
0.000499735469958
0.000549983442701
0.000569878475864
0.000578062079137
0.000582107156418
0.000584945569202
0.000587658138092
0.000590660191081
0.000594238944046
0.000598988850195
0.000606754637952
0.000623649193473
0.00067088367711
0.000481242981984
0.00050024731973
0.000550462509954
0.000570295485932
0.000578414889879
0.000582403552215
0.000585191044253
0.000587854507226
0.000590808760642
0.000594345938903
0.000599072463865
0.000606851393801
0.000623824139994
0.000671407506687
0.000827261316024
0.00135999032251
0.000481486286546
0.000500547887073
0.000550710846287
0.000570477154826
0.000578536264838
0.000582475719837
0.000585220793443
0.00058784446345
0.000590761597665
0.000594271696068
0.00059900100029
0.000606852719907
0.000624046528744
0.000672354219453
0.000830741421269
0.00136955056406
0.000481494221061
0.00050065047815
0.000550738467662
0.000570430643523
0.000578431328859
0.000582327513484
0.000585038107992
0.000587630992593
0.000590521529001
0.000594017730339
0.000598767820988
0.000606716939202
0.000624149781256
0.000672990182477
0.000832621780625
0.00137333755018
)
;
    }
    sides
    {
        lowReCorrection 0;
        blending        stepwise;
        n               2;
        type            epsilonWallFunction;
        value           nonuniform List<scalar> 0();
    }
    bottom
    {
        lowReCorrection 0;
        blending        stepwise;
        n               2;
        type            epsilonWallFunction;
        value           nonuniform List<scalar> 
12
(
0.00046820537616
0.000470701528857
0.000472919513601
0.000474865429737
0.00047654419846
0.000477959151341
0.000479121189354
0.000480053339199
0.000480764253112
0.000481242981984
0.000481486286546
0.000481494221061
)
;
    }
    front
    {
        lowReCorrection 0;
        blending        stepwise;
        n               2;
        type            epsilonWallFunction;
        value           nonuniform List<scalar> 
164
(
0.00046820537616
0.000487259208855
0.000536887225875
0.000557262971362
0.000566343834335
0.000571352220308
0.000575137492113
0.00057881011393
0.000470701528857
0.000489691967152
0.000539471248758
0.000559779381654
0.00056870033528
0.000573523950273
0.000577122340838
0.000580604070463
0.00058445711116
0.000589171061033
0.000596083514383
0.000472919513601
0.000491868824828
0.000541780478079
0.000562024126039
0.000570800359297
0.000575460842594
0.000578894822054
0.000582207759239
0.00058587246932
0.000590346818655
0.000596819055757
0.00060899046147
0.000637463682735
0.000474865429737
0.000493795763755
0.00054381713035
0.000563997188822
0.000572642307385
0.000577158525745
0.000580448534223
0.000583614201407
0.0005871124167
0.000591348041394
0.00059733540045
0.000608237502398
0.000633368355921
0.000699308488042
0.00047654419846
0.00049547116116
0.000545580439753
0.000565699859802
0.00057422740171
0.000578617449085
0.000581783522063
0.000584822685789
0.000588176613741
0.000592199873227
0.000597734111031
0.000607409008122
0.000629241454931
0.000687429343292
0.000477959151341
0.000496891527933
0.00054707131281
0.000567134656556
0.000575558609391
0.00057983980096
0.000582900847254
0.000585833747807
0.000589068231729
0.00059292126934
0.000598103578916
0.000606839270581
0.000626160773099
0.00067854627184
0.000479121189354
0.000498063522438
0.000548295984178
0.00056830494518
0.000576638907479
0.000580827877667
0.00058380068613
0.000586645495755
0.000589784070744
0.000593511788229
0.000598461031814
0.000606615336293
0.000624436293726
0.000673538478077
0.000480053339199
0.000499005441676
0.000549263954509
0.000569217989718
0.000577472002677
0.000581582926422
0.000584482341217
0.00058725463258
0.000590317077537
0.000593956674841
0.000598772333054
0.000606637116627
0.000623748237578
0.000671375402086
0.000480764253112
0.000499735469958
0.000549983442701
0.000569878475864
0.000578062079137
0.000582107156418
0.000584945569202
0.000587658138092
0.000590660191081
0.000594238944046
0.000598988850195
0.000606754637952
0.000623649193473
0.00067088367711
0.000481242981984
0.00050024731973
0.000550462509954
0.000570295485932
0.000578414889879
0.000582403552215
0.000585191044253
0.000587854507226
0.000590808760642
0.000594345938903
0.000599072463865
0.000606851393801
0.000623824139994
0.000671407506687
0.000827261316024
0.00135999032251
0.000481486286546
0.000500547887073
0.000550710846287
0.000570477154826
0.000578536264838
0.000582475719837
0.000585220793443
0.00058784446345
0.000590761597665
0.000594271696068
0.00059900100029
0.000606852719907
0.000624046528744
0.000672354219453
0.000830741421269
0.00136955056406
0.000481494221061
0.00050065047815
0.000550738467662
0.000570430643523
0.000578431328859
0.000582327513484
0.000585038107992
0.000587630992593
0.000590521529001
0.000594017730339
0.000598767820988
0.000606716939202
0.000624149781256
0.000672990182477
0.000832621780625
0.00137333755018
)
;
    }
    atmosphere
    {
        type            inletOutlet;
        inletValue      nonuniform List<scalar> 0();
        value           nonuniform List<scalar> 0();
    }
    floatingObject
    {
        lowReCorrection 0;
        blending        stepwise;
        n               2;
        type            epsilonWallFunction;
        value           nonuniform List<scalar> 0();
    }
    procBoundary7to6
    {
        type            processor;
        value           nonuniform List<scalar> 
11
(
0.000888218195599
0.00086097800104
0.000841185928615
0.000830482334324
0.000825972269016
0.000825171735011
0.000825171735011
0.00135356783857
0.00304040831399
0.00303947300988
0.00302760345557
)
;
    }
    procBoundary7to8
    {
        type            processor;
        value           nonuniform List<scalar> 
17
(
0.00046541638987
0.000484551483546
0.00053401586353
0.00055446452308
0.000563719759644
0.000568931796554
0.000572930162684
0.000576819796582
0.000582865105288
0.000582865105288
0.000587812277167
0.000595089382233
0.00060929200579
0.00060929200579
0.000640295324987
0.00071132329373
0.00071132329373
)
;
    }
    procBoundary7to9
    {
        type            processor;
        value           nonuniform List<scalar> 
16
(
0.00048127508207
0.000500553044939
0.000550545958164
0.000570158035994
0.000578102444003
0.000581962067147
0.000584646450036
0.000587218187325
0.000590093709559
0.000593590330185
0.000598378973607
0.000606436042146
0.000624072900664
0.000673034142149
0.000831633793107
0.00136803212019
)
;
    }
}


// ************************************************************************* //
