/*--------------------------------*- C++ -*----------------------------------*\
| =========                 |                                                 |
| \\      /  F ield         | OpenFOAM: The Open Source CFD Toolbox           |
|  \\    /   O peration     | Version:  v2012                                 |
|   \\  /    A nd           | Website:  www.openfoam.com                      |
|    \\/     M anipulation  |                                                 |
\*---------------------------------------------------------------------------*/
FoamFile
{
    version     2.0;
    format      ascii;
    class       volScalarField;
    location    "1.7";
    object      k_0;
}
// * * * * * * * * * * * * * * * * * * * * * * * * * * * * * * * * * * * * * //

dimensions      [0 2 -2 0 0 0 0];


internalField   nonuniform List<scalar> 
166
(
0.00811826347185
0.0100139306416
0.0105369796162
0.0106887278749
0.0107328837171
0.0107516266623
0.0107666462826
0.0107827853797
0.0108010125259
0.0108217891868
0.010846724163
0.0108827059974
0.0109549957423
0.0111413067198
0.0116408067062
0.0128966295368
0.0159562839911
0.0239238927236
0.0436377784521
0.0781223904443
0.00811131669925
0.0100028989499
0.0105231493327
0.010673443264
0.0107169943892
0.0107354459082
0.0107502344903
0.0107661250766
0.0107840803825
0.0108046154139
0.0108296112852
0.0108669359828
0.0109446570277
0.0111467322397
0.0116808229927
0.0129824782702
0.0160112383537
0.0236708793377
0.0431340145086
0.0779109227667
0.00810279516307
0.00999042051675
0.0105080460734
0.0106570273828
0.0107000794419
0.0107183419451
0.0107330139077
0.0107487817663
0.0107666049246
0.0107870692797
0.0108123533152
0.0108513484834
0.0109350485126
0.0111538828522
0.0117244251288
0.0130767340309
0.0160883506921
0.0234232968911
0.0424002863056
0.0775137815841
0.00809278787782
0.00997662283365
0.0104918057488
0.0106395994368
0.0106822406374
0.0107003980983
0.0107150535927
0.0107308270646
0.0107486608296
0.0107692114916
0.0107949888059
0.0108359816254
0.0109263106976
0.0111631691984
0.0117726638318
0.0131837740502
0.0162034665804
0.023251866024
0.0416030378138
0.0769995257417
0.00808145139752
0.0099616259607
0.0104745098794
0.010621236068
0.0106635618018
0.0106817066738
0.0106964439381
0.0107123219461
0.0107302948721
0.010751101568
0.0107775772236
0.0108209168977
0.0109185848545
0.0111751513137
0.0118277286175
0.0133063353257
0.0163582856944
0.0231733071156
0.0407992515012
0.0764367234066
0.00806883999862
0.0099455209782
0.0104562580633
0.010602023501
0.0106441192819
0.0106623354206
0.0106772445984
0.0106933414287
0.0107115741233
0.0107327678239
0.0107601429069
0.010806180092
0.0109119633618
0.0111902823701
0.0118908587203
0.0134492195289
0.0165579229485
0.023155714358
0.0399338889417
0.0758692228018
0.00805502880131
0.00992837729747
0.0104371179559
0.0105820256238
0.0106239677464
0.01064233944
0.0106575212706
0.0106739382489
0.0106925411044
0.0107142571475
0.010742715699
0.0107917852031
0.0109064894679
0.0112086566623
0.0119636571987
0.0136179133754
0.0168052717788
0.0230629402747
0.0385789456475
0.0738054583572
0.00804019857838
0.00991027745169
0.0104171283552
0.0105612755039
0.0106031579412
0.010621772764
0.0106373157265
0.0106541491803
0.0106732315967
0.0106955885695
0.0107252941585
0.0107776922398
0.0109019978843
0.0112296768132
0.0120429195969
0.0138008737448
0.0170399008841
0.022425837592
0.0333026837019
0.0455662698147
0.00802425180492
0.00989126186557
0.0103963311354
0.00800733507811
0.00798949202713
0.00797084915032
)
;

boundaryField
{
    back
    {
        type            kqRWallFunction;
        value           nonuniform List<scalar> 
166
(
0.00811826347185
0.0100139306416
0.0105369796162
0.0106887278749
0.0107328837171
0.0107516266623
0.0107666462826
0.0107827853797
0.0108010125259
0.0108217891868
0.010846724163
0.0108827059974
0.0109549957423
0.0111413067198
0.0116408067062
0.0128966295368
0.0159562839911
0.0239238927236
0.0436377784521
0.0781223904443
0.00811131669925
0.0100028989499
0.0105231493327
0.010673443264
0.0107169943892
0.0107354459082
0.0107502344903
0.0107661250766
0.0107840803825
0.0108046154139
0.0108296112852
0.0108669359828
0.0109446570277
0.0111467322397
0.0116808229927
0.0129824782702
0.0160112383537
0.0236708793377
0.0431340145086
0.0779109227667
0.00810279516307
0.00999042051675
0.0105080460734
0.0106570273828
0.0107000794419
0.0107183419451
0.0107330139077
0.0107487817663
0.0107666049246
0.0107870692797
0.0108123533152
0.0108513484834
0.0109350485126
0.0111538828522
0.0117244251288
0.0130767340309
0.0160883506921
0.0234232968911
0.0424002863056
0.0775137815841
0.00809278787782
0.00997662283365
0.0104918057488
0.0106395994368
0.0106822406374
0.0107003980983
0.0107150535927
0.0107308270646
0.0107486608296
0.0107692114916
0.0107949888059
0.0108359816254
0.0109263106976
0.0111631691984
0.0117726638318
0.0131837740502
0.0162034665804
0.023251866024
0.0416030378138
0.0769995257417
0.00808145139752
0.0099616259607
0.0104745098794
0.010621236068
0.0106635618018
0.0106817066738
0.0106964439381
0.0107123219461
0.0107302948721
0.010751101568
0.0107775772236
0.0108209168977
0.0109185848545
0.0111751513137
0.0118277286175
0.0133063353257
0.0163582856944
0.0231733071156
0.0407992515012
0.0764367234066
0.00806883999862
0.0099455209782
0.0104562580633
0.010602023501
0.0106441192819
0.0106623354206
0.0106772445984
0.0106933414287
0.0107115741233
0.0107327678239
0.0107601429069
0.010806180092
0.0109119633618
0.0111902823701
0.0118908587203
0.0134492195289
0.0165579229485
0.023155714358
0.0399338889417
0.0758692228018
0.00805502880131
0.00992837729747
0.0104371179559
0.0105820256238
0.0106239677464
0.01064233944
0.0106575212706
0.0106739382489
0.0106925411044
0.0107142571475
0.010742715699
0.0107917852031
0.0109064894679
0.0112086566623
0.0119636571987
0.0136179133754
0.0168052717788
0.0230629402747
0.0385789456475
0.0738054583572
0.00804019857838
0.00991027745169
0.0104171283552
0.0105612755039
0.0106031579412
0.010621772764
0.0106373157265
0.0106541491803
0.0106732315967
0.0106955885695
0.0107252941585
0.0107776922398
0.0109019978843
0.0112296768132
0.0120429195969
0.0138008737448
0.0170399008841
0.022425837592
0.0333026837019
0.0455662698147
0.00802425180492
0.00989126186557
0.0103963311354
0.00800733507811
0.00798949202713
0.00797084915032
)
;
    }
    sides
    {
        type            kqRWallFunction;
        value           nonuniform List<scalar> 0();
    }
    bottom
    {
        type            kqRWallFunction;
        value           nonuniform List<scalar> 
12
(
0.00811826347185
0.00811131669925
0.00810279516307
0.00809278787782
0.00808145139752
0.00806883999862
0.00805502880131
0.00804019857838
0.00802425180492
0.00800733507811
0.00798949202713
0.00797084915032
)
;
    }
    front
    {
        type            kqRWallFunction;
        value           nonuniform List<scalar> 
166
(
0.00811826347185
0.0100139306416
0.0105369796162
0.0106887278749
0.0107328837171
0.0107516266623
0.0107666462826
0.0107827853797
0.0108010125259
0.0108217891868
0.010846724163
0.0108827059974
0.0109549957423
0.0111413067198
0.0116408067062
0.0128966295368
0.0159562839911
0.0239238927236
0.0436377784521
0.0781223904443
0.00811131669925
0.0100028989499
0.0105231493327
0.010673443264
0.0107169943892
0.0107354459082
0.0107502344903
0.0107661250766
0.0107840803825
0.0108046154139
0.0108296112852
0.0108669359828
0.0109446570277
0.0111467322397
0.0116808229927
0.0129824782702
0.0160112383537
0.0236708793377
0.0431340145086
0.0779109227667
0.00810279516307
0.00999042051675
0.0105080460734
0.0106570273828
0.0107000794419
0.0107183419451
0.0107330139077
0.0107487817663
0.0107666049246
0.0107870692797
0.0108123533152
0.0108513484834
0.0109350485126
0.0111538828522
0.0117244251288
0.0130767340309
0.0160883506921
0.0234232968911
0.0424002863056
0.0775137815841
0.00809278787782
0.00997662283365
0.0104918057488
0.0106395994368
0.0106822406374
0.0107003980983
0.0107150535927
0.0107308270646
0.0107486608296
0.0107692114916
0.0107949888059
0.0108359816254
0.0109263106976
0.0111631691984
0.0117726638318
0.0131837740502
0.0162034665804
0.023251866024
0.0416030378138
0.0769995257417
0.00808145139752
0.0099616259607
0.0104745098794
0.010621236068
0.0106635618018
0.0106817066738
0.0106964439381
0.0107123219461
0.0107302948721
0.010751101568
0.0107775772236
0.0108209168977
0.0109185848545
0.0111751513137
0.0118277286175
0.0133063353257
0.0163582856944
0.0231733071156
0.0407992515012
0.0764367234066
0.00806883999862
0.0099455209782
0.0104562580633
0.010602023501
0.0106441192819
0.0106623354206
0.0106772445984
0.0106933414287
0.0107115741233
0.0107327678239
0.0107601429069
0.010806180092
0.0109119633618
0.0111902823701
0.0118908587203
0.0134492195289
0.0165579229485
0.023155714358
0.0399338889417
0.0758692228018
0.00805502880131
0.00992837729747
0.0104371179559
0.0105820256238
0.0106239677464
0.01064233944
0.0106575212706
0.0106739382489
0.0106925411044
0.0107142571475
0.010742715699
0.0107917852031
0.0109064894679
0.0112086566623
0.0119636571987
0.0136179133754
0.0168052717788
0.0230629402747
0.0385789456475
0.0738054583572
0.00804019857838
0.00991027745169
0.0104171283552
0.0105612755039
0.0106031579412
0.010621772764
0.0106373157265
0.0106541491803
0.0106732315967
0.0106955885695
0.0107252941585
0.0107776922398
0.0109019978843
0.0112296768132
0.0120429195969
0.0138008737448
0.0170399008841
0.022425837592
0.0333026837019
0.0455662698147
0.00802425180492
0.00989126186557
0.0103963311354
0.00800733507811
0.00798949202713
0.00797084915032
)
;
    }
    atmosphere
    {
        type            inletOutlet;
        inletValue      uniform 0.1;
        value           nonuniform List<scalar> 8(0.1 0.1 0.1 0.1 0.1 0.1 0.1 0.0455662698147);
    }
    floatingObject
    {
        type            kqRWallFunction;
        value           nonuniform List<scalar> 0();
    }
    procBoundary9to6
    {
        type            processor;
        value           nonuniform List<scalar> 4(0.0158934862979 0.0240836838356 0.0438148291952 0.0781379784025);
    }
    procBoundary9to7
    {
        type            processor;
        value           nonuniform List<scalar> 
16
(
0.00812349806324
0.0100232530564
0.0105493283634
0.0107027095939
0.0107475912199
0.0107667324726
0.0107820970657
0.0107986172005
0.010817274418
0.0108384763171
0.0108635777988
0.0108985339757
0.0109658963847
0.0111372948739
0.0116036727876
0.0128144334379
)
;
    }
    procBoundary9to10
    {
        type            processor;
        value           nonuniform List<scalar> 
15
(
0.0105398173876
0.0105817316264
0.0106006795983
0.0106166744946
0.0106340239548
0.0106536872883
0.0106767999594
0.0107078862063
0.00987135617536
0.0105398173876
0.0103747866763
0.00987135617536
0.00985062402819
0.00982908340164
0.00795149531595
)
;
    }
    procBoundary9to11
    {
        type            processor;
        value           nonuniform List<scalar> 9(0.010763847617 0.0108981247805 0.0112513021031 0.0121183824744 0.0139578384749 0.0172267558463 0.0222041298013 0.0297337441714 0.0372076598718);
    }
}


// ************************************************************************* //
