/*--------------------------------*- C++ -*----------------------------------*\
| =========                 |                                                 |
| \\      /  F ield         | OpenFOAM: The Open Source CFD Toolbox           |
|  \\    /   O peration     | Version:  v2012                                 |
|   \\  /    A nd           | Website:  www.openfoam.com                      |
|    \\/     M anipulation  |                                                 |
\*---------------------------------------------------------------------------*/
FoamFile
{
    version     2.0;
    format      ascii;
    class       volScalarField;
    location    "1.2";
    object      nut;
}
// * * * * * * * * * * * * * * * * * * * * * * * * * * * * * * * * * * * * * //

dimensions      [0 2 -1 0 0 0 0];


internalField   nonuniform List<scalar> 
166
(
0.00141191596748
0.0014131102733
0.00141446161902
0.00141607523189
0.00141846080756
0.00142363792003
0.00143818296604
0.00147901584304
0.00157753173257
0.001769364528
0.0020734114536
0.0025016972425
0.00314133501454
0.00141133292472
0.00141225963758
0.00141329005043
0.00141445757278
0.00141578004199
0.00141735356345
0.00141964331357
0.00142450977138
0.00143809264402
0.0014764514376
0.00157010511181
0.0017550846969
0.0020525000657
0.00247816709339
0.00313310539664
0.000931482826103
0.0013709695235
0.00141173374465
0.00141272164675
0.00141362889685
0.00141463989202
0.00141578653202
0.00141708610474
0.00141862531536
0.00142082431353
0.00142538230252
0.00143798672127
0.00147378200137
0.0015622895278
0.00173981934977
0.00202976704204
0.0024521168677
0.00312418317067
0.000932297516471
0.00137215992439
0.0014031427358
0.00141099397404
0.00141308926434
0.00141406869528
0.00141496242132
0.00141595931905
0.00141709096607
0.00141837374649
0.00141988481628
0.00142199955628
0.0014262552102
0.00143787604202
0.00147104302995
0.00155415543136
0.00172363652585
0.00200520680579
0.00242338979086
0.00311460285958
0.000933034594276
0.00137327263437
0.00140438117684
0.00141228575927
0.00141439229819
0.00141536816431
0.00141625371297
0.00141724179377
0.00141836429623
0.00141963642733
0.00142112583667
0.00142316403413
0.00142712751796
0.00143777211312
0.00146827623663
0.00154579281095
0.00170664375949
0.00197887055962
0.00239196552986
0.00310449097081
0.000933688596077
0.00137430253421
0.00140554865579
0.0014135138001
0.00141563676361
0.00141661365952
0.00141749623417
0.00141848096235
0.00141960025963
0.00142086799883
0.00142234257654
0.00142431307254
0.00142799849795
0.00143768691136
0.00146552646478
0.00153730740249
0.00168900389693
0.00195089403894
0.00235776340682
0.00309400034145
0.000934253138095
0.00137524244634
0.00140663846285
0.0014146715492
0.00141681600958
0.00141779870588
0.00141868361749
0.00141967073256
0.00142079300096
0.0014220628847
0.00142352992673
0.00142544269655
0.0014288678594
0.00143763189291
0.00146283575119
0.00152880140668
0.00167089980788
0.00192153077698
0.00232111229946
0.00308350434919
0.000934721428821
0.00137608451041
0.00140764311848
0.0014157519755
0.00141792333111
0.00141891691649
0.00141980974003
0.00142080534847
0.00142193715665
0.00142321613173
0.0014246835102
0.00142654965764
0.00142973577065
0.00143761821178
0.00146024364254
0.00152038120177
0.00165255967392
0.00189115010223
0.00228252132414
0.00307325501964
0.000935086740989
0.00137681990859
0.00140855459585
0.00141674784945
0.00141895193688
0.00141996188441
0.00142086859415
0.00142187928707
0.00142302782992
0.0014243232834
0.00142579949284
0.00142763127712
0.00143060281347
0.00143765720983
0.0014577813504
0.00151214025772
0.00163430746415
0.00186024942815
0.00224275791532
0.00305256041734
)
;

boundaryField
{
    back
    {
        type            nutkWallFunction;
        blending        stepwise;
        Cmu             0.09;
        kappa           0.41;
        E               9.8;
        value           nonuniform List<scalar> 
166
(
0.000136655185936
0.000136756154087
0.000136870034676
0.000137004554891
0.000137198450008
0.000137609405319
0.000138765447967
0.000142067997636
0.000150210915241
0.000166362936533
0.00019224164103
0.000233379274976
0.000354285236638
0.000136609158112
0.000136687672186
0.000136775004453
0.000136873895666
0.000136985599552
0.000137117255479
0.0001373045187
0.000137693744104
0.000138781052956
0.000141902747501
0.000149682339404
0.000165314479935
0.000190684921835
0.000230915523226
0.000353495945975
0.000121695934037
0.000133104776319
0.000136646499832
0.000136730096405
0.000136807101679
0.000136892974118
0.000136990310813
0.000137100368124
0.000137229660344
0.000137410670335
0.000137778102632
0.000138794564458
0.000141726342676
0.000149116740298
0.000164178337016
0.000188973545864
0.000228303332534
0.000352632097942
0.000121793365652
0.000133209438755
0.000135911394843
0.000136586730124
0.000136764666549
0.000136847667515
0.000136923676846
0.000137008544908
0.000137104843904
0.000137213791428
0.000137341246723
0.000137516486543
0.000137862334946
0.000138806583438
0.000141540941301
0.000148518126269
0.000162957249519
0.000187103195879
0.000225534150921
0.000351693443307
0.000121881877974
0.000133307558573
0.000136019840478
0.000136699590721
0.00013687852336
0.000136961336807
0.00013703681352
0.000137121135776
0.000137216909053
0.000137325283994
0.000137451451671
0.000137621495312
0.000137946262219
0.000138817824894
0.000141349367501
0.000147892493066
0.000161657266616
0.000185072981929
0.000222600887469
0.000350685817181
0.000121960787558
0.000133398666211
0.000136122354754
0.00013680714932
0.000136987513959
0.000137070533283
0.000137145928729
0.000137230181336
0.00013732594798
0.000137434295581
0.000137559752206
0.000137725261463
0.000138029752479
0.000138829111873
0.000141154842347
0.000147247262627
0.000160288782921
0.000182889354929
0.000219491348137
0.000349618162191
0.000122029309956
0.000133482111165
0.000136218322905
0.000136908809652
0.000137091041853
0.000137174678788
0.000137250452895
0.000137335134471
0.000137431431957
0.000137540319214
0.000137665678828
0.000137827408528
0.000138112729097
0.000138841301234
0.000140960561353
0.000146589868094
0.000158863030745
0.000180564826802
0.000216217132504
0.000348519465783
0.000122086608583
0.000133557187742
0.000136307074656
0.000137003940219
0.000137188506041
0.000137273199475
0.00013734983314
0.000137435471316
0.000137532868056
0.00013764289378
0.00013776881666
0.0001379276175
0.000138195168021
0.000138855303756
0.000140769843246
0.000145928862245
0.000157396214629
0.000178123096426
0.000212797532602
0.00034741911653
0.000122131840594
0.000133623117579
0.000136387895678
0.000137091892943
0.000137279296687
0.000137365517254
0.000137443523968
0.000137530685779
0.000137629800709
0.000137741596923
0.000137868793799
0.000138025616719
0.000138277089724
0.000138872081396
0.000140585674977
0.000145272705473
0.000155911456416
0.000175598525543
0.000209269100356
0.00034570605664
)
;
    }
    sides
    {
        type            nutkWallFunction;
        blending        stepwise;
        Cmu             0.09;
        kappa           0.41;
        E               9.8;
        value           nonuniform List<scalar> 0();
    }
    bottom
    {
        type            nutkWallFunction;
        blending        stepwise;
        Cmu             0.09;
        kappa           0.41;
        E               9.8;
        value           nonuniform List<scalar> 7(6.47662399682e-05 6.48180604929e-05 6.48651369418e-05 6.49071058788e-05 6.49435501464e-05 6.49740248563e-05 6.49980817856e-05);
    }
    front
    {
        type            nutkWallFunction;
        blending        stepwise;
        Cmu             0.09;
        kappa           0.41;
        E               9.8;
        value           nonuniform List<scalar> 
166
(
0.000136655185936
0.000136756154087
0.000136870034676
0.000137004554891
0.000137198450008
0.000137609405319
0.000138765447967
0.000142067997636
0.000150210915241
0.000166362936533
0.00019224164103
0.000233379274976
0.000354285236638
0.000136609158112
0.000136687672186
0.000136775004453
0.000136873895666
0.000136985599552
0.000137117255479
0.0001373045187
0.000137693744104
0.000138781052956
0.000141902747501
0.000149682339404
0.000165314479935
0.000190684921835
0.000230915523226
0.000353495945975
0.000121695934037
0.000133104776319
0.000136646499832
0.000136730096405
0.000136807101679
0.000136892974118
0.000136990310813
0.000137100368124
0.000137229660344
0.000137410670335
0.000137778102632
0.000138794564458
0.000141726342676
0.000149116740298
0.000164178337016
0.000188973545864
0.000228303332534
0.000352632097942
0.000121793365652
0.000133209438755
0.000135911394843
0.000136586730124
0.000136764666549
0.000136847667515
0.000136923676846
0.000137008544908
0.000137104843904
0.000137213791428
0.000137341246723
0.000137516486543
0.000137862334946
0.000138806583438
0.000141540941301
0.000148518126269
0.000162957249519
0.000187103195879
0.000225534150921
0.000351693443307
0.000121881877974
0.000133307558573
0.000136019840478
0.000136699590721
0.00013687852336
0.000136961336807
0.00013703681352
0.000137121135776
0.000137216909053
0.000137325283994
0.000137451451671
0.000137621495312
0.000137946262219
0.000138817824894
0.000141349367501
0.000147892493066
0.000161657266616
0.000185072981929
0.000222600887469
0.000350685817181
0.000121960787558
0.000133398666211
0.000136122354754
0.00013680714932
0.000136987513959
0.000137070533283
0.000137145928729
0.000137230181336
0.00013732594798
0.000137434295581
0.000137559752206
0.000137725261463
0.000138029752479
0.000138829111873
0.000141154842347
0.000147247262627
0.000160288782921
0.000182889354929
0.000219491348137
0.000349618162191
0.000122029309956
0.000133482111165
0.000136218322905
0.000136908809652
0.000137091041853
0.000137174678788
0.000137250452895
0.000137335134471
0.000137431431957
0.000137540319214
0.000137665678828
0.000137827408528
0.000138112729097
0.000138841301234
0.000140960561353
0.000146589868094
0.000158863030745
0.000180564826802
0.000216217132504
0.000348519465783
0.000122086608583
0.000133557187742
0.000136307074656
0.000137003940219
0.000137188506041
0.000137273199475
0.00013734983314
0.000137435471316
0.000137532868056
0.00013764289378
0.00013776881666
0.0001379276175
0.000138195168021
0.000138855303756
0.000140769843246
0.000145928862245
0.000157396214629
0.000178123096426
0.000212797532602
0.00034741911653
0.000122131840594
0.000133623117579
0.000136387895678
0.000137091892943
0.000137279296687
0.000137365517254
0.000137443523968
0.000137530685779
0.000137629800709
0.000137741596923
0.000137868793799
0.000138025616719
0.000138277089724
0.000138872081396
0.000140585674977
0.000145272705473
0.000155911456416
0.000175598525543
0.000209269100356
0.00034570605664
)
;
    }
    atmosphere
    {
        type            calculated;
        value           uniform 0.009;
    }
    floatingObject
    {
        type            nutkWallFunction;
        blending        stepwise;
        Cmu             0.09;
        kappa           0.41;
        E               9.8;
        value           nonuniform List<scalar> 0();
    }
    procBoundary0to1
    {
        type            processor;
        value           nonuniform List<scalar> 10(0.00141478751897 0.00141727341079 0.00142276012397 0.00143824197223 0.00148143970869 0.00158450961969 0.00178260081305 0.0020925092685 0.00252288788491 0.00314889188004);
    }
    procBoundary0to2
    {
        type            processor;
        value           nonuniform List<scalar> 
14
(
0.0014105159244
0.00141174318549
0.0014131283427
0.00140990274648
0.00141085489205
0.00141085489205
0.000930595032479
0.00136970699699
0.00141032658979
0.00141032658979
0.00140183516522
0.00140183516522
0.00140964035584
0.00140964035584
)
;
    }
    procBoundary0to4
    {
        type            processor;
        value           nonuniform List<scalar> 8(0.00093534374561 0.00137743605695 0.00140936336084 0.00141765126593 0.00141989445719 0.00142092674737 0.00142185382987 0.00142288700894);
    }
    procBoundary0to5
    {
        type            processor;
        value           nonuniform List<scalar> 
12
(
0.00142406050336
0.00142538037724
0.00142687498013
0.00142868614816
0.00143147104221
0.00143776489993
0.00145552762423
0.00150420518121
0.00161699202388
0.00183085479477
0.00218785524752
0.00274218471362
)
;
    }
}


// ************************************************************************* //
