/*--------------------------------*- C++ -*----------------------------------*\
| =========                 |                                                 |
| \\      /  F ield         | OpenFOAM: The Open Source CFD Toolbox           |
|  \\    /   O peration     | Version:  v2012                                 |
|   \\  /    A nd           | Website:  www.openfoam.com                      |
|    \\/     M anipulation  |                                                 |
\*---------------------------------------------------------------------------*/
FoamFile
{
    version     2.0;
    format      ascii;
    class       volScalarField;
    location    "5";
    object      k;
}
// * * * * * * * * * * * * * * * * * * * * * * * * * * * * * * * * * * * * * //

dimensions      [0 2 -2 0 0 0 0];


internalField   nonuniform List<scalar> 
167
(
0.00140548556624
0.00141684785993
0.00143174635683
0.00145492323132
0.00149762495304
0.00159031532278
0.00182422360197
0.00247314378657
0.00443277477455
0.0109972904444
0.0303400435347
0.0734987292899
0.00174647641513
0.00175842867554
0.00177535139431
0.00180376315915
0.00185985366362
0.00198627652627
0.00229899941743
0.00311258469589
0.00545293609192
0.0129666897442
0.0344730210299
0.0750058292757
0.00186045486171
0.00187281018014
0.0018907152195
0.00192154869308
0.00198309682211
0.00212158054114
0.00245858580859
0.00331249263553
0.00572075218173
0.0135050784866
0.0361431215343
0.076957828233
0.0019178385529
0.00193596931938
0.00196749663537
0.00203071797153
0.00217337401341
0.0025202968481
0.00339868396029
0.00586987264962
0.013687296709
0.0357276315769
0.0766691303698
0.00195494623227
0.00198621593779
0.00204926611892
0.00219250186549
0.00254347169637
0.00343120500634
0.00589263434453
0.0135063184049
0.0344426483571
0.0759539786966
0.00196409317041
0.00199470642625
0.00205665527158
0.00219852574051
0.00254763794228
0.00341881965983
0.00577072078194
0.0131938015228
0.0345210334277
0.0758982665223
0.00196977555595
0.00199959771159
0.00206027464292
0.00220045053082
0.00254827847421
0.00341708649965
0.00575164061286
0.0132213458417
0.0349737033062
0.075890159187
0.00197436067052
0.0020033809655
0.00206283297882
0.00220204225089
0.00255558603576
0.00347340071248
0.00603655390436
0.0139354488742
0.0353255079526
0.0758559573302
0.00197868251611
0.00200687447201
0.00206494973474
0.00220226315545
0.00255712700661
0.0035053914037
0.00621014492258
0.0143532293712
0.0353283173738
0.075597536124
0.00198298540549
0.00201033275125
0.00206685964565
0.00220101906586
0.00254948593354
0.00348347027457
0.0061513162043
0.0141633803508
0.0348876464343
0.0753025468319
0.00198731740293
0.0020138161276
0.00206878051461
0.00219957658022
0.00253971197753
0.00344671432771
0.00600244706206
0.0137107307843
0.0343505706304
0.0751584215732
0.00199161963829
0.00201725074478
0.00207057116984
0.00219749047443
0.00252584111796
0.00338848818928
0.00578523387802
0.0132527206021
0.0342464628054
0.0751452063229
0.00199584442112
0.00202052588304
0.00207192649283
0.00219437700032
0.00251105008265
0.0033396886572
0.0056396826762
0.0130479710843
0.034211602258
0.0750307075867
0.00199995368217
0.00202362460449
0.00207283802118
0.00219022688676
0.00249594687912
0.00330212139967
0.00554680244108
0.0128263436194
0.0336738089404
0.0747151844094
0.00200393271234
0.00202660080766
0.00207360538151
0.00218577534957
0.00248025643166
0.00326619440683
0.00547363528202
0.012569255903
0.0324959344698
0.0742069800387
0.00200773643794
0.00202951012878
0.00207458115506
0.00218231062413
0.00246663231042
0.00322922433558
0.00537640790276
0.012343731432
0.0316868263523
0.0737332309012
)
;

boundaryField
{
    back
    {
        type            kqRWallFunction;
        value           nonuniform List<scalar> 
167
(
0.00140548556624
0.00141684785993
0.00143174635683
0.00145492323132
0.00149762495304
0.00159031532278
0.00182422360197
0.00247314378657
0.00443277477455
0.0109972904444
0.0303400435347
0.0734987292899
0.00174647641513
0.00175842867554
0.00177535139431
0.00180376315915
0.00185985366362
0.00198627652627
0.00229899941743
0.00311258469589
0.00545293609192
0.0129666897442
0.0344730210299
0.0750058292757
0.00186045486171
0.00187281018014
0.0018907152195
0.00192154869308
0.00198309682211
0.00212158054114
0.00245858580859
0.00331249263553
0.00572075218173
0.0135050784866
0.0361431215343
0.076957828233
0.0019178385529
0.00193596931938
0.00196749663537
0.00203071797153
0.00217337401341
0.0025202968481
0.00339868396029
0.00586987264962
0.013687296709
0.0357276315769
0.0766691303698
0.00195494623227
0.00198621593779
0.00204926611892
0.00219250186549
0.00254347169637
0.00343120500634
0.00589263434453
0.0135063184049
0.0344426483571
0.0759539786966
0.00196409317041
0.00199470642625
0.00205665527158
0.00219852574051
0.00254763794228
0.00341881965983
0.00577072078194
0.0131938015228
0.0345210334277
0.0758982665223
0.00196977555595
0.00199959771159
0.00206027464292
0.00220045053082
0.00254827847421
0.00341708649965
0.00575164061286
0.0132213458417
0.0349737033062
0.075890159187
0.00197436067052
0.0020033809655
0.00206283297882
0.00220204225089
0.00255558603576
0.00347340071248
0.00603655390436
0.0139354488742
0.0353255079526
0.0758559573302
0.00197868251611
0.00200687447201
0.00206494973474
0.00220226315545
0.00255712700661
0.0035053914037
0.00621014492258
0.0143532293712
0.0353283173738
0.075597536124
0.00198298540549
0.00201033275125
0.00206685964565
0.00220101906586
0.00254948593354
0.00348347027457
0.0061513162043
0.0141633803508
0.0348876464343
0.0753025468319
0.00198731740293
0.0020138161276
0.00206878051461
0.00219957658022
0.00253971197753
0.00344671432771
0.00600244706206
0.0137107307843
0.0343505706304
0.0751584215732
0.00199161963829
0.00201725074478
0.00207057116984
0.00219749047443
0.00252584111796
0.00338848818928
0.00578523387802
0.0132527206021
0.0342464628054
0.0751452063229
0.00199584442112
0.00202052588304
0.00207192649283
0.00219437700032
0.00251105008265
0.0033396886572
0.0056396826762
0.0130479710843
0.034211602258
0.0750307075867
0.00199995368217
0.00202362460449
0.00207283802118
0.00219022688676
0.00249594687912
0.00330212139967
0.00554680244108
0.0128263436194
0.0336738089404
0.0747151844094
0.00200393271234
0.00202660080766
0.00207360538151
0.00218577534957
0.00248025643166
0.00326619440683
0.00547363528202
0.012569255903
0.0324959344698
0.0742069800387
0.00200773643794
0.00202951012878
0.00207458115506
0.00218231062413
0.00246663231042
0.00322922433558
0.00537640790276
0.012343731432
0.0316868263523
0.0737332309012
)
;
    }
    sides
    {
        type            kqRWallFunction;
        value           nonuniform List<scalar> 
12
(
0.00140548556624
0.00141684785993
0.00143174635683
0.00145492323132
0.00149762495304
0.00159031532278
0.00182422360197
0.00247314378657
0.00443277477455
0.0109972904444
0.0303400435347
0.0734987292899
)
;
    }
    bottom
    {
        type            kqRWallFunction;
        value           nonuniform List<scalar> 0();
    }
    front
    {
        type            kqRWallFunction;
        value           nonuniform List<scalar> 
167
(
0.00140548556624
0.00141684785993
0.00143174635683
0.00145492323132
0.00149762495304
0.00159031532278
0.00182422360197
0.00247314378657
0.00443277477455
0.0109972904444
0.0303400435347
0.0734987292899
0.00174647641513
0.00175842867554
0.00177535139431
0.00180376315915
0.00185985366362
0.00198627652627
0.00229899941743
0.00311258469589
0.00545293609192
0.0129666897442
0.0344730210299
0.0750058292757
0.00186045486171
0.00187281018014
0.0018907152195
0.00192154869308
0.00198309682211
0.00212158054114
0.00245858580859
0.00331249263553
0.00572075218173
0.0135050784866
0.0361431215343
0.076957828233
0.0019178385529
0.00193596931938
0.00196749663537
0.00203071797153
0.00217337401341
0.0025202968481
0.00339868396029
0.00586987264962
0.013687296709
0.0357276315769
0.0766691303698
0.00195494623227
0.00198621593779
0.00204926611892
0.00219250186549
0.00254347169637
0.00343120500634
0.00589263434453
0.0135063184049
0.0344426483571
0.0759539786966
0.00196409317041
0.00199470642625
0.00205665527158
0.00219852574051
0.00254763794228
0.00341881965983
0.00577072078194
0.0131938015228
0.0345210334277
0.0758982665223
0.00196977555595
0.00199959771159
0.00206027464292
0.00220045053082
0.00254827847421
0.00341708649965
0.00575164061286
0.0132213458417
0.0349737033062
0.075890159187
0.00197436067052
0.0020033809655
0.00206283297882
0.00220204225089
0.00255558603576
0.00347340071248
0.00603655390436
0.0139354488742
0.0353255079526
0.0758559573302
0.00197868251611
0.00200687447201
0.00206494973474
0.00220226315545
0.00255712700661
0.0035053914037
0.00621014492258
0.0143532293712
0.0353283173738
0.075597536124
0.00198298540549
0.00201033275125
0.00206685964565
0.00220101906586
0.00254948593354
0.00348347027457
0.0061513162043
0.0141633803508
0.0348876464343
0.0753025468319
0.00198731740293
0.0020138161276
0.00206878051461
0.00219957658022
0.00253971197753
0.00344671432771
0.00600244706206
0.0137107307843
0.0343505706304
0.0751584215732
0.00199161963829
0.00201725074478
0.00207057116984
0.00219749047443
0.00252584111796
0.00338848818928
0.00578523387802
0.0132527206021
0.0342464628054
0.0751452063229
0.00199584442112
0.00202052588304
0.00207192649283
0.00219437700032
0.00251105008265
0.0033396886572
0.0056396826762
0.0130479710843
0.034211602258
0.0750307075867
0.00199995368217
0.00202362460449
0.00207283802118
0.00219022688676
0.00249594687912
0.00330212139967
0.00554680244108
0.0128263436194
0.0336738089404
0.0747151844094
0.00200393271234
0.00202660080766
0.00207360538151
0.00218577534957
0.00248025643166
0.00326619440683
0.00547363528202
0.012569255903
0.0324959344698
0.0742069800387
0.00200773643794
0.00202951012878
0.00207458115506
0.00218231062413
0.00246663231042
0.00322922433558
0.00537640790276
0.012343731432
0.0316868263523
0.0737332309012
)
;
    }
    atmosphere
    {
        type            inletOutlet;
        inletValue      uniform 0.1;
        value           uniform 0.1;
    }
    floatingObject
    {
        type            kqRWallFunction;
        value           nonuniform List<scalar> 0();
    }
    procBoundary1to0
    {
        type            processor;
        value           nonuniform List<scalar> 10(0.00201132362621 0.00203226468232 0.00207560855407 0.00217944524277 0.0024542678719 0.00319132688669 0.00527067552435 0.0122012296312 0.0313432846256 0.0691804537453);
    }
    procBoundary1to2
    {
        type            processor;
        value           nonuniform List<scalar> 
18
(
0.00139561675466
0.00173651700016
0.00185037335552
0.00190545397439
0.00190545397439
0.00193699511671
0.00193699511671
0.00194653042176
0.00195272705092
0.00195785785785
0.00196271999818
0.00196755748938
0.00197240137643
0.00197721814854
0.00198195747084
0.00198657853331
0.00199103198809
0.00199528517938
)
;
    }
}


// ************************************************************************* //
