/*--------------------------------*- C++ -*----------------------------------*\
| =========                 |                                                 |
| \\      /  F ield         | OpenFOAM: The Open Source CFD Toolbox           |
|  \\    /   O peration     | Version:  v2012                                 |
|   \\  /    A nd           | Website:  www.openfoam.com                      |
|    \\/     M anipulation  |                                                 |
\*---------------------------------------------------------------------------*/
FoamFile
{
    version     2.0;
    format      ascii;
    class       volScalarField;
    location    "5";
    object      nut;
}
// * * * * * * * * * * * * * * * * * * * * * * * * * * * * * * * * * * * * * //

dimensions      [0 2 -1 0 0 0 0];


internalField   nonuniform List<scalar> 
167
(
0.000310557861434
0.000311902684905
0.000313692970971
0.000316529311378
0.000321889732034
0.000333855051568
0.000363995737233
0.000443300671193
0.000652621755393
0.00111092905303
0.0017532428472
0.00237571845519
0.000461169642066
0.00046283295428
0.000465234010092
0.000469360233322
0.00047772806719
0.0004968894612
0.000543296814479
0.000657410627319
0.000946070822154
0.00155510619564
0.00237712444568
0.00318121405559
0.000476171388757
0.000477853949481
0.000480335316229
0.000484695482809
0.000493588442389
0.000513767219383
0.000561525841446
0.000675762142279
0.000962327745505
0.00157839166666
0.00240102111111
0.00314903807579
0.000483711828494
0.00048620276573
0.00049061279866
0.000499621313104
0.000520039215756
0.000568150503103
0.000682472587022
0.000962635899362
0.00154094596478
0.0023285782093
0.00314103900937
0.000488658199926
0.000493000652754
0.000501904244455
0.000522154652685
0.000569914982532
0.000681769131787
0.00094693979393
0.00148444506676
0.00225349770572
0.00313149732627
0.00048982179183
0.000494045054084
0.000502716999456
0.000522512436565
0.000568934487682
0.000674632922413
0.000919425416021
0.00145025678995
0.0022807388038
0.00313596461071
0.000490522169173
0.000494609098326
0.000503033109172
0.000522383624912
0.000567957257892
0.000671263086501
0.000910391115468
0.00144444628065
0.00228398856895
0.00313596626352
0.000491071497348
0.000495022242266
0.000503217627883
0.000522331859328
0.000568648586022
0.000677899662785
0.000932106031423
0.00145285050858
0.00223125847329
0.00311472123563
0.000491581960517
0.000495393192712
0.000503337320431
0.000522080658288
0.000568543593028
0.000681559224349
0.00094461048749
0.00145217836743
0.00217256939205
0.00308968058114
0.000492087363192
0.000495756023773
0.000503413750626
0.000521539392534
0.000566753511779
0.000677249304692
0.00093543473406
0.00143543500238
0.00214335080914
0.00307742132869
0.000492595506359
0.000496120391428
0.000503483470481
0.000520914281128
0.000564346839623
0.000669541966923
0.000913717407592
0.00140415998752
0.0021465514619
0.00308016823618
0.000493099372674
0.000496478722357
0.000503533923359
0.000520178655844
0.00056129976887
0.000659322211182
0.000887200594855
0.00137117532356
0.00214358700076
0.00308305962272
0.000493593339176
0.00049681848054
0.00050353975742
0.000519360068319
0.000558321926471
0.000650546268333
0.000865576242129
0.00133921188561
0.00211115026376
0.00307550469117
0.000494072753381
0.000497138202673
0.000503501565065
0.000518473974142
0.000555566082621
0.000643778208461
0.000848921310768
0.00130688460248
0.00207568475968
0.00306599016904
0.000494536541572
0.000497445721958
0.000503455049129
0.000517587506956
0.000552909497866
0.000637923420566
0.000835965496268
0.00127497169652
0.00202340420832
0.00305510263249
0.000494980385229
0.000497749053133
0.000503445352221
0.000516839958912
0.000550528793252
0.000632190481849
0.000823361864442
0.00125087120699
0.00197117614533
0.00303709567146
)
;

boundaryField
{
    back
    {
        type            nutkWallFunction;
        blending        stepwise;
        Cmu             0.09;
        kappa           0.41;
        E               9.8;
        value           nonuniform List<scalar> 
167
(
4.4673281868e-05
4.4837504939e-05
4.50517488995e-05
4.53826250993e-05
4.59847669993e-05
4.72602360067e-05
5.0308242847e-05
5.77840329233e-05
7.53543394576e-05
0.000113952804897
0.00018198033998
0.000343312904624
4.93202168183e-05
4.94736519221e-05
4.9689921702e-05
5.00504981572e-05
5.07533349045e-05
5.22960753578e-05
5.58953119922e-05
6.41583238754e-05
8.27994917647e-05
0.000122821840941
0.000192917766332
0.000346534435119
5.07608048945e-05
5.09140304067e-05
5.11351031718e-05
5.15131349602e-05
5.22579428225e-05
5.38888029241e-05
5.76289830951e-05
6.60012789865e-05
8.46252336498e-05
0.000125117290851
0.00019718650406
0.000350654408232
5.14678237683e-05
5.16887996243e-05
5.20703718096e-05
5.28255828354e-05
5.44837406769e-05
5.82828415396e-05
6.67771172753e-05
8.5621665383e-05
0.000125885883588
0.000196273366017
0.000350048727237
5.19188794229e-05
5.22953498477e-05
5.30447033135e-05
5.47014947212e-05
5.85261279792e-05
6.70670566513e-05
8.57725421769e-05
0.000125130732593
0.00019313975883
0.000348542924425
5.20293424966e-05
5.23970104587e-05
5.31316938734e-05
5.47698561657e-05
5.8569736051e-05
6.69568134515e-05
8.4960686038e-05
0.000123810201016
0.000193440497466
0.000348425291159
5.20978244909e-05
5.24554685872e-05
5.3174241492e-05
5.47916780901e-05
5.85764371129e-05
6.69413692743e-05
8.4832783456e-05
0.000123932106005
0.000194818668856
0.000348408168992
5.21530035738e-05
5.25006305471e-05
5.32042915706e-05
5.48097161074e-05
5.86528209971e-05
6.74410238693e-05
8.67192546783e-05
0.000126939037313
0.000196082456174
0.000348335925788
5.22049502111e-05
5.25422920996e-05
5.32291390256e-05
5.48122188942e-05
5.86689130591e-05
6.77228972531e-05
8.78449352105e-05
0.000128660808368
0.000196518648635
0.000347789492114
5.22566073937e-05
5.25834942778e-05
5.32515464006e-05
5.47981216338e-05
5.85890665212e-05
6.75298997247e-05
8.74653924065e-05
0.000127885853618
0.000195762545124
0.000347164475647
5.23085512415e-05
5.26249562176e-05
5.327407103e-05
5.4781771e-05
5.84867415106e-05
6.72048008704e-05
8.64960182222e-05
0.000126011011189
0.00019459827438
0.000346858615859
5.23600774069e-05
5.26657996978e-05
5.329505861e-05
5.4758114801e-05
5.83411554007e-05
6.66859059689e-05
8.50578192649e-05
0.000124079084804
0.00019449347538
0.000346830554548
5.24106171869e-05
5.27047114255e-05
5.33109372304e-05
5.47227855171e-05
5.81854291943e-05
6.62472573874e-05
8.40775786937e-05
0.000123205140232
0.000194580365556
0.000346587313605
5.2459718916e-05
5.2741495412e-05
5.33216132712e-05
5.46756506184e-05
5.80258982844e-05
6.5907184588e-05
8.34448400756e-05
0.000122250635491
0.000193347549357
0.000345915956481
5.25072119592e-05
5.27767960321e-05
5.33305987911e-05
5.46250379946e-05
5.78596048376e-05
6.55799788425e-05
8.2942319102e-05
0.000121131422013
0.000190412803819
0.00034483132802
5.25525644056e-05
5.28112759759e-05
5.33420221309e-05
5.45856061086e-05
5.77147442293e-05
6.52412156131e-05
8.22688526328e-05
0.000120139344721
0.000188472908239
0.000343816543348
)
;
    }
    sides
    {
        type            nutkWallFunction;
        blending        stepwise;
        Cmu             0.09;
        kappa           0.41;
        E               9.8;
        value           nonuniform List<scalar> 
12
(
2.36937945455e-05
2.37817037343e-05
2.38963858685e-05
2.40734922489e-05
2.43957743434e-05
2.50783414207e-05
2.67089681483e-05
3.0705579645e-05
4.00858727006e-05
6.06471705058e-05
9.68045277373e-05
0.000180153722701
)
;
    }
    bottom
    {
        type            nutkWallFunction;
        blending        stepwise;
        Cmu             0.09;
        kappa           0.41;
        E               9.8;
        value           nonuniform List<scalar> 0();
    }
    front
    {
        type            nutkWallFunction;
        blending        stepwise;
        Cmu             0.09;
        kappa           0.41;
        E               9.8;
        value           nonuniform List<scalar> 
167
(
4.4673281868e-05
4.4837504939e-05
4.50517488995e-05
4.53826250993e-05
4.59847669993e-05
4.72602360067e-05
5.0308242847e-05
5.77840329233e-05
7.53543394576e-05
0.000113952804897
0.00018198033998
0.000343312904624
4.93202168183e-05
4.94736519221e-05
4.9689921702e-05
5.00504981572e-05
5.07533349045e-05
5.22960753578e-05
5.58953119922e-05
6.41583238754e-05
8.27994917647e-05
0.000122821840941
0.000192917766332
0.000346534435119
5.07608048945e-05
5.09140304067e-05
5.11351031718e-05
5.15131349602e-05
5.22579428225e-05
5.38888029241e-05
5.76289830951e-05
6.60012789865e-05
8.46252336498e-05
0.000125117290851
0.00019718650406
0.000350654408232
5.14678237683e-05
5.16887996243e-05
5.20703718096e-05
5.28255828354e-05
5.44837406769e-05
5.82828415396e-05
6.67771172753e-05
8.5621665383e-05
0.000125885883588
0.000196273366017
0.000350048727237
5.19188794229e-05
5.22953498477e-05
5.30447033135e-05
5.47014947212e-05
5.85261279792e-05
6.70670566513e-05
8.57725421769e-05
0.000125130732593
0.00019313975883
0.000348542924425
5.20293424966e-05
5.23970104587e-05
5.31316938734e-05
5.47698561657e-05
5.8569736051e-05
6.69568134515e-05
8.4960686038e-05
0.000123810201016
0.000193440497466
0.000348425291159
5.20978244909e-05
5.24554685872e-05
5.3174241492e-05
5.47916780901e-05
5.85764371129e-05
6.69413692743e-05
8.4832783456e-05
0.000123932106005
0.000194818668856
0.000348408168992
5.21530035738e-05
5.25006305471e-05
5.32042915706e-05
5.48097161074e-05
5.86528209971e-05
6.74410238693e-05
8.67192546783e-05
0.000126939037313
0.000196082456174
0.000348335925788
5.22049502111e-05
5.25422920996e-05
5.32291390256e-05
5.48122188942e-05
5.86689130591e-05
6.77228972531e-05
8.78449352105e-05
0.000128660808368
0.000196518648635
0.000347789492114
5.22566073937e-05
5.25834942778e-05
5.32515464006e-05
5.47981216338e-05
5.85890665212e-05
6.75298997247e-05
8.74653924065e-05
0.000127885853618
0.000195762545124
0.000347164475647
5.23085512415e-05
5.26249562176e-05
5.327407103e-05
5.4781771e-05
5.84867415106e-05
6.72048008704e-05
8.64960182222e-05
0.000126011011189
0.00019459827438
0.000346858615859
5.23600774069e-05
5.26657996978e-05
5.329505861e-05
5.4758114801e-05
5.83411554007e-05
6.66859059689e-05
8.50578192649e-05
0.000124079084804
0.00019449347538
0.000346830554548
5.24106171869e-05
5.27047114255e-05
5.33109372304e-05
5.47227855171e-05
5.81854291943e-05
6.62472573874e-05
8.40775786937e-05
0.000123205140232
0.000194580365556
0.000346587313605
5.2459718916e-05
5.2741495412e-05
5.33216132712e-05
5.46756506184e-05
5.80258982844e-05
6.5907184588e-05
8.34448400756e-05
0.000122250635491
0.000193347549357
0.000345915956481
5.25072119592e-05
5.27767960321e-05
5.33305987911e-05
5.46250379946e-05
5.78596048376e-05
6.55799788425e-05
8.2942319102e-05
0.000121131422013
0.000190412803819
0.00034483132802
5.25525644056e-05
5.28112759759e-05
5.33420221309e-05
5.45856061086e-05
5.77147442293e-05
6.52412156131e-05
8.22688526328e-05
0.000120139344721
0.000188472908239
0.000343816543348
)
;
    }
    atmosphere
    {
        type            calculated;
        value           uniform 0.009;
    }
    floatingObject
    {
        type            nutkWallFunction;
        blending        stepwise;
        Cmu             0.09;
        kappa           0.41;
        E               9.8;
        value           nonuniform List<scalar> 0();
    }
    procBoundary1to0
    {
        type            processor;
        value           nonuniform List<scalar> 10(0.000495398113177 0.00049803751168 0.00050345570055 0.000516200374611 0.000548373305163 0.000626581145106 0.000811868701758 0.00123701175923 0.00193933204654 0.00270073204619);
    }
    procBoundary1to2
    {
        type            processor;
        value           nonuniform List<scalar> 
18
(
0.000309398946581
0.000459798605905
0.000474812781767
0.000482034340723
0.000482034340723
0.000486202613761
0.000486202613761
0.00048742925473
0.000488211316899
0.00048884712039
0.000489442978383
0.000490033387909
0.000490623163049
0.000491208830418
0.000491783524611
0.00049234285816
0.000492880621357
0.000493393260787
)
;
    }
}


// ************************************************************************* //
