/*--------------------------------*- C++ -*----------------------------------*\
| =========                 |                                                 |
| \\      /  F ield         | OpenFOAM: The Open Source CFD Toolbox           |
|  \\    /   O peration     | Version:  v2012                                 |
|   \\  /    A nd           | Website:  www.openfoam.com                      |
|    \\/     M anipulation  |                                                 |
\*---------------------------------------------------------------------------*/
FoamFile
{
    version     2.0;
    format      ascii;
    class       volScalarField;
    location    "0.4";
    object      ddt0(epsilon);
}
// * * * * * * * * * * * * * * * * * * * * * * * * * * * * * * * * * * * * * //

dimensions      [0 2 -4 0 0 0 0];


internalField   nonuniform List<scalar> 
167
(
-0.202263867421
-0.202206091568
-0.202139908127
-0.202010425007
-0.201378853802
-0.197500052045
-0.1779611859
-0.110044203456
-0.00159016605539
-0.202279886724
-0.202215732928
-0.202094567124
-0.2015118445
-0.197874199529
-0.179127228846
-0.112348141045
-0.00260026357618
-0.20235101268
-0.202288074659
-0.202173646322
-0.201633010574
-0.198209281397
-0.18018472028
-0.114485491228
-0.00354520090902
-0.202475543338
-0.202419220134
-0.202356902866
-0.202247860821
-0.201743422924
-0.198509115045
-0.181141466817
-0.116460722114
-0.00442621293992
-0.202541005824
-0.202484173649
-0.202422066177
-0.202317269013
-0.201843904293
-0.19877697678
-0.182004478054
-0.118278083086
-0.00524410070786
-0.202603390714
-0.202545730025
-0.202483417638
-0.202381889163
-0.201935133262
-0.199015687171
-0.18278001305
-0.11994153432
-0.00599937454592
-0.20271964055
-0.202662480739
-0.202603662982
-0.202540790495
-0.20244170744
-0.202017652034
-0.199227663715
-0.183473611827
-0.121454707967
-0.00669236323871
-0.202833901872
-0.202776775935
-0.202717887627
-0.202657719655
-0.20259400256
-0.202496669909
-0.202091887663
-0.199414954142
-0.184090134759
-0.122820864734
-0.00732327241708
-0.202889366623
-0.202830042081
-0.202769339989
-0.20270763536
-0.202642850872
-0.202546691254
-0.202158160584
-0.199579275983
-0.184633783751
-0.124042824814
-0.0078922273219
-0.202879155468
-0.202816520638
-0.202753144188
-0.20268713089
-0.202591671444
-0.202216713795
-0.199722056241
-0.185108097813
-0.125122814248
-0.00839927683194
-0.202924005593
-0.202859283797
-0.202794156556
-0.202726814072
-0.20263166903
-0.202267887895
-0.199844594993
-0.185516006565
-0.126062192637
-0.00884444124833
-0.202966310731
-0.202899464813
-0.202832541969
-0.202763789337
-0.202668610148
-0.202313784603
-0.199949667364
-0.185861120771
-0.126861759253
-0.00922804011544
-0.203024663783
-0.202955518796
-0.202886580232
-0.202816130431
-0.202720345972
-0.202372119325
-0.2000551186
-0.186160601898
-0.12753118787
-0.00955302849104
-0.203220307172
-0.203147896157
-0.203075848253
-0.20300242886
-0.202904398499
-0.202559377364
-0.200276586211
-0.186526404115
-0.128156097004
-0.00983729540942
-0.204069176639
-0.203991814241
-0.203914424544
-0.20383717621
-0.203758264679
-0.203654920729
-0.20330889974
-0.201049852596
-0.187393878134
-0.129083669447
-0.0101246021174
-0.204499793159
-0.204422124671
-0.204344094314
-0.204265666648
-0.204184941311
-0.204080303855
-0.203744611591
-0.201562050901
-0.188133768965
-0.129741524177
-0.0099083926835
-0.238880979178
-0.238794790653
-0.238708866964
-0.238623381805
-0.238537620954
-0.238438472514
-0.238170942669
-0.236288322256
-0.222778746456
-0.154553899476
-0.00127476228735
)
;

boundaryField
{
    back
    {
        type            calculated;
        value           nonuniform List<scalar> 
167
(
-0.202263867421
-0.202206091568
-0.202139908127
-0.202010425007
-0.201378853802
-0.197500052045
-0.1779611859
-0.110044203456
-0.00159016605539
-0.202279886724
-0.202215732928
-0.202094567124
-0.2015118445
-0.197874199529
-0.179127228846
-0.112348141045
-0.00260026357618
-0.20235101268
-0.202288074659
-0.202173646322
-0.201633010574
-0.198209281397
-0.18018472028
-0.114485491228
-0.00354520090902
-0.202475543338
-0.202419220134
-0.202356902866
-0.202247860821
-0.201743422924
-0.198509115045
-0.181141466817
-0.116460722114
-0.00442621293992
-0.202541005824
-0.202484173649
-0.202422066177
-0.202317269013
-0.201843904293
-0.19877697678
-0.182004478054
-0.118278083086
-0.00524410070786
-0.202603390714
-0.202545730025
-0.202483417638
-0.202381889163
-0.201935133262
-0.199015687171
-0.18278001305
-0.11994153432
-0.00599937454592
-0.20271964055
-0.202662480739
-0.202603662982
-0.202540790495
-0.20244170744
-0.202017652034
-0.199227663715
-0.183473611827
-0.121454707967
-0.00669236323871
-0.202833901872
-0.202776775935
-0.202717887627
-0.202657719655
-0.20259400256
-0.202496669909
-0.202091887663
-0.199414954142
-0.184090134759
-0.122820864734
-0.00732327241708
-0.202889366623
-0.202830042081
-0.202769339989
-0.20270763536
-0.202642850872
-0.202546691254
-0.202158160584
-0.199579275983
-0.184633783751
-0.124042824814
-0.0078922273219
-0.202879155468
-0.202816520638
-0.202753144188
-0.20268713089
-0.202591671444
-0.202216713795
-0.199722056241
-0.185108097813
-0.125122814248
-0.00839927683194
-0.202924005593
-0.202859283797
-0.202794156556
-0.202726814072
-0.20263166903
-0.202267887895
-0.199844594993
-0.185516006565
-0.126062192637
-0.00884444124832
-0.202966310731
-0.202899464813
-0.202832541969
-0.202763789337
-0.202668610148
-0.202313784603
-0.199949667364
-0.185861120771
-0.126861759253
-0.00922804011544
-0.203024663783
-0.202955518796
-0.202886580232
-0.202816130431
-0.202720345972
-0.202372119325
-0.2000551186
-0.186160601898
-0.12753118787
-0.00955302849104
-0.203220307172
-0.203147896157
-0.203075848253
-0.20300242886
-0.202904398499
-0.202559377364
-0.200276586211
-0.186526404115
-0.128156097004
-0.00983729540942
-0.204069176639
-0.203991814241
-0.203914424544
-0.20383717621
-0.203758264679
-0.203654920729
-0.20330889974
-0.201049852596
-0.187393878134
-0.129083669447
-0.0101246021174
-0.204499793159
-0.204422124671
-0.204344094314
-0.204265666648
-0.204184941311
-0.204080303855
-0.203744611591
-0.201562050901
-0.188133768965
-0.129741524177
-0.00990839268351
-0.238880979178
-0.238794790653
-0.238708866964
-0.238623381805
-0.238537620954
-0.238438472514
-0.238170942669
-0.236288322256
-0.222778746456
-0.154553899476
-0.00127476228735
)
;
    }
    sides
    {
        type            calculated;
        value           nonuniform List<scalar> 
11
(
-0.238880979178
-0.238794790653
-0.238708866964
-0.238623381805
-0.238537620954
-0.238438472514
-0.238170942669
-0.236288322256
-0.222778746456
-0.154553899476
-0.00127476228735
)
;
    }
    bottom
    {
        type            calculated;
        value           nonuniform List<scalar> 0();
    }
    front
    {
        type            calculated;
        value           nonuniform List<scalar> 
167
(
-0.202263867421
-0.202206091568
-0.202139908127
-0.202010425007
-0.201378853802
-0.197500052045
-0.1779611859
-0.110044203456
-0.00159016605539
-0.202279886724
-0.202215732928
-0.202094567124
-0.2015118445
-0.197874199529
-0.179127228846
-0.112348141045
-0.00260026357618
-0.20235101268
-0.202288074659
-0.202173646322
-0.201633010574
-0.198209281397
-0.18018472028
-0.114485491228
-0.00354520090902
-0.202475543338
-0.202419220134
-0.202356902866
-0.202247860821
-0.201743422924
-0.198509115045
-0.181141466817
-0.116460722114
-0.00442621293992
-0.202541005824
-0.202484173649
-0.202422066177
-0.202317269013
-0.201843904293
-0.19877697678
-0.182004478054
-0.118278083086
-0.00524410070786
-0.202603390714
-0.202545730025
-0.202483417638
-0.202381889163
-0.201935133262
-0.199015687171
-0.18278001305
-0.11994153432
-0.00599937454592
-0.20271964055
-0.202662480739
-0.202603662982
-0.202540790495
-0.20244170744
-0.202017652034
-0.199227663715
-0.183473611827
-0.121454707967
-0.00669236323871
-0.202833901872
-0.202776775935
-0.202717887627
-0.202657719655
-0.20259400256
-0.202496669909
-0.202091887663
-0.199414954142
-0.184090134759
-0.122820864734
-0.00732327241708
-0.202889366623
-0.202830042081
-0.202769339989
-0.20270763536
-0.202642850872
-0.202546691254
-0.202158160584
-0.199579275983
-0.184633783751
-0.124042824814
-0.0078922273219
-0.202879155468
-0.202816520638
-0.202753144188
-0.20268713089
-0.202591671444
-0.202216713795
-0.199722056241
-0.185108097813
-0.125122814248
-0.00839927683194
-0.202924005593
-0.202859283797
-0.202794156556
-0.202726814072
-0.20263166903
-0.202267887895
-0.199844594993
-0.185516006565
-0.126062192637
-0.00884444124832
-0.202966310731
-0.202899464813
-0.202832541969
-0.202763789337
-0.202668610148
-0.202313784603
-0.199949667364
-0.185861120771
-0.126861759253
-0.00922804011544
-0.203024663783
-0.202955518796
-0.202886580232
-0.202816130431
-0.202720345972
-0.202372119325
-0.2000551186
-0.186160601898
-0.12753118787
-0.00955302849104
-0.203220307172
-0.203147896157
-0.203075848253
-0.20300242886
-0.202904398499
-0.202559377364
-0.200276586211
-0.186526404115
-0.128156097004
-0.00983729540942
-0.204069176639
-0.203991814241
-0.203914424544
-0.20383717621
-0.203758264679
-0.203654920729
-0.20330889974
-0.201049852596
-0.187393878134
-0.129083669447
-0.0101246021174
-0.204499793159
-0.204422124671
-0.204344094314
-0.204265666648
-0.204184941311
-0.204080303855
-0.203744611591
-0.201562050901
-0.188133768965
-0.129741524177
-0.00990839268351
-0.238880979178
-0.238794790653
-0.238708866964
-0.238623381805
-0.238537620954
-0.238438472514
-0.238170942669
-0.236288322256
-0.222778746456
-0.154553899476
-0.00127476228735
)
;
    }
    atmosphere
    {
        type            calculated;
        value           uniform 0;
    }
    floatingObject
    {
        type            calculated;
        value           nonuniform List<scalar> 0();
    }
    procBoundary11to9
    {
        type            processor;
        value           nonuniform List<scalar> 9(-0.202189441729 -0.202130034022 -0.20206107169 -0.201921390888 -0.201233026917 -0.19708255058 -0.176677890622 -0.107568899515 -0.000512807395634);
    }
    procBoundary11to10
    {
        type            processor;
        value           nonuniform List<scalar> 
23
(
-0.202318777202
-0.202336755709
-0.202336755709
-0.202407489263
-0.202407489263
-0.202529910393
-0.202596010543
-0.202659330946
-0.202659330946
-0.202775093199
-0.202775093199
-0.20288904575
-0.202946798731
-0.202940780963
-0.202940780963
-0.202988107081
-0.203032883585
-0.203093902195
-0.20329295233
-0.20329295233
-0.204146410688
-0.204577074044
-0.23896729087
)
;
    }
}


// ************************************************************************* //
