/*--------------------------------*- C++ -*----------------------------------*\
| =========                 |                                                 |
| \\      /  F ield         | OpenFOAM: The Open Source CFD Toolbox           |
|  \\    /   O peration     | Version:  v2012                                 |
|   \\  /    A nd           | Website:  www.openfoam.com                      |
|    \\/     M anipulation  |                                                 |
\*---------------------------------------------------------------------------*/
FoamFile
{
    version     2.0;
    format      ascii;
    class       volScalarField;
    location    "0.4";
    object      epsilon;
}
// * * * * * * * * * * * * * * * * * * * * * * * * * * * * * * * * * * * * * //

dimensions      [0 2 -3 0 0 0 0];


internalField   nonuniform List<scalar> 
167
(
0.0768972224515
0.0769150867486
0.0769331580418
0.0769556867423
0.0770248123808
0.0774752684428
0.0804817812514
0.0973050656223
0.172807838796
0.0768611980504
0.0768790700783
0.076900868034
0.07696536606
0.077387795258
0.0802664850569
0.096745123182
0.172385357061
0.0768112748679
0.0768291795117
0.0768505193301
0.0769111625829
0.0773090153555
0.0800726194428
0.0962333336208
0.171997953399
0.0767469099871
0.0767651182958
0.07678323672
0.0768043483133
0.0768618010055
0.0772381250636
0.0798983020534
0.0957666834771
0.171643571072
0.076703899197
0.0767225757002
0.0767410428373
0.0767621157538
0.0768169468094
0.0771744394447
0.0797418988012
0.0953425264621
0.171320432905
0.0766642195761
0.0766834901227
0.0767024272532
0.0767236205124
0.0767763154575
0.0771173758448
0.0796019933111
0.0949585435666
0.171026998454
0.0766074167955
0.0766277668185
0.0766477436327
0.0766672518165
0.0766886938793
0.076739669162
0.0770664383864
0.0794773626701
0.0946127051722
0.170761927603
0.0765517800015
0.0765732259948
0.0765944926288
0.07661525114
0.0766354067938
0.0766571997559
0.0767068099077
0.0770212098041
0.0793669542153
0.094303240792
0.170524050147
0.0765195466965
0.0765421158776
0.0765643542367
0.076585953336
0.0766068106337
0.0766290303771
0.0766775770334
0.0769813410916
0.0792698689005
0.0940286189031
0.170312340172
0.0765140869579
0.076537340128
0.0765598160168
0.0765814058201
0.0766041029314
0.0766518412928
0.0769465430105
0.0791853505147
0.0937875418735
0.170125894582
0.0764891484635
0.0765134458443
0.076536808709
0.0765591364599
0.0765823376228
0.0766294819538
0.0769165642017
0.0791127684737
0.0935789658182
0.169963911859
0.0764670917029
0.0764924196759
0.0765166513427
0.0765397011737
0.0765634135749
0.0766101497577
0.0768909594468
0.0790514198973
0.0934020387995
0.169825621558
0.0764446252646
0.0764709631026
0.0764960510053
0.0765198211544
0.0765440746249
0.0765906075116
0.0768664750128
0.0789980182861
0.0932541226295
0.169709597494
0.0763885451321
0.0764160469531
0.0764421728234
0.076466882029
0.0764919479908
0.0765387376593
0.0768112402362
0.0789212472042
0.0931079705369
0.16960629135
0.075993162625
0.0760238547566
0.0760533429593
0.0760814473977
0.0761081543705
0.0761352227204
0.0761836646937
0.0764550909439
0.0785523095872
0.0927150614476
0.169421772238
0.0735037092327
0.073537431898
0.0735701258631
0.0736016492877
0.0736320279416
0.0736629958003
0.0737147036354
0.0739827521464
0.0760552248335
0.0902831874312
0.168263029326
0.0779125321586
0.0779532693392
0.0779920168155
0.0780285785391
0.078062825267
0.0780956135657
0.0781410389005
0.0783650498287
0.0803818930999
0.0969344004461
0.208821440738
)
;

boundaryField
{
    back
    {
        lowReCorrection 0;
        blending        stepwise;
        n               2;
        type            epsilonWallFunction;
        value           nonuniform List<scalar> 
167
(
0.0768972224515
0.0769150867486
0.0769331580418
0.0769556867423
0.0770248123808
0.0774752684428
0.0804817812514
0.0973050656223
0.172807838796
0.0768611980504
0.0768790700783
0.076900868034
0.07696536606
0.077387795258
0.0802664850569
0.096745123182
0.172385357061
0.0768112748679
0.0768291795117
0.0768505193301
0.0769111625829
0.0773090153555
0.0800726194428
0.0962333336208
0.171997953399
0.0767469099871
0.0767651182958
0.07678323672
0.0768043483133
0.0768618010055
0.0772381250636
0.0798983020534
0.0957666834771
0.171643571072
0.076703899197
0.0767225757002
0.0767410428373
0.0767621157538
0.0768169468094
0.0771744394447
0.0797418988012
0.0953425264621
0.171320432905
0.0766642195761
0.0766834901227
0.0767024272532
0.0767236205124
0.0767763154575
0.0771173758448
0.0796019933111
0.0949585435666
0.171026998454
0.0766074167955
0.0766277668185
0.0766477436327
0.0766672518165
0.0766886938793
0.076739669162
0.0770664383864
0.0794773626701
0.0946127051722
0.170761927603
0.0765517800015
0.0765732259948
0.0765944926288
0.07661525114
0.0766354067938
0.0766571997559
0.0767068099077
0.0770212098041
0.0793669542153
0.094303240792
0.170524050147
0.0765195466965
0.0765421158776
0.0765643542367
0.076585953336
0.0766068106337
0.0766290303771
0.0766775770334
0.0769813410916
0.0792698689005
0.0940286189031
0.170312340172
0.0765140869579
0.076537340128
0.0765598160168
0.0765814058201
0.0766041029314
0.0766518412928
0.0769465430105
0.0791853505147
0.0937875418735
0.170125894582
0.0764891484635
0.0765134458443
0.076536808709
0.0765591364599
0.0765823376228
0.0766294819538
0.0769165642017
0.0791127684737
0.0935789658182
0.169963911859
0.0764670917029
0.0764924196759
0.0765166513427
0.0765397011737
0.0765634135749
0.0766101497577
0.0768909594468
0.0790514198973
0.0934020387995
0.169825621558
0.0764446252646
0.0764709631026
0.0764960510053
0.0765198211544
0.0765440746249
0.0765906075116
0.0768664750128
0.0789980182861
0.0932541226295
0.169709597494
0.0763885451321
0.0764160469531
0.0764421728234
0.076466882029
0.0764919479908
0.0765387376593
0.0768112402362
0.0789212472042
0.0931079705369
0.16960629135
0.075993162625
0.0760238547566
0.0760533429593
0.0760814473977
0.0761081543705
0.0761352227204
0.0761836646937
0.0764550909439
0.0785523095872
0.0927150614476
0.169421772238
0.0735037092327
0.073537431898
0.0735701258631
0.0736016492877
0.0736320279416
0.0736629958003
0.0737147036354
0.0739827521464
0.0760552248335
0.0902831874312
0.168263029326
0.0779125321586
0.0779532693392
0.0779920168155
0.0780285785391
0.078062825267
0.0780956135657
0.0781410389005
0.0783650498287
0.0803818930999
0.0969344004461
0.208821440738
)
;
    }
    sides
    {
        lowReCorrection 0;
        blending        stepwise;
        n               2;
        type            epsilonWallFunction;
        value           nonuniform List<scalar> 
11
(
0.0779125321586
0.0779532693392
0.0779920168155
0.0780285785391
0.078062825267
0.0780956135657
0.0781410389005
0.0783650498287
0.0803818930999
0.0969344004461
0.208821440738
)
;
    }
    bottom
    {
        lowReCorrection 0;
        blending        stepwise;
        n               2;
        type            epsilonWallFunction;
        value           nonuniform List<scalar> 0();
    }
    front
    {
        lowReCorrection 0;
        blending        stepwise;
        n               2;
        type            epsilonWallFunction;
        value           nonuniform List<scalar> 
167
(
0.0768972224515
0.0769150867486
0.0769331580418
0.0769556867423
0.0770248123808
0.0774752684428
0.0804817812514
0.0973050656223
0.172807838796
0.0768611980504
0.0768790700783
0.076900868034
0.07696536606
0.077387795258
0.0802664850569
0.096745123182
0.172385357061
0.0768112748679
0.0768291795117
0.0768505193301
0.0769111625829
0.0773090153555
0.0800726194428
0.0962333336208
0.171997953399
0.0767469099871
0.0767651182958
0.07678323672
0.0768043483133
0.0768618010055
0.0772381250636
0.0798983020534
0.0957666834771
0.171643571072
0.076703899197
0.0767225757002
0.0767410428373
0.0767621157538
0.0768169468094
0.0771744394447
0.0797418988012
0.0953425264621
0.171320432905
0.0766642195761
0.0766834901227
0.0767024272532
0.0767236205124
0.0767763154575
0.0771173758448
0.0796019933111
0.0949585435666
0.171026998454
0.0766074167955
0.0766277668185
0.0766477436327
0.0766672518165
0.0766886938793
0.076739669162
0.0770664383864
0.0794773626701
0.0946127051722
0.170761927603
0.0765517800015
0.0765732259948
0.0765944926288
0.07661525114
0.0766354067938
0.0766571997559
0.0767068099077
0.0770212098041
0.0793669542153
0.094303240792
0.170524050147
0.0765195466965
0.0765421158776
0.0765643542367
0.076585953336
0.0766068106337
0.0766290303771
0.0766775770334
0.0769813410916
0.0792698689005
0.0940286189031
0.170312340172
0.0765140869579
0.076537340128
0.0765598160168
0.0765814058201
0.0766041029314
0.0766518412928
0.0769465430105
0.0791853505147
0.0937875418735
0.170125894582
0.0764891484635
0.0765134458443
0.076536808709
0.0765591364599
0.0765823376228
0.0766294819538
0.0769165642017
0.0791127684737
0.0935789658182
0.169963911859
0.0764670917029
0.0764924196759
0.0765166513427
0.0765397011737
0.0765634135749
0.0766101497577
0.0768909594468
0.0790514198973
0.0934020387995
0.169825621558
0.0764446252646
0.0764709631026
0.0764960510053
0.0765198211544
0.0765440746249
0.0765906075116
0.0768664750128
0.0789980182861
0.0932541226295
0.169709597494
0.0763885451321
0.0764160469531
0.0764421728234
0.076466882029
0.0764919479908
0.0765387376593
0.0768112402362
0.0789212472042
0.0931079705369
0.16960629135
0.075993162625
0.0760238547566
0.0760533429593
0.0760814473977
0.0761081543705
0.0761352227204
0.0761836646937
0.0764550909439
0.0785523095872
0.0927150614476
0.169421772238
0.0735037092327
0.073537431898
0.0735701258631
0.0736016492877
0.0736320279416
0.0736629958003
0.0737147036354
0.0739827521464
0.0760552248335
0.0902831874312
0.168263029326
0.0779125321586
0.0779532693392
0.0779920168155
0.0780285785391
0.078062825267
0.0780956135657
0.0781410389005
0.0783650498287
0.0803818930999
0.0969344004461
0.208821440738
)
;
    }
    atmosphere
    {
        type            inletOutlet;
        inletValue      uniform 0.1;
        value           uniform 0.1;
    }
    floatingObject
    {
        lowReCorrection 0;
        blending        stepwise;
        n               2;
        type            epsilonWallFunction;
        value           nonuniform List<scalar> 0();
    }
    procBoundary11to9
    {
        type            processor;
        value           nonuniform List<scalar> 9(0.076954962692 0.0769731439022 0.0769916578283 0.0770152477233 0.0770899413836 0.077572369939 0.080720709176 0.0979166413485 0.17326782734);
    }
    procBoundary11to10
    {
        type            processor;
        value           nonuniform List<scalar> 
23
(
0.076879422954
0.0768434052272
0.0768434052272
0.0767933403527
0.0767933403527
0.0767285281879
0.0766849816781
0.0766446417988
0.0766446417988
0.076586948079
0.076586948079
0.076530449979
0.0764969997332
0.076490344574
0.076490344574
0.0764641820022
0.0764409147825
0.0764172472022
0.0763598630351
0.0763598630351
0.0759614518916
0.0734691076246
0.0778700001499
)
;
    }
}


// ************************************************************************* //
