/*--------------------------------*- C++ -*----------------------------------*\
| =========                 |                                                 |
| \\      /  F ield         | OpenFOAM: The Open Source CFD Toolbox           |
|  \\    /   O peration     | Version:  v2012                                 |
|   \\  /    A nd           | Website:  www.openfoam.com                      |
|    \\/     M anipulation  |                                                 |
\*---------------------------------------------------------------------------*/
FoamFile
{
    version     2.0;
    format      ascii;
    class       surfaceVectorField;
    location    "0.4";
    object      Uf;
}
// * * * * * * * * * * * * * * * * * * * * * * * * * * * * * * * * * * * * * //

dimensions      [0 1 -1 0 0 0 0];


internalField   nonuniform List<vector> 
304
(
(-0.0525084546217 -0.0515539018113 1.32192162343e-24)
(-0.0507645977158 -0.0558506437632 6.9908794945e-25)
(-0.0495100238793 -0.0529979201734 -1.83128319569e-24)
(-0.0487676966457 -0.0600766266149 -3.89972231266e-24)
(-0.047687203773 -0.0571523406981 3.80706527592e-24)
(-0.0465026468382 -0.0642023744883 5.24541347512e-24)
(-0.0456181561917 -0.0612135402278 -8.44064879803e-24)
(-0.0439544276076 -0.0681944746139 6.2530821417e-23)
(-0.0432900961263 -0.0651584617557 2.72664212598e-23)
(-0.0410981386701 -0.0720164192619 1.81734748218e-22)
(-0.0406892348927 -0.0689952140692 1.10390492698e-22)
(-0.0373747994096 -0.0756301303503 4.0064687239e-22)
(-0.0377802315133 -0.072499909952 -1.06721511736e-22)
(-0.0296387946602 -0.0789085926592 5.35681161845e-22)
(-0.0335252597783 -0.0740514097306 5.43827475727e-22)
(-0.0228764173394 -0.0798454175954 5.24836369146e-22)
(-0.046620034262 -0.0540277714421 1.27669413078e-24)
(-0.0454448214121 -0.0513204544363 -2.25110626102e-24)
(-0.0447154596681 -0.0580088691442 -7.33861209449e-25)
(-0.0437061537597 -0.0552479676588 1.16211679859e-24)
(-0.0425724110346 -0.061879272102 1.35803589866e-23)
(-0.0417477637566 -0.0590719035715 -6.55630619469e-24)
(-0.0401789840826 -0.065609432948 7.51260925411e-23)
(-0.0395599068867 -0.0627715752043 2.4181634715e-23)
(-0.0375124536356 -0.0691674238571 -1.78065767256e-22)
(-0.0371311895932 -0.0663544080009 8.37573217038e-23)
(-0.0340581235978 -0.0725192045123 3.64590916003e-23)
(-0.0344283904537 -0.069621170776 -2.43878391423e-22)
(-0.026862173556 -0.0755461955217 5.32982683028e-22)
(-0.0304982267167 -0.0710958482704 4.23763904203e-22)
(-0.0205971564549 -0.0763707361517 3.6096535045e-22)
(-0.0427012093391 -0.0522895209411 -2.36568359322e-24)
(-0.0415878240242 -0.0497219770545 -1.47677791435e-25)
(-0.0408993622561 -0.0560520265391 -4.66032818665e-24)
(-0.0399436849717 -0.0534463060934 3.49864617749e-24)
(-0.0388855224289 -0.0596961192097 4.04496953374e-24)
(-0.0381036716201 -0.0570593070097 -3.62006098445e-24)
(-0.0366501845552 -0.0631955939881 3.28128638777e-23)
(-0.0360603997702 -0.0605423499796 1.23009949788e-23)
(-0.0341727443853 -0.0665224281565 1.7944697537e-23)
(-0.0338042998925 -0.0639024846243 3.72800107824e-23)
(-0.0309808712491 -0.069646044187 1.4342642118e-22)
(-0.0313047176444 -0.0669608962439 -8.57323755289e-23)
(-0.0243194609982 -0.0724555809601 2.51746571626e-22)
(-0.0276886512984 -0.0683692232235 2.97895189904e-22)
(-0.0185315069102 -0.0732000917662 2.18008842331e-22)
(-0.0404942943834 -0.0469760902386 4.11728788745e-24)
(-0.0392913131868 -0.0445731858337 4.10291283062e-24)
(-0.0389845794221 -0.0506461090451 5.71665197927e-24)
(-0.0379178656532 -0.0482124540455 1.66678262092e-24)
(-0.0372932632924 -0.05421369453 4.53891337969e-24)
(-0.0363761281501 -0.0517551632687 8.61103289829e-24)
(-0.035413662958 -0.0576572793389 4.63596446061e-24)
(-0.0346600841985 -0.0551808142968 3.6731468391e-24)
(-0.0333381026864 -0.0609535119846 1.67681418835e-23)
(-0.0327641340808 -0.0584725498398 9.67842780926e-24)
(-0.0310480575346 -0.0640776779619 -6.63970622835e-23)
(-0.0306800829418 -0.0616372576339 4.88575784399e-23)
(-0.0281116907785 -0.0670021697565 6.87363931951e-23)
(-0.0283801741615 -0.0645130021961 9.8935917933e-24)
(-0.0219758566105 -0.0696231043519 2.64157460609e-22)
(-0.0250676829551 -0.0658636047576 2.61111129891e-22)
(-0.0166451690056 -0.0703133138564 1.89232541618e-22)
(-0.0368618360081 -0.0456028953814 1.65240756409e-24)
(-0.0356986211482 -0.0433162952398 8.29448697469e-26)
(-0.0354487417082 -0.0491053280616 4.56116353994e-24)
(-0.0344154880618 -0.0467995399703 -8.4806421314e-25)
(-0.0338737270453 -0.0524993847069 7.7452663577e-24)
(-0.0329821000178 -0.0501803151795 5.9132081707e-24)
(-0.0321317593729 -0.0557654848299 8.71561018775e-24)
(-0.0313939826955 -0.0534398481458 9.40411172596e-25)
(-0.0302165381794 -0.0588826942978 4.17678643657e-23)
(-0.0296468982524 -0.0565627974332 1.18179671243e-23)
(-0.0281115688339 -0.0618290781838 1.25148232517e-22)
(-0.0277336554217 -0.059556047383 7.43384162607e-23)
(-0.0254237232089 -0.0645795801571 2.02268328489e-22)
(-0.0256296295185 -0.0622715575909 1.8131966389e-22)
(-0.0198026168471 -0.0670365703677 1.86186210899e-22)
(-0.0226106640693 -0.0635716304219 2.49979484008e-22)
(-0.0149103329492 -0.0676933016523 1.94395549763e-23)
(-0.033384775779 -0.0443202466571 -2.41752690749e-24)
(-0.0322498145271 -0.042145285412 4.11794946967e-25)
(-0.0320741556714 -0.0476730199749 5.03980417624e-25)
(-0.0310627686333 -0.045489085143 -4.00292284632e-24)
(-0.0306196507362 -0.0509129928576 -8.91647014407e-25)
(-0.0297421568904 -0.0487259666477 5.94332299537e-24)
(-0.0290174976533 -0.0540222771842 4.04276810918e-24)
(-0.0282847040247 -0.0518386115839 -4.84440888144e-24)
(-0.0272624147011 -0.0569819681998 4.43885190194e-23)
(-0.026687189073 -0.0548129407206 1.96941681527e-23)
(-0.0253398773883 -0.0597724561347 1.30509847634e-22)
(-0.0249431355227 -0.0576559535747 9.55373489014e-23)
(-0.0228937875981 -0.0623708647772 2.29030819408e-22)
(-0.0230311869971 -0.0602309503231 2.24102425108e-23)
(-0.0177757260054 -0.0646851345746 8.32328280847e-23)
(-0.0202963713989 -0.0614865678828 2.92422093278e-22)
(-0.0133041750614 -0.0653254562075 -1.96502689474e-22)
(-0.031126421479 -0.0398136024361 -2.90035588859e-25)
(-0.0299015296105 -0.0377502279417 -1.35203805147e-24)
(-0.030046628059 -0.0431338262197 -1.17360099187e-24)
(-0.0289296571149 -0.0410656461949 3.82642031527e-24)
(-0.0288428952292 -0.0463535448413 1.43641973142e-24)
(-0.027843101267 -0.0442855073165 -1.74927153142e-24)
(-0.0275119133597 -0.0494572095194 1.99056112833e-24)
(-0.0266385257259 -0.047395132974 8.7273791933e-24)
(-0.0260508835 -0.0524283598026 1.08069911621e-23)
(-0.0253135658656 -0.050378430696 -5.79219243651e-25)
(-0.0244552632621 -0.0552497760714 7.08429980347e-23)
(-0.0238657654962 -0.0532223438129 2.22928045059e-23)
(-0.0227124252756 -0.0579037557793 -1.25622562216e-23)
(-0.0222891343864 -0.0559340719938 1.13039098237e-22)
(-0.0205017407187 -0.0603692816861 8.580151638e-23)
(-0.0205656368084 -0.0583860223995 5.93352925472e-23)
(-0.0158749302562 -0.0625592062705 1.26865757187e-23)
(-0.018106430189 -0.0596023681374 3.02318374216e-22)
(-0.011807793331 -0.0631972462807 -1.97583751876e-22)
(-0.0286941655976 -0.0355459462965 2.41959871801e-25)
(-0.0273893634242 -0.0335771921057 2.16012410857e-24)
(-0.0278161417722 -0.0388420505839 2.76441785266e-24)
(-0.0266054895404 -0.0368723398952 1.39355078391e-24)
(-0.0268319713033 -0.0420480016002 3.25074977571e-24)
(-0.0257237639813 -0.0400816241418 4.4324393418e-24)
(-0.025738418491 -0.0451501130049 5.54168793045e-24)
(-0.0247410388807 -0.0431921052535 1.53170437319e-24)
(-0.0245330676201 -0.048133832811 6.15759882132e-24)
(-0.0236548416865 -0.046189925869 5.91000381695e-24)
(-0.0232138572478 -0.0509838812961 1.09065941002e-23)
(-0.0224635363093 -0.0490600170893 3.51979665069e-24)
(-0.0217767768012 -0.0536844008909 6.44889047082e-23)
(-0.0211652479663 -0.0517901171135 1.18683727941e-23)
(-0.0202110126045 -0.0562192103636 1.84936647006e-22)
(-0.0197543138578 -0.0543876800298 7.89500601241e-23)
(-0.018229971319 -0.0585688349744 2.75852150383e-22)
(-0.0182159978891 -0.0567322052403 3.21092295126e-22)
(-0.0140830386798 -0.0606503817869 9.20480466217e-23)
(-0.0160248727121 -0.057913739766 2.44143001139e-22)
(-0.0104054784158 -0.0612978673955 -6.84848391929e-23)
(-0.0254037522914 -0.0347622287511 3.31171502068e-24)
(-0.0246116567673 -0.0379607842284 3.06157227305e-24)
(-0.0234069968758 -0.0360803906492 2.61161133773e-24)
(-0.0237263256535 -0.0410660542952 2.71339393928e-24)
(-0.022618547128 -0.0391964437716 3.8060131979e-24)
(-0.022745358679 -0.0440650371371 1.90002025969e-24)
(-0.0217421031217 -0.0422112834519 1.33841367494e-24)
(-0.021667055731 -0.0469440078043 3.27220164633e-24)
(-0.0207759083304 -0.0451117658626 3.83081545946e-24)
(-0.0204899420952 -0.0496886483897 4.48157534455e-24)
(-0.0197189204482 -0.0478836614758 5.74095476713e-24)
(-0.0192104072506 -0.0522841636131 2.632952821e-23)
(-0.0185697430363 -0.0505152935197 6.29822328566e-24)
(-0.017819373631 -0.0547155038387 2.15105708244e-22)
(-0.0173229733015 -0.0530144012514 5.20540414099e-23)
(-0.0160629979713 -0.0569643818118 2.89383145881e-22)
(-0.0159671147573 -0.0552656837115 2.44254682388e-22)
(-0.012385446586 -0.0589514262392 8.36101153243e-23)
(-0.0140378236091 -0.0564162986177 2.30712390973e-22)
(-0.00908429514883 -0.0596179736647 1.9194503525e-23)
(-0.0215001326968 -0.0371728605971 3.35605226258e-24)
(-0.0202939313248 -0.0353772695626 2.68114487673e-24)
(-0.0207160151066 -0.0401903993512 2.43103293355e-24)
(-0.0196010570241 -0.0384124644076 1.51708241677e-24)
(-0.0198493184992 -0.0430999218499 3.26920887471e-24)
(-0.018832625413 -0.0413447259737 1.12860061701e-25)
(-0.0188989394636 -0.0458883964845 6.29956858026e-24)
(-0.0179874728159 -0.044161532581 4.55930448341e-24)
(-0.0178639051762 -0.048542280314 7.55760270823e-24)
(-0.0170650660608 -0.0468493592548 4.69851986987e-24)
(-0.0167409689689 -0.051047570948 3.20227364855e-23)
(-0.0160644713049 -0.0493969446802 7.5211687774e-24)
(-0.0155227640274 -0.0533899387635 8.12030155537e-23)
(-0.0149806148106 -0.0518123533645 4.55941681759e-23)
(-0.013987135757 -0.0555518266443 1.8558392748e-22)
(-0.0138052309698 -0.0539836509664 1.15850984889e-22)
(-0.0107698884481 -0.0574563882182 1.66296779174e-22)
(-0.0121332629439 -0.0551069184148 2.60611731441e-22)
(-0.00783402826528 -0.0581494510049 9.26347611337e-23)
(-0.0184692182659 -0.0364805189796 8.42175030923e-25)
(-0.0172544964238 -0.0347651428349 1.81099720861e-24)
(-0.0177880073102 -0.0394227424953 -8.01090455083e-25)
(-0.0166588779091 -0.0377313808723 1.43695734847e-24)
(-0.0170366773756 -0.0422557998571 1.4029556704e-24)
(-0.01599961249 -0.040593533189 9.61629767815e-26)
(-0.0162146405614 -0.044967279524 2.95825577301e-24)
(-0.0152760340889 -0.0433396501368 4.26106230112e-24)
(-0.0153214130085 -0.0475442952117 4.66208593904e-24)
(-0.0144880856776 -0.0459568480006 2.00242649286e-24)
(-0.0143542060098 -0.0499734207064 2.10926004678e-23)
(-0.0136353726125 -0.0484341978108 8.49147742446e-24)
(-0.0133074795406 -0.0522406411621 8.02421375115e-23)
(-0.0127134134759 -0.0507802481746 4.70573077344e-23)
(-0.0119901499854 -0.0543285290271 1.9087878885e-22)
(-0.0117173554796 -0.0528847448461 1.50480391845e-22)
(-0.00922648351509 -0.0561610044452 1.86949713401e-22)
(-0.0103007934524 -0.053984550345 3.05089897147e-22)
(-0.00664779902493 -0.0568851836157 1.27705564024e-22)
(-0.0155070696344 -0.0358854382188 2.40577952616e-24)
(-0.0142773572511 -0.0342456195149 1.63101888863e-24)
(-0.0149298984304 -0.0387642328111 2.33421078034e-24)
(-0.0137801255451 -0.037154353574 4.91124606482e-24)
(-0.0142945170784 -0.0415332161208 2.9542696075e-24)
(-0.0132306737973 -0.0399583065544 1.70014395185e-24)
(-0.0136007870094 -0.0441805762089 3.30523302097e-24)
(-0.0126287186501 -0.0426461003533 5.59173449925e-24)
(-0.0128487545049 -0.046694069 5.83181797829e-24)
(-0.0119746338709 -0.0452055248658 2.86552982509e-24)
(-0.0120363310821 -0.0490607844087 3.44561846911e-23)
(-0.0112686926032 -0.0476260656226 1.29724430246e-23)
(-0.0111601340121 -0.0512667598097 1.17295562068e-22)
(-0.0105074658243 -0.049917259407 7.08870761396e-23)
(-0.0100604571907 -0.0532941027784 2.64691500142e-22)
(-0.00969003255381 -0.0519694967493 2.01196347891e-22)
(-0.00774768015219 -0.055063967916 2.45845747771e-22)
(-0.00853093819619 -0.0530516489252 3.99220358838e-22)
(-0.00552429933608 -0.0558187945767 1.33290400836e-22)
(-0.0126029216177 -0.0353887581108 4.13648542729e-24)
(-0.0113515150451 -0.0338196391898 4.34900041255e-24)
(-0.0121304020185 -0.0382155245194 4.27717923633e-24)
(-0.0109534024495 -0.0366818993195 1.31413336773e-23)
(-0.0116110261911 -0.0409322444059 4.3376088436e-24)
(-0.0105140012926 -0.0394390086001 5.81498687344e-24)
(-0.0110450025926 -0.0435277552208 5.15203130337e-24)
(-0.010033256357 -0.0420801830414 6.68840531365e-24)
(-0.0104329201843 -0.0459906137761 1.00061548714e-23)
(-0.00951182330757 -0.0445940237094 9.75572757056e-24)
(-0.00977366884064 -0.0483086976871 4.94033344731e-23)
(-0.00895065164051 -0.0469707330288 2.28994167716e-23)
(-0.009066463731 -0.0504683581697 1.54787861963e-22)
(-0.00834784175277 -0.049221997846 6.58357130759e-23)
(-0.00818518118963 -0.0524510700565 3.35725206588e-22)
(-0.0077073467602 -0.0512399290186 2.41198231446e-22)
(-0.00632770314477 -0.0541695153068 2.86665011904e-22)
(-0.00681250679383 -0.0523162046117 3.90512840139e-22)
(-0.00447305589291 -0.0549449807658 1.05554239089e-22)
(-0.00974454515318 -0.03499083617 1.33538486626e-23)
(-0.00846632317607 -0.03348613284 1.06112836397e-23)
(-0.00937699556806 -0.0377764924994 1.46791413144e-23)
(-0.00816779169449 -0.0363124312792 4.02704705868e-23)
(-0.00897335388917 -0.0404521131091 8.16578334348e-24)
(-0.00783843084773 -0.0390333670199 1.4548611853e-23)
(-0.00853394896571 -0.0430072838743 1.12921015808e-23)
(-0.00747813978686 -0.0416387196031 2.17954803166e-23)
(-0.00805971197881 -0.045431710572 2.26489894708e-23)
(-0.00708745061714 -0.0441180305402 3.33446857339e-23)
(-0.00755049334006 -0.0477148796801 3.93317953744e-23)
(-0.00666753373558 -0.0464626110925 5.44915139196e-23)
(-0.00700880366515 -0.0498450572705 1.52246082559e-22)
(-0.00621770728043 -0.0486890947554 7.89308337857e-23)
(-0.00635087450274 -0.0518041320828 2.95985864997e-22)
(-0.00574830427196 -0.0506994671744 1.85076136688e-22)
(-0.00497159031202 -0.0534894033994 2.09402067324e-22)
(-0.00512725235645 -0.0517944847933 5.32844797013e-22)
(-0.00352065484049 -0.054257970544 5.15925409464e-23)
(-0.00712878513568 -0.0318339640523 -1.1197913624e-23)
(-0.00579002937463 -0.0303322269568 -1.15652711155e-22)
(-0.0068934380232 -0.0346886465077 3.75279055639e-23)
(-0.00561168023008 -0.0332268439366 5.67850087189e-23)
(-0.00663265448528 -0.0374434040589 4.01399411254e-23)
(-0.0054130811941 -0.0360260623002 1.08469358679e-22)
(-0.00634610191504 -0.0400881454675 2.81783088262e-23)
(-0.00519374386389 -0.0387197479015 6.10855304697e-23)
(-0.00603381734368 -0.0426131812845 4.38480644697e-23)
(-0.00495316275802 -0.0412980714718 -1.23356577853e-23)
(-0.00569660110079 -0.0450098131042 6.51872101827e-23)
(-0.00469087934236 -0.0437515795271 2.87370082395e-23)
(-0.00533609434332 -0.0472708398421 9.4090552331e-23)
(-0.00440656389304 -0.0460742250432 1.53970797182e-22)
(-0.00496503818401 -0.0493918377887 1.11760887914e-22)
(-0.00409675824448 -0.0482983250097 9.83019373706e-23)
(-0.00458830791162 -0.0513684763511 4.21935068703e-22)
(-0.00377170112992 -0.0503866078693 1.53832796815e-22)
(-0.00387237407808 -0.0530351210133 3.75035270636e-22)
(-0.00346062511615 -0.0516272489616 5.83153522146e-22)
(-0.00271449201714 -0.0536968326074 -3.35169987436e-22)
(-0.00420771324732 -0.0316122861053 -4.76697888118e-23)
(-0.0028687199594 -0.0299693002101 -4.73730613596e-23)
(-0.00406979257721 -0.0344435838423 1.27726461834e-22)
(-0.00278042461696 -0.032827936293 6.26949219107e-23)
(-0.00391650551676 -0.0371747675664 1.29414948023e-22)
(-0.00268194801921 -0.0355918143516 1.3974455172e-22)
(-0.003747009736 -0.0397958711184 2.05715638582e-23)
(-0.00257269752464 -0.0382506456261 6.98545943478e-23)
(-0.00355952768572 -0.0422976598132 -2.74467140155e-23)
(-0.00245143680128 -0.0407938375007 7.16425150089e-23)
(-0.00334962173612 -0.0446739472491 1.17520595239e-22)
(-0.00231465509949 -0.0432100288528 7.53920990303e-23)
(-0.00310648783823 -0.0469281231719 1.58182182222e-22)
(-0.00215244759913 -0.0454894848134 2.17012236451e-22)
(-0.00280283516088 -0.0490814300851 1.40373846272e-22)
(-0.00194350075864 -0.0476392436782 2.61384516089e-22)
(-0.00235118048343 -0.0512376369744 3.15051250258e-22)
(-0.00161552892547 -0.04954138957 2.5087822316e-22)
(-0.00167177953728 -0.0534357811487 -1.27051735926e-22)
(-0.0012624975525 -0.0506622249624 -6.70321937021e-22)
(-0.00291963063957 -0.0535563633553 -3.85297910909e-22)
(-0.00164197077191 -0.0310339246687 6.2991649363e-23)
(-0.00158409195873 -0.0338143732953 7.47130117972e-23)
(-0.00151991276655 -0.0364963489328 8.0184198045e-23)
(-0.00144872188921 -0.0390690775921 1.20925545499e-22)
(-0.00136850451868 -0.0415205466139 1.74481328055e-22)
(-0.00127311198597 -0.0438352333944 1.74883740242e-22)
(-0.00114498938844 -0.0459877086135 3.20214570317e-22)
(-0.000933523614175 -0.0479312306831 3.71888892977e-22)
(-0.000834370688528 -0.0495467724948 -7.34494964119e-22)
(-0.00324345258009 -0.0508092738973 -9.28568112005e-22)
)
;

boundaryField
{
    back
    {
        type            calculated;
        value           uniform (0 0 0);
    }
    sides
    {
        type            calculated;
        value           uniform (0 0 0);
    }
    bottom
    {
        type            calculated;
        value           nonuniform List<vector> 0();
    }
    front
    {
        type            calculated;
        value           uniform (0 0 0);
    }
    atmosphere
    {
        type            calculated;
        value           nonuniform List<vector> 
17
(
(0 -0.0814443552703 0)
(0 -0.0778254459084 0)
(0 -0.0745212216592 0)
(0 -0.0715094350808 0)
(0 -0.068771401116 0)
(0 -0.0662912892937 0)
(0 -0.0640555869189 0)
(0 -0.0620526976103 0)
(0 -0.0602726123302 0)
(0 -0.0587066596458 0)
(0 -0.057347239575 0)
(0 -0.0561874747638 0)
(0 -0.055220767045 0)
(0 -0.054441813269 0)
(0 -0.0538412925314 0)
(0 -0.0532306511834 0)
(0 -0.0537289066185 0)
)
;
    }
    floatingObject
    {
        type            calculated;
        value           nonuniform List<vector> 0();
    }
    procBoundary11to9
    {
        type            processor;
        value           nonuniform List<vector> 9((-0.0554421105114 -0.0502849477492 7.46277023983e-24) (-0.0538066077831 -0.0547414967104 4.68755822387e-25) (-0.0519130882236 -0.0591489955762 6.88298605619e-24) (-0.0497438504008 -0.0634769462058 4.37986253232e-25) (-0.0472822166531 -0.0676996223881 1.46772526479e-23) (-0.0445112388434 -0.0718262450111 9.36803018663e-23) (-0.0413940344958 -0.0756031317633 2.03155691383e-22) (-0.0368037931309 -0.0772443324407 3.77110364661e-22) (-0.0254122085857 -0.0836481992479 4.48623205977e-22));
    }
    procBoundary11to10
    {
        type            processor;
        value           nonuniform List<vector> 
23
(
(-0.0540159270046 -0.0472119240199 1.37844701839e-24)
(-0.0511003268516 -0.048777786113 3.9526634288e-24)
(-0.0482977245952 -0.0499624192816 7.99458609678e-25)
(-0.0442998888254 -0.0484324039286 -6.75004796882e-25)
(-0.0430440607174 -0.0459088466585 3.589960882e-24)
(-0.041830175581 -0.0432231666866 3.64616201443e-24)
(-0.0381189209179 -0.0420100636992 1.38259836214e-24)
(-0.0345559639686 -0.0408713271649 -1.2209030062e-24)
(-0.0333077350987 -0.0387102062136 -1.92273354203e-24)
(-0.0320865643482 -0.0364072517651 -5.85918167883e-25)
(-0.030762854969 -0.0343528031844 1.00807975539e-24)
(-0.0294699165694 -0.0321723154081 9.90652263036e-25)
(-0.0261055531301 -0.0314826057754 3.83840369075e-24)
(-0.0241098067641 -0.0328755233572 3.93647935494e-24)
(-0.0222033842044 -0.0340597217479 3.23637567199e-24)
(-0.0190814552666 -0.0334410207453 3.21330816289e-24)
(-0.0160267251891 -0.0329082446414 1.97373047816e-24)
(-0.0130289588831 -0.0324628507353 2.67447646596e-24)
(-0.0100762371036 -0.0321055935446 1.46712910957e-23)
(-0.00873445033455 -0.0305647965278 -7.13790616798e-24)
(-0.00733920617994 -0.0288894901442 6.79245259949e-24)
(-0.00433082213501 -0.0286909253289 3.67862503366e-24)
(-0.00169389054845 -0.0281651755295 1.04744560068e-22)
)
;
    }
}


// ************************************************************************* //
