/*--------------------------------*- C++ -*----------------------------------*\
| =========                 |                                                 |
| \\      /  F ield         | OpenFOAM: The Open Source CFD Toolbox           |
|  \\    /   O peration     | Version:  v2012                                 |
|   \\  /    A nd           | Website:  www.openfoam.com                      |
|    \\/     M anipulation  |                                                 |
\*---------------------------------------------------------------------------*/
FoamFile
{
    version     2.0;
    format      ascii;
    class       surfaceScalarField;
    location    "1.1";
    object      alphaPhi0.water;
}
// * * * * * * * * * * * * * * * * * * * * * * * * * * * * * * * * * * * * * //

dimensions      [0 3 -1 0 0 0 0];
oriented        oriented;


internalField   nonuniform List<scalar> 
293
(
0.000563156795536
-1.22693827406e-05
0.000790110333221
0.000312958463694
0.0009780704655
0.000377775980212
0.00119097844909
0.000374162403701
0.00126813417761
0.000542819941404
0.00103370079559
0.000851764118421
8.94450614687e-08
0.00184584079854
-1.05469579728e-07
-1.22717580587e-05
-1.63600001931e-08
0.000300687427903
-1.95003718273e-08
0.000678468218009
-2.07272272835e-08
0.00105263725161
-1.97692911746e-08
0.00159546609324
-1.62644309609e-08
0.00244723939784
-1.23440518209e-08
0.00429309308067
-1.25947107889e-08
-6.29865953382e-09
-1.22714938495e-05
1.22358078149e-05
0.000300688544913
-0.000312996571872
0.000678467844788
-0.000377813821022
0.00105263548954
-0.000374198192248
0.00159545934345
-0.000542845909955
0.00244722229966
-0.000851777764794
0.00429304624006
-0.00184583655335
1.05586075095e-07
0.000563161140652
0.000790111273739
0.000978068462413
-0.00056578470523
0.001190975845
-0.00058711471398
0.00126813136526
-0.000620006197511
0.00103369864181
-0.000617347088127
8.93014650603e-08
-0.000444310046538
1.94885651095e-07
0.00123480867609
-0.000661193833591
0.00135597093691
-0.000708284487777
0.0014505651392
-0.000714604038633
0.00143680377855
-0.000603585987741
0.000341523021547
0.000161210916072
0.000341717907173
0.00126208493759
-0.000777888678873
0.00144506035536
-0.000891263877763
0.00180827758817
-0.00107782295041
0.00253601781161
-0.00133132663067
0.00482703134419
-0.00212980168017
-0.000954857817169
0.00111258145026
-0.000861804808426
0.0012461101057
-0.00102479371208
0.00148461685049
-0.00131632966642
0.0019247423188
-0.00177145186822
0.0027987766344
-0.00288116930943
-1.8470135422e-05
0.000935931014961
-0.000899114677354
0.000965231057035
-0.00105409289393
0.000896986787757
-0.00124808440015
0.00062376096712
-0.00149822560728
-7.12716683421e-06
-0.00172109757714
-5.52897000799e-07
0.00077892998886
-0.000908754958512
0.000767209589615
-0.00104237048865
0.000710284384016
-0.00119115769675
0.000560886366595
-0.00134882767601
-1.17537441029e-06
-0.00100564428626
2.86059160271e-08
0.000638208456816
-0.00089398959298
0.00060026951078
-0.00100442921474
0.000531287415681
-0.00112217410972
0.000351574159625
-0.00116911436981
-2.86898799193e-08
-0.000502013730671
-8.39035165864e-11
0.000531599127017
-0.000860875999077
0.000460489907666
-0.000933318067487
0.000362829144732
-0.00102451221351
0.000304409455032
-0.00111069466642
-1.12247184864e-08
5.68499172336e-05
-1.13384871972e-08
0.000491332410175
-0.000841584535925
0.000407413996868
-0.000849398612056
0.000177029190328
-0.000794126843469
-0.000318742902054
-0.000614922575654
-1.68109843176e-09
6.90837595992e-05
7.36547636299e-07
0.000493930499986
-0.000868784770948
0.000565851215205
-0.000921319423677
0.000760569783595
-0.000988845557786
0.00115224154474
-0.00100659440984
0.00281824675341
-0.0016037399558
-1.40324221068e-11
0.000436032806368
-0.000886463251507
0.000463818438386
-0.000949106242784
0.000497961650659
-0.00102298952255
0.000608741681377
-0.00111737465209
-1.07656655437e-11
-0.000873089554857
-2.49940782886e-11
0.000374890773611
-0.000891905785079
0.000368543801464
-0.000942761282885
0.000363980854241
-0.00101842772354
0.000396294365355
-0.001149688546
-2.24458902796e-10
-0.000295275355392
5.9813450711e-11
0.000333068700768
-0.000897994430914
0.000319402213748
-0.000929097246628
0.000240758751599
-0.000939785629275
2.6217902646e-06
-0.000911551605599
-3.34507398858e-07
-0.000318085781713
-3.36212096314e-07
0.000299109132218
-0.000909895556468
0.000326585185618
-0.000956575830608
0.000406069084802
-0.00101927091958
0.000535671948325
-0.00104115516599
0.00142431506581
-0.00130097384982
4.12334223819e-06
0.000253237082279
-0.000915938671883
0.000255445963319
-0.000958786969258
0.000243132375831
-0.00100695847027
0.000272594774679
-0.00107061757345
-3.55286424031e-06
-0.000845668583139
5.69627335066e-07
0.000210983015884
-0.000917486265862
0.000205975589859
-0.000953781277994
0.0001929196767
-0.000993903382515
0.000160203706851
-0.00103790155245
-7.99924978503e-07
-0.00052865575521
-8.86090735581e-08
0.000175307074209
-0.000917166865995
0.000166660419937
-0.000945135773165
0.000140939050568
-0.000968182531527
7.54300157755e-05
-0.000972402124474
-3.52055720973e-06
-0.00041488780039
-1.38475251569e-06
0.000147429445235
-0.000918533769559
0.000143730892366
-0.000941437869394
0.000128980687003
-0.000953432627886
9.95925826316e-05
-0.000942307516587
2.60711324996e-06
-0.000354798020413
-4.16384529436e-07
0.000123806019926
-0.000923313229916
0.000128427510354
-0.000946059617431
0.000135198245117
-0.000960203588777
0.000117305669856
-0.000950353269439
-1.07239660709e-06
-0.000331750902741
3.12049144922e-08
9.96928420891e-05
-0.000930681507569
0.00010968815375
-0.000956054946472
0.000125748946894
-0.00097626451232
0.000108288210209
-0.000956851945858
-3.58620241077e-06
-0.000295368332775
-7.75466605941e-07
7.24349334916e-05
8.40816589705e-05
0.000102270839353
-0.000994453805682
8.67497622983e-05
-0.000963294229015
-4.1568826949e-08
-0.00026270424701
-6.2874657783e-07
6.63271591982e-05
-0.00100945218188
5.6213136394e-05
-0.000965728660273
4.77563614244e-07
-0.000235299669859
-1.12563101046e-07
1.67260438822e-05
-0.00101123272431
1.69612379791e-05
-0.000961540025713
1.08832845405e-07
-0.000211881331311
3.04004381079e-17
-2.79860111896e-05
-1.35304643841e-05
3.56157785453e-16
)
;

boundaryField
{
    back
    {
        type            calculated;
        value           uniform 0;
    }
    sides
    {
        type            calculated;
        value           nonuniform List<scalar> 0();
    }
    bottom
    {
        type            calculated;
        value           nonuniform List<scalar> 0();
    }
    front
    {
        type            calculated;
        value           uniform 0;
    }
    atmosphere
    {
        type            calculated;
        value           nonuniform List<scalar> 
27
(
4.56318388553e-14
0.00437116268414
0.00437110247804
4.56365662288e-14
-8.43018627128e-17
0.00579943146329
0.00223943691165
-2.51202662897e-05
-1.75687740549e-06
-5.90430638407e-24
-7.08564390117e-25
0
0.00282495411227
2.07145675583e-19
4.64637128477e-20
0
0.00132066781463
-2.69336219161e-14
-5.0670901577e-16
-3.9536168118e-14
0
3.83374153781e-07
1.07572137761e-07
2.92085998943e-08
2.28555150976e-09
-3.90563667383e-09
0
)
;
    }
    floatingObject
    {
        type            calculated;
        value           uniform 0;
    }
    procBoundary6to3
    {
        type            processor;
        value           nonuniform List<scalar> 8(-0.000550912904128 -0.000539940016799 -0.000565763973305 -0.000587093956992 -0.000619991347914 -0.000617337282392 -0.000444313192918 1.94912747148e-07);
    }
    procBoundary6to7
    {
        type            processor;
        value           nonuniform List<scalar> 
11
(
-0.000209440049518
-0.000175629562512
-0.000146064347536
-0.000119027355891
-9.2324690528e-05
-6.41826234806e-05
-0.0009389337238
-0.00096770164576
-5.13287829722e-05
-1.4945501289e-05
3.27387328539e-05
)
;
    }
    procBoundary6to8
    {
        type            processor;
        value           nonuniform List<scalar> 
16
(
-0.000550943081729
-0.000539963394354
-0.00113941693855
-0.00114540003777
-0.0010286699912
-0.000898621573998
-0.000769287193527
-0.000652969840031
-0.000564708796492
-0.000510621310527
-0.000466729913347
-0.000418356378929
-0.00036945227974
-0.000326985230368
-0.000287214034271
-0.000247200014408
)
;
    }
    procBoundary6to9
    {
        type            processor;
        value           nonuniform List<scalar> 4(-0.00101598544615 -0.000949949660881 -0.000190667638363 1.21326292139e-16);
    }
}


// ************************************************************************* //
