/*--------------------------------*- C++ -*----------------------------------*\
| =========                 |                                                 |
| \\      /  F ield         | OpenFOAM: The Open Source CFD Toolbox           |
|  \\    /   O peration     | Version:  v2012                                 |
|   \\  /    A nd           | Website:  www.openfoam.com                      |
|    \\/     M anipulation  |                                                 |
\*---------------------------------------------------------------------------*/
FoamFile
{
    version     2.0;
    format      ascii;
    class       volScalarField;
    location    "1.1";
    object      rAU;
}
// * * * * * * * * * * * * * * * * * * * * * * * * * * * * * * * * * * * * * //

dimensions      [-1 3 1 0 0 0 0];


internalField   nonuniform List<scalar> 
164
(
8.22513858557e-06
8.07180635354e-06
8.00994396859e-06
8.13907699893e-06
8.03227585104e-06
7.85104853797e-06
9.7053337605e-06
0.00126277081742
8.24858379953e-06
8.17662711039e-06
8.16316897577e-06
8.16104681772e-06
8.01725006865e-06
7.65649045361e-06
7.15069853823e-06
1.94533415769e-05
8.24858473294e-06
8.17662584068e-06
8.16316699438e-06
8.16104263649e-06
8.01724226647e-06
7.65649021918e-06
7.15070527891e-06
1.94535599709e-05
8.22514532483e-06
8.07180695225e-06
8.00994006921e-06
8.13907526444e-06
8.03226595625e-06
7.85104395425e-06
9.70543680729e-06
0.00126277978337
7.90876947438e-06
8.08791127447e-06
8.08445892426e-06
7.83276836518e-06
9.84141593341e-06
0.000514562055652
8.11543445543e-06
8.10094213299e-06
7.95283451878e-06
7.59349112392e-06
7.09930859521e-06
1.55754996844e-05
8.1392009081e-06
8.08682041039e-06
7.93544658502e-06
7.67575281884e-06
7.13937543811e-06
3.27379468447e-05
8.14298625129e-06
8.09239134492e-06
8.04292210175e-06
7.84696524527e-06
1.10481767315e-05
0.00111223673894
8.13638717508e-06
8.12739565827e-06
8.12327924422e-06
7.99401614496e-06
1.22232799464e-05
0.00202933017356
8.11423363268e-06
8.11644154378e-06
8.14314350999e-06
8.14119922656e-06
1.26933021804e-05
0.00222183608174
8.06345287204e-06
8.00660063667e-06
8.0228200179e-06
8.04271287232e-06
1.42546020023e-05
0.00229593479071
8.14787674039e-06
7.89945103259e-06
7.89546464381e-06
7.94477227882e-06
9.18800102399e-06
0.00150332969401
8.21912370584e-06
8.0267191375e-06
7.89504519954e-06
7.77586921339e-06
7.51156195678e-06
2.89285953076e-05
8.15797822491e-06
8.10414602877e-06
8.04735739905e-06
7.96882094975e-06
1.42272178914e-05
0.00186968022573
8.14844748409e-06
8.07813190531e-06
8.01146063889e-06
7.90827691057e-06
1.56871836758e-05
0.00245898091159
8.17392013333e-06
8.14928398127e-06
7.89727135295e-06
7.89259332222e-06
1.27280533151e-05
0.00195905033961
8.17996901135e-06
8.2221864143e-06
7.9495888465e-06
7.84171199635e-06
8.74565813577e-06
5.62293922198e-05
8.1596082416e-06
8.13885684273e-06
8.09978253087e-06
7.99725789932e-06
1.6884653728e-05
0.00227959201495
8.15455549295e-06
8.13891147058e-06
8.09505659645e-06
8.00891868471e-06
1.70611473392e-05
0.00276786212316
8.15633706922e-06
8.13027239738e-06
8.01970204034e-06
7.97649989199e-06
1.70346113544e-05
0.00281897459515
8.17038913364e-06
8.16107131192e-06
7.99823520354e-06
7.91893885251e-06
1.83455159181e-05
0.00238912181669
8.18482857318e-06
8.18753938407e-06
8.10437407826e-06
8.08785917633e-06
2.05593387938e-05
0.00309038876577
8.18974651284e-06
8.1917591955e-06
8.18750170475e-06
8.35932446567e-06
2.37732649333e-05
0.00337228879794
8.18819983012e-06
8.18572236358e-06
8.16735221153e-06
8.48393998865e-06
2.73493359654e-05
0.0038653143457
8.16222468139e-06
8.63169215601e-06
3.11278110166e-05
0.00408718398521
8.16768475844e-06
8.78695871694e-06
3.53167620923e-05
0.00436460998716
8.15971882909e-06
8.91949767868e-06
3.95560960779e-05
0.00435017800904
)
;

boundaryField
{
    back
    {
        type            calculated;
        value           nonuniform List<scalar> 
164
(
8.22513858557e-06
8.07180635354e-06
8.00994396859e-06
8.13907699893e-06
8.03227585104e-06
7.85104853797e-06
9.7053337605e-06
0.00126277081742
8.24858379953e-06
8.17662711039e-06
8.16316897577e-06
8.16104681772e-06
8.01725006865e-06
7.65649045361e-06
7.15069853823e-06
1.94533415769e-05
8.24858473294e-06
8.17662584068e-06
8.16316699438e-06
8.16104263649e-06
8.01724226647e-06
7.65649021918e-06
7.15070527891e-06
1.94535599709e-05
8.22514532483e-06
8.07180695225e-06
8.00994006921e-06
8.13907526444e-06
8.03226595625e-06
7.85104395425e-06
9.70543680729e-06
0.00126277978337
7.90876947438e-06
8.08791127447e-06
8.08445892426e-06
7.83276836518e-06
9.84141593341e-06
0.000514562055652
8.11543445543e-06
8.10094213299e-06
7.95283451878e-06
7.59349112392e-06
7.09930859521e-06
1.55754996844e-05
8.1392009081e-06
8.08682041039e-06
7.93544658502e-06
7.67575281884e-06
7.13937543811e-06
3.27379468447e-05
8.14298625129e-06
8.09239134492e-06
8.04292210175e-06
7.84696524527e-06
1.10481767315e-05
0.00111223673894
8.13638717508e-06
8.12739565827e-06
8.12327924422e-06
7.99401614496e-06
1.22232799464e-05
0.00202933017356
8.11423363268e-06
8.11644154378e-06
8.14314350999e-06
8.14119922656e-06
1.26933021804e-05
0.00222183608174
8.06345287204e-06
8.00660063667e-06
8.0228200179e-06
8.04271287232e-06
1.42546020023e-05
0.00229593479071
8.14787674039e-06
7.89945103259e-06
7.89546464381e-06
7.94477227882e-06
9.18800102399e-06
0.00150332969401
8.21912370584e-06
8.0267191375e-06
7.89504519954e-06
7.77586921339e-06
7.51156195678e-06
2.89285953076e-05
8.15797822491e-06
8.10414602877e-06
8.04735739905e-06
7.96882094975e-06
1.42272178914e-05
0.00186968022573
8.14844748409e-06
8.07813190531e-06
8.01146063889e-06
7.90827691057e-06
1.56871836758e-05
0.00245898091159
8.17392013333e-06
8.14928398127e-06
7.89727135295e-06
7.89259332222e-06
1.27280533151e-05
0.00195905033961
8.17996901135e-06
8.2221864143e-06
7.9495888465e-06
7.84171199635e-06
8.74565813577e-06
5.62293922198e-05
8.1596082416e-06
8.13885684273e-06
8.09978253087e-06
7.99725789932e-06
1.6884653728e-05
0.00227959201495
8.15455549295e-06
8.13891147058e-06
8.09505659645e-06
8.00891868471e-06
1.70611473392e-05
0.00276786212316
8.15633706922e-06
8.13027239738e-06
8.01970204034e-06
7.97649989199e-06
1.70346113544e-05
0.00281897459515
8.17038913364e-06
8.16107131192e-06
7.99823520354e-06
7.91893885251e-06
1.83455159181e-05
0.00238912181669
8.18482857318e-06
8.18753938407e-06
8.10437407826e-06
8.08785917633e-06
2.05593387938e-05
0.00309038876577
8.18974651284e-06
8.1917591955e-06
8.18750170475e-06
8.35932446567e-06
2.37732649333e-05
0.00337228879794
8.18819983012e-06
8.18572236358e-06
8.16735221153e-06
8.48393998865e-06
2.73493359654e-05
0.0038653143457
8.16222468139e-06
8.63169215601e-06
3.11278110166e-05
0.00408718398521
8.16768475844e-06
8.78695871694e-06
3.53167620923e-05
0.00436460998716
8.15971882909e-06
8.91949767868e-06
3.95560960779e-05
0.00435017800904
)
;
    }
    sides
    {
        type            calculated;
        value           nonuniform List<scalar> 0();
    }
    bottom
    {
        type            calculated;
        value           nonuniform List<scalar> 0();
    }
    front
    {
        type            calculated;
        value           nonuniform List<scalar> 
164
(
8.22513858557e-06
8.07180635354e-06
8.00994396859e-06
8.13907699893e-06
8.03227585104e-06
7.85104853797e-06
9.7053337605e-06
0.00126277081742
8.24858379953e-06
8.17662711039e-06
8.16316897577e-06
8.16104681772e-06
8.01725006865e-06
7.65649045361e-06
7.15069853823e-06
1.94533415769e-05
8.24858473294e-06
8.17662584068e-06
8.16316699438e-06
8.16104263649e-06
8.01724226647e-06
7.65649021918e-06
7.15070527891e-06
1.94535599709e-05
8.22514532483e-06
8.07180695225e-06
8.00994006921e-06
8.13907526444e-06
8.03226595625e-06
7.85104395425e-06
9.70543680729e-06
0.00126277978337
7.90876947438e-06
8.08791127447e-06
8.08445892426e-06
7.83276836518e-06
9.84141593341e-06
0.000514562055652
8.11543445543e-06
8.10094213299e-06
7.95283451878e-06
7.59349112392e-06
7.09930859521e-06
1.55754996844e-05
8.1392009081e-06
8.08682041039e-06
7.93544658502e-06
7.67575281884e-06
7.13937543811e-06
3.27379468447e-05
8.14298625129e-06
8.09239134492e-06
8.04292210175e-06
7.84696524527e-06
1.10481767315e-05
0.00111223673894
8.13638717508e-06
8.12739565827e-06
8.12327924422e-06
7.99401614496e-06
1.22232799464e-05
0.00202933017356
8.11423363268e-06
8.11644154378e-06
8.14314350999e-06
8.14119922656e-06
1.26933021804e-05
0.00222183608174
8.06345287204e-06
8.00660063667e-06
8.0228200179e-06
8.04271287232e-06
1.42546020023e-05
0.00229593479071
8.14787674039e-06
7.89945103259e-06
7.89546464381e-06
7.94477227882e-06
9.18800102399e-06
0.00150332969401
8.21912370584e-06
8.0267191375e-06
7.89504519954e-06
7.77586921339e-06
7.51156195678e-06
2.89285953076e-05
8.15797822491e-06
8.10414602877e-06
8.04735739905e-06
7.96882094975e-06
1.42272178914e-05
0.00186968022573
8.14844748409e-06
8.07813190531e-06
8.01146063889e-06
7.90827691057e-06
1.56871836758e-05
0.00245898091159
8.17392013333e-06
8.14928398127e-06
7.89727135295e-06
7.89259332222e-06
1.27280533151e-05
0.00195905033961
8.17996901135e-06
8.2221864143e-06
7.9495888465e-06
7.84171199635e-06
8.74565813577e-06
5.62293922198e-05
8.1596082416e-06
8.13885684273e-06
8.09978253087e-06
7.99725789932e-06
1.6884653728e-05
0.00227959201495
8.15455549295e-06
8.13891147058e-06
8.09505659645e-06
8.00891868471e-06
1.70611473392e-05
0.00276786212316
8.15633706922e-06
8.13027239738e-06
8.01970204034e-06
7.97649989199e-06
1.70346113544e-05
0.00281897459515
8.17038913364e-06
8.16107131192e-06
7.99823520354e-06
7.91893885251e-06
1.83455159181e-05
0.00238912181669
8.18482857318e-06
8.18753938407e-06
8.10437407826e-06
8.08785917633e-06
2.05593387938e-05
0.00309038876577
8.18974651284e-06
8.1917591955e-06
8.18750170475e-06
8.35932446567e-06
2.37732649333e-05
0.00337228879794
8.18819983012e-06
8.18572236358e-06
8.16735221153e-06
8.48393998865e-06
2.73493359654e-05
0.0038653143457
8.16222468139e-06
8.63169215601e-06
3.11278110166e-05
0.00408718398521
8.16768475844e-06
8.78695871694e-06
3.53167620923e-05
0.00436460998716
8.15971882909e-06
8.91949767868e-06
3.95560960779e-05
0.00435017800904
)
;
    }
    atmosphere
    {
        type            calculated;
        value           nonuniform List<scalar> 
27
(
0.00126277081742
1.94533415769e-05
1.94535599709e-05
0.00126277978337
0.000514562055652
1.55754996844e-05
3.27379468447e-05
0.00111223673894
0.00202933017356
0.00222183608174
0.00229593479071
0.00150332969401
2.89285953076e-05
0.00186968022573
0.00245898091159
0.00195905033961
5.62293922198e-05
0.00227959201495
0.00276786212316
0.00281897459515
0.00238912181669
0.00309038876577
0.00337228879794
0.0038653143457
0.00408718398521
0.00436460998716
0.00435017800904
)
;
    }
    floatingObject
    {
        type            calculated;
        value           nonuniform List<scalar> 4(8.22513858557e-06 8.24858379953e-06 8.24858473294e-06 8.22514532483e-06);
    }
    procBoundary6to3
    {
        type            processor;
        value           nonuniform List<scalar> 8(8.14330748643e-06 7.97850593374e-06 7.90878506513e-06 8.08792304081e-06 8.08446700638e-06 7.83277175215e-06 9.84137683491e-06 0.000514572882111);
    }
    procBoundary6to7
    {
        type            processor;
        value           nonuniform List<scalar> 
11
(
8.1642924628e-06
8.166832281e-06
8.17352479091e-06
8.18027686233e-06
8.18389539248e-06
8.1846225352e-06
8.18807537611e-06
8.17424519348e-06
8.17424519348e-06
8.17034415421e-06
8.17169588097e-06
)
;
    }
    procBoundary6to8
    {
        type            processor;
        value           nonuniform List<scalar> 
16
(
8.14328880842e-06
7.97848590507e-06
7.97848590507e-06
8.12066476977e-06
8.16837793892e-06
8.15329753954e-06
8.14342559692e-06
8.13728384671e-06
8.13927076842e-06
8.17070209777e-06
8.18177100614e-06
8.16860248097e-06
8.16571315428e-06
8.17165847083e-06
8.17120705315e-06
8.16613417782e-06
)
;
    }
    procBoundary6to9
    {
        type            processor;
        value           nonuniform List<scalar> 4(8.14551995073e-06 9.04697942581e-06 4.40078444139e-05 0.0045352761625);
    }
}


// ************************************************************************* //
