/*--------------------------------*- C++ -*----------------------------------*\
| =========                 |                                                 |
| \\      /  F ield         | OpenFOAM: The Open Source CFD Toolbox           |
|  \\    /   O peration     | Version:  v2012                                 |
|   \\  /    A nd           | Website:  www.openfoam.com                      |
|    \\/     M anipulation  |                                                 |
\*---------------------------------------------------------------------------*/
FoamFile
{
    version     2.0;
    format      ascii;
    class       volVectorField;
    location    "1.1";
    object      U_0;
}
// * * * * * * * * * * * * * * * * * * * * * * * * * * * * * * * * * * * * * //

dimensions      [0 1 -1 0 0 0 0];


internalField   nonuniform List<vector> 
164
(
(0.0848842867298 0.129514589157 1.11860907064e-17)
(0.103384976666 0.127628322442 6.16872861154e-18)
(0.107754244921 0.170086447813 5.25571365e-18)
(0.107643891573 0.217572971335 3.70299002381e-18)
(0.125868973522 0.253079696463 2.06066204876e-18)
(0.168619607551 0.244827788635 1.14863975321e-18)
(0.411328050282 0.172545619849 3.44164896276e-19)
(2.25311780231 -1.87233192051 4.81666749897e-19)
(-0.0840102527442 -0.0192978724819 4.32426843829e-18)
(0.0257450284857 0.0176962634068 3.97736318025e-18)
(0.0486972789862 0.0972378261877 3.53344487089e-18)
(0.0477098017319 0.181466361966 2.78800176262e-18)
(0.0820933389119 0.250316566917 1.96695827682e-18)
(0.144429386906 0.458387303466 1.31867410509e-18)
(0.362699240687 0.379652033478 1.09798880812e-18)
(0.468043098337 2.85878175601 1.02779431477e-18)
(0.0839974628595 -0.019297857815 4.39021345489e-18)
(-0.025758665069 0.0176964744674 4.00422097484e-18)
(-0.0487111442206 0.0972381031517 3.5614476352e-18)
(-0.0477224984503 0.181466529896 2.76495227009e-18)
(-0.0821031457879 0.250316728705 2.02985888489e-18)
(-0.14443584221 0.458385836987 1.35424037868e-18)
(-0.362703774217 0.37964815089 1.39336173133e-18)
(-0.468051491398 2.85877415174 1.24870345601e-18)
(-0.0848956696876 0.129515679114 1.13285043588e-17)
(-0.103395194126 0.127628844604 6.19231987509e-18)
(-0.107763842553 0.17008712629 5.27920914242e-18)
(-0.107653097209 0.217574007245 3.71189423432e-18)
(-0.125875781031 0.253081416452 2.07276474019e-18)
(-0.168623023122 0.244829567981 1.15035910916e-18)
(-0.411330224374 0.172546192911 -4.40881123316e-19)
(-2.25314021221 -1.87232262423 1.18766703938e-19)
(-0.122617737753 0.234158701464 3.75338004714e-18)
(-0.128456405886 0.258215998719 2.34258598017e-18)
(-0.128115243371 0.279336259168 8.39842410161e-19)
(-0.0987066008871 0.300391093534 3.86599825654e-19)
(0.170136581511 0.222182730385 7.60123631238e-19)
(2.15075378584 -0.923621454296 6.49033863982e-19)
(-0.142974178743 0.241663673885 -4.08521915734e-20)
(-0.159148513607 0.270874579042 -6.88252096479e-19)
(-0.171810727863 0.30770870263 -4.62887397301e-19)
(-0.163613433277 0.479929886521 -2.65895034382e-19)
(-0.119251591828 0.383822449571 6.6023915325e-20)
(0.0505514160985 2.86433472995 1.8101291559e-20)
(-0.166186311312 0.217582806653 9.84090027778e-20)
(-0.193612310041 0.243033773509 3.08752019807e-19)
(-0.245130715188 0.268410325778 2.21639645913e-19)
(-0.332518595514 0.405005738133 1.79253599798e-20)
(-0.685958596994 0.272785720039 -2.86185345045e-19)
(-1.07455053332 2.50387411925 -5.66044310533e-19)
(-0.176915106104 0.187827929424 -4.8714217563e-20)
(-0.21054840601 0.19354379604 -1.0746754589e-19)
(-0.263954222343 0.195360842539 -7.10315382319e-20)
(-0.35018745559 0.164106475858 -4.24238010009e-20)
(-0.747276406406 0.0940586412587 -5.66685322875e-19)
(-3.48293251067 -1.07073614713 -4.53282507834e-19)
(-0.182656697612 0.159452776852 1.58279296694e-20)
(-0.212446325525 0.15757969817 3.84125736317e-20)
(-0.249561681043 0.158492227136 2.01105958398e-20)
(-0.283008956725 0.120623247364 1.35099542726e-21)
(-0.379478811538 0.124461488535 -6.95258260671e-19)
(-1.23013493917 -0.704928103658 -5.1868990526e-19)
(-0.181857103994 0.133580594101 -4.0649509021e-21)
(-0.206446949926 0.128209265597 -7.30037236506e-21)
(-0.236262633429 0.12111932687 -1.63811450985e-20)
(-0.266749339644 0.0817561430491 -5.61452964918e-21)
(-0.257310556152 0.0893073780754 -8.3619103131e-20)
(-0.390155743143 -0.406427472856 -7.24653790408e-20)
(-0.176863084734 0.113617433077 6.4259892891e-22)
(-0.193000957532 0.105665917776 -5.78969406985e-21)
(-0.210653212474 0.0888332950245 3.3410869619e-21)
(-0.234225959137 0.0589060746072 -1.3564870529e-20)
(-0.186640318517 0.0448849484521 -2.10900290289e-19)
(0.253250689486 -0.510250929861 -1.29194015864e-19)
(-0.172162125622 0.102708288718 1.0136967168e-21)
(-0.179170908154 0.0954818866578 -1.61318057194e-20)
(-0.176327435127 0.0628316341192 9.98564255588e-21)
(-0.14361102613 0.0133451563806 -7.82838394492e-20)
(0.250156332753 -0.0996798845084 -6.42366751664e-19)
(1.30542654011 -0.360646902538 -5.48529269907e-19)
(-0.174131053879 0.0983566934369 -7.63049022874e-21)
(-0.178876252611 0.107595599916 -7.26037469503e-21)
(-0.177576005706 0.114651545932 7.54636409149e-20)
(-0.159687334781 0.244571219969 -1.76188210795e-20)
(-0.299910274865 0.107946908891 -3.50578965488e-19)
(-0.308740960248 2.65529174815 -2.67406589427e-19)
(-0.178286896001 0.0878629923344 4.91038934563e-22)
(-0.190672395335 0.0911085155499 4.54257710129e-21)
(-0.209038556198 0.100563228212 -7.60359611668e-21)
(-0.233838543584 0.117491692664 -1.09548088274e-19)
(-0.53800940552 0.0846593218589 -6.29055966169e-19)
(-1.98167149602 -0.667741504968 -5.34669039026e-19)
(-0.180463149263 0.0768260334172 1.49927147803e-21)
(-0.191584612938 0.0770993231343 -1.33924203897e-21)
(-0.206077803513 0.0773687739221 -1.21481688795e-20)
(-0.227251507249 0.0657024908458 -6.24675395657e-20)
(-0.210417187424 0.0842250282453 -2.22543782833e-19)
(-0.416194483494 -0.678523128094 -3.31505077185e-19)
(-0.181666786773 0.0676054852454 -1.62375185828e-21)
(-0.18986070324 0.0665710961538 -4.28234693384e-21)
(-0.19791144884 0.0573768095037 -4.12562261468e-21)
(-0.200672586037 0.0421893141369 -4.31784051611e-20)
(0.0344972455639 -0.0258070532492 -5.58725089629e-19)
(1.15644263294 -0.508927951091 -3.67267714517e-19)
(-0.183561782739 0.060128437213 6.00486412411e-22)
(-0.191589560809 0.0625629580679 -5.12340454184e-21)
(-0.197974705159 0.0645940392357 5.09630852094e-21)
(-0.196877435943 0.133529570383 2.13576622212e-20)
(-0.292546882483 -0.00737764405106 2.73843249152e-19)
(-0.292693227383 2.23763759473 5.17196860743e-19)
(-0.185307525213 0.0515331780916 -5.95147159442e-22)
(-0.194185478865 0.0515855016417 2.61593071496e-21)
(-0.205678365364 0.0539627092886 -1.04688997202e-20)
(-0.218604706628 0.0549271385702 -2.92621040842e-20)
(-0.50085020541 0.0313350654455 -5.29277259655e-19)
(-2.05079290803 -0.640585431111 -2.75677593081e-19)
(-0.186137045582 0.0435567859431 -6.72459755128e-22)
(-0.193884322485 0.0427462655432 3.93896553682e-21)
(-0.202186866613 0.0436891108755 -7.30587587019e-21)
(-0.210275567548 0.032108906497 3.35454379575e-21)
(-0.259049047751 0.0461968746926 -1.08604358795e-21)
(-0.704175363101 -0.371837091262 1.05824752806e-19)
(-0.186484476411 0.0365450100883 1.59213078218e-21)
(-0.192886942111 0.0352142568787 -1.66449611101e-21)
(-0.198938196371 0.0350801282325 -1.20881933712e-20)
(-0.202563467878 0.0240315940144 -7.44612034388e-21)
(-0.201026073185 0.0262678333928 -3.42351050596e-20)
(-0.346375132701 -0.15325154537 -6.34316280345e-20)
(-0.186893103141 0.0306171687593 -4.32288315948e-22)
(-0.192150375382 0.0298235990727 4.77330322566e-21)
(-0.195717376617 0.0319205611876 -3.14573359533e-21)
(-0.195607329346 0.0257378787838 -9.07897670529e-21)
(-0.174983080947 0.0318647277231 -1.8640479032e-20)
(-0.170265737866 -0.0550547733487 -6.90297194197e-21)
(-0.187811678021 0.0252574023161 9.197577498e-22)
(-0.192762035868 0.0254368440114 -5.69450583604e-21)
(-0.195917214043 0.0306765295782 -5.53662461917e-21)
(-0.196217340556 0.0269281061547 2.21668109055e-21)
(-0.174229917726 0.0360768955144 8.3048418894e-21)
(-0.201380874544 0.132638642895 7.75930514234e-21)
(-0.189238033356 0.0197930066989 -6.1813524801e-22)
(-0.194557404853 0.0204732551629 -2.72146608048e-21)
(-0.198725036862 0.0272733313549 -6.47508509355e-21)
(-0.200549128811 0.0227472658611 -7.40203115192e-21)
(-0.181652411933 0.0332965498027 -2.3897598382e-21)
(-0.278562400493 -0.0128697557995 -1.54799923102e-21)
(-0.190861929818 0.0138378195231 2.05221525569e-23)
(-0.196840546257 0.0144471679775 -2.37217321648e-21)
(-0.202197039762 0.0217209170992 -1.95643867783e-20)
(-0.205038631325 0.0158456913806 -8.77898278913e-21)
(-0.18565707731 0.0275401988329 -5.80033018549e-21)
(-0.219284814607 0.0114812140494 -2.1121747167e-21)
(-0.205292401785 0.0142826453712 -2.04665723774e-20)
(-0.209107136382 0.00703349147748 -9.86629039826e-21)
(-0.190266856741 0.0193279027048 2.20894005674e-21)
(-0.195040945534 0.0136314604068 2.61983784363e-21)
(-0.206535710072 0.00526108218811 -1.7965834068e-20)
(-0.211863140851 -0.00330561430147 -6.27857774522e-21)
(-0.194816434913 0.00845392068207 7.81364656733e-21)
(-0.186280804907 0.00424532383259 8.21813080188e-21)
(-0.206930803968 -0.00437942280821 -1.74542997966e-20)
(-0.213015792886 -0.0152038187411 2.27772630623e-21)
(-0.198305718012 -0.00382270255841 1.35416527813e-20)
(-0.178979579794 -0.00461748514864 1.20886394933e-20)
)
;

boundaryField
{
    back
    {
        type            noSlip;
    }
    sides
    {
        type            noSlip;
    }
    bottom
    {
        type            noSlip;
    }
    front
    {
        type            noSlip;
    }
    atmosphere
    {
        type            pressureInletOutletVelocity;
        value           nonuniform List<vector> 
27
(
(0 -1.87233192051 0)
(0.468043098337 2.85878175601 1.02779431477e-18)
(-0.468051491398 2.85877415174 1.24870345601e-18)
(0 -1.87232262423 0)
(0 -0.923621454296 0)
(0.0505514160985 2.86433472995 1.8101291559e-20)
(-1.07455053332 2.50387411925 -5.66044310533e-19)
(0 -1.07073614713 0)
(0 -0.704928103658 0)
(0 -0.406427472856 0)
(0 -0.510250929861 0)
(0 -0.360646902538 0)
(-0.308740960248 2.65529174815 -2.67406589427e-19)
(0 -0.667741504968 0)
(0 -0.678523128094 0)
(0 -0.508927951091 0)
(-0.292693227383 2.23763759473 5.17196860743e-19)
(0 -0.640585431111 0)
(0 -0.371837091262 0)
(0 -0.15325154537 0)
(0 -0.0550547733487 0)
(-0.201380874544 0.132638642895 7.75930514234e-21)
(0 -0.0128697557995 0)
(0 0.0114812140494 0)
(-0.195040945534 0.0136314604068 2.61983784363e-21)
(-0.186280804907 0.00424532383259 8.21813080188e-21)
(0 -0.00461748514864 0)
)
;
    }
    floatingObject
    {
        type            movingWallVelocity;
        value           nonuniform List<vector> 4((0 0 0) (0 0 0) (-2.77555756156e-16 0 0) (0 0 0));
    }
    procBoundary6to3
    {
        type            processor;
        value           nonuniform List<vector> 8((0.108415242946 0.227606771225 1.39011438263e-17) (0.118814170924 0.222021638611 5.14579355417e-18) (0.12261118456 0.234159435217 3.74329363886e-18) (0.128450463609 0.25821525256 2.34514005486e-18) (0.128111215105 0.279333222305 8.40240289621e-19) (0.09870483107 0.300388002232 3.7779804299e-19) (-0.170135316092 0.222181563443 1.03304691601e-19) (-2.15072793811 -0.923603054126 1.20999433972e-19));
    }
    procBoundary6to7
    {
        type            processor;
        value           nonuniform List<vector> 
11
(
(-0.178913538451 0.04262357875 6.57800277334e-23)
(-0.180024810465 0.0358927908184 6.03739421435e-23)
(-0.181045701485 0.0297836151808 1.47461140697e-22)
(-0.182168922336 0.0240333419377 1.29808256081e-23)
(-0.183410976841 0.0182974960957 5.18923327893e-23)
(-0.184632807107 0.0123120300002 2.03463887912e-22)
(-0.19228418946 0.00723329148228 -9.15150070097e-23)
(-0.199012084457 0.00735455063487 -9.32180083125e-22)
(-0.199012084457 0.00735455063487 -9.32180083125e-22)
(-0.200846929274 -0.000569449203556 -2.78180670249e-21)
(-0.201585640832 -0.00817805219652 -2.26514372565e-21)
)
;
    }
    procBoundary6to8
    {
        type            processor;
        value           nonuniform List<vector> 
16
(
(-0.10842400022 0.227608210002 1.39235568933e-17)
(-0.118821844467 0.222020770034 5.1606893182e-18)
(-0.118821844467 0.222020770034 5.1606893182e-18)
(-0.124142033135 0.226738492767 1.10803442877e-18)
(-0.140709913021 0.203801465299 -1.58844195677e-19)
(-0.150207971751 0.178560971452 2.56600114258e-20)
(-0.157473574898 0.154278306353 -1.00619644162e-21)
(-0.160774156685 0.132947000602 9.62906183038e-22)
(-0.161541422198 0.115797494018 3.66671573808e-22)
(-0.162381191825 0.103357406733 -7.78440743474e-22)
(-0.164996774629 0.0939364918657 6.65547373551e-22)
(-0.168170913804 0.084141686967 6.60253077072e-22)
(-0.17093261197 0.0745197979589 -2.06121099663e-22)
(-0.173292756922 0.0658112536986 -3.19863726662e-23)
(-0.175542841142 0.0578135642008 -2.72675955397e-22)
(-0.177461722078 0.0499860277417 1.12209298451e-22)
)
;
    }
    procBoundary6to9
    {
        type            processor;
        value           nonuniform List<vector> 4((-0.20743626878 -0.0146887993758 3.65756305977e-21) (-0.213108675404 -0.0271856345435 -3.13888777352e-21) (-0.200878038108 -0.0169038096933 -7.00715440804e-21) (-0.177996447125 -0.0142334694871 -6.42376899385e-21));
    }
}


// ************************************************************************* //
