/*--------------------------------*- C++ -*----------------------------------*\
| =========                 |                                                 |
| \\      /  F ield         | OpenFOAM: The Open Source CFD Toolbox           |
|  \\    /   O peration     | Version:  v2012                                 |
|   \\  /    A nd           | Website:  www.openfoam.com                      |
|    \\/     M anipulation  |                                                 |
\*---------------------------------------------------------------------------*/
FoamFile
{
    version     2.0;
    format      ascii;
    class       volScalarField;
    location    "3.1";
    object      ddt0(k);
}
// * * * * * * * * * * * * * * * * * * * * * * * * * * * * * * * * * * * * * //

dimensions      [0 2 -3 0 0 0 0];


internalField   nonuniform List<scalar> 
167
(
-0.0016557317289
-0.00166277666182
-0.00166957471526
-0.00167647403683
-0.00169355344216
-0.0017367484737
-0.00183692372821
-0.00194589948202
-0.00164267767847
-0.000288255016233
0.000995922507404
0.00895433775035
-0.00205450990106
-0.00205788626494
-0.00205967877055
-0.00206070275168
-0.00206768078733
-0.00211208146267
-0.00218870705977
-0.0021279423897
-0.00182950557145
-0.00372526288989
-0.00697308443125
0.317111135228
-0.00216049187543
-0.00216412617398
-0.00216586219593
-0.00216667734538
-0.002174216278
-0.00221025714812
-0.00225990937464
-0.00205973303956
-0.00141462755849
-0.00368276189623
-0.0190163451969
0.0621025228124
-0.00219825931769
-0.0022000942304
-0.00220002066024
-0.00220512135336
-0.00223302530913
-0.00225794059364
-0.00193787850984
-0.000653229140744
-0.00143732461521
-0.0104861310095
0.288889199164
-0.00221060812113
-0.0022092210338
-0.00221096170687
-0.002231243827
-0.00223531092461
-0.0017907823661
0.000409052664289
0.00284737973509
0.000869113075332
0.126733675932
-0.00221391363585
-0.00221086286516
-0.00220832841877
-0.00221929785618
-0.00220038023778
-0.00161411969695
0.00169137557576
0.00857260196244
0.00672747233366
0.00198101228823
-0.0022152528787
-0.00221015626984
-0.00220264375905
-0.00220214042778
-0.00214970449784
-0.00139156923529
0.00293484629681
0.013301515617
0.0131226974094
0.000391291407598
-0.00221631541395
-0.00220914587967
-0.00219618771957
-0.00218154455285
-0.00208453391009
-0.0011164397657
0.00419572444011
0.017692332959
0.0210525268596
0.0017602744504
-0.00221751148051
-0.0022084562106
-0.00219072340374
-0.00216286588155
-0.00202145408734
-0.000855802274637
0.00538369168245
0.0218215279231
0.0269418817523
0.00215371435372
-0.00221894172751
-0.00220825370306
-0.00218636902243
-0.00214824923163
-0.00197747363119
-0.000680809913616
0.00620177224635
0.0241580024311
0.0248758592581
0.000654541863907
-0.0022205994365
-0.00220861205188
-0.00218308472821
-0.00213472248607
-0.00193639938676
-0.000601450216569
0.0060745946694
0.0231658153156
0.024422952692
0.00312423680987
-0.00222245547045
-0.00220955718765
-0.00218078839987
-0.00211986126349
-0.00186877734558
-0.000388200089453
0.00586598932595
0.0186624867506
0.0180578493923
0.000489496454958
-0.00222448100313
-0.00221116833217
-0.002180539177
-0.00211212532869
-0.00183855559268
-0.000363223625262
0.00541222728227
0.0170786926512
0.0207219171396
0.00260686308374
-0.00222663892338
-0.00221345479522
-0.00218268099263
-0.00211404666369
-0.00184918063874
-0.000442480845589
0.00513496706736
0.0170502899928
0.023273745032
0.00294715931666
-0.00222887995028
-0.00221627999159
-0.00218711991918
-0.00212631568483
-0.00190097957769
-0.000582053652777
0.00532391407426
0.0177257016012
0.0126571158272
-0.00243087717967
-0.00223101765255
-0.00221909222401
-0.00219112103343
-0.00213433422395
-0.00193124189333
-0.000693402636541
0.00507912403525
0.0172679982068
0.00979264517055
-0.00399499671411
)
;

boundaryField
{
    back
    {
        type            calculated;
        value           nonuniform List<scalar> 
167
(
-0.0016557317289
-0.00166277666182
-0.00166957471526
-0.00167647403683
-0.00169355344216
-0.0017367484737
-0.00183692372821
-0.00194589948202
-0.00164267767847
-0.000288255016233
0.000995922507404
0.00895433775035
-0.00205450990106
-0.00205788626494
-0.00205967877055
-0.00206070275168
-0.00206768078733
-0.00211208146267
-0.00218870705977
-0.0021279423897
-0.00182950557145
-0.00372526288989
-0.00697308443125
0.317111135228
-0.00216049187543
-0.00216412617398
-0.00216586219593
-0.00216667734538
-0.002174216278
-0.00221025714812
-0.00225990937464
-0.00205973303956
-0.00141462755849
-0.00368276189623
-0.0190163451969
0.0621025228124
-0.00219825931769
-0.0022000942304
-0.00220002066024
-0.00220512135336
-0.00223302530913
-0.00225794059364
-0.00193787850984
-0.000653229140744
-0.00143732461521
-0.0104861310095
0.288889199164
-0.00221060812113
-0.0022092210338
-0.00221096170687
-0.002231243827
-0.00223531092461
-0.0017907823661
0.000409052664289
0.00284737973509
0.000869113075332
0.126733675932
-0.00221391363585
-0.00221086286516
-0.00220832841877
-0.00221929785618
-0.00220038023778
-0.00161411969695
0.00169137557576
0.00857260196244
0.00672747233366
0.00198101228823
-0.0022152528787
-0.00221015626984
-0.00220264375905
-0.00220214042778
-0.00214970449784
-0.00139156923529
0.00293484629681
0.013301515617
0.0131226974094
0.000391291407598
-0.00221631541395
-0.00220914587967
-0.00219618771957
-0.00218154455285
-0.00208453391009
-0.0011164397657
0.00419572444011
0.017692332959
0.0210525268596
0.0017602744504
-0.00221751148051
-0.0022084562106
-0.00219072340374
-0.00216286588155
-0.00202145408734
-0.000855802274637
0.00538369168245
0.0218215279231
0.0269418817523
0.00215371435372
-0.00221894172751
-0.00220825370306
-0.00218636902243
-0.00214824923163
-0.00197747363119
-0.000680809913615
0.00620177224635
0.0241580024311
0.0248758592581
0.000654541863908
-0.0022205994365
-0.00220861205188
-0.00218308472821
-0.00213472248607
-0.00193639938676
-0.000601450216569
0.0060745946694
0.0231658153156
0.024422952692
0.00312423680987
-0.00222245547045
-0.00220955718765
-0.00218078839987
-0.00211986126349
-0.00186877734558
-0.000388200089453
0.00586598932595
0.0186624867506
0.0180578493923
0.000489496454958
-0.00222448100313
-0.00221116833217
-0.002180539177
-0.00211212532869
-0.00183855559268
-0.000363223625262
0.00541222728227
0.0170786926512
0.0207219171396
0.00260686308374
-0.00222663892338
-0.00221345479522
-0.00218268099263
-0.00211404666369
-0.00184918063874
-0.000442480845589
0.00513496706736
0.0170502899928
0.023273745032
0.00294715931666
-0.00222887995028
-0.00221627999159
-0.00218711991918
-0.00212631568483
-0.00190097957769
-0.000582053652777
0.00532391407426
0.0177257016012
0.0126571158272
-0.00243087717967
-0.00223101765255
-0.00221909222401
-0.00219112103343
-0.00213433422395
-0.00193124189333
-0.000693402636541
0.00507912403525
0.0172679982068
0.00979264517055
-0.00399499671411
)
;
    }
    sides
    {
        type            calculated;
        value           nonuniform List<scalar> 
12
(
-0.0016557317289
-0.00166277666182
-0.00166957471526
-0.00167647403683
-0.00169355344216
-0.0017367484737
-0.00183692372821
-0.00194589948202
-0.00164267767847
-0.000288255016233
0.000995922507404
0.00895433775035
)
;
    }
    bottom
    {
        type            calculated;
        value           nonuniform List<scalar> 0();
    }
    front
    {
        type            calculated;
        value           nonuniform List<scalar> 
167
(
-0.0016557317289
-0.00166277666182
-0.00166957471526
-0.00167647403683
-0.00169355344216
-0.0017367484737
-0.00183692372821
-0.00194589948202
-0.00164267767847
-0.000288255016233
0.000995922507404
0.00895433775035
-0.00205450990106
-0.00205788626494
-0.00205967877055
-0.00206070275168
-0.00206768078733
-0.00211208146267
-0.00218870705977
-0.0021279423897
-0.00182950557145
-0.00372526288989
-0.00697308443125
0.317111135228
-0.00216049187543
-0.00216412617398
-0.00216586219593
-0.00216667734538
-0.002174216278
-0.00221025714812
-0.00225990937464
-0.00205973303956
-0.00141462755849
-0.00368276189623
-0.0190163451969
0.0621025228124
-0.00219825931769
-0.0022000942304
-0.00220002066024
-0.00220512135336
-0.00223302530913
-0.00225794059364
-0.00193787850984
-0.000653229140744
-0.00143732461521
-0.0104861310095
0.288889199164
-0.00221060812113
-0.0022092210338
-0.00221096170687
-0.002231243827
-0.00223531092461
-0.0017907823661
0.000409052664289
0.00284737973509
0.000869113075332
0.126733675932
-0.00221391363585
-0.00221086286516
-0.00220832841877
-0.00221929785618
-0.00220038023778
-0.00161411969695
0.00169137557576
0.00857260196244
0.00672747233366
0.00198101228823
-0.0022152528787
-0.00221015626984
-0.00220264375905
-0.00220214042778
-0.00214970449784
-0.00139156923529
0.00293484629681
0.013301515617
0.0131226974094
0.000391291407598
-0.00221631541395
-0.00220914587967
-0.00219618771957
-0.00218154455285
-0.00208453391009
-0.0011164397657
0.00419572444011
0.017692332959
0.0210525268596
0.0017602744504
-0.00221751148051
-0.0022084562106
-0.00219072340374
-0.00216286588155
-0.00202145408734
-0.000855802274637
0.00538369168245
0.0218215279231
0.0269418817523
0.00215371435372
-0.00221894172751
-0.00220825370306
-0.00218636902243
-0.00214824923163
-0.00197747363119
-0.000680809913615
0.00620177224635
0.0241580024311
0.0248758592581
0.000654541863908
-0.0022205994365
-0.00220861205188
-0.00218308472821
-0.00213472248607
-0.00193639938676
-0.000601450216569
0.0060745946694
0.0231658153156
0.024422952692
0.00312423680987
-0.00222245547045
-0.00220955718765
-0.00218078839987
-0.00211986126349
-0.00186877734558
-0.000388200089453
0.00586598932595
0.0186624867506
0.0180578493923
0.000489496454958
-0.00222448100313
-0.00221116833217
-0.002180539177
-0.00211212532869
-0.00183855559268
-0.000363223625262
0.00541222728227
0.0170786926512
0.0207219171396
0.00260686308374
-0.00222663892338
-0.00221345479522
-0.00218268099263
-0.00211404666369
-0.00184918063874
-0.000442480845589
0.00513496706736
0.0170502899928
0.023273745032
0.00294715931666
-0.00222887995028
-0.00221627999159
-0.00218711991918
-0.00212631568483
-0.00190097957769
-0.000582053652777
0.00532391407426
0.0177257016012
0.0126571158272
-0.00243087717967
-0.00223101765255
-0.00221909222401
-0.00219112103343
-0.00213433422395
-0.00193124189333
-0.000693402636541
0.00507912403525
0.0172679982068
0.00979264517055
-0.00399499671411
)
;
    }
    atmosphere
    {
        type            calculated;
        value           nonuniform List<scalar> 
16
(
-4.19552440621e-06
-1.78341071243
3.76942310179
-1.71011515747
0.626442778177
-1.15687516507e-08
-1.09830252589e-08
9.64575373717e-06
-0.000267791794535
-0.000274419306939
-0.00439422760051
-0.00111721391221
0.000797782369793
-0.000269683291655
-0.000191663162074
6.91448291781e-05
)
;
    }
    floatingObject
    {
        type            calculated;
        value           nonuniform List<scalar> 0();
    }
    procBoundary1to0
    {
        type            processor;
        value           nonuniform List<scalar> 10(-0.00223306822932 -0.00222178091619 -0.00219414186425 -0.00213613574116 -0.00194002418778 -0.00080706960332 0.00441937726075 0.0162983509444 0.0160068231152 -0.000432603856744);
    }
    procBoundary1to2
    {
        type            processor;
        value           nonuniform List<scalar> 
18
(
-0.00164880268446
-0.00205002817312
-0.00215596074378
-0.00219442563571
-0.00219442563571
-0.00220916461502
-0.00220916461502
-0.00221311716685
-0.00221531888947
-0.00221727072137
-0.00221929217388
-0.00222142049498
-0.00222360063245
-0.00222579282819
-0.00222796979816
-0.00223008474532
-0.00223210699127
-0.00223399993032
)
;
    }
}


// ************************************************************************* //
