/*--------------------------------*- C++ -*----------------------------------*\
| =========                 |                                                 |
| \\      /  F ield         | OpenFOAM: The Open Source CFD Toolbox           |
|  \\    /   O peration     | Version:  v2012                                 |
|   \\  /    A nd           | Website:  www.openfoam.com                      |
|    \\/     M anipulation  |                                                 |
\*---------------------------------------------------------------------------*/
FoamFile
{
    version     2.0;
    format      ascii;
    class       surfaceVectorField;
    location    "3.1";
    object      ddtCorrDdt0(Uf);
}
// * * * * * * * * * * * * * * * * * * * * * * * * * * * * * * * * * * * * * //

dimensions      [0 1 -2 0 0 0 0];


internalField   nonuniform List<vector> 
306
(
(0.00368664663241 -0.039183550691 -1.09468603978e-22)
(0.00645630536358 -0.0355975071137 -3.97331967698e-23)
(0.00429723797801 -0.0467653262619 -9.96993029212e-23)
(0.00757928423228 -0.0424932066772 4.29755878883e-23)
(0.00505068779405 -0.0557826384341 -1.04849707476e-22)
(0.00901275832006 -0.0506355168606 3.52905957065e-23)
(0.00603943718284 -0.0665573207539 -1.49950662155e-22)
(0.0107690956922 -0.060361238283 8.78152902959e-23)
(0.00740563657382 -0.0798888527294 -4.41534617854e-22)
(0.0133261199822 -0.0720503449392 -2.95500344337e-22)
(0.00918777861561 -0.0963841132868 -9.62378281309e-22)
(0.0164905854652 -0.0865438999874 -8.32557153332e-22)
(0.0115994932505 -0.117249418788 -1.14817602859e-21)
(0.0208619538235 -0.103673691256 -2.32049361976e-21)
(0.0176366064142 -0.144603192367 2.20086742144e-21)
(0.0273516818301 -0.126901768712 1.23601018849e-21)
(0.0242755003096 -0.182618770684 1.38334357239e-21)
(0.0380147044157 -0.147124834028 3.41452352767e-21)
(0.0185089897494 -0.216944613197 -4.07474633293e-20)
(0.0343254091772 -0.126788928515 5.46387772434e-21)
(0.055772367323 -0.256562775049 -6.95919444547e-20)
(0.0396380443286 -0.218964870986 -3.40485510358e-20)
(0.0799716330997 -0.384195735918 -2.78686572953e-21)
(0.0102772611662 -0.0382299120303 1.12710995096e-22)
(0.0126472343884 -0.0341808137529 -1.90011663232e-23)
(0.0121600128754 -0.045479243171 1.77965486516e-22)
(0.0148250300879 -0.0406410435218 8.10058110758e-23)
(0.0145728167885 -0.0540736895884 2.27955593478e-22)
(0.017602001307 -0.0482286159332 1.69447807309e-22)
(0.0176553981247 -0.0643810458424 -5.7734391886e-23)
(0.0210704445189 -0.0572761562901 1.1735618699e-22)
(0.0216098114147 -0.0766759687942 -6.86522879815e-22)
(0.0256152319376 -0.0680781809599 -3.73545775811e-22)
(0.0268051608114 -0.0915797578213 -2.19067249178e-21)
(0.0313897674642 -0.0813016590554 -7.89848033595e-24)
(0.0336928417097 -0.109173062108 6.36925973175e-23)
(0.0384519137679 -0.0967357071522 -2.83937116859e-21)
(0.0455170376673 -0.128182505009 2.44966629472e-21)
(0.0463592481894 -0.117260971105 3.29154812735e-21)
(0.0563920424105 -0.152318132871 7.49505767961e-21)
(0.0621493172081 -0.127211806961 3.11154286886e-21)
(0.0728467180068 -0.193677264248 1.21627900178e-20)
(0.0756843619202 -0.10553877904 1.20332641918e-20)
(0.0785814680111 -0.344707485569 3.27565276894e-20)
(0.190768776709 -0.200775137046 -8.29533146746e-21)
(0.148116427863 -0.439843970098 2.48347721513e-20)
(0.0167142488897 -0.0359699008814 -5.07063503434e-23)
(0.0197185896057 -0.0425883940496 7.24881318686e-23)
(0.0214360672293 -0.0376076145457 1.11540500285e-22)
(0.0235613574386 -0.0503909331428 5.88484008199e-23)
(0.0253983027525 -0.0443494917292 -3.4012153962e-24)
(0.0284445833814 -0.0597395491739 -1.98455196935e-22)
(0.0304125735985 -0.05235792467 -2.43651759825e-23)
(0.0344931428482 -0.0709186094167 3.05078623668e-22)
(0.0367885328188 -0.0619044621908 -3.27627435515e-22)
(0.0421065258487 -0.0844597106179 -6.56597157142e-22)
(0.044926227753 -0.0736380687158 4.73534170317e-22)
(0.0509127594185 -0.100978381202 3.88484361446e-22)
(0.0549674801352 -0.0872309512075 -1.26770933719e-21)
(0.0637710467779 -0.119772939053 3.95342470149e-21)
(0.0651519128037 -0.107398218538 -8.36977241965e-22)
(0.0828040527493 -0.140777572019 7.649749381e-21)
(0.0831529142602 -0.114775459926 -3.24774952782e-22)
(0.188668432698 -0.174715187719 -8.42485729352e-21)
(0.109621305008 -0.0996898103797 5.33157611951e-21)
(0.247713161866 -0.32627076351 -1.62170870056e-20)
(0.342435504946 -0.176426874157 -1.16915277358e-21)
(0.246657616417 -0.465813623028 4.79263551984e-20)
(0.0264667277792 -0.0386947936612 3.56511530197e-23)
(0.031531176091 -0.0454329391665 -8.66147921987e-23)
(0.0321279966678 -0.039331901695 -5.92375849822e-23)
(0.037996568474 -0.0534901789681 -1.53537414562e-22)
(0.0384628950182 -0.0459405616678 -2.11225386701e-23)
(0.0460605605286 -0.0631124917771 -1.59171888866e-22)
(0.046404961221 -0.0537825144859 -4.5256908809e-22)
(0.0562192521019 -0.0746902149474 -1.37578009731e-22)
(0.0564995009879 -0.0635234625641 -1.24110404299e-22)
(0.0678731423635 -0.0894232506974 -2.4931709406e-21)
(0.0696973339873 -0.0744320723373 -3.26447368905e-22)
(0.0835288754658 -0.107357254516 -5.11517689624e-21)
(0.0830839293232 -0.0934875454841 -2.42029663838e-21)
(0.10887183636 -0.128443357873 -2.64294821427e-21)
(0.104237919633 -0.100061396209 3.24093300849e-21)
(0.292088144773 -0.157893336792 1.25872806395e-20)
(0.139071625929 -0.0960370957874 -5.21259200944e-22)
(0.37407292172 -0.328021699153 6.29742894304e-20)
(0.512590301554 -0.145552949992 7.23865562477e-21)
(0.298540257824 -0.414284196986 7.6260294393e-20)
(0.0380918763724 -0.0391788582253 6.25466854634e-24)
(0.0374690680109 -0.0333419016774 -2.97213330099e-23)
(0.0458294884803 -0.0454515176056 -3.20154212198e-22)
(0.0447285538658 -0.0382325156128 1.76705800905e-23)
(0.0556191647266 -0.0529927028862 -4.17507603523e-22)
(0.053940454287 -0.0439118694351 -8.00664406658e-22)
(0.0680699631808 -0.0621485273105 -3.12979763472e-22)
(0.0656508438282 -0.0511094861199 -5.61894403858e-22)
(0.0826442531499 -0.0738913032171 -2.53573066685e-22)
(0.081436770765 -0.0584058627043 -9.42451155165e-22)
(0.101636742524 -0.0892159514758 5.93581326634e-21)
(0.0984063005725 -0.0739812943924 6.46683678365e-22)
(0.132859506658 -0.107582036466 5.36262202181e-21)
(0.122602740659 -0.0783094940707 8.60654756751e-21)
(0.367815427842 -0.134520055433 -5.86988421562e-21)
(0.166010001908 -0.0844318550841 -2.2857012492e-21)
(0.459976304548 -0.257334693049 2.05246605873e-20)
(0.635431267203 -0.103347720123 5.85690873368e-21)
(0.335901159403 -0.246465323728 3.80697851442e-20)
(0.0429550533646 -0.0320111563211 -1.83054214658e-23)
(0.0412200317333 -0.0267346080364 -5.69078983735e-23)
(0.0515067007726 -0.0362052984714 -4.6283961437e-22)
(0.0489161459385 -0.0296828873886 -9.63364804769e-23)
(0.0624678424175 -0.0411590201179 -9.45051206994e-22)
(0.0588886713948 -0.0328474511864 -9.64163628096e-22)
(0.076724820122 -0.0469841856537 -1.19136579555e-21)
(0.0714715004581 -0.0368712907924 -1.0827440477e-21)
(0.0939943151257 -0.0542971025021 -4.21944101146e-23)
(0.0887460489585 -0.0398374848658 -2.29100006578e-21)
(0.11541229657 -0.0646856009511 3.31741797953e-21)
(0.108792154826 -0.0501128324085 1.67139908929e-21)
(0.148998024676 -0.0764707591216 9.582242965e-22)
(0.134386418149 -0.0496601999995 4.02993027992e-21)
(0.414629362877 -0.086483164536 9.44109170011e-21)
(0.176022567499 -0.0653920067543 -3.62306812057e-21)
(0.496688249322 -0.129908351436 2.34020332905e-20)
(0.678919043536 -0.0519665463717 4.05801391638e-20)
(0.323956651151 -0.0807637866797 3.46459462958e-20)
(0.0459117190775 -0.0243071077352 -1.34938957385e-22)
(0.0431607096681 -0.0199379186331 -1.06383948796e-22)
(0.0547258315835 -0.0262220202393 -5.97660494203e-22)
(0.0508252783431 -0.020855448175 -3.21239144847e-22)
(0.0661285373546 -0.028131162001 -1.1018564688e-21)
(0.0607926904032 -0.0213577027148 -9.29983411568e-22)
(0.0811776770222 -0.0303370289804 -2.18237831792e-21)
(0.0736728348264 -0.0217787622265 -2.58073716373e-22)
(0.099533697019 -0.0322280639302 -5.77406566368e-22)
(0.0906331405138 -0.02039166592 -3.65918549733e-21)
(0.12233081337 -0.0365201114148 2.38391138969e-21)
(0.113081226832 -0.0243055205388 3.06423764886e-21)
(0.15447945432 -0.0409418491082 -5.51362137147e-22)
(0.138806575676 -0.0183831785701 -3.19342018858e-21)
(0.421634853724 -0.0391776642816 2.75159793431e-20)
(0.174258653637 -0.0426278778633 -1.3058453091e-22)
(0.488910148795 -0.0301803749591 5.18240521691e-20)
(0.669971700903 -0.0134055557773 7.25690634909e-20)
(0.281890359292 0.0347799399471 7.21874419312e-20)
(0.0468425455587 -0.016690802513 -2.92684136259e-22)
(0.0433698853619 -0.0134346335 -1.14922778201e-22)
(0.0553164691344 -0.0163117169381 -6.53562062213e-22)
(0.050441386266 -0.0123573629698 -3.22876972731e-22)
(0.0663328399238 -0.0152253533076 -8.620065914e-23)
(0.0597016792767 -0.0102790958943 -5.67916614985e-22)
(0.0809269412478 -0.0133256528744 -1.73488089577e-21)
(0.0717686607484 -0.0070585145501 8.30592504923e-23)
(0.099257756412 -0.0106903736964 -1.75412820968e-23)
(0.0879937274049 -0.0011134900802 -2.53364071397e-21)
(0.122334779522 -0.0058818345566 -2.51309392941e-21)
(0.108269517048 0.00144901978431 8.88541452306e-22)
(0.153489194757 -0.00336849198206 -2.77264258235e-21)
(0.136291709625 0.0134652462559 -6.70095745804e-21)
(0.412039778498 -0.00160766690659 4.49224996168e-20)
(0.172498708299 -0.0189737496772 -3.65501816506e-21)
(0.450106721639 0.0175999045361 9.2932453253e-20)
(0.650740094485 0.0327403050085 5.02606053573e-20)
(0.20287531977 0.191267618798 6.95092719604e-20)
(0.0457930783266 -0.00961837829848 -1.45115614673e-22)
(0.0418812203371 -0.00769232647297 -8.64521540007e-23)
(0.053309627866 -0.00702232894137 -2.37231525503e-22)
(0.0478417281289 -0.0048163704891 -1.83108819614e-22)
(0.0631742440898 -0.00299946105738 -3.98656705353e-22)
(0.0556748433973 -0.000377989507915 -3.38192682493e-22)
(0.0763046259142 0.00277512602045 -7.15700567706e-22)
(0.0659898605938 0.00622935635704 -1.99310293927e-22)
(0.0932332144965 0.0108205953244 -1.62755797957e-21)
(0.0799441493442 0.0166593654128 -4.02450877439e-22)
(0.115166052929 0.0214498287612 -3.29932207633e-21)
(0.0976370927025 0.0254787742637 -9.30782014781e-22)
(0.145112273988 0.0363471799822 -7.58333304076e-21)
(0.121392886925 0.0439695332974 -1.3137700237e-21)
(0.385007239964 0.0500125981054 1.68308757537e-21)
(0.158834263862 0.00121399698553 -1.23989382672e-20)
(0.394699275051 0.190371815773 2.68374240647e-20)
(0.510362494423 0.129094296346 8.1980327084e-20)
(0.135206773659 0.418595835146 7.60411991538e-20)
(0.0429743031647 -0.0036783508202 -1.24445358942e-22)
(0.038995904635 -0.00313234220926 -7.58537798126e-23)
(0.04891820742 0.00079031300627 -2.84069976604e-22)
(0.0433706167821 0.00115437831806 -1.22735714491e-22)
(0.056760197843 0.00738443412196 -1.38846271067e-22)
(0.0490774785082 0.00748984794068 -2.64264812763e-22)
(0.0673195792271 0.0167405245751 1.13939396339e-22)
(0.0566299547135 0.0168537464855 -1.75954747771e-22)
(0.081263031439 0.0297227461421 2.94325087348e-22)
(0.066958021608 0.0306732636625 1.42252045544e-21)
(0.0993532538421 0.0467497385558 1.05477003785e-21)
(0.0806070275382 0.0455748714001 -2.32434502643e-22)
(0.122936747702 0.07130277059 -6.12937525015e-21)
(0.0968387079372 0.0706028469272 -8.18020083391e-21)
(0.256830406889 0.120389619743 6.78983012414e-20)
(0.109747381059 0.0245039339136 -8.76980077641e-21)
(0.245868320211 0.435073156275 1.31184102173e-19)
(0.195579379753 0.212634238231 9.29895315363e-20)
(0.0863257489388 0.557404467158 7.00723251405e-20)
(0.0387148461784 0.000697556221725 -7.41441353625e-23)
(0.035086418729 -0.000114132238969 -6.95108804676e-23)
(0.0426259220697 0.00654428264091 -1.02930550651e-22)
(0.0375225453787 0.0050923019985 -1.24189843387e-22)
(0.0477256006359 0.0149642673641 -3.01373289467e-22)
(0.0406550156717 0.012621285922 -2.31618426357e-22)
(0.0545999730765 0.0268529281823 1.13262631133e-21)
(0.0447379633178 0.0236837089546 -4.21472755687e-22)
(0.0640056034705 0.0435569555938 8.95760865448e-22)
(0.05025040445 0.0392019580332 1.28302365952e-21)
(0.0753352532368 0.0667836574628 -9.4674053744e-21)
(0.0573774463151 0.0582033519276 6.33568126047e-22)
(0.0828386411508 0.101426962032 -1.08206263602e-20)
(0.0621942870698 0.0876562060857 -1.63341228497e-20)
(0.0624904891325 0.161502797807 1.63214295185e-20)
(0.0496697899384 0.0488224063502 -2.14930343052e-21)
(0.0430092027153 0.465173755256 3.18777545039e-20)
(-0.108081821583 0.221047187797 4.7677083221e-20)
(0.0275879649194 0.44725861289 5.65161309294e-20)
(0.0335324012098 0.0031576585936 -1.19556588492e-22)
(0.0305997564608 0.00114005290759 -6.8201893693e-23)
(0.0351103569766 0.00972713452247 -2.52877719092e-22)
(0.0309522718921 0.00670074127968 -1.43365140417e-22)
(0.0371052148006 0.0190614237228 -3.51717892577e-22)
(0.0313186909219 0.0146595295462 -3.39524495941e-22)
(0.0397757533399 0.0320851911549 -2.71075407495e-22)
(0.0317111762112 0.0262449800949 6.57408713783e-23)
(0.043244793141 0.0501311295993 1.02083092012e-21)
(0.0322011387192 0.0417483991864 -2.79157730277e-21)
(0.0448024840481 0.0759093108201 -6.23314934927e-21)
(0.0315965400119 0.0617204715911 3.36812196579e-21)
(0.0356196080629 0.114437454304 -7.66279992007e-21)
(0.0236650395063 0.088526809332 -1.36866458193e-20)
(-0.0677423095489 0.163255868828 2.92063502719e-20)
(0.000849481600505 0.0580466660378 3.87248937491e-21)
(-0.0972736494493 0.236041714638 7.23154596466e-20)
(-0.180813916999 0.168017673151 5.9584969466e-20)
(-0.0699472149343 0.218684390288 8.63168969179e-20)
(0.0279826007717 0.00354230367552 -9.20104456182e-23)
(0.0260384379074 0.000560295981974 -6.21812619661e-23)
(0.0271490917769 0.0101932918025 -2.30011917266e-22)
(0.0243004632314 0.00590247563962 -8.56174086557e-23)
(0.0259725342262 0.0195727812493 7.79342680137e-23)
(0.0219371772783 0.013544625285 -3.92556456112e-22)
(0.0244184126053 0.0325443417461 -2.4547610239e-21)
(0.0187366346107 0.0245942564876 2.70239296505e-22)
(0.0219106899113 0.0502333397676 -4.44286257097e-22)
(0.0145088716625 0.0389411941378 -2.22338550349e-21)
(0.0156002673928 0.0741921670621 -4.08537450429e-21)
(0.0076350573368 0.0578324303751 -7.19683928376e-22)
(0.00172287754976 0.10156601717 -2.15135652437e-21)
(-0.00370971521222 0.0797335422515 -4.00433289431e-21)
(-0.0952356167722 0.1153201274 3.4251108569e-20)
(-0.0129062509979 0.0526435654037 4.1900781765e-21)
(-0.140141719721 0.0869392218112 7.35864067373e-20)
(-0.152446587548 0.118063825887 -1.15134466295e-20)
(-0.1079343601 0.09343191398 2.08229724182e-20)
(0.0226315586376 0.00184363042435 -5.57882250036e-23)
(0.0218870907406 -0.00179863540633 -4.34452282619e-23)
(0.0194899431828 0.00792760772946 -2.48161947501e-22)
(0.0182139108584 0.0027986875944 -1.90543965287e-23)
(0.0153012609039 0.0165105781629 -2.0025142762e-22)
(0.0133511497518 0.00943732881555 -2.316302598e-22)
(0.00975449841804 0.028349941369 5.01614816911e-22)
(0.00689297685738 0.0191247843308 2.68689081863e-22)
(0.00180876311626 0.0445285805911 -2.49878317477e-21)
(-0.00167375792953 0.0317165722287 1.33510041931e-21)
(-0.00882384185015 0.0660299104521 -6.38642318393e-22)
(-0.0138699850632 0.0481324925231 8.21949208516e-22)
(-0.0145120412363 0.0882619699853 2.33710180656e-21)
(-0.0259430056973 0.0673292897202 5.56197907859e-21)
(-0.0613896174166 0.0940322640665 -4.1574477022e-20)
(-0.0186777162456 0.0390738321897 -3.96864628766e-21)
(-0.110300329372 0.0380115243632 -6.42768809487e-20)
(-0.0964684984808 0.126129333685 -1.33690608614e-19)
(-0.142980716282 0.170772198572 -9.28418211437e-20)
(0.0180098011922 -0.0017913188895 -6.71139978695e-24)
(0.0185907269873 -0.00575967749169 -4.23329709025e-23)
(0.0127964444414 0.00317349730661 -2.52270882718e-24)
(0.0132446846659 -0.00237204264338 1.18240687447e-24)
(0.00590653262918 0.0103125868073 2.37310249683e-22)
(0.00620546522882 0.00265835508371 -1.6942577473e-22)
(-0.00317293801321 0.0203059610494 1.10217468426e-21)
(-0.00310559794684 0.0102889834599 8.70161032084e-24)
(-0.0153847362951 0.0338168254337 4.65583280259e-21)
(-0.0151917311983 0.0204770144432 2.01011795523e-21)
(-0.0291751211998 0.0508498325375 7.0225706055e-21)
(-0.0309068556683 0.0333010970659 2.97305208871e-21)
(-0.0348594995945 0.0700284844152 -7.43769015627e-22)
(-0.0451234108397 0.0518311824807 7.91529664941e-21)
(-0.0917425212678 0.102694449384 -9.60847778794e-20)
(-0.0513448388131 0.0232665650966 2.36975117252e-21)
(-0.151294573879 0.232415928461 -1.62255548809e-19)
(-0.226199818735 0.13506894366 -1.25721547873e-19)
(-0.175496984937 0.295816498055 -8.4801586334e-20)
(0.0145900385289 -0.00709998307801 -3.4439164241e-23)
(0.0076535450297 -0.00376684816773 -1.65720659028e-22)
(-0.00150328182013 0.00125546624046 -3.98034414092e-22)
(-0.0135027430756 0.00853231192319 9.16644881295e-22)
(-0.0290312751728 0.0188575318553 3.27337241349e-22)
(-0.0465656979725 0.0329808329511 3.86577813262e-21)
(-0.0632243392906 0.0530705031385 1.10288168376e-20)
(-0.192475841448 0.0900358524795 -2.72670188215e-20)
(-0.25251157024 0.26220345003 -4.82675853987e-20)
)
;

boundaryField
{
    back
    {
        type            calculated;
        value           uniform (0 0 0);
    }
    sides
    {
        type            calculated;
        value           uniform (0 0 0);
    }
    bottom
    {
        type            calculated;
        value           nonuniform List<vector> 0();
    }
    front
    {
        type            calculated;
        value           uniform (0 0 0);
    }
    atmosphere
    {
        type            calculated;
        value           nonuniform List<vector> 
16
(
(-7.10014765849e-06 -0.336556634567 9.70289768598e-24)
(0.0994629571695 -0.412952093593 -3.09797071352e-19)
(-0.129389693772 -0.424917671816 1.12683565396e-18)
(-0.35774839569 -0.379934905987 -6.97679475504e-19)
(0.387294508591 -0.294724197077 3.52723646873e-19)
(-2.26569449354e-08 -0.118025552125 9.13353239189e-28)
(-2.06553305902e-08 0.0118370686997 -2.43643282911e-27)
(-1.62650650473e-05 0.096632980771 1.2124731922e-23)
(0.000496273370712 0.25805922222 -1.50863760074e-22)
(0.00049233958992 0.484043389021 -2.6223341443e-22)
(0.0022671341112 0.523904736271 -1.2855681315e-21)
(-0.00178385727948 0.333528627328 -4.02210618628e-22)
(0.000736200239667 0.12493989173 4.02371015702e-22)
(0.00268214647976 0.0730959911374 1.67379059371e-22)
(0.00219648353005 0.264942890006 5.59931478159e-22)
(0.000161876205649 0.291270381395 7.87524917449e-24)
)
;
    }
    floatingObject
    {
        type            calculated;
        value           nonuniform List<vector> 0();
    }
    procBoundary1to0
    {
        type            processor;
        value           nonuniform List<vector> 10((0.0165510542316 -0.0110427285871 -2.53970532018e-23) (0.00990329145663 -0.00926538830345 -7.78056539532e-24) (0.00117673223593 -0.00637734438365 -2.46373800596e-22) (-0.0103914064871 -0.00153017741126 -3.03406861383e-22) (-0.0255231553699 0.00519604196986 2.07262079551e-21) (-0.0450359343574 0.0127469687392 -3.00740492054e-21) (-0.0652152669087 0.0312618073822 1.12526833915e-20) (-0.0883110218848 0.00328222297089 1.00354080143e-20) (-0.398348918832 0.0909799884338 -5.24082569536e-20) (-0.20457986452 0.220855011159 -4.75908437989e-20));
    }
    procBoundary1to2
    {
        type            processor;
        value           nonuniform List<vector> 
18
(
(0.0032152013258 -0.0327281147293 -2.08612757399e-23)
(0.00881997294263 -0.0320364467352 1.58275494615e-22)
(0.0143749674722 -0.0302755549781 -9.9302648581e-23)
(0.0183416090367 -0.0318198055267 -1.56798056364e-22)
(0.0225102949519 -0.0329476064133 5.44879426362e-24)
(0.0271777205416 -0.0336927574758 8.99065383739e-23)
(0.0320678034868 -0.0338265567131 -4.98219962808e-24)
(0.0363323624747 -0.0282488644722 -1.94097153544e-23)
(0.0391105829779 -0.0223567419355 -5.99358360011e-23)
(0.0403377152643 -0.0164740540959 -6.86635962632e-23)
(0.0400516419766 -0.011102381352 -8.18941121697e-23)
(0.038416948258 -0.00656141142845 -5.31370190221e-23)
(0.0357009920004 -0.00321240664228 -6.27692303878e-23)
(0.0322856439959 -0.00133035301742 -1.07906806722e-22)
(0.0285707148684 -0.00102095889274 -4.07850571865e-23)
(0.0249960825108 -0.00230683217092 -2.78216139996e-23)
(0.0219763934054 -0.00507946072785 -1.82793335035e-23)
(0.0198764898423 -0.00913127819078 -1.24115691294e-23)
)
;
    }
}


// ************************************************************************* //
