/*--------------------------------*- C++ -*----------------------------------*\
| =========                 |                                                 |
| \\      /  F ield         | OpenFOAM: The Open Source CFD Toolbox           |
|  \\    /   O peration     | Version:  v2012                                 |
|   \\  /    A nd           | Website:  www.openfoam.com                      |
|    \\/     M anipulation  |                                                 |
\*---------------------------------------------------------------------------*/
FoamFile
{
    version     2.0;
    format      ascii;
    class       volScalarField;
    location    "3.1";
    object      rAU;
}
// * * * * * * * * * * * * * * * * * * * * * * * * * * * * * * * * * * * * * //

dimensions      [-1 3 1 0 0 0 0];


internalField   nonuniform List<scalar> 
167
(
1.65159424943e-05
1.65132550839e-05
1.65062218888e-05
1.64864006775e-05
1.64920753489e-05
1.64882368367e-05
1.64833599775e-05
1.65088585423e-05
1.64392203502e-05
2.08052045642e-05
0.000183886782844
0.00958174945283
1.63990694908e-05
1.6396855344e-05
1.6393721282e-05
1.63907503854e-05
1.63953199269e-05
1.63704597423e-05
1.63360085123e-05
1.62688834571e-05
1.62389492174e-05
2.08475501047e-05
0.000177742724633
0.00948277335948
1.63768419014e-05
1.63751950917e-05
1.63736664056e-05
1.6373186461e-05
1.63776135236e-05
1.63582460239e-05
1.63480764116e-05
1.62602303347e-05
1.62051678544e-05
2.09190591249e-05
0.000186536056568
0.00980934363809
1.6372605211e-05
1.63717479002e-05
1.63718460097e-05
1.63749317773e-05
1.63570751191e-05
1.63581123575e-05
1.62595913908e-05
1.61095770657e-05
2.08378705833e-05
0.000204494560512
0.00990567002941
1.63708664144e-05
1.63702779942e-05
1.63731760069e-05
1.63573792115e-05
1.63651840736e-05
1.62584482414e-05
1.60938442345e-05
2.09382839095e-05
0.000230564801008
0.0100148405009
1.63709948667e-05
1.6370378483e-05
1.637273017e-05
1.63566683686e-05
1.63691425288e-05
1.62670193489e-05
1.60886922568e-05
2.11526225884e-05
0.000264538655029
0.0101937548098
1.63712632774e-05
1.63703240679e-05
1.63714243866e-05
1.6359926453e-05
1.63730596203e-05
1.62703769125e-05
1.60786883686e-05
2.14476620923e-05
0.00030518855149
0.0104647649087
1.63719558004e-05
1.63712318698e-05
1.63703945267e-05
1.63665921008e-05
1.63750169329e-05
1.62445486353e-05
1.60426897171e-05
2.17977100994e-05
0.000351296936445
0.0107083247754
1.63719747059e-05
1.63711852789e-05
1.63701303398e-05
1.63727920651e-05
1.63764847583e-05
1.62185919698e-05
1.6008466932e-05
2.21756992176e-05
0.000406216838795
0.0109668150371
1.63722715186e-05
1.63711756526e-05
1.63684683553e-05
1.63745965967e-05
1.63765748286e-05
1.62115407446e-05
1.59990817815e-05
2.25551494515e-05
0.000463120616763
0.0112578129379
1.63722809284e-05
1.637094869e-05
1.63680849471e-05
1.63772115479e-05
1.63712235543e-05
1.62006904272e-05
1.60002692894e-05
2.29592845355e-05
0.00049440110133
0.0113085159474
1.637248127e-05
1.63710200997e-05
1.63682401154e-05
1.63802892269e-05
1.63671803011e-05
1.61906282464e-05
1.59951300969e-05
2.3245806123e-05
0.000485761019162
0.0098921914888
1.63723507937e-05
1.63705869608e-05
1.63674958885e-05
1.63785102663e-05
1.6358704044e-05
1.61888591437e-05
1.60110257388e-05
2.345016901e-05
0.000501221582401
0.0108028914628
1.6372226615e-05
1.63703791562e-05
1.63671382737e-05
1.63776841753e-05
1.63552856616e-05
1.6188920763e-05
1.60164216805e-05
2.33893079339e-05
0.000472338975657
0.0111303211452
1.63718479843e-05
1.63695271125e-05
1.63636912207e-05
1.63710688704e-05
1.63588897404e-05
1.62041919596e-05
1.60106196671e-05
2.3186251127e-05
0.000452282913922
0.0109126985589
1.63716697704e-05
1.63692070378e-05
1.63619159665e-05
1.6368427624e-05
1.63581148308e-05
1.62013073643e-05
1.60148653119e-05
2.30445418533e-05
0.000442346858417
0.0112469857063
)
;

boundaryField
{
    back
    {
        type            calculated;
        value           nonuniform List<scalar> 
167
(
1.65159424943e-05
1.65132550839e-05
1.65062218888e-05
1.64864006775e-05
1.64920753489e-05
1.64882368367e-05
1.64833599775e-05
1.65088585423e-05
1.64392203502e-05
2.08052045642e-05
0.000183886782844
0.00958174945283
1.63990694908e-05
1.6396855344e-05
1.6393721282e-05
1.63907503854e-05
1.63953199269e-05
1.63704597423e-05
1.63360085123e-05
1.62688834571e-05
1.62389492174e-05
2.08475501047e-05
0.000177742724633
0.00948277335948
1.63768419014e-05
1.63751950917e-05
1.63736664056e-05
1.6373186461e-05
1.63776135236e-05
1.63582460239e-05
1.63480764116e-05
1.62602303347e-05
1.62051678544e-05
2.09190591249e-05
0.000186536056568
0.00980934363809
1.6372605211e-05
1.63717479002e-05
1.63718460097e-05
1.63749317773e-05
1.63570751191e-05
1.63581123575e-05
1.62595913908e-05
1.61095770657e-05
2.08378705833e-05
0.000204494560512
0.00990567002941
1.63708664144e-05
1.63702779942e-05
1.63731760069e-05
1.63573792115e-05
1.63651840736e-05
1.62584482414e-05
1.60938442345e-05
2.09382839095e-05
0.000230564801008
0.0100148405009
1.63709948667e-05
1.6370378483e-05
1.637273017e-05
1.63566683686e-05
1.63691425288e-05
1.62670193489e-05
1.60886922568e-05
2.11526225884e-05
0.000264538655029
0.0101937548098
1.63712632774e-05
1.63703240679e-05
1.63714243866e-05
1.6359926453e-05
1.63730596203e-05
1.62703769125e-05
1.60786883686e-05
2.14476620923e-05
0.00030518855149
0.0104647649087
1.63719558004e-05
1.63712318698e-05
1.63703945267e-05
1.63665921008e-05
1.63750169329e-05
1.62445486353e-05
1.60426897171e-05
2.17977100994e-05
0.000351296936445
0.0107083247754
1.63719747059e-05
1.63711852789e-05
1.63701303398e-05
1.63727920651e-05
1.63764847583e-05
1.62185919698e-05
1.6008466932e-05
2.21756992176e-05
0.000406216838795
0.0109668150371
1.63722715186e-05
1.63711756526e-05
1.63684683553e-05
1.63745965967e-05
1.63765748286e-05
1.62115407446e-05
1.59990817815e-05
2.25551494515e-05
0.000463120616763
0.0112578129379
1.63722809284e-05
1.637094869e-05
1.63680849471e-05
1.63772115479e-05
1.63712235543e-05
1.62006904272e-05
1.60002692894e-05
2.29592845355e-05
0.00049440110133
0.0113085159474
1.637248127e-05
1.63710200997e-05
1.63682401154e-05
1.63802892269e-05
1.63671803011e-05
1.61906282464e-05
1.59951300969e-05
2.3245806123e-05
0.000485761019162
0.0098921914888
1.63723507937e-05
1.63705869608e-05
1.63674958885e-05
1.63785102663e-05
1.6358704044e-05
1.61888591437e-05
1.60110257388e-05
2.345016901e-05
0.000501221582401
0.0108028914628
1.6372226615e-05
1.63703791562e-05
1.63671382737e-05
1.63776841753e-05
1.63552856616e-05
1.6188920763e-05
1.60164216805e-05
2.33893079339e-05
0.000472338975657
0.0111303211452
1.63718479843e-05
1.63695271125e-05
1.63636912207e-05
1.63710688704e-05
1.63588897404e-05
1.62041919596e-05
1.60106196671e-05
2.3186251127e-05
0.000452282913922
0.0109126985589
1.63716697704e-05
1.63692070378e-05
1.63619159665e-05
1.6368427624e-05
1.63581148308e-05
1.62013073643e-05
1.60148653119e-05
2.30445418533e-05
0.000442346858417
0.0112469857063
)
;
    }
    sides
    {
        type            calculated;
        value           nonuniform List<scalar> 
12
(
1.65159424943e-05
1.65132550839e-05
1.65062218888e-05
1.64864006775e-05
1.64920753489e-05
1.64882368367e-05
1.64833599775e-05
1.65088585423e-05
1.64392203502e-05
2.08052045642e-05
0.000183886782844
0.00958174945283
)
;
    }
    bottom
    {
        type            calculated;
        value           nonuniform List<scalar> 0();
    }
    front
    {
        type            calculated;
        value           nonuniform List<scalar> 
167
(
1.65159424943e-05
1.65132550839e-05
1.65062218888e-05
1.64864006775e-05
1.64920753489e-05
1.64882368367e-05
1.64833599775e-05
1.65088585423e-05
1.64392203502e-05
2.08052045642e-05
0.000183886782844
0.00958174945283
1.63990694908e-05
1.6396855344e-05
1.6393721282e-05
1.63907503854e-05
1.63953199269e-05
1.63704597423e-05
1.63360085123e-05
1.62688834571e-05
1.62389492174e-05
2.08475501047e-05
0.000177742724633
0.00948277335948
1.63768419014e-05
1.63751950917e-05
1.63736664056e-05
1.6373186461e-05
1.63776135236e-05
1.63582460239e-05
1.63480764116e-05
1.62602303347e-05
1.62051678544e-05
2.09190591249e-05
0.000186536056568
0.00980934363809
1.6372605211e-05
1.63717479002e-05
1.63718460097e-05
1.63749317773e-05
1.63570751191e-05
1.63581123575e-05
1.62595913908e-05
1.61095770657e-05
2.08378705833e-05
0.000204494560512
0.00990567002941
1.63708664144e-05
1.63702779942e-05
1.63731760069e-05
1.63573792115e-05
1.63651840736e-05
1.62584482414e-05
1.60938442345e-05
2.09382839095e-05
0.000230564801008
0.0100148405009
1.63709948667e-05
1.6370378483e-05
1.637273017e-05
1.63566683686e-05
1.63691425288e-05
1.62670193489e-05
1.60886922568e-05
2.11526225884e-05
0.000264538655029
0.0101937548098
1.63712632774e-05
1.63703240679e-05
1.63714243866e-05
1.6359926453e-05
1.63730596203e-05
1.62703769125e-05
1.60786883686e-05
2.14476620923e-05
0.00030518855149
0.0104647649087
1.63719558004e-05
1.63712318698e-05
1.63703945267e-05
1.63665921008e-05
1.63750169329e-05
1.62445486353e-05
1.60426897171e-05
2.17977100994e-05
0.000351296936445
0.0107083247754
1.63719747059e-05
1.63711852789e-05
1.63701303398e-05
1.63727920651e-05
1.63764847583e-05
1.62185919698e-05
1.6008466932e-05
2.21756992176e-05
0.000406216838795
0.0109668150371
1.63722715186e-05
1.63711756526e-05
1.63684683553e-05
1.63745965967e-05
1.63765748286e-05
1.62115407446e-05
1.59990817815e-05
2.25551494515e-05
0.000463120616763
0.0112578129379
1.63722809284e-05
1.637094869e-05
1.63680849471e-05
1.63772115479e-05
1.63712235543e-05
1.62006904272e-05
1.60002692894e-05
2.29592845355e-05
0.00049440110133
0.0113085159474
1.637248127e-05
1.63710200997e-05
1.63682401154e-05
1.63802892269e-05
1.63671803011e-05
1.61906282464e-05
1.59951300969e-05
2.3245806123e-05
0.000485761019162
0.0098921914888
1.63723507937e-05
1.63705869608e-05
1.63674958885e-05
1.63785102663e-05
1.6358704044e-05
1.61888591437e-05
1.60110257388e-05
2.345016901e-05
0.000501221582401
0.0108028914628
1.6372226615e-05
1.63703791562e-05
1.63671382737e-05
1.63776841753e-05
1.63552856616e-05
1.6188920763e-05
1.60164216805e-05
2.33893079339e-05
0.000472338975657
0.0111303211452
1.63718479843e-05
1.63695271125e-05
1.63636912207e-05
1.63710688704e-05
1.63588897404e-05
1.62041919596e-05
1.60106196671e-05
2.3186251127e-05
0.000452282913922
0.0109126985589
1.63716697704e-05
1.63692070378e-05
1.63619159665e-05
1.6368427624e-05
1.63581148308e-05
1.62013073643e-05
1.60148653119e-05
2.30445418533e-05
0.000442346858417
0.0112469857063
)
;
    }
    atmosphere
    {
        type            calculated;
        value           nonuniform List<scalar> 
16
(
0.00958174945283
0.00948277335948
0.00980934363809
0.00990567002941
0.0100148405009
0.0101937548098
0.0104647649087
0.0107083247754
0.0109668150371
0.0112578129379
0.0113085159474
0.0098921914888
0.0108028914628
0.0111303211452
0.0109126985589
0.0112469857063
)
;
    }
    floatingObject
    {
        type            calculated;
        value           nonuniform List<scalar> 0();
    }
    procBoundary1to0
    {
        type            processor;
        value           nonuniform List<scalar> 10(1.63716192855e-05 1.63697493208e-05 1.63622192462e-05 1.63661563128e-05 1.63532665084e-05 1.61841364816e-05 1.60088376915e-05 2.27915349812e-05 0.00041130646477 0.0111068958691);
    }
    procBoundary1to2
    {
        type            processor;
        value           nonuniform List<scalar> 
18
(
1.65176205243e-05
1.64006597649e-05
1.63779843463e-05
1.63735620953e-05
1.63735620953e-05
1.63719184769e-05
1.63719184769e-05
1.63717783646e-05
1.63719568581e-05
1.63718943371e-05
1.63721728999e-05
1.63721966495e-05
1.63723294605e-05
1.63722336454e-05
1.63721270501e-05
1.63721984683e-05
1.63720151955e-05
1.63719392279e-05
)
;
    }
}


// ************************************************************************* //
