/*--------------------------------*- C++ -*----------------------------------*\
| =========                 |                                                 |
| \\      /  F ield         | OpenFOAM: The Open Source CFD Toolbox           |
|  \\    /   O peration     | Version:  v2012                                 |
|   \\  /    A nd           | Website:  www.openfoam.com                      |
|    \\/     M anipulation  |                                                 |
\*---------------------------------------------------------------------------*/
FoamFile
{
    version     2.0;
    format      ascii;
    class       volScalarField;
    location    "3.8";
    object      epsilon;
}
// * * * * * * * * * * * * * * * * * * * * * * * * * * * * * * * * * * * * * //

dimensions      [0 2 -3 0 0 0 0];


internalField   nonuniform List<scalar> 
164
(
0.00109371063121
0.00114960009395
0.00126788325833
0.00131628814237
0.00133403849269
0.00132942363056
0.0012896429218
0.00118755597685
0.00140639388801
0.00139504170513
0.00142477945031
0.0015027662127
0.00134222831708
0.00165476247466
0.00110272308403
0.00115666195779
0.00127586023305
0.0013261267926
0.00134866156203
0.00135707537085
0.00135255317439
0.00133275460664
0.00132712727552
0.00134342679175
0.00136592137628
0.00138837230186
0.00145234041808
0.00163938182947
0.00111271924094
0.0011650591679
0.0012850326168
0.00133633851248
0.00136125860362
0.0013758498585
0.00138569381141
0.00139307225678
0.00140496504283
0.00142290391786
0.00144406561191
0.00146844201052
0.00151525331278
0.00164163948221
0.00112316141817
0.00117436201717
0.00129497481325
0.00134668536613
0.00137229626055
0.00138863494174
0.00140225063528
0.00141583418614
0.00143132352033
0.00144939338366
0.00146945617044
0.0014932742572
0.00153352393682
0.00163081130475
0.00113370695918
0.00118410005709
0.00130527236
0.00135701902686
0.00138249887919
0.00139882541384
0.00141275922546
0.00142695531791
0.00144248885504
0.0014596494212
0.0014785294363
0.00150118196812
0.00153748273304
0.00162220560834
0.00114396122093
0.0011938887619
0.00131556476666
0.00136711214627
0.00139210528367
0.0014078158528
0.00142105393576
0.00143446020003
0.00144899638294
0.00146495067865
0.00148268544258
0.0015044628305
0.0015399808272
0.00162334075244
0.00115362050725
0.00120340721585
0.00132552920737
0.00137674921365
0.00140108852782
0.00141601486491
0.00142835203477
0.00144073620821
0.00145413263053
0.00146891761608
0.00148573444636
0.00150743050789
0.00154540068007
0.00163710040031
0.00116251411478
0.00121243206396
0.0013349280058
0.00138573933225
0.00140937368741
0.00142347763552
0.00143493182311
0.00144635009411
0.00145871719661
0.00147249984895
0.00148862203773
0.00151084137071
0.00155317732496
0.00165843139685
0.00117064566832
0.00122080014518
0.00134361914254
0.00139398121729
0.00141689015474
0.00143019941614
0.00144082448957
0.00145137969091
0.00146284447227
0.0014757477699
0.00149120522706
0.00151363234068
0.00155902537844
0.00167419443569
0.00117784110877
0.00122841612284
0.00135151190508
0.00140139387607
0.00142358838997
0.00143614711775
0.00144601855459
0.0014558023727
0.00146646980219
0.00147854646677
0.00149317482447
0.00151476654892
0.00155946181671
0.00167494237172
0.00118421837937
0.00123521291957
0.00135853528866
0.00140793667847
0.00142944464396
0.00144130705758
0.00145050000904
0.0014596009827
0.00146956243755
0.00148089734641
0.00149470217593
0.00151519226269
0.00155791739859
0.00167007781043
0.00147209538358
0.00148277581071
0.00149589414413
0.00151560137249
0.00155721692554
0.00166752357652
0.00151548950423
0.00155569211828
0.00166236284969
0.00164897469712
)
;

boundaryField
{
    back
    {
        lowReCorrection 0;
        blending        stepwise;
        n               2;
        type            epsilonWallFunction;
        value           nonuniform List<scalar> 
164
(
0.00109371063121
0.00114960009395
0.00126788325833
0.00131628814237
0.00133403849269
0.00132942363056
0.0012896429218
0.00118755597685
0.00140639388801
0.00139504170513
0.00142477945031
0.0015027662127
0.00134222831708
0.00165476247466
0.00110272308403
0.00115666195779
0.00127586023305
0.0013261267926
0.00134866156203
0.00135707537085
0.00135255317439
0.00133275460664
0.00132712727552
0.00134342679175
0.00136592137628
0.00138837230186
0.00145234041808
0.00163938182947
0.00111271924094
0.0011650591679
0.0012850326168
0.00133633851248
0.00136125860362
0.0013758498585
0.00138569381141
0.00139307225678
0.00140496504283
0.00142290391786
0.00144406561191
0.00146844201052
0.00151525331278
0.00164163948221
0.00112316141817
0.00117436201717
0.00129497481325
0.00134668536613
0.00137229626055
0.00138863494174
0.00140225063528
0.00141583418614
0.00143132352033
0.00144939338366
0.00146945617044
0.0014932742572
0.00153352393682
0.00163081130475
0.00113370695918
0.00118410005709
0.00130527236
0.00135701902686
0.00138249887919
0.00139882541384
0.00141275922546
0.00142695531791
0.00144248885504
0.0014596494212
0.0014785294363
0.00150118196812
0.00153748273304
0.00162220560834
0.00114396122093
0.0011938887619
0.00131556476666
0.00136711214627
0.00139210528367
0.0014078158528
0.00142105393576
0.00143446020003
0.00144899638294
0.00146495067865
0.00148268544258
0.0015044628305
0.0015399808272
0.00162334075244
0.00115362050725
0.00120340721585
0.00132552920737
0.00137674921365
0.00140108852782
0.00141601486491
0.00142835203477
0.00144073620821
0.00145413263053
0.00146891761608
0.00148573444636
0.00150743050789
0.00154540068007
0.00163710040031
0.00116251411478
0.00121243206396
0.0013349280058
0.00138573933225
0.00140937368741
0.00142347763552
0.00143493182311
0.00144635009411
0.00145871719661
0.00147249984895
0.00148862203773
0.00151084137071
0.00155317732496
0.00165843139685
0.00117064566832
0.00122080014518
0.00134361914254
0.00139398121729
0.00141689015474
0.00143019941614
0.00144082448957
0.00145137969091
0.00146284447227
0.0014757477699
0.00149120522706
0.00151363234068
0.00155902537844
0.00167419443569
0.00117784110877
0.00122841612284
0.00135151190508
0.00140139387607
0.00142358838997
0.00143614711775
0.00144601855459
0.0014558023727
0.00146646980219
0.00147854646677
0.00149317482447
0.00151476654892
0.00155946181671
0.00167494237172
0.00118421837937
0.00123521291957
0.00135853528866
0.00140793667847
0.00142944464396
0.00144130705758
0.00145050000904
0.0014596009827
0.00146956243755
0.00148089734641
0.00149470217593
0.00151519226269
0.00155791739859
0.00167007781043
0.00147209538358
0.00148277581071
0.00149589414413
0.00151560137249
0.00155721692554
0.00166752357652
0.00151548950423
0.00155569211828
0.00166236284969
0.00164897469712
)
;
    }
    sides
    {
        lowReCorrection 0;
        blending        stepwise;
        n               2;
        type            epsilonWallFunction;
        value           nonuniform List<scalar> 0();
    }
    bottom
    {
        lowReCorrection 0;
        blending        stepwise;
        n               2;
        type            epsilonWallFunction;
        value           nonuniform List<scalar> 
11
(
0.00109371063121
0.00110272308403
0.00111271924094
0.00112316141817
0.00113370695918
0.00114396122093
0.00115362050725
0.00116251411478
0.00117064566832
0.00117784110877
0.00118421837937
)
;
    }
    front
    {
        lowReCorrection 0;
        blending        stepwise;
        n               2;
        type            epsilonWallFunction;
        value           nonuniform List<scalar> 
164
(
0.00109371063121
0.00114960009395
0.00126788325833
0.00131628814237
0.00133403849269
0.00132942363056
0.0012896429218
0.00118755597685
0.00140639388801
0.00139504170513
0.00142477945031
0.0015027662127
0.00134222831708
0.00165476247466
0.00110272308403
0.00115666195779
0.00127586023305
0.0013261267926
0.00134866156203
0.00135707537085
0.00135255317439
0.00133275460664
0.00132712727552
0.00134342679175
0.00136592137628
0.00138837230186
0.00145234041808
0.00163938182947
0.00111271924094
0.0011650591679
0.0012850326168
0.00133633851248
0.00136125860362
0.0013758498585
0.00138569381141
0.00139307225678
0.00140496504283
0.00142290391786
0.00144406561191
0.00146844201052
0.00151525331278
0.00164163948221
0.00112316141817
0.00117436201717
0.00129497481325
0.00134668536613
0.00137229626055
0.00138863494174
0.00140225063528
0.00141583418614
0.00143132352033
0.00144939338366
0.00146945617044
0.0014932742572
0.00153352393682
0.00163081130475
0.00113370695918
0.00118410005709
0.00130527236
0.00135701902686
0.00138249887919
0.00139882541384
0.00141275922546
0.00142695531791
0.00144248885504
0.0014596494212
0.0014785294363
0.00150118196812
0.00153748273304
0.00162220560834
0.00114396122093
0.0011938887619
0.00131556476666
0.00136711214627
0.00139210528367
0.0014078158528
0.00142105393576
0.00143446020003
0.00144899638294
0.00146495067865
0.00148268544258
0.0015044628305
0.0015399808272
0.00162334075244
0.00115362050725
0.00120340721585
0.00132552920737
0.00137674921365
0.00140108852782
0.00141601486491
0.00142835203477
0.00144073620821
0.00145413263053
0.00146891761608
0.00148573444636
0.00150743050789
0.00154540068007
0.00163710040031
0.00116251411478
0.00121243206396
0.0013349280058
0.00138573933225
0.00140937368741
0.00142347763552
0.00143493182311
0.00144635009411
0.00145871719661
0.00147249984895
0.00148862203773
0.00151084137071
0.00155317732496
0.00165843139685
0.00117064566832
0.00122080014518
0.00134361914254
0.00139398121729
0.00141689015474
0.00143019941614
0.00144082448957
0.00145137969091
0.00146284447227
0.0014757477699
0.00149120522706
0.00151363234068
0.00155902537844
0.00167419443569
0.00117784110877
0.00122841612284
0.00135151190508
0.00140139387607
0.00142358838997
0.00143614711775
0.00144601855459
0.0014558023727
0.00146646980219
0.00147854646677
0.00149317482447
0.00151476654892
0.00155946181671
0.00167494237172
0.00118421837937
0.00123521291957
0.00135853528866
0.00140793667847
0.00142944464396
0.00144130705758
0.00145050000904
0.0014596009827
0.00146956243755
0.00148089734641
0.00149470217593
0.00151519226269
0.00155791739859
0.00167007781043
0.00147209538358
0.00148277581071
0.00149589414413
0.00151560137249
0.00155721692554
0.00166752357652
0.00151548950423
0.00155569211828
0.00166236284969
0.00164897469712
)
;
    }
    atmosphere
    {
        type            inletOutlet;
        inletValue      nonuniform List<scalar> 0();
        value           nonuniform List<scalar> 0();
    }
    floatingObject
    {
        lowReCorrection 0;
        blending        stepwise;
        n               2;
        type            epsilonWallFunction;
        value           nonuniform List<scalar> 4(0.00140639388801 0.00139504170513 0.00142477945031 0.0015027662127);
    }
    procBoundary8to3
    {
        type            processor;
        value           nonuniform List<scalar> 8(0.00108604685087 0.00114392314575 0.00126146463603 0.0013078392453 0.00132030817168 0.001302439238 0.0012279172277 0.00127917926743);
    }
    procBoundary8to6
    {
        type            processor;
        value           nonuniform List<scalar> 
16
(
0.00177223282046
0.00193837635537
0.00219375025785
0.00204455189288
0.00195854041026
0.00189625219333
0.00186137173633
0.00185621611066
0.00188337309925
0.00192896001081
0.00196240448705
0.00196615775861
0.00195847029634
0.00195299568767
0.00193787093089
0.00190220058716
)
;
    }
    procBoundary8to7
    {
        type            processor;
        value           nonuniform List<scalar> 
17
(
0.00118972295603
0.00124119977402
0.00136468814272
0.00141360587952
0.00143446186681
0.00144568515097
0.00145427115708
0.00146276339606
0.00146276339606
0.00147405515856
0.00148412699453
0.00149658691287
0.00149658691287
0.00151438985451
0.00155138803486
0.00155138803486
0.00163005026342
)
;
    }
}


// ************************************************************************* //
