/*--------------------------------*- C++ -*----------------------------------*\
| =========                 |                                                 |
| \\      /  F ield         | OpenFOAM: The Open Source CFD Toolbox           |
|  \\    /   O peration     | Version:  v2012                                 |
|   \\  /    A nd           | Website:  www.openfoam.com                      |
|    \\/     M anipulation  |                                                 |
\*---------------------------------------------------------------------------*/
FoamFile
{
    version     2.0;
    format      ascii;
    class       surfaceScalarField;
    location    "3.8";
    object      phi;
}
// * * * * * * * * * * * * * * * * * * * * * * * * * * * * * * * * * * * * * //

dimensions      [0 3 -1 0 0 0 0];
oriented        oriented;


internalField   nonuniform List<scalar> 
300
(
-1.16811847573e-05
3.41377128008e-05
-2.25313554663e-05
3.03309749017e-05
-3.29254610251e-05
2.69083505398e-05
-4.40887324803e-05
2.39686617867e-05
-5.77372751414e-05
2.03917874502e-05
-7.7682863797e-05
1.48616651875e-05
-0.000111678459635
7.94316889001e-06
-0.000167096455167
2.90933970726e-06
-0.000190477642777
2.33813602482e-05
-0.000197667345096
7.18992926469e-06
-0.00021333594016
1.56687555292e-05
-0.0002986972475
8.5361027462e-05
-0.000188798684137
0.000272994976248
0.000193366477067
-1.17108091636e-05
4.58481898622e-05
-2.29965117009e-05
4.16163487262e-05
-3.4454837617e-05
3.83663943604e-05
-4.70131041791e-05
3.65267088777e-05
-6.21766023229e-05
3.55551420961e-05
-8.15612596975e-05
3.4246238372e-05
-0.000107848182505
3.42300608782e-05
-0.000144207754446
3.92689307417e-05
-0.000162301069592
4.14747735003e-05
-0.000192165669335
3.70547067474e-05
-0.000226388328395
4.98916016665e-05
-0.000248590442637
0.000107563169498
-0.000182356448469
0.00020676086018
0.000183678378183
-1.16817449269e-05
5.75295422663e-05
-2.29119554727e-05
5.28461571525e-05
-3.42942281523e-05
4.9748276634e-05
-4.62783653436e-05
4.85104736593e-05
-5.96120774586e-05
4.88885155537e-05
-7.58768540371e-05
5.0510717637e-05
-9.54910182213e-05
5.38439963684e-05
-0.000117714494738
6.14922800489e-05
-0.000141286933272
6.50472214914e-05
-0.000170792863683
6.65607789111e-05
-0.000201353069561
8.04520283847e-05
-0.000213620480876
0.000119830805785
-0.000178099056167
0.000171239641985
0.000170660096092
-1.13293240186e-05
6.88584615234e-05
-2.23910969869e-05
6.39075109613e-05
-3.34506623493e-05
6.08074072396e-05
-4.49506568905e-05
6.00100136003e-05
-5.75134623421e-05
6.14508606815e-05
-7.15998288485e-05
6.45966426868e-05
-8.72000924245e-05
6.94438844649e-05
-0.000102451727943
7.67436598612e-05
-0.000120494028691
8.30894346233e-05
-0.000143190875241
8.92577150757e-05
-0.000165453792551
0.000102715170502
-0.00017373866138
0.000128116000469
-0.000159307165058
0.000156808538216
0.000163629955131
-1.09190891218e-05
7.9777192652e-05
-2.14101747878e-05
7.43982206816e-05
-3.19091519101e-05
7.13059690095e-05
-4.28866459578e-05
7.09870382665e-05
-5.43504862701e-05
7.29141875103e-05
-6.66844268012e-05
7.69300588868e-05
-7.97807166242e-05
8.25396976636e-05
-9.29386324489e-05
8.99012160374e-05
-0.000107393350842
9.75439725141e-05
-0.000123976275321
0.000105840663744
-0.000139557939735
0.000118297033408
-0.000147453868683
0.000136012289168
-0.000144665751173
0.000154020904505
0.000162677440755
-1.03282645663e-05
9.0105189419e-05
-2.00973100059e-05
8.41669728539e-05
-2.98939298155e-05
8.11022329631e-05
-3.99356928397e-05
8.1028359517e-05
-5.05910613403e-05
8.3569034274e-05
-6.1489677575e-05
8.78281108131e-05
-7.29729978555e-05
9.40224773742e-05
-8.45973907691e-05
0.000101525173383
-9.69227120186e-05
0.000109869038143
-0.000110296422391
0.000119214338215
-0.000122314834265
0.000130315610001
-0.000130544086803
0.000144241907186
-0.000133823204861
0.000157300552016
0.000165934269273
-9.47373724757e-06
9.95787628681e-05
-1.84640251892e-05
9.31570579825e-05
-2.74186012516e-05
9.00565209595e-05
-3.65525852415e-05
9.01619418993e-05
-4.5979468424e-05
9.29954067949e-05
-5.59566286811e-05
9.78046925018e-05
-6.60164239195e-05
0.00010408169917
-7.64525605666e-05
0.000111960832416
-8.73184483185e-05
0.000120734628685
-9.8531985324e-05
0.000130427807986
-0.000109513794117
0.000141297569853
-0.000118391505855
0.000153119993095
-0.000125439291881
0.000164348890756
0.000173460165981
-8.36709251086e-06
0.000107945777827
-1.64771513811e-05
0.000101266981604
-2.44100650445e-05
9.79891942804e-05
-3.24866225249e-05
9.82381261188e-05
-4.08517590684e-05
0.000101360044693
-4.95767750113e-05
0.000106529131482
-5.87104376879e-05
0.000113214786427
-6.79603200416e-05
0.000121210238426
-7.76457804627e-05
0.000130419800628
-8.77963736985e-05
0.000140578351682
-9.81785440009e-05
0.000151679916232
-0.000108141276747
0.000163083124541
-0.000118362608932
0.000174570777753
0.00018516681589
-7.36097164047e-06
0.000115306730244
-1.4290140611e-05
0.000108196049572
-2.11801406649e-05
0.00010487896633
-2.81582573086e-05
0.000105215864957
-3.5390662759e-05
0.000108591939817
-4.29378472993e-05
0.000114075731795
-5.0868434476e-05
0.000121144810879
-5.91684925125e-05
0.000129509863449
-6.78832834894e-05
0.00013913436996
-7.72615646754e-05
0.000149956655922
-8.73311691334e-05
0.000161749758049
-9.83628806349e-05
0.000174115262125
-0.000110408884702
0.000186617296647
0.000199672922734
-6.04669160705e-06
0.00012135340203
-1.19339398585e-05
0.000114083178249
-1.76931910826e-05
0.000110637948797
-2.35330246609e-05
0.000111055272158
-2.95841447219e-05
0.000114642511254
-3.59317274257e-05
0.000120422729531
-4.26278355788e-05
0.00012784041149
-4.98398862937e-05
0.000136721603498
-5.74922434838e-05
0.000146786673703
-6.5913751521e-05
0.000158378357788
-7.53811745504e-05
0.000171217544883
-8.62556620502e-05
0.000184990173628
-9.86094395748e-05
0.000198971436603
0.000213866551894
-4.86468151705e-06
-9.46618370152e-06
-1.40290385301e-05
-1.86627418482e-05
-2.34729599068e-05
-2.8519805262e-05
-3.39005805552e-05
-3.97158450636e-05
-4.63183761403e-05
0.000153389432573
-5.33119202689e-05
0.000165372301848
-6.17649883631e-05
0.000179671067318
-7.17092933704e-05
0.000194934718944
-8.39867973121e-05
0.000211248700943
0.000227972376555
-3.38033834109e-05
-3.97947676888e-05
-4.6660244738e-05
-5.55600062739e-05
0.000203834136175
-6.72054964203e-05
0.000222892967065
0.000242655005037
-3.64809441623e-05
-4.6079010342e-05
0.000255901761334
)
;

boundaryField
{
    back
    {
        type            calculated;
        value           uniform 0;
    }
    sides
    {
        type            calculated;
        value           nonuniform List<scalar> 0();
    }
    bottom
    {
        type            calculated;
        value           uniform 0;
    }
    front
    {
        type            calculated;
        value           uniform 0;
    }
    atmosphere
    {
        type            calculated;
        value           nonuniform List<scalar> 0();
    }
    floatingObject
    {
        type            calculated;
        value           uniform 0;
    }
    procBoundary8to3
    {
        type            processor;
        value           nonuniform List<scalar> 8(-2.24568624618e-05 -1.94810949536e-05 -1.65143884119e-05 -1.2805346532e-05 -6.74298643252e-06 5.08432143249e-06 2.60529814072e-05 5.2509051125e-05);
    }
    procBoundary8to6
    {
        type            processor;
        value           nonuniform List<scalar> 
16
(
-0.000382894657727
-0.000194210410184
-0.00018795608895
-0.000172668583872
-0.000165080642766
-0.0001522766676
-0.000143712756254
-0.000137079487697
-0.000132964619486
-0.000130068713813
-0.000124914553374
-0.000112802908148
-9.80930894135e-05
-8.1890306975e-05
-5.93292821891e-05
-2.75840407284e-05
)
;
    }
    procBoundary8to7
    {
        type            processor;
        value           nonuniform List<scalar> 
17
(
0.000126218050287
0.000118684526169
0.000115200504474
0.000115688544891
0.000119452226115
0.000125469091674
0.000133220875343
0.000142536815035
2.8960975626e-05
0.00015823229169
0.000171364311603
0.000186536793826
2.96585989867e-05
0.000210655203837
0.000232487582525
1.93130403514e-05
0.000264165050758
)
;
    }
}


// ************************************************************************* //
