/*--------------------------------*- C++ -*----------------------------------*\
| =========                 |                                                 |
| \\      /  F ield         | OpenFOAM: The Open Source CFD Toolbox           |
|  \\    /   O peration     | Version:  v2012                                 |
|   \\  /    A nd           | Website:  www.openfoam.com                      |
|    \\/     M anipulation  |                                                 |
\*---------------------------------------------------------------------------*/
FoamFile
{
    version     2.0;
    format      ascii;
    class       volVectorField;
    location    "0.6";
    object      U;
}
// * * * * * * * * * * * * * * * * * * * * * * * * * * * * * * * * * * * * * //

dimensions      [0 1 -1 0 0 0 0];


internalField   nonuniform List<vector> 
164
(
(-0.0246695462343 0.00697481277824 1.21971675419e-21)
(-0.0249524205722 0.0160179280836 -8.76636417744e-22)
(-0.0235027257551 0.0277476397458 -1.23624224309e-22)
(-0.0201878005818 0.0399463816007 4.4433373067e-22)
(-0.0139871452235 0.0531481914439 5.20503206115e-21)
(-0.00325765184664 0.0696563868326 2.69409618296e-20)
(0.0144689854547 0.0899892997341 2.20029794903e-19)
(0.0464860002149 0.124079507036 2.22491845836e-18)
(0.015590765915 0.156930757872 9.53385946698e-18)
(-0.0185643002192 0.187476121544 2.17539582948e-17)
(-0.0373531018775 0.22952070026 1.06119917426e-17)
(-0.0584609202314 0.311117249916 1.39375987066e-17)
(-0.176160219527 0.336036597386 1.00652632826e-17)
(-0.194273595107 0.304532669782 4.33039561503e-18)
(-0.0361061507202 0.00737328731455 1.8018489641e-21)
(-0.0368722346603 0.0171552142557 -1.53829067168e-21)
(-0.0360134846792 0.0298365389676 -5.3674164569e-22)
(-0.0340105606702 0.0434075669082 2.68623742865e-23)
(-0.0307666131586 0.0582990568145 1.19743225687e-21)
(-0.0262152442243 0.0762005817684 1.78481413869e-21)
(-0.0213883510063 0.0991916681133 2.50153642279e-20)
(-0.0157828749585 0.135232137798 2.8771907847e-19)
(-0.0407548238361 0.171102772975 1.1893879781e-18)
(-0.0591551965078 0.204931050825 2.58132397829e-18)
(-0.0784774270793 0.235662480659 1.54500410064e-18)
(-0.102762654862 0.27286908259 6.99999243084e-19)
(-0.156810633177 0.296030589716 -5.36356851158e-20)
(-0.192409545975 0.294479741234 -1.53156489614e-18)
(-0.0481185853408 0.00754593762159 3.84606812282e-21)
(-0.0494424427622 0.0178070904327 -7.73084015322e-22)
(-0.0492972092593 0.0309534751894 -9.43515276467e-23)
(-0.0486203553508 0.0451569602184 3.12608993353e-22)
(-0.0475962340874 0.0607649141865 6.09809348248e-22)
(-0.0464154869224 0.0791063418088 1.05884637825e-21)
(-0.0459599388975 0.101432840671 4.71690147185e-21)
(-0.0467903871872 0.13084675471 1.87043081348e-20)
(-0.0617638647125 0.1612101141 8.52275230237e-20)
(-0.0832772303518 0.188510388108 8.77646633015e-20)
(-0.106736611938 0.213245592122 2.42869034369e-20)
(-0.133876712704 0.237349061604 -1.36659884344e-20)
(-0.168637557891 0.257175458531 -1.6766942336e-20)
(-0.202280840769 0.26584107134 2.4201463163e-19)
(-0.0603322355419 0.00748078446869 3.47144148142e-21)
(-0.0622357413363 0.0178905542839 -7.49225387759e-22)
(-0.062808351805 0.0310023162972 3.05427879266e-22)
(-0.0633919135253 0.0451215655538 3.09956918695e-22)
(-0.0643285081506 0.0603995316404 2.66920116012e-22)
(-0.0660420626388 0.0777284941024 1.89648656401e-22)
(-0.0694866001061 0.097684815384 3.79808794794e-22)
(-0.0756046701347 0.121205112154 -1.37057129621e-21)
(-0.0891482580142 0.145796809057 1.27296519718e-21)
(-0.107926129584 0.168870761941 3.13284128467e-22)
(-0.129795500741 0.189761272633 -1.1583637879e-21)
(-0.154380011175 0.208851698088 1.64716020884e-21)
(-0.181883926706 0.225832840904 2.52958797217e-21)
(-0.211341408274 0.237652980824 -3.16786863711e-20)
(-0.0723655333447 0.00721299018396 1.99351523308e-21)
(-0.074817107599 0.017450769653 -1.10483800461e-21)
(-0.0760123044974 0.0301201311853 1.33605011187e-22)
(-0.0776264012428 0.043647574942 8.39283730093e-22)
(-0.0800431642822 0.0580153786909 2.95819828966e-22)
(-0.0836957166057 0.0738083032962 1.95821789365e-22)
(-0.0893109879006 0.0912792524605 1.84906233563e-22)
(-0.0976477347025 0.110576320333 -4.42810505891e-22)
(-0.110497129063 0.130555876052 3.79081598808e-22)
(-0.127514582408 0.149753333404 1.37508039098e-21)
(-0.147676521001 0.167464710071 1.36569599438e-21)
(-0.170442386761 0.183607915025 1.66209454947e-21)
(-0.19565576469 0.198201562181 1.27133386974e-21)
(-0.222919313154 0.210328870922 7.59562042721e-21)
(-0.08390275374 0.00678645487616 1.85849263487e-21)
(-0.0868379763758 0.0165827466757 -1.70983352816e-21)
(-0.0885311295953 0.0285049516448 -8.36240699597e-23)
(-0.0909197275737 0.0411060785845 6.56221433453e-22)
(-0.0943783960095 0.0542604393511 1.63007732922e-22)
(-0.0992749507084 0.0683556660639 1.42304521484e-22)
(-0.1061277724 0.0834881609874 2.28003405236e-22)
(-0.115481669809 0.0995609501815 -2.24113567497e-23)
(-0.128118604784 0.115964007437 1.74860892672e-22)
(-0.144083236913 0.13187702663 5.91466372402e-22)
(-0.16293747829 0.146755073276 9.85924852449e-23)
(-0.184301024048 0.160382944061 4.72146619546e-22)
(-0.207917438761 0.172743057395 -2.88842135298e-22)
(-0.233595466812 0.183557834169 -3.02973560503e-22)
(-0.0947018527265 0.00624184568481 2.80813679128e-21)
(-0.0980404683861 0.015392829205 -4.09878047517e-22)
(-0.100108768418 0.0263549444772 4.88758873305e-22)
(-0.103040519485 0.0378225980287 3.04452735454e-22)
(-0.107189008104 0.0496147430332 1.79484960576e-22)
(-0.112848885036 0.0619894684464 3.44418274922e-22)
(-0.120388720899 0.0749628507999 1.5964419371e-22)
(-0.130183979959 0.0883843911268 1.79403922605e-23)
(-0.142629919701 0.101877168466 6.00803582983e-22)
(-0.157831415867 0.114956624433 2.92868374491e-22)
(-0.175626267716 0.127232607256 4.4169461959e-22)
(-0.195805409226 0.138484493364 6.55883147825e-22)
(-0.21819970043 0.148652872012 2.00044511514e-21)
(-0.242714750865 0.157616099827 8.98257173323e-22)
(-0.104586248157 0.00561514773989 2.09303155053e-21)
(-0.108247052919 0.0139807707667 -4.81451291837e-22)
(-0.110582599822 0.0238429278492 2.83528698637e-22)
(-0.1138667851 0.0340586106644 5.48899263811e-22)
(-0.118436084384 0.0444273129078 8.08455937988e-23)
(-0.124523614129 0.0551164648737 1.73119310264e-22)
(-0.132393842324 0.0660997776894 1.49328830443e-22)
(-0.142304713445 0.0772302636804 6.27267438267e-23)
(-0.154489977324 0.0882472330252 5.418641564e-22)
(-0.169051347316 0.098840373288 9.39876340458e-22)
(-0.185952263195 0.108727143862 3.89459544043e-22)
(-0.205098303962 0.117717692059 4.36947944545e-22)
(-0.226397760299 0.125732333847 2.94016221373e-22)
(-0.24978611977 0.13270273774 5.06984875485e-22)
(-0.113436522282 0.00493578154074 9.39110279336e-22)
(-0.117346444356 0.0124303045538 -1.11320885895e-21)
(-0.119859066916 0.0211088733404 -1.94938834111e-22)
(-0.123344921808 0.0300157659449 2.35437373693e-22)
(-0.12813302099 0.0389513254115 7.11533807837e-23)
(-0.134409400248 0.0480150877649 -2.9285284622e-23)
(-0.142366232539 0.0571578052851 3.05577986644e-23)
(-0.152184693041 0.0662467338842 -8.96357946572e-23)
(-0.1640221619 0.0750845195394 4.14746309488e-23)
(-0.177968991817 0.0834508920378 1.76998764654e-23)
(-0.194050437343 0.0911326288912 -1.87655463051e-22)
(-0.212243856713 0.0979720049108 1.38686197239e-22)
(-0.23252866242 0.103886352415 -4.09667304719e-22)
(-0.254906060445 0.108840788965 -3.40360133393e-22)
(-0.121191062631 0.00422602803993 2.79781557197e-22)
(-0.125282271533 0.0108038509537 -1.03689764117e-21)
(-0.127896110012 0.0182591736454 -1.41451558793e-22)
(-0.131466032129 0.0258443635637 7.87941768402e-23)
(-0.136321735009 0.033369152503 3.70655524088e-23)
(-0.142614179586 0.0408802867073 3.64555574644e-23)
(-0.150484629593 0.0483149477268 4.4608635174e-23)
(-0.16006506457 0.0555518776716 1.32162048474e-22)
(-0.171472764172 0.0624301627075 4.9880104203e-23)
(-0.184786873023 0.0687739744503 -2.01740151013e-22)
(-0.200059436301 0.0744092681385 1.24158777442e-22)
(-0.217311390434 0.0791940167742 -6.01613999609e-23)
(-0.236577764859 0.0830349069299 3.57121163203e-22)
(-0.257920838569 0.08588237045 -1.21393049108e-23)
(-0.127831906752 0.00350741504985 1.40609793651e-22)
(-0.132037649228 0.00914729249696 1.71994262967e-22)
(-0.134688297714 0.0153736154685 4.94931946523e-23)
(-0.138250833521 0.0216559142205 2.15797277512e-22)
(-0.143060781687 0.0278140794999 6.80542305243e-23)
(-0.149243119808 0.0338534703195 6.24833797791e-23)
(-0.156902068738 0.0397021019183 8.49734559362e-23)
(-0.16613538748 0.0452444546925 -9.79466732054e-23)
(-0.177035484521 0.0503393827037 3.3655623934e-23)
(-0.189673499562 0.0548323659173 5.72057300747e-23)
(-0.204108490409 0.0585684240326 -3.13000894577e-22)
(-0.220391363773 0.0614040405677 -2.91602135394e-23)
(-0.238595161238 0.063217641387 -2.88850377422e-22)
(-0.258837143965 0.0638984849777 -7.40998817119e-23)
(-0.180876638292 0.0388720235941 -3.26451849753e-23)
(-0.1927866825 0.0416707529687 5.3159058979e-24)
(-0.206337563197 0.0436554893524 5.07341450263e-23)
(-0.221588734901 0.0446705159082 -1.41524406801e-22)
(-0.238617309614 0.0445603941765 -1.0357359179e-22)
(-0.257550779822 0.0431483476065 -7.9404198963e-23)
(-0.221042817092 0.029085690107 -1.38496468295e-22)
(-0.236794830049 0.0272147684867 9.16495733768e-23)
(-0.254258939433 0.023904577106 1.13929709366e-23)
(-0.249161276036 0.00634037493262 -6.42364009864e-22)
)
;

boundaryField
{
    back
    {
        type            noSlip;
    }
    sides
    {
        type            noSlip;
    }
    bottom
    {
        type            noSlip;
    }
    front
    {
        type            noSlip;
    }
    atmosphere
    {
        type            pressureInletOutletVelocity;
        value           nonuniform List<vector> 0();
    }
    floatingObject
    {
        type            movingWallVelocity;
        value           nonuniform List<vector> 4((0 -4.4408920985e-15 5.55111512313e-16) (0 -4.4408920985e-15 5.55111512313e-16) (0 0 0) (0 -8.881784197e-15 5.55111512313e-16));
    }
    procBoundary8to3
    {
        type            processor;
        value           nonuniform List<vector> 8((-0.0142037886507 0.00640157462377 1.66796214237e-21) (-0.0142309412704 0.0145433755355 3.5061074258e-21) (-0.0129009742422 0.0247033348452 6.77279079224e-22) (-0.00992495295375 0.0338313425774 1.28610045577e-21) (-0.00410256352982 0.0409116485097 1.45986797177e-20) (0.00662635514069 0.0448308340821 1.46997554491e-19) (0.0238548208341 0.0387413369379 9.74108201117e-19) (0.049466263559 0.0348736540917 5.33338457373e-18));
    }
    procBoundary8to6
    {
        type            processor;
        value           nonuniform List<vector> 
16
(
(-0.163280485602 0.197567672022 9.91327881889e-18)
(-0.178750278126 0.187726774407 3.53273668809e-18)
(-0.206044111842 0.318565066383 2.3516316233e-18)
(-0.22260894033 0.302850759566 -1.11549037702e-18)
(-0.229673943448 0.275222175771 2.53359129992e-19)
(-0.238376198726 0.250934428455 -5.33597052374e-20)
(-0.250175916771 0.223431710035 1.19633393515e-20)
(-0.260750616424 0.194436449305 2.8942867252e-22)
(-0.269108310208 0.165992979551 -1.17064380989e-21)
(-0.275116058744 0.138878489094 7.86370821409e-22)
(-0.279375423278 0.112953453456 2.51927099272e-22)
(-0.281466667576 0.0877560614855 -5.46286418459e-22)
(-0.281335595291 0.063318800273 7.07105477892e-22)
(-0.278589452078 0.0401420921911 7.0897486507e-23)
(-0.273587992462 0.0188655658391 5.29157653092e-22)
(-0.266553025121 -0.000481980738368 -5.27511355891e-22)
)
;
    }
    procBoundary8to7
    {
        type            processor;
        value           nonuniform List<vector> 
17
(
(-0.133355687851 0.00279761643054 -6.46684558609e-23)
(-0.137617869738 0.00749814903538 -3.59451381535e-22)
(-0.140254875315 0.0125159306792 -8.32926255009e-23)
(-0.143741128582 0.0175368746636 -7.28704966507e-24)
(-0.148420017833 0.0223869026002 4.59821495213e-24)
(-0.154397923203 0.0270399777155 -1.07249988353e-24)
(-0.161752205526 0.0314182169684 1.48148839521e-23)
(-0.170554813148 0.0354071447424 4.19004826813e-23)
(-0.170554813148 0.0354071447424 4.19004826813e-23)
(-0.183156405701 0.0280858857943 -1.10791597451e-23)
(-0.194284975952 0.0293445702565 -2.62973468047e-23)
(-0.206894923803 0.0297342307421 -3.5683117914e-23)
(-0.206894923803 0.0297342307421 -3.5683117914e-23)
(-0.218924939684 0.0147363269792 -2.19951676593e-22)
(-0.233310355272 0.0113098853695 6.47593384137e-23)
(-0.233310355272 0.0113098853695 6.47593384137e-23)
(-0.242573578812 -0.00935800959176 -1.88575568921e-22)
)
;
    }
}


// ************************************************************************* //
