/*--------------------------------*- C++ -*----------------------------------*\
| =========                 |                                                 |
| \\      /  F ield         | OpenFOAM: The Open Source CFD Toolbox           |
|  \\    /   O peration     | Version:  v2012                                 |
|   \\  /    A nd           | Website:  www.openfoam.com                      |
|    \\/     M anipulation  |                                                 |
\*---------------------------------------------------------------------------*/
FoamFile
{
    version     2.0;
    format      ascii;
    class       volVectorField;
    location    "0.3";
    object      ddtCorrDdt0(U);
}
// * * * * * * * * * * * * * * * * * * * * * * * * * * * * * * * * * * * * * //

dimensions      [0 1 -2 0 0 0 0];


internalField   nonuniform List<vector> 
167
(
(-0.141213374065 -0.0296221028471 -1.68381012657e-22)
(-0.141664023951 -0.0384306784072 -1.66539180104e-23)
(-0.14215972749 -0.0474331522817 -1.08104909672e-25)
(-0.14266116177 -0.0566750371502 7.09664547071e-25)
(-0.143117589904 -0.0661842948934 -5.42470357394e-24)
(-0.143469462444 -0.0759860581545 -5.48293533741e-24)
(-0.143649341954 -0.0860973879088 -5.47353456365e-25)
(-0.143581854485 -0.0965262699264 1.7520732382e-24)
(-0.131614144075 -0.0122937746719 2.35015701295e-21)
(-0.132172073868 -0.0210741233237 -3.12385268064e-23)
(-0.132457978242 -0.0299501083119 -8.28691196116e-23)
(-0.132745771174 -0.0388035235109 -1.88990388667e-23)
(-0.133044216155 -0.0478151371071 -1.22239580359e-23)
(-0.133318298545 -0.0570219756072 4.98340350235e-25)
(-0.133522862049 -0.0664442524029 1.28905036104e-23)
(-0.133605580276 -0.0760994695276 -4.97857792531e-24)
(-0.133507219229 -0.0859980302232 -1.1000442159e-24)
(-0.133163523215 -0.0961413958653 3.38946313554e-24)
(-0.132503844266 -0.106520679213 -1.96918420073e-24)
(-0.123019466694 -0.01241001625 -3.47914932236e-22)
(-0.123479345282 -0.0212387470324 3.1487834838e-22)
(-0.123659809819 -0.0301483019769 -1.89031476978e-22)
(-0.12381520194 -0.0390145502765 -1.55491407118e-23)
(-0.123954345921 -0.0480068501091 4.74019325851e-24)
(-0.124046279845 -0.057155184772 8.86586230619e-25)
(-0.124051241791 -0.0664732309077 1.90731941503e-24)
(-0.123923422305 -0.0759722067442 -1.97046080888e-24)
(-0.123611602913 -0.085657204473 -8.69098516152e-26)
(-0.123060080185 -0.095524769098 -5.45162511879e-24)
(-0.122209326363 -0.105562308027 -1.50939988898e-26)
(-0.114377566834 -0.0124792685136 4.07561273738e-22)
(-0.114753792316 -0.0213268447403 6.06119650538e-23)
(-0.114849509299 -0.0302420483563 -1.00976469153e-22)
(-0.114899481096 -0.0390958594599 -1.01388794244e-23)
(-0.114912817029 -0.0480472941517 -5.83860651583e-24)
(-0.114862379931 -0.0571202630266 1.25567229354e-24)
(-0.114713392501 -0.0663229529956 3.7156308462e-24)
(-0.114426026077 -0.0756615412869 1.7231342318e-25)
(-0.113956199527 -0.0851365136512 1.9534853974e-24)
(-0.113256168252 -0.0947409836649 3.48860086621e-24)
(-0.103736173507 -0.00515023483982 7.84067584983e-22)
(-0.105716351089 -0.0125108751622 -3.06029967437e-22)
(-0.106021660621 -0.0213543224701 9.22151766716e-23)
(-0.106050683145 -0.0302535599645 -1.19543149333e-23)
(-0.106019048002 -0.039075819221 -4.70841302108e-26)
(-0.105936007913 -0.0479707491764 -1.63323882361e-24)
(-0.105777964559 -0.0569570556552 2.06597920145e-24)
(-0.105514691798 -0.0660383477629 -1.47786815718e-24)
(-0.105111756934 -0.0752166536923 1.50938882357e-24)
(-0.104531739318 -0.0844890866312 6.09498897528e-24)
(-0.103733299119 -0.0938454641719 1.45070737115e-24)
(-0.0952684791298 -0.005130518407 3.05529763903e-22)
(-0.0970573011145 -0.012513278776 7.16432044414e-22)
(-0.0973029218495 -0.0213352262411 -2.7288042723e-22)
(-0.0972811300076 -0.0302024143921 -7.49271924729e-23)
(-0.0971887412343 -0.0389793084643 -1.02414360501e-23)
(-0.0970349979197 -0.0478071350597 2.1714551535e-24)
(-0.0967995261541 -0.0567001579381 2.99157978253e-25)
(-0.0964562122696 -0.0656581685392 -2.24467990989e-24)
(-0.0959758654358 -0.0746801757834 5.54218195619e-24)
(-0.0953259265499 -0.0837596702227 6.45998612903e-24)
(-0.094471572273 -0.0928846001924 -1.29178380158e-24)
(-0.0868105762618 -0.00510434572955 -3.92762183593e-22)
(-0.0884164722428 -0.0124939385796 1.78768872888e-21)
(-0.0886123325832 -0.0212818312394 -2.58725716207e-22)
(-0.0885535843405 -0.0301056987499 -5.25150115893e-23)
(-0.0884185727484 -0.0388279795792 -6.97483223837e-24)
(-0.0882163579423 -0.0475823934618 3.51872268673e-24)
(-0.0879294936609 -0.0563794264138 3.72885552793e-24)
(-0.0875357319219 -0.0652160303599 4.22702801974e-24)
(-0.0870101513463 -0.0740878086815 4.15599475016e-24)
(-0.0863246102951 -0.0829863007626 5.3450247648e-24)
(-0.0783746078036 -0.00507417227676 -1.50670053978e-22)
(-0.0798052633287 -0.0124592903447 1.51349419825e-21)
(-0.0799600853042 -0.0212048337726 1.48504539076e-22)
(-0.0798764183875 -0.0299782390214 1.17249488112e-23)
(-0.0797144354349 -0.0386405475709 4.12044515067e-24)
(-0.0794828656115 -0.0473188596415 -1.31270703134e-24)
(-0.0791669280118 -0.0560205991488 2.29342326419e-24)
(-0.0787478708884 -0.0647400048251 2.66859680758e-24)
(-0.0782040567523 -0.073470331618 1.15329700323e-23)
(-0.0699685196979 -0.00504218740875 7.47222881822e-22)
(-0.0712310048156 -0.0124150124802 8.54654241029e-22)
(-0.0713524815229 -0.0211135366726 -1.65303477839e-22)
(-0.0712543061815 -0.0298328241396 -1.33563063986e-22)
(-0.0710787599978 -0.0384330667205 1.35181596736e-24)
(-0.0708341214502 -0.0470356247523 -3.25238175414e-25)
(-0.0705080527543 -0.055645360087 8.63963884141e-24)
(-0.0700846702914 -0.0642541645051 7.97043617843e-24)
(-0.0695460372549 -0.0728536787626 1.47843427299e-24)
(-0.0615965766082 -0.00501041166879 3.7001216071e-22)
(-0.0626975672898 -0.0123662005985 3.00958870272e-21)
(-0.062792570125 -0.0210160392765 1.17694719971e-22)
(-0.0626888526924 -0.0296804121743 2.91594424696e-23)
(-0.0625111035431 -0.0382191757257 5.85783903357e-24)
(-0.0622670982498 -0.0467488134475 5.39493800106e-24)
(-0.0619467349005 -0.0552719598803 2.78133245659e-24)
(-0.061536771087 -0.0637788482271 1.13737097366e-23)
(-0.0610225573745 -0.0722593018402 5.7681429949e-25)
(-0.0603877417105 -0.0807006355637 -1.18580613744e-24)
(-0.0532595633739 -0.00498091229648 -1.39567552607e-24)
(-0.0542058591419 -0.0123176829166 3.48058117677e-22)
(-0.0542807206733 -0.0209194547253 9.32576794741e-23)
(-0.0541791201249 -0.0295303056747 -1.22692170445e-22)
(-0.0540086105945 -0.0380102991943 -3.79314615914e-24)
(-0.0537765636918 -0.0464718538525 -4.94378299876e-24)
(-0.0534749877356 -0.054915754995 -2.36497520841e-24)
(-0.0530932043029 -0.0633307369489 -5.46438512609e-24)
(-0.052619132015 -0.0717054086508 2.94362386966e-24)
(-0.0520398016058 -0.0800259229692 2.38887294119e-24)
(-0.0449545704334 -0.0049562577606 -2.12465813397e-22)
(-0.0457547396308 -0.0122745956845 1.58401834909e-21)
(-0.0458157325442 -0.0208301489886 6.24610785779e-23)
(-0.0457225815062 -0.0293902596631 2.74527516001e-23)
(-0.0455668065859 -0.0378157997852 -8.21753385018e-25)
(-0.0453557865409 -0.0462157644216 4.6739655258e-24)
(-0.0450836140523 -0.0545892756769 2.29688149106e-24)
(-0.0447419124034 -0.0629236920912 1.83074683193e-24)
(-0.044320982892 -0.0712065892251 1.07201285482e-24)
(-0.0438105265575 -0.0794233426914 5.58761782931e-24)
(-0.0366758597509 -0.00494080172978 -9.64514153775e-22)
(-0.037345251018 -0.0122438816413 9.66625329479e-22)
(-0.037399495619 -0.0207539923941 3.56964294166e-22)
(-0.0373192505427 -0.0292663564237 2.78132714433e-23)
(-0.0371833247644 -0.0376429558983 1.9571911498e-23)
(-0.0370000278905 -0.0459893046973 1.14623579477e-23)
(-0.036765464892 -0.0543026302526 1.31615129452e-23)
(-0.0364732066714 -0.0625689165901 1.07933792686e-23)
(-0.0361157913428 -0.0707748812943 -6.26920489301e-25)
(-0.0356847692868 -0.0789050922712 1.22703120112e-23)
(-0.0284066692755 -0.00494370684374 5.57036845947e-23)
(-0.0289707299565 -0.0122381147849 8.56332829326e-22)
(-0.0290239563327 -0.020696043351 8.92456912955e-23)
(-0.0289563435735 -0.0291616795423 1.86380487238e-23)
(-0.028842076143 -0.03749582988 1.93784143725e-22)
(-0.0286909824472 -0.0457980372906 8.39635448248e-23)
(-0.0285003714274 -0.0540626110469 1.11457363683e-22)
(-0.0282651838191 -0.0622741572562 1.0744685317e-22)
(-0.0279794376178 -0.0704182582526 -2.7737727163e-23)
(-0.0276365418786 -0.0784792922324 1.41809093232e-22)
(-0.0200322648366 -0.00496775309843 -1.19265013301e-22)
(-0.0205334109915 -0.0122600536827 2.13902501395e-21)
(-0.0205787948969 -0.0206496408155 2.22594348562e-22)
(-0.0205123072935 -0.0290682250766 -5.4321943981e-24)
(-0.0204181067042 -0.0373684717427 4.94227279648e-23)
(-0.0203036219348 -0.045637237643 5.60771002321e-23)
(-0.0201641977533 -0.0538647200051 -5.90578778799e-23)
(-0.0199948425092 -0.0620342170894 4.33996506673e-22)
(-0.0197905225164 -0.0701309674671 5.4113537895e-23)
(-0.0115779191431 -0.00490665382293 2.60155788878e-23)
(-0.0121921797169 -0.0121896943756 2.31113623013e-22)
(-0.0122241602996 -0.0205383314867 3.13146573681e-23)
(-0.0121409596987 -0.0289224555081 -1.4325746389e-21)
(-0.0120646390665 -0.0371966350232 1.12187961144e-22)
(-0.0119912327544 -0.0454344497849 8.85040587819e-22)
(-0.0119086766576 -0.0536256412715 -2.01469789682e-21)
(-0.0118106156194 -0.0617547764791 -9.54300365789e-23)
(-0.0116926811763 -0.0698074925289 1.53939851397e-21)
(-0.00431483841336 -0.00431105659391 5.18837557099e-24)
(-0.00490153059302 -0.0115719343563 4.25904911578e-23)
(-0.00493615390232 -0.0200260004106 3.86932891823e-22)
(-0.00487548299806 -0.028338101497 4.80649470382e-22)
(-0.00482517918453 -0.0365052390421 9.30585523781e-23)
(-0.00478127677236 -0.0446138770933 7.9398501936e-22)
(-0.00473520936156 -0.0526663760141 -1.77788252187e-23)
(-0.00468316981908 -0.0606544899639 7.29688993052e-22)
(-0.00462285829234 -0.0685667528239 4.85749055063e-22)
)
;

boundaryField
{
    back
    {
        type            calculated;
        value           uniform (0 0 0);
    }
    sides
    {
        type            calculated;
        value           uniform (0 0 0);
    }
    bottom
    {
        type            calculated;
        value           uniform (0 0 0);
    }
    front
    {
        type            calculated;
        value           uniform (0 0 0);
    }
    atmosphere
    {
        type            calculated;
        value           nonuniform List<vector> 0();
    }
    floatingObject
    {
        type            calculated;
        value           nonuniform List<vector> 0();
    }
    procBoundary10to9
    {
        type            processor;
        value           nonuniform List<vector> 
15
(
(-0.149888774871 -0.029136777165 -8.83744890114e-23)
(-0.150535902651 -0.0378597166999 -1.74909338283e-23)
(-0.151271094978 -0.0468167788729 3.86515156807e-26)
(-0.152050794026 -0.0560625388147 -2.01060807724e-23)
(-0.152818327294 -0.0656341899961 -2.07121044336e-23)
(-0.153506733457 -0.0755658018276 -1.85420693641e-23)
(-0.154039248736 -0.0858835621254 -4.08178647295e-24)
(-0.154329410857 -0.0966024068482 5.68537897699e-24)
(-0.140128210431 -0.0121200026844 -2.56041268109e-22)
(-0.140799568251 -0.0208146665539 1.64445149694e-24)
(-0.140799568251 -0.0208146665539 1.64445149694e-24)
(-0.129002766393 -0.00513966153264 -1.03402585436e-21)
(-0.1206284689 -0.00515818709376 4.41086888575e-22)
(-0.112196833271 -0.00516054378814 -7.02946835782e-22)
(-0.112196833271 -0.00516054378814 -7.02946835782e-22)
)
;
    }
    procBoundary10to11
    {
        type            processor;
        value           nonuniform List<vector> 
23
(
(-0.143186083044 -0.107268030571 -6.6597093986e-24)
(-0.143186083044 -0.107268030571 -6.6597093986e-24)
(-0.131455925092 -0.117114063633 -1.57224329434e-23)
(-0.120997544365 -0.11574664277 -6.4117794617e-24)
(-0.112275142425 -0.104459926718 1.14061032758e-23)
(-0.112275142425 -0.104459926718 1.14061032758e-23)
(-0.102673803935 -0.103269011846 4.00283412119e-24)
(-0.0933770472934 -0.102037140683 -7.19041911133e-24)
(-0.0854506741789 -0.0918980646265 -1.81461692391e-23)
(-0.0854506741789 -0.0918980646265 -1.81461692391e-23)
(-0.0775126746526 -0.0822015260363 -3.90966369901e-24)
(-0.0775126746526 -0.0822015260363 -3.90966369901e-24)
(-0.0688727491479 -0.0814320701098 1.15960594344e-23)
(-0.0688727491479 -0.0814320701098 1.15960594344e-23)
(-0.0596155766208 -0.0890861739768 -1.08286921524e-24)
(-0.051341141957 -0.0882753970406 3.90706170778e-24)
(-0.043199264803 -0.087556736184 3.58850993861e-24)
(-0.0351716518628 -0.0869422603353 4.74701347715e-24)
(-0.0272301287219 -0.0864398996613 -3.45656719739e-23)
(-0.0195463204405 -0.0781391172383 -1.22502315607e-22)
(-0.0195463204405 -0.0781391172383 -1.22502315607e-22)
(-0.0115514056053 -0.0777683290642 -1.83297521125e-22)
(-0.0045529179143 -0.0763889597539 4.57089139761e-22)
)
;
    }
}


// ************************************************************************* //
