/*--------------------------------*- C++ -*----------------------------------*\
| =========                 |                                                 |
| \\      /  F ield         | OpenFOAM: The Open Source CFD Toolbox           |
|  \\    /   O peration     | Version:  v2012                                 |
|   \\  /    A nd           | Website:  www.openfoam.com                      |
|    \\/     M anipulation  |                                                 |
\*---------------------------------------------------------------------------*/
FoamFile
{
    version     2.0;
    format      ascii;
    class       volScalarField;
    location    "1.9";
    object      epsilon_0;
}
// * * * * * * * * * * * * * * * * * * * * * * * * * * * * * * * * * * * * * //

dimensions      [0 2 -3 0 0 0 0];


internalField   nonuniform List<scalar> 
164
(
0.00613247365441
0.00632867488946
0.00688856460835
0.00708885762978
0.00716571868576
0.00720582646887
0.00723826744899
0.00727197252908
0.00615666194626
0.00635510418316
0.00691230836488
0.00710736922368
0.00717990926419
0.00721682436329
0.0072466090806
0.00727772240646
0.00731245717171
0.00735149853533
0.00739541596847
0.006176653767
0.00637724570939
0.00693158389105
0.00712167518404
0.00719024330635
0.00722431929113
0.00725176475002
0.00728055483862
0.00731277465208
0.00734904953864
0.00738985069529
0.00743691217936
0.0074978694854
0.00619303620472
0.00639537410682
0.00694668489526
0.00713210148356
0.00719709416327
0.00722866693983
0.00725403861128
0.0072807598442
0.0073107101883
0.00734442547024
0.00738247090257
0.00742689116149
0.00748648767712
0.00759785853236
0.00620610147165
0.0064096866801
0.00695792899666
0.00713900627392
0.00720080042557
0.00723016990734
0.0072537136501
0.00727858056183
0.00730651054518
0.00733794190968
0.00737344045094
0.00741546013468
0.00747449152404
0.00759122860872
0.00621603424706
0.00642051279838
0.00696562465561
0.00714271506839
0.00720167830683
0.00722913329027
0.0072510864849
0.00727432407673
0.00730043073524
0.00732983528939
0.00736316668132
0.00740340953287
0.007463309758
0.00759089267436
0.00622325987926
0.00642808462571
0.00697009257339
0.00714356022595
0.00720003974638
0.00722583792863
0.00724641070128
0.00726822459688
0.00729273549733
0.00732035194253
0.00735187285735
0.00739093158284
0.00745285144273
0.0075936227077
0.00622779427519
0.00643273070204
0.00697161900582
0.00714182692325
0.00719615655414
0.00722054413228
0.00723993247121
0.00726051991022
0.00728365987279
0.00730975826526
0.00733978619297
0.00737817921291
0.0074429867642
0.00759793763997
0.00623043029998
0.00643460665382
0.00697046514603
0.00713778047351
0.00719028183832
0.00721348900183
0.00723187969787
0.00725142566416
0.00727341349919
0.00729826373935
0.00732716226505
0.00736542513594
0.00743401236199
0.00760435253724
0.00623069959837
0.00643396119431
0.00696683797915
0.00713164127995
0.00718263585432
0.00720488722125
0.00722246347095
0.00724114799103
0.00726218294041
0.00728603819796
0.00731415150995
0.00735279910375
0.00742591404126
0.00761219491812
0.0081454902743
0.00971813229753
0.00622961008524
0.00643103004357
0.0069609564069
0.0071236077812
0.00717339400866
0.00719489226706
0.0072118234937
0.0072298298284
0.00725011711036
0.00727322001317
0.00730087287496
0.00734041045124
0.00741886892744
0.00762193495484
0.00819596518552
0.00984805625167
0.0062273903243
0.00642602076667
0.00695303531212
0.00711387897967
0.00716272648206
0.00718365480124
0.00720009006299
0.00721757464531
0.00723730983513
0.00725989732809
0.0072873964593
0.00732827822466
0.0074127792526
0.00763385597824
0.00824950324207
0.00998200654135
)
;

boundaryField
{
    back
    {
        lowReCorrection 0;
        blending        stepwise;
        n               2;
        type            epsilonWallFunction;
        value           nonuniform List<scalar> 
164
(
0.00613247365441
0.00632867488946
0.00688856460835
0.00708885762978
0.00716571868576
0.00720582646887
0.00723826744899
0.00727197252908
0.00615666194626
0.00635510418316
0.00691230836488
0.00710736922368
0.00717990926419
0.00721682436329
0.0072466090806
0.00727772240646
0.00731245717171
0.00735149853533
0.00739541596847
0.006176653767
0.00637724570939
0.00693158389105
0.00712167518404
0.00719024330635
0.00722431929113
0.00725176475002
0.00728055483862
0.00731277465208
0.00734904953864
0.00738985069529
0.00743691217936
0.0074978694854
0.00619303620472
0.00639537410682
0.00694668489526
0.00713210148356
0.00719709416327
0.00722866693983
0.00725403861128
0.0072807598442
0.0073107101883
0.00734442547024
0.00738247090257
0.00742689116149
0.00748648767712
0.00759785853236
0.00620610147165
0.0064096866801
0.00695792899666
0.00713900627392
0.00720080042557
0.00723016990734
0.0072537136501
0.00727858056183
0.00730651054518
0.00733794190968
0.00737344045094
0.00741546013468
0.00747449152404
0.00759122860872
0.00621603424706
0.00642051279838
0.00696562465561
0.00714271506839
0.00720167830683
0.00722913329027
0.0072510864849
0.00727432407673
0.00730043073524
0.00732983528939
0.00736316668132
0.00740340953287
0.007463309758
0.00759089267436
0.00622325987926
0.00642808462571
0.00697009257339
0.00714356022595
0.00720003974638
0.00722583792863
0.00724641070128
0.00726822459688
0.00729273549733
0.00732035194253
0.00735187285735
0.00739093158284
0.00745285144273
0.0075936227077
0.00622779427519
0.00643273070204
0.00697161900582
0.00714182692325
0.00719615655414
0.00722054413228
0.00723993247121
0.00726051991022
0.00728365987279
0.00730975826526
0.00733978619297
0.00737817921291
0.0074429867642
0.00759793763997
0.00623043029998
0.00643460665382
0.00697046514603
0.00713778047351
0.00719028183832
0.00721348900183
0.00723187969787
0.00725142566416
0.00727341349919
0.00729826373935
0.00732716226505
0.00736542513594
0.00743401236199
0.00760435253724
0.00623069959837
0.00643396119431
0.00696683797915
0.00713164127995
0.00718263585432
0.00720488722125
0.00722246347095
0.00724114799103
0.00726218294041
0.00728603819796
0.00731415150995
0.00735279910375
0.00742591404126
0.00761219491812
0.0081454902743
0.00971813229753
0.00622961008524
0.00643103004357
0.0069609564069
0.0071236077812
0.00717339400866
0.00719489226706
0.0072118234937
0.0072298298284
0.00725011711036
0.00727322001317
0.00730087287496
0.00734041045124
0.00741886892744
0.00762193495484
0.00819596518552
0.00984805625167
0.0062273903243
0.00642602076667
0.00695303531212
0.00711387897967
0.00716272648206
0.00718365480124
0.00720009006299
0.00721757464531
0.00723730983513
0.00725989732809
0.0072873964593
0.00732827822466
0.0074127792526
0.00763385597824
0.00824950324207
0.00998200654135
)
;
    }
    sides
    {
        lowReCorrection 0;
        blending        stepwise;
        n               2;
        type            epsilonWallFunction;
        value           nonuniform List<scalar> 0();
    }
    bottom
    {
        lowReCorrection 0;
        blending        stepwise;
        n               2;
        type            epsilonWallFunction;
        value           nonuniform List<scalar> 
12
(
0.00613247365441
0.00615666194626
0.006176653767
0.00619303620472
0.00620610147165
0.00621603424706
0.00622325987926
0.00622779427519
0.00623043029998
0.00623069959837
0.00622961008524
0.0062273903243
)
;
    }
    front
    {
        lowReCorrection 0;
        blending        stepwise;
        n               2;
        type            epsilonWallFunction;
        value           nonuniform List<scalar> 
164
(
0.00613247365441
0.00632867488946
0.00688856460835
0.00708885762978
0.00716571868576
0.00720582646887
0.00723826744899
0.00727197252908
0.00615666194626
0.00635510418316
0.00691230836488
0.00710736922368
0.00717990926419
0.00721682436329
0.0072466090806
0.00727772240646
0.00731245717171
0.00735149853533
0.00739541596847
0.006176653767
0.00637724570939
0.00693158389105
0.00712167518404
0.00719024330635
0.00722431929113
0.00725176475002
0.00728055483862
0.00731277465208
0.00734904953864
0.00738985069529
0.00743691217936
0.0074978694854
0.00619303620472
0.00639537410682
0.00694668489526
0.00713210148356
0.00719709416327
0.00722866693983
0.00725403861128
0.0072807598442
0.0073107101883
0.00734442547024
0.00738247090257
0.00742689116149
0.00748648767712
0.00759785853236
0.00620610147165
0.0064096866801
0.00695792899666
0.00713900627392
0.00720080042557
0.00723016990734
0.0072537136501
0.00727858056183
0.00730651054518
0.00733794190968
0.00737344045094
0.00741546013468
0.00747449152404
0.00759122860872
0.00621603424706
0.00642051279838
0.00696562465561
0.00714271506839
0.00720167830683
0.00722913329027
0.0072510864849
0.00727432407673
0.00730043073524
0.00732983528939
0.00736316668132
0.00740340953287
0.007463309758
0.00759089267436
0.00622325987926
0.00642808462571
0.00697009257339
0.00714356022595
0.00720003974638
0.00722583792863
0.00724641070128
0.00726822459688
0.00729273549733
0.00732035194253
0.00735187285735
0.00739093158284
0.00745285144273
0.0075936227077
0.00622779427519
0.00643273070204
0.00697161900582
0.00714182692325
0.00719615655414
0.00722054413228
0.00723993247121
0.00726051991022
0.00728365987279
0.00730975826526
0.00733978619297
0.00737817921291
0.0074429867642
0.00759793763997
0.00623043029998
0.00643460665382
0.00697046514603
0.00713778047351
0.00719028183832
0.00721348900183
0.00723187969787
0.00725142566416
0.00727341349919
0.00729826373935
0.00732716226505
0.00736542513594
0.00743401236199
0.00760435253724
0.00623069959837
0.00643396119431
0.00696683797915
0.00713164127995
0.00718263585432
0.00720488722125
0.00722246347095
0.00724114799103
0.00726218294041
0.00728603819796
0.00731415150995
0.00735279910375
0.00742591404126
0.00761219491812
0.0081454902743
0.00971813229753
0.00622961008524
0.00643103004357
0.0069609564069
0.0071236077812
0.00717339400866
0.00719489226706
0.0072118234937
0.0072298298284
0.00725011711036
0.00727322001317
0.00730087287496
0.00734041045124
0.00741886892744
0.00762193495484
0.00819596518552
0.00984805625167
0.0062273903243
0.00642602076667
0.00695303531212
0.00711387897967
0.00716272648206
0.00718365480124
0.00720009006299
0.00721757464531
0.00723730983513
0.00725989732809
0.0072873964593
0.00732827822466
0.0074127792526
0.00763385597824
0.00824950324207
0.00998200654135
)
;
    }
    atmosphere
    {
        type            inletOutlet;
        inletValue      nonuniform List<scalar> 0();
        value           nonuniform List<scalar> 0();
    }
    floatingObject
    {
        lowReCorrection 0;
        blending        stepwise;
        n               2;
        type            epsilonWallFunction;
        value           nonuniform List<scalar> 0();
    }
    procBoundary7to6
    {
        type            processor;
        value           nonuniform List<scalar> 
11
(
0.00791029176509
0.00791227761191
0.00795005386794
0.00799806914966
0.00804671351482
0.00809687439241
0.00809687439241
0.00958548227874
0.0144697032539
0.0147538064662
0.0150755889244
)
;
    }
    procBoundary7to8
    {
        type            processor;
        value           nonuniform List<scalar> 
17
(
0.00610427074375
0.00629771263285
0.00686003359494
0.00706572999302
0.00714729088435
0.00719096554461
0.00722641106349
0.00726303194428
0.0073094669567
0.0073094669567
0.00735144720313
0.00739837347961
0.00744593301728
0.00744593301728
0.00751212543541
0.00760463614528
0.00760463614528
)
;
    }
    procBoundary7to9
    {
        type            processor;
        value           nonuniform List<scalar> 
16
(
0.00622305641737
0.0064190160959
0.00694337743822
0.00710269077344
0.00715079740014
0.00717130398199
0.00718738817966
0.00720450676498
0.00722384561332
0.0072461154042
0.00727371700299
0.00731628727281
0.00740726418043
0.00764651979396
0.00830138332079
0.0100993654818
)
;
    }
}


// ************************************************************************* //
