/*--------------------------------*- C++ -*----------------------------------*\
| =========                 |                                                 |
| \\      /  F ield         | OpenFOAM: The Open Source CFD Toolbox           |
|  \\    /   O peration     | Version:  v2012                                 |
|   \\  /    A nd           | Website:  www.openfoam.com                      |
|    \\/     M anipulation  |                                                 |
\*---------------------------------------------------------------------------*/
FoamFile
{
    version     2.0;
    format      ascii;
    class       volScalarField;
    location    "5.7";
    object      k_0;
}
// * * * * * * * * * * * * * * * * * * * * * * * * * * * * * * * * * * * * * //

dimensions      [0 2 -2 0 0 0 0];


internalField   nonuniform List<scalar> 
164
(
0.00167084591017
0.00216057032625
0.0026775813086
0.00354358749344
0.00501379820927
0.00790587750375
0.0172860542163
0.0644844504646
0.00177694065315
0.00235781742932
0.00289537577931
0.00373407272436
0.00513179472124
0.00802043766023
0.0177505673472
0.0509847192543
0.0017751981049
0.00235353224247
0.00288803548024
0.00373060662297
0.00515383105738
0.00818749809315
0.0195757854225
0.059511664067
0.00166895237417
0.00215420311769
0.0026674779921
0.00354229840025
0.0050747341547
0.00840594817604
0.0208728333923
0.072159120544
0.00240951690863
0.0033024701626
0.00491646061324
0.00836419813113
0.0211571861292
0.0763211100064
0.00228431054197
0.00315105565138
0.00479081650402
0.00826011058418
0.0208962969763
0.0701165759453
0.00222131332599
0.00306862746172
0.00473697976625
0.00830435518742
0.0215486275002
0.0731806941792
0.00218660379611
0.00302596379835
0.00473369439397
0.0084583645293
0.0216672581383
0.0723183043268
0.00216776989776
0.00300213335968
0.00473763599503
0.008697780286
0.0225891677978
0.0720987532667
0.00216150980702
0.00299055835231
0.0047333216227
0.00884405827796
0.0234658573008
0.0735511069268
0.00216949621999
0.0029974699039
0.00474886449501
0.00890766541653
0.0231970942112
0.0716331397727
0.00218654004509
0.00301725386221
0.00477025503568
0.00878953175676
0.0211415895986
0.0508303142379
0.0022008008493
0.0030360629549
0.00480961005161
0.00883038149402
0.0208248183842
0.0494283890105
0.00220945110528
0.0030529620507
0.00488337275331
0.00918073842806
0.0228441828473
0.0692198540961
0.00221621767424
0.00306990291148
0.00494701230318
0.00943082082351
0.023931222379
0.0716731854026
0.00222035799882
0.00308221494801
0.00497688982659
0.00947897712857
0.0247423517857
0.0721913104853
0.00221285399453
0.00307788350773
0.00498527598322
0.00952370532082
0.0254409760178
0.0721777197039
0.0021876144883
0.00304800057401
0.00497520167698
0.00949563792994
0.025475342953
0.0727705207852
0.00214963184121
0.00299982635787
0.00497146325714
0.00963218026481
0.0255767972126
0.0728156798214
0.0021119243049
0.00295448350998
0.00500268867694
0.0101094694557
0.0269081690645
0.0730175314682
0.00208613695244
0.0029267249383
0.00503462847461
0.0104036706218
0.0271275985663
0.072969531806
0.0020741783891
0.00291368033751
0.00504166538505
0.0105345786717
0.0277220879218
0.073196007912
0.00207179271142
0.00291457986286
0.00506237297495
0.0106163107197
0.0277657554592
0.0731962932556
0.00207592489523
0.00292739133209
0.00508841030266
0.0106183306584
0.027568804085
0.0730538646929
0.00508722518355
0.0104434197921
0.0271370565078
0.0723885706994
0.00506155519663
0.00995590286344
0.0250662203745
0.0695349540829
0.00506015824892
0.00984496814104
0.0254576879144
0.0713158598785
)
;

boundaryField
{
    back
    {
        type            kqRWallFunction;
        value           nonuniform List<scalar> 
164
(
0.00167084591017
0.00216057032625
0.0026775813086
0.00354358749344
0.00501379820927
0.00790587750375
0.0172860542163
0.0644844504646
0.00177694065315
0.00235781742932
0.00289537577931
0.00373407272436
0.00513179472124
0.00802043766023
0.0177505673472
0.0509847192543
0.0017751981049
0.00235353224247
0.00288803548024
0.00373060662297
0.00515383105738
0.00818749809315
0.0195757854225
0.059511664067
0.00166895237417
0.00215420311769
0.0026674779921
0.00354229840025
0.0050747341547
0.00840594817604
0.0208728333923
0.072159120544
0.00240951690863
0.0033024701626
0.00491646061324
0.00836419813113
0.0211571861292
0.0763211100064
0.00228431054197
0.00315105565138
0.00479081650402
0.00826011058418
0.0208962969763
0.0701165759453
0.00222131332599
0.00306862746172
0.00473697976625
0.00830435518742
0.0215486275002
0.0731806941792
0.00218660379611
0.00302596379835
0.00473369439397
0.0084583645293
0.0216672581383
0.0723183043268
0.00216776989776
0.00300213335968
0.00473763599503
0.008697780286
0.0225891677978
0.0720987532667
0.00216150980702
0.00299055835231
0.0047333216227
0.00884405827796
0.0234658573008
0.0735511069268
0.00216949621999
0.0029974699039
0.00474886449501
0.00890766541653
0.0231970942112
0.0716331397727
0.00218654004509
0.00301725386221
0.00477025503568
0.00878953175676
0.0211415895986
0.0508303142379
0.0022008008493
0.0030360629549
0.00480961005161
0.00883038149402
0.0208248183842
0.0494283890105
0.00220945110528
0.0030529620507
0.00488337275331
0.00918073842806
0.0228441828473
0.0692198540961
0.00221621767424
0.00306990291148
0.00494701230318
0.00943082082351
0.023931222379
0.0716731854026
0.00222035799882
0.00308221494801
0.00497688982659
0.00947897712857
0.0247423517857
0.0721913104853
0.00221285399453
0.00307788350773
0.00498527598322
0.00952370532082
0.0254409760178
0.0721777197039
0.0021876144883
0.00304800057401
0.00497520167698
0.00949563792994
0.025475342953
0.0727705207852
0.00214963184121
0.00299982635787
0.00497146325714
0.00963218026481
0.0255767972126
0.0728156798214
0.0021119243049
0.00295448350998
0.00500268867694
0.0101094694557
0.0269081690645
0.0730175314682
0.00208613695244
0.0029267249383
0.00503462847461
0.0104036706218
0.0271275985663
0.072969531806
0.0020741783891
0.00291368033751
0.00504166538505
0.0105345786717
0.0277220879218
0.073196007912
0.00207179271142
0.00291457986286
0.00506237297495
0.0106163107197
0.0277657554592
0.0731962932556
0.00207592489523
0.00292739133209
0.00508841030266
0.0106183306584
0.027568804085
0.0730538646929
0.00508722518355
0.0104434197921
0.0271370565078
0.0723885706994
0.00506155519663
0.00995590286344
0.0250662203745
0.0695349540829
0.00506015824892
0.00984496814104
0.0254576879144
0.0713158598785
)
;
    }
    sides
    {
        type            kqRWallFunction;
        value           nonuniform List<scalar> 0();
    }
    bottom
    {
        type            kqRWallFunction;
        value           nonuniform List<scalar> 0();
    }
    front
    {
        type            kqRWallFunction;
        value           nonuniform List<scalar> 
164
(
0.00167084591017
0.00216057032625
0.0026775813086
0.00354358749344
0.00501379820927
0.00790587750375
0.0172860542163
0.0644844504646
0.00177694065315
0.00235781742932
0.00289537577931
0.00373407272436
0.00513179472124
0.00802043766023
0.0177505673472
0.0509847192543
0.0017751981049
0.00235353224247
0.00288803548024
0.00373060662297
0.00515383105738
0.00818749809315
0.0195757854225
0.059511664067
0.00166895237417
0.00215420311769
0.0026674779921
0.00354229840025
0.0050747341547
0.00840594817604
0.0208728333923
0.072159120544
0.00240951690863
0.0033024701626
0.00491646061324
0.00836419813113
0.0211571861292
0.0763211100064
0.00228431054197
0.00315105565138
0.00479081650402
0.00826011058418
0.0208962969763
0.0701165759453
0.00222131332599
0.00306862746172
0.00473697976625
0.00830435518742
0.0215486275002
0.0731806941792
0.00218660379611
0.00302596379835
0.00473369439397
0.0084583645293
0.0216672581383
0.0723183043268
0.00216776989776
0.00300213335968
0.00473763599503
0.008697780286
0.0225891677978
0.0720987532667
0.00216150980702
0.00299055835231
0.0047333216227
0.00884405827796
0.0234658573008
0.0735511069268
0.00216949621999
0.0029974699039
0.00474886449501
0.00890766541653
0.0231970942112
0.0716331397727
0.00218654004509
0.00301725386221
0.00477025503568
0.00878953175676
0.0211415895986
0.0508303142379
0.0022008008493
0.0030360629549
0.00480961005161
0.00883038149402
0.0208248183842
0.0494283890105
0.00220945110528
0.0030529620507
0.00488337275331
0.00918073842806
0.0228441828473
0.0692198540961
0.00221621767424
0.00306990291148
0.00494701230318
0.00943082082351
0.023931222379
0.0716731854026
0.00222035799882
0.00308221494801
0.00497688982659
0.00947897712857
0.0247423517857
0.0721913104853
0.00221285399453
0.00307788350773
0.00498527598322
0.00952370532082
0.0254409760178
0.0721777197039
0.0021876144883
0.00304800057401
0.00497520167698
0.00949563792994
0.025475342953
0.0727705207852
0.00214963184121
0.00299982635787
0.00497146325714
0.00963218026481
0.0255767972126
0.0728156798214
0.0021119243049
0.00295448350998
0.00500268867694
0.0101094694557
0.0269081690645
0.0730175314682
0.00208613695244
0.0029267249383
0.00503462847461
0.0104036706218
0.0271275985663
0.072969531806
0.0020741783891
0.00291368033751
0.00504166538505
0.0105345786717
0.0277220879218
0.073196007912
0.00207179271142
0.00291457986286
0.00506237297495
0.0106163107197
0.0277657554592
0.0731962932556
0.00207592489523
0.00292739133209
0.00508841030266
0.0106183306584
0.027568804085
0.0730538646929
0.00508722518355
0.0104434197921
0.0271370565078
0.0723885706994
0.00506155519663
0.00995590286344
0.0250662203745
0.0695349540829
0.00506015824892
0.00984496814104
0.0254576879144
0.0713158598785
)
;
    }
    atmosphere
    {
        type            inletOutlet;
        inletValue      uniform 0.1;
        value           nonuniform List<scalar> 
27
(
0.1
0.0509847192543
0.059511664067
0.1
0.1
0.1
0.1
0.1
0.1
0.1
0.1
0.0508303142379
0.0494283890105
0.1
0.1
0.1
0.1
0.1
0.1
0.1
0.1
0.1
0.1
0.1
0.1
0.1
0.1
)
;
    }
    floatingObject
    {
        type            kqRWallFunction;
        value           nonuniform List<scalar> 4(0.00167084591017 0.00177694065315 0.0017751981049 0.00166895237417);
    }
    procBoundary6to3
    {
        type            processor;
        value           nonuniform List<scalar> 8(0.00160845565556 0.00192805970544 0.00240858539234 0.00329116032542 0.00484358520945 0.00782575068169 0.0184544146514 0.0712364250806);
    }
    procBoundary6to7
    {
        type            processor;
        value           nonuniform List<scalar> 
11
(
0.00182923556615
0.00181050384566
0.00179703463114
0.00179011797482
0.00178804699487
0.00178897849591
0.00208471182755
0.00294471056926
0.00294471056926
0.00296603015845
0.00298275612242
)
;
    }
    procBoundary6to8
    {
        type            processor;
        value           nonuniform List<scalar> 
16
(
0.0016091542228
0.00192795784646
0.00192795784646
0.00187832073627
0.00185309245871
0.00183545855561
0.0018255325945
0.0018238098866
0.00183091221197
0.00184324629515
0.00185410797777
0.00186076074312
0.00186471781005
0.00186625940575
0.00186168886138
0.00184839573924
)
;
    }
    procBoundary6to9
    {
        type            processor;
        value           nonuniform List<scalar> 4(0.00515203938965 0.0103792441109 0.0274745922695 0.072758644536);
    }
}


// ************************************************************************* //
