/*--------------------------------*- C++ -*----------------------------------*\
| =========                 |                                                 |
| \\      /  F ield         | OpenFOAM: The Open Source CFD Toolbox           |
|  \\    /   O peration     | Version:  v2012                                 |
|   \\  /    A nd           | Website:  www.openfoam.com                      |
|    \\/     M anipulation  |                                                 |
\*---------------------------------------------------------------------------*/
FoamFile
{
    version     2.0;
    format      ascii;
    class       volScalarField;
    location    "0.1";
    object      epsilon;
}
// * * * * * * * * * * * * * * * * * * * * * * * * * * * * * * * * * * * * * //

dimensions      [0 2 -3 0 0 0 0];


internalField   nonuniform List<scalar> 
164
(
0.219718899657
0.180740346812
0.181811818242
0.181951955847
0.182052278221
0.182176070017
0.182263240518
0.18072504624
0.226208516823
0.224612079809
0.22581538999
0.228994196337
0.181897996342
0.185880381443
0.219879758747
0.180831360444
0.181897653402
0.182038117748
0.182147031362
0.182291746012
0.182494334796
0.182749173728
0.182629613629
0.182967830996
0.183559910085
0.184413872141
0.18570006624
0.186565056021
0.220041081051
0.180930544089
0.181988960947
0.182126555929
0.182235180397
0.182379144258
0.182577636081
0.182856866417
0.183204922994
0.183617391222
0.184120604224
0.184744834116
0.185485055899
0.186220514191
0.220195487898
0.181031734869
0.182078340764
0.182210742815
0.182314438807
0.182450095
0.182631103661
0.182871549258
0.183180045589
0.183543355864
0.183975412302
0.18449326097
0.185103673919
0.185794677854
0.220336449739
0.181129342554
0.182160412937
0.182285971668
0.182382280328
0.182506575668
0.182668458309
0.182876078072
0.183136220615
0.183446957595
0.183815347282
0.184252103016
0.18476726181
0.185372404168
0.220458903648
0.18121863499
0.182231446986
0.182349119722
0.182436833546
0.18254865773
0.182691778791
0.182871393439
0.183092176063
0.183356026408
0.183667556938
0.184034071131
0.184464401239
0.184976850712
0.22055964483
0.181296165095
0.18228925732
0.182398558183
0.182477246782
0.18257647332
0.18270178543
0.182856659388
0.183044259024
0.183267162032
0.183528379121
0.183833397495
0.184191395462
0.184609505985
0.220637220021
0.181359827891
0.182332946385
0.182433853876
0.182503573932
0.182590613727
0.182699355604
0.182832139712
0.182991028028
0.183178445842
0.183395721519
0.183649066626
0.183938176484
0.184270174479
0.220691585965
0.181408764101
0.182362635875
0.182455459648
0.182516576115
0.182592131431
0.182685710177
0.182798848754
0.182932521652
0.18308942434
0.183269756728
0.183475075993
0.183707602497
0.183967829709
0.220724241112
0.18144332948
0.182379193318
0.182464438528
0.182517506075
0.182582448268
0.182662275388
0.182758080061
0.182870425654
0.182999951143
0.183148318364
0.183314423098
0.183499215231
0.18370215511
0.220738366999
0.181463650301
0.182383781931
0.182462140651
0.182507848643
0.182563325007
0.182630933541
0.182711234661
0.182805028986
0.182911955082
0.183032570203
0.183166247992
0.183312596646
0.183470308259
0.182737843353
0.182825583025
0.182923356134
0.183030493923
0.183146049141
0.183268403614
0.182906502157
0.18299759096
0.183092508539
0.182938941635
)
;

boundaryField
{
    back
    {
        lowReCorrection 0;
        blending        stepwise;
        n               2;
        type            epsilonWallFunction;
        value           nonuniform List<scalar> 
164
(
0.219718899657
0.180740346812
0.181811818242
0.181951955847
0.182052278221
0.182176070017
0.182263240518
0.18072504624
0.226208516823
0.224612079809
0.22581538999
0.228994196337
0.181897996342
0.185880381443
0.219879758747
0.180831360444
0.181897653402
0.182038117748
0.182147031362
0.182291746012
0.182494334796
0.182749173728
0.182629613629
0.182967830996
0.183559910085
0.184413872141
0.18570006624
0.186565056021
0.220041081051
0.180930544089
0.181988960947
0.182126555929
0.182235180397
0.182379144258
0.182577636081
0.182856866417
0.183204922994
0.183617391222
0.184120604224
0.184744834116
0.185485055899
0.186220514191
0.220195487898
0.181031734869
0.182078340764
0.182210742815
0.182314438807
0.182450095
0.182631103661
0.182871549258
0.183180045589
0.183543355864
0.183975412302
0.18449326097
0.185103673919
0.185794677854
0.220336449739
0.181129342554
0.182160412937
0.182285971668
0.182382280328
0.182506575668
0.182668458309
0.182876078072
0.183136220615
0.183446957595
0.183815347282
0.184252103016
0.18476726181
0.185372404168
0.220458903648
0.18121863499
0.182231446986
0.182349119722
0.182436833546
0.18254865773
0.182691778791
0.182871393439
0.183092176063
0.183356026408
0.183667556938
0.184034071131
0.184464401239
0.184976850712
0.22055964483
0.181296165095
0.18228925732
0.182398558183
0.182477246782
0.18257647332
0.18270178543
0.182856659388
0.183044259024
0.183267162032
0.183528379121
0.183833397495
0.184191395462
0.184609505985
0.220637220021
0.181359827891
0.182332946385
0.182433853876
0.182503573932
0.182590613727
0.182699355604
0.182832139712
0.182991028028
0.183178445842
0.183395721519
0.183649066626
0.183938176484
0.184270174479
0.220691585965
0.181408764101
0.182362635875
0.182455459648
0.182516576115
0.182592131431
0.182685710177
0.182798848754
0.182932521652
0.18308942434
0.183269756728
0.183475075993
0.183707602497
0.183967829709
0.220724241112
0.18144332948
0.182379193318
0.182464438528
0.182517506075
0.182582448268
0.182662275388
0.182758080061
0.182870425654
0.182999951143
0.183148318364
0.183314423098
0.183499215231
0.18370215511
0.220738366999
0.181463650301
0.182383781931
0.182462140651
0.182507848643
0.182563325007
0.182630933541
0.182711234661
0.182805028986
0.182911955082
0.183032570203
0.183166247992
0.183312596646
0.183470308259
0.182737843353
0.182825583025
0.182923356134
0.183030493923
0.183146049141
0.183268403614
0.182906502157
0.18299759096
0.183092508539
0.182938941635
)
;
    }
    sides
    {
        lowReCorrection 0;
        blending        stepwise;
        n               2;
        type            epsilonWallFunction;
        value           nonuniform List<scalar> 0();
    }
    bottom
    {
        lowReCorrection 0;
        blending        stepwise;
        n               2;
        type            epsilonWallFunction;
        value           nonuniform List<scalar> 
11
(
0.219718899657
0.219879758747
0.220041081051
0.220195487898
0.220336449739
0.220458903648
0.22055964483
0.220637220021
0.220691585965
0.220724241112
0.220738366999
)
;
    }
    front
    {
        lowReCorrection 0;
        blending        stepwise;
        n               2;
        type            epsilonWallFunction;
        value           nonuniform List<scalar> 
164
(
0.219718899657
0.180740346812
0.181811818242
0.181951955847
0.182052278221
0.182176070017
0.182263240518
0.18072504624
0.226208516823
0.224612079809
0.22581538999
0.228994196337
0.181897996342
0.185880381443
0.219879758747
0.180831360444
0.181897653402
0.182038117748
0.182147031362
0.182291746012
0.182494334796
0.182749173728
0.182629613629
0.182967830996
0.183559910085
0.184413872141
0.18570006624
0.186565056021
0.220041081051
0.180930544089
0.181988960947
0.182126555929
0.182235180397
0.182379144258
0.182577636081
0.182856866417
0.183204922994
0.183617391222
0.184120604224
0.184744834116
0.185485055899
0.186220514191
0.220195487898
0.181031734869
0.182078340764
0.182210742815
0.182314438807
0.182450095
0.182631103661
0.182871549258
0.183180045589
0.183543355864
0.183975412302
0.18449326097
0.185103673919
0.185794677854
0.220336449739
0.181129342554
0.182160412937
0.182285971668
0.182382280328
0.182506575668
0.182668458309
0.182876078072
0.183136220615
0.183446957595
0.183815347282
0.184252103016
0.18476726181
0.185372404168
0.220458903648
0.18121863499
0.182231446986
0.182349119722
0.182436833546
0.18254865773
0.182691778791
0.182871393439
0.183092176063
0.183356026408
0.183667556938
0.184034071131
0.184464401239
0.184976850712
0.22055964483
0.181296165095
0.18228925732
0.182398558183
0.182477246782
0.18257647332
0.18270178543
0.182856659388
0.183044259024
0.183267162032
0.183528379121
0.183833397495
0.184191395462
0.184609505985
0.220637220021
0.181359827891
0.182332946385
0.182433853876
0.182503573932
0.182590613727
0.182699355604
0.182832139712
0.182991028028
0.183178445842
0.183395721519
0.183649066626
0.183938176484
0.184270174479
0.220691585965
0.181408764101
0.182362635875
0.182455459648
0.182516576115
0.182592131431
0.182685710177
0.182798848754
0.182932521652
0.18308942434
0.183269756728
0.183475075993
0.183707602497
0.183967829709
0.220724241112
0.18144332948
0.182379193318
0.182464438528
0.182517506075
0.182582448268
0.182662275388
0.182758080061
0.182870425654
0.182999951143
0.183148318364
0.183314423098
0.183499215231
0.18370215511
0.220738366999
0.181463650301
0.182383781931
0.182462140651
0.182507848643
0.182563325007
0.182630933541
0.182711234661
0.182805028986
0.182911955082
0.183032570203
0.183166247992
0.183312596646
0.183470308259
0.182737843353
0.182825583025
0.182923356134
0.183030493923
0.183146049141
0.183268403614
0.182906502157
0.18299759096
0.183092508539
0.182938941635
)
;
    }
    atmosphere
    {
        type            inletOutlet;
        inletValue      nonuniform List<scalar> 0();
        value           nonuniform List<scalar> 0();
    }
    floatingObject
    {
        lowReCorrection 0;
        blending        stepwise;
        n               2;
        type            epsilonWallFunction;
        value           nonuniform List<scalar> 4(0.226208516823 0.224612079809 0.22581538999 0.228994196337);
    }
    procBoundary8to3
    {
        type            processor;
        value           nonuniform List<scalar> 8(0.21956641884 0.180664439759 0.181741477541 0.181875975238 0.181943668067 0.181955697083 0.181184676259 0.221866339046);
    }
    procBoundary8to6
    {
        type            processor;
        value           nonuniform List<scalar> 
16
(
0.231254931706
0.18347290192
0.187371915096
0.187452133685
0.187125437355
0.186660330652
0.186142502614
0.185609566304
0.185104394767
0.184650650296
0.184257900479
0.183922454233
0.183637419239
0.183395271323
0.183189051272
0.183012656547
)
;
    }
    procBoundary8to7
    {
        type            processor;
        value           nonuniform List<scalar> 
17
(
0.220747445404
0.181463365601
0.182376856951
0.182450078399
0.182489241642
0.182536263496
0.182593170926
0.182660294351
0.182660294351
0.18267020241
0.182741852893
0.182820878043
0.182820878043
0.182793447786
0.182865221253
0.182865221253
0.182804426513
)
;
    }
}


// ************************************************************************* //
