/*--------------------------------*- C++ -*----------------------------------*\
| =========                 |                                                 |
| \\      /  F ield         | OpenFOAM: The Open Source CFD Toolbox           |
|  \\    /   O peration     | Version:  v2012                                 |
|   \\  /    A nd           | Website:  www.openfoam.com                      |
|    \\/     M anipulation  |                                                 |
\*---------------------------------------------------------------------------*/
FoamFile
{
    version     2.0;
    format      ascii;
    class       volVectorField;
    location    "5.2";
    object      U;
}
// * * * * * * * * * * * * * * * * * * * * * * * * * * * * * * * * * * * * * //

dimensions      [0 1 -1 0 0 0 0];


internalField   nonuniform List<vector> 
164
(
(-0.0270953450216 0.00107734154771 -2.49982893515e-22)
(-0.0282655155866 0.00327821027484 -1.71399372983e-22)
(-0.0293991950286 0.00546125992888 -1.36360386186e-22)
(-0.0302437984787 0.00771704390841 3.38162007044e-23)
(-0.0308157761256 0.010010525799 1.41142280274e-22)
(-0.0312723356609 0.012346740172 1.56612866772e-22)
(-0.0317245226166 0.0147282603335 1.38135155471e-22)
(-0.0322229419604 0.0171517429522 1.19319660427e-22)
(-0.0292318193142 0.00106028821022 -1.41659058183e-22)
(-0.0304239315804 0.00319766094792 -9.97451312916e-23)
(-0.0315904514576 0.00531537601561 -4.72997371747e-23)
(-0.0324726070349 0.00749574898765 5.36909139196e-23)
(-0.0330846134776 0.00970640454462 1.10929891699e-22)
(-0.0335844047252 0.0119561838989 1.14601602943e-22)
(-0.0340824395637 0.0142506814634 9.88181410688e-23)
(-0.0346235897812 0.0165913311947 5.96386902875e-23)
(-0.0352238330763 0.018975889058 6.08059179275e-23)
(-0.0358728587013 0.0213965772525 2.18975392818e-23)
(-0.0365636487421 0.0238318883225 -1.06083271016e-22)
(-0.0313125504159 0.00103706109666 2.11860572797e-23)
(-0.0325166723164 0.00309771673038 -2.24430916569e-23)
(-0.0337085563101 0.00513917467239 1.63543467633e-23)
(-0.034622140143 0.0072373410517 5.51487118712e-23)
(-0.0352698828891 0.00936098952039 7.59835467161e-23)
(-0.0358085294101 0.0115204446963 6.78038698501e-23)
(-0.0363503837018 0.0137266920354 6.13425790366e-23)
(-0.0369395138304 0.0159832163085 3.80648709353e-23)
(-0.03758242598 0.0182892920645 3.00898831864e-23)
(-0.038263867625 0.020646032538 -4.73407973077e-24)
(-0.0389555312396 0.0230552439284 -1.6358235239e-22)
(-0.0396629847224 0.0254779684566 -5.66228484489e-22)
(-0.0405559873277 0.0278435977182 -1.89450228827e-21)
(-0.0333218538493 0.00100755039239 1.59506123575e-23)
(-0.0345335749167 0.00297744473528 1.4217743554e-23)
(-0.0357445331681 0.00493177239899 5.62164570269e-24)
(-0.0366856460072 0.00694087724668 4.02475290132e-23)
(-0.0373691018193 0.0089735204322 5.46477523241e-23)
(-0.0379495909471 0.0110416483599 4.40564208425e-23)
(-0.0385369600245 0.0131576394144 3.98218462941e-23)
(-0.039179098538 0.0153332962747 6.01106656869e-23)
(-0.0398777179103 0.0175768437674 3.35400789701e-23)
(-0.0406175636317 0.0198966065363 3.85928139762e-23)
(-0.0413652877076 0.0223019636887 -1.35595059344e-22)
(-0.0421038278741 0.0247988710645 -5.57332320104e-22)
(-0.0429874231935 0.0273803470271 -1.46366200223e-21)
(-0.0446618977915 0.0300619851093 -3.70061801283e-21)
(-0.035246539205 0.000967368481005 -8.83389795077e-23)
(-0.036463447512 0.00283928358457 -6.44927964737e-23)
(-0.0376875398474 0.00469786255323 -4.54360762749e-23)
(-0.0386533297919 0.00660761442692 2.26820792168e-23)
(-0.0393717050355 0.00854009069187 5.33105489046e-23)
(-0.0399988457967 0.0105133010726 4.44459014175e-23)
(-0.0406440318668 0.0125391483885 4.18507864618e-23)
(-0.0413525156471 0.0146319800504 3.9615775101e-23)
(-0.0421308668395 0.0168099720176 3.9018607698e-23)
(-0.0429659530477 0.019096372411 3.54648515761e-23)
(-0.0438320992083 0.0215177614101 -1.25610899763e-22)
(-0.0447180643375 0.0240993250414 -4.65854798689e-22)
(-0.0457483130661 0.0268887017487 -1.51347798431e-21)
(-0.0475226012974 0.029974317538 -3.34896674893e-21)
(-0.0370759348438 0.000919543586632 -1.51952611779e-22)
(-0.0382948259825 0.00268489895505 -1.05463298943e-22)
(-0.0395272441946 0.00443977950652 -7.87683859567e-23)
(-0.0405160113095 0.00624044748013 -4.75959857505e-24)
(-0.0412695614032 0.00806263279179 2.28451597195e-23)
(-0.0419464756654 0.0099276241404 4.29426983023e-23)
(-0.042658501927 0.0118523473206 4.89087552332e-23)
(-0.0434495815275 0.0138527701263 4.56096389538e-23)
(-0.0443317415583 0.0159494236875 4.83613057358e-23)
(-0.0452967715683 0.0181747711918 8.31553100595e-23)
(-0.0463366739704 0.0205685778074 -1.09930774673e-23)
(-0.0474534127936 0.023174652049 -2.13770943398e-22)
(-0.0487612628038 0.0260582647003 -7.49655907476e-22)
(-0.0507482473636 0.0293547479681 -2.3489697951e-21)
(-0.0387996485695 0.000869885257407 -1.64809452512e-22)
(-0.0400166890395 0.00251630490128 -1.44830708582e-22)
(-0.0412544143291 0.00415614297908 -7.04109412756e-23)
(-0.0422631988215 0.00583481030436 -9.37227153247e-25)
(-0.0430536525195 0.0075361196003 2.06536043073e-23)
(-0.0437832365576 0.00928099399175 3.18817444496e-23)
(-0.0445645779746 0.0110878155564 4.73940466864e-23)
(-0.0454468919934 0.0129737014783 2.88508841185e-23)
(-0.0464455898754 0.014962054608 4.43361882295e-23)
(-0.0475617220235 0.0170848180543 6.14181463694e-23)
(-0.0488022378736 0.0193837199451 6.89036867359e-24)
(-0.050185682037 0.0219081491437 -7.26300257398e-23)
(-0.0518143301727 0.0247139198757 -4.865016087e-22)
(-0.0540690815221 0.0279203611736 -1.30791568145e-21)
(-0.0404089915122 0.000809135032057 -1.63724591798e-22)
(-0.0416164087753 0.00232670045726 -1.23381839483e-22)
(-0.0428572708083 0.00384437398011 -4.79168154105e-23)
(-0.0438851368429 0.00539123108151 4.91376934591e-24)
(-0.0447122840921 0.00695809577143 1.35725732303e-23)
(-0.0454950387582 0.00856847509966 1.33050276244e-23)
(-0.0463461613758 0.0102389687658 1.37526114325e-23)
(-0.0473186261879 0.0119866529402 9.53510634116e-24)
(-0.0484315526705 0.0138343330008 2.63810961322e-23)
(-0.0496974654044 0.0158089383161 2.44209354844e-23)
(-0.0511316958663 0.0179445135794 7.41684765522e-24)
(-0.0527651052841 0.0202814672562 -3.1072397081e-23)
(-0.0546798210683 0.0228580739053 -3.40911073616e-22)
(-0.057158818737 0.0257523243619 -1.05240026808e-21)
(-0.0418899665231 0.00073913373663 -1.79460728878e-22)
(-0.0430832696823 0.00211808798957 -8.15734622986e-23)
(-0.0443244898422 0.00350121243451 -2.72148485998e-23)
(-0.0453702706711 0.00490597363443 6.52236475146e-24)
(-0.0462318612783 0.00632711070376 9.0918362161e-24)
(-0.0470655239436 0.00778902794944 8.88877116345e-24)
(-0.0479832075078 0.00930715527029 -7.91594968197e-25)
(-0.0490388730268 0.0108968611249 -1.04865588305e-23)
(-0.0502560450455 0.0125766530672 1.0840881913e-23)
(-0.0516536480546 0.0143662242481 9.16938167332e-24)
(-0.0532516231023 0.016289058469 9.8218921275e-24)
(-0.055083906521 0.0183721905367 -1.1966768724e-23)
(-0.0572191156725 0.0206324529674 -2.45833975346e-22)
(-0.0598528722467 0.0231050783404 -9.19605636365e-22)
(-0.0432299248808 0.000666625596196 -2.21668076347e-22)
(-0.0444078633295 0.00189363986622 -1.25219449623e-22)
(-0.0456455763199 0.00312893507574 -5.71545639214e-23)
(-0.0467050267448 0.00438005571947 -7.86277420734e-24)
(-0.0475976240543 0.00564397183885 -2.67476654843e-24)
(-0.048478210191 0.00694488353948 -2.73446587791e-25)
(-0.0494563087953 0.00829730698098 -7.3842783139e-24)
(-0.0505861048486 0.00971338894872 -1.03265198581e-23)
(-0.0518933765369 0.0112061505827 -9.47161586237e-24)
(-0.0533978460726 0.0127884580121 -1.00808231832e-24)
(-0.0551201526384 0.0144726177452 1.62633424498e-23)
(-0.0570962602011 0.0162658889534 2.01981681889e-23)
(-0.0593799694558 0.0181683347719 -9.03067240725e-23)
(-0.0621035025461 0.0201770398672 -7.06016145206e-22)
(-0.0657657127883 0.0220856914746 -2.72580004055e-21)
(-0.0706568353817 0.0244305829489 -6.6300282803e-21)
(-0.0444183617464 0.000591970177265 -2.58592165172e-22)
(-0.0455776577311 0.00165549290287 -1.67737538594e-22)
(-0.0468078556248 0.00273085922269 -8.30477911216e-23)
(-0.0478781783775 0.00381703141371 3.67861542413e-24)
(-0.0487996341585 0.00491282227234 3.61127426459e-24)
(-0.0497225299841 0.00604278359153 -4.19406897212e-24)
(-0.0507545583021 0.00722008626336 -9.44603218566e-24)
(-0.0519485138779 0.0084527276202 -6.46732640465e-24)
(-0.0533291372468 0.00974902805494 4.42852203539e-24)
(-0.0549134320451 0.0111159247923 1.71256408439e-24)
(-0.0567212617619 0.0125505862782 3.03809316135e-23)
(-0.0587906133945 0.0140426556579 4.37977543552e-23)
(-0.0611277878765 0.0155951214762 3.21795233029e-23)
(-0.063855520647 0.017169014697 -4.0726912014e-22)
(-0.0673457052931 0.0185889399733 -2.73044730908e-21)
(-0.0718787835177 0.0200809018197 -2.66637287996e-21)
(-0.0454428687786 0.00050894929064 -3.17750326641e-22)
(-0.046581279075 0.00140170862558 -2.13887840201e-22)
(-0.0478013933844 0.00230792907374 -9.89185475081e-23)
(-0.0488803384413 0.0032195642049 2.27891143978e-23)
(-0.0498285329549 0.00413925282796 1.69142678627e-23)
(-0.0507894840393 0.00509102239418 5.32586050044e-24)
(-0.0518698590018 0.00608601644755 -3.49658871099e-24)
(-0.0531188771608 0.00713019896164 -4.35306989039e-24)
(-0.0545588144169 0.00822982278862 1.51447284831e-24)
(-0.0562021233397 0.00938592129223 -1.72460906538e-23)
(-0.0580640382874 0.010575014143 4.48465532344e-23)
(-0.0601734578504 0.0118105026699 7.4344939312e-23)
(-0.0624964209115 0.0130679708997 8.51864048287e-23)
(-0.0651198624575 0.0142525646651 -1.71606274031e-22)
(-0.0683195248595 0.0151829320764 -1.34623928409e-21)
(-0.0724184466934 0.0159323148287 4.58758186122e-22)
)
;

boundaryField
{
    back
    {
        type            noSlip;
    }
    sides
    {
        type            noSlip;
    }
    bottom
    {
        type            noSlip;
    }
    front
    {
        type            noSlip;
    }
    atmosphere
    {
        type            pressureInletOutletVelocity;
        value           nonuniform List<vector> 0();
    }
    floatingObject
    {
        type            movingWallVelocity;
        value           nonuniform List<vector> 0();
    }
    procBoundary7to6
    {
        type            processor;
        value           nonuniform List<vector> 
11
(
(-0.0481773460037 0.0325492573302 -6.49739589452e-21)
(-0.0513719481054 0.0328415164013 -8.17385484537e-21)
(-0.0547204163097 0.0325188725885 -4.41201935619e-21)
(-0.0580483912503 0.0310134134813 -4.09602778413e-21)
(-0.0610494321965 0.0285509760847 -2.37734022808e-21)
(-0.0636313522168 0.0255143373872 -2.80758695917e-21)
(-0.0636313522168 0.0255143373872 -2.80758695917e-21)
(-0.0688411481033 0.0285322966321 -5.94395593585e-21)
(-0.0748833499562 0.0250025358145 -1.3891708649e-20)
(-0.0758855333894 0.0202598945547 -9.4289329387e-21)
(-0.0760947845459 0.0158528965378 -8.67055175453e-21)
)
;
    }
    procBoundary7to8
    {
        type            processor;
        value           nonuniform List<vector> 
17
(
(-0.0249074362293 0.00109368764498 -2.47259970202e-22)
(-0.0260467239828 0.00335781552722 -4.1144711612e-22)
(-0.0271378961246 0.00560453623982 -2.29691867807e-22)
(-0.0279375847891 0.00793448094037 9.31672425059e-24)
(-0.0284643217269 0.0103083388697 1.6174049819e-22)
(-0.028874147621 0.0127270088077 1.85997068432e-22)
(-0.0292816311143 0.0151900529935 1.63912811335e-22)
(-0.0297424485446 0.017690893697 1.56472561294e-22)
(-0.0327846681877 0.0196089063439 9.69198953974e-23)
(-0.0327846681877 0.0196089063439 9.69198953974e-23)
(-0.0334157279334 0.0220934292317 6.71648882663e-23)
(-0.0341341332574 0.0245862242667 -6.73881987617e-23)
(-0.0373356470746 0.0262308690426 -5.92178097069e-22)
(-0.0373356470746 0.0262308690426 -5.92178097069e-22)
(-0.0383097592994 0.0285398661342 -2.30530015095e-21)
(-0.0421360406992 0.0301852454632 -4.81617957911e-21)
(-0.0421360406992 0.0301852454632 -4.81617957911e-21)
)
;
    }
    procBoundary7to9
    {
        type            processor;
        value           nonuniform List<vector> 
16
(
(-0.0462911007604 0.00041803085211 -3.63428099232e-22)
(-0.0474090522068 0.00113113940256 -2.32812476376e-22)
(-0.0486175106641 0.00185968575945 -1.0672199175e-22)
(-0.0497024393122 0.00258915956153 1.48303477995e-23)
(-0.0506743718515 0.00332741904559 1.71766996789e-23)
(-0.0516728413969 0.00409622639253 2.65608273259e-24)
(-0.0527989737187 0.00490468078671 -1.05765668921e-24)
(-0.0540988242364 0.00575955242848 -7.71985062141e-25)
(-0.0555922427476 0.00666538486011 5.80698800828e-24)
(-0.0572858283026 0.00762116599077 5.312159552e-24)
(-0.0591873404071 0.00859363755082 1.81090875524e-23)
(-0.0612920636962 0.00960695238471 1.48867878274e-23)
(-0.0635769829861 0.0106254650833 -6.31894268935e-23)
(-0.0660476755932 0.0115266116934 -3.73274689024e-22)
(-0.0688637331802 0.0120578686181 -1.10945190074e-21)
(-0.0723506903693 0.0123249451893 1.36370244457e-22)
)
;
    }
}


// ************************************************************************* //
