/*--------------------------------*- C++ -*----------------------------------*\
| =========                 |                                                 |
| \\      /  F ield         | OpenFOAM: The Open Source CFD Toolbox           |
|  \\    /   O peration     | Version:  v2012                                 |
|   \\  /    A nd           | Website:  www.openfoam.com                      |
|    \\/     M anipulation  |                                                 |
\*---------------------------------------------------------------------------*/
FoamFile
{
    version     2.0;
    format      ascii;
    class       surfaceVectorField;
    location    "5.2";
    object      Uf_0;
}
// * * * * * * * * * * * * * * * * * * * * * * * * * * * * * * * * * * * * * //

dimensions      [0 1 -1 0 0 0 0];


internalField   nonuniform List<vector> 
300
(
(-0.0267629155485 0.0021582373721 -2.13038217038e-22)
(-0.0272685930989 0.00106327706327 -1.98455019111e-22)
(-0.0278904862995 0.00434389813289 -1.5634201643e-22)
(-0.0284318095278 0.00324040465655 -1.37749594912e-22)
(-0.0288467957951 0.00656913808282 -5.22456998469e-23)
(-0.029561277987 0.00539406581884 -9.33455050684e-23)
(-0.0295046801917 0.00883656345823 8.82832885379e-23)
(-0.030383270883 0.0076155421548 4.38421856717e-23)
(-0.0299527437492 0.0111495894925 1.50004159226e-22)
(-0.0309190750601 0.00987481809522 1.27125818555e-22)
(-0.0303251038965 0.0135108238185 1.48023473331e-22)
(-0.031324205996 0.0121790043329 1.36570406334e-22)
(-0.0307015104826 0.0159205299557 1.28975055482e-22)
(-0.0317088387303 0.0145330738884 1.18816029304e-22)
(-0.0321204060678 0.0169370092151 8.99163233052e-23)
(-0.0289126539261 0.00212102299632 -1.23166396985e-22)
(-0.0293893577464 0.0010496982337 -6.31436998528e-23)
(-0.0300679244814 0.00425877033194 -7.47530835511e-23)
(-0.0305691800261 0.00316946188184 -6.26577731249e-23)
(-0.0310607673085 0.00642669429912 2.74238045013e-24)
(-0.0317287971579 0.00526566104148 -1.55591801331e-23)
(-0.0317591892512 0.00862955935366 8.26847156891e-23)
(-0.03258572852 0.00742237275274 5.43237936098e-23)
(-0.0322512392892 0.0108737230316 1.13692065663e-22)
(-0.0331628288418 0.00961157075684 9.43243230708e-23)
(-0.0326713833055 0.0131645676946 1.07362962306e-22)
(-0.0336146321763 0.0118430749453 9.20821085295e-23)
(-0.033096398313 0.0155050615162 7.97572971266e-23)
(-0.0340489290978 0.0141260943933 8.0342244211e-23)
(-0.033555725833 0.0178970410509 6.03001787833e-23)
(-0.0345120243346 0.0164639202907 4.90808228696e-23)
(-0.0340516491361 0.0203387758269 4.0977261006e-23)
(-0.0350174684292 0.0188562648049 4.5117327348e-23)
(-0.0345751981266 0.0228135045459 -4.27966175826e-23)
(-0.0355489528574 0.0213002604167 7.85549349036e-24)
(-0.0360806940074 0.0237857921362 -1.36558519126e-22)
(-0.0310132669473 0.00206940295365 -2.63507599295e-24)
(-0.031458061667 0.00102972465634 1.73739930055e-23)
(-0.0321878801081 0.00414779094316 -3.46386970691e-24)
(-0.032646699734 0.00307784782173 -3.43198895455e-24)
(-0.033211113487 0.00624802082588 3.60222330266e-23)
(-0.0338281050379 0.00510494597383 1.15635050048e-23)
(-0.0339458166638 0.00838133988005 6.59634009915e-23)
(-0.0347181243159 0.00718932695167 4.78668842608e-23)
(-0.034478734473 0.0105518319362 7.27143659375e-23)
(-0.0353324340953 0.00930344602358 6.59008858201e-23)
(-0.0349448655526 0.0127660411731 6.50613904341e-23)
(-0.035828045047 0.011458680605 5.63109735312e-23)
(-0.0354216763258 0.0150404752087 4.9665769954e-23)
(-0.0363227397004 0.0136676586456 5.04239550132e-23)
(-0.0359335359393 0.0173669363274 3.38979714342e-23)
(-0.0368381261849 0.0159388857702 4.85867028039e-23)
(-0.0364757893725 0.0197507443055 1.19955598323e-23)
(-0.0374015725019 0.0182767941623 3.15489605488e-23)
(-0.0370267317975 0.0221900196713 -8.59064080526e-23)
(-0.0379893725246 0.0206866197769 1.48671128468e-23)
(-0.0375760389918 0.0246827085948 -3.72089433644e-22)
(-0.0385766232801 0.0231741789271 -1.53373060179e-22)
(-0.0382144942743 0.0271662086598 -1.25518222694e-21)
(-0.0391432730206 0.0257225354995 -5.73545328888e-22)
(-0.0398557467376 0.0282922403888 -1.71289785254e-21)
(-0.0330516121628 0.00200205222396 1.65770800439e-23)
(-0.0334589667442 0.0010009062061 -3.54517293475e-23)
(-0.0342404591089 0.0040085656444 1.15953857572e-23)
(-0.0346518592637 0.00296586705482 -2.25701902613e-23)
(-0.0352894002794 0.00603380325646 2.3408156239e-23)
(-0.0358519179976 0.00491319548354 -1.9247947944e-23)
(-0.0360590700862 0.00808870952467 4.78043690894e-23)
(-0.0367716123025 0.00691569323639 3.20554590523e-23)
(-0.0366351951219 0.010181176553 4.94974934138e-23)
(-0.037423567935 0.00894701630917 5.43685383191e-23)
(-0.0371505703403 0.0123228442361 4.16735381103e-23)
(-0.0379685803972 0.0110224659096 4.4213223128e-23)
(-0.0376836243228 0.0145196569158 4.93448878631e-23)
(-0.0385188009717 0.0131549659339 4.04074876854e-23)
(-0.0382585379194 0.0167924218456 4.62376919185e-23)
(-0.0391106942194 0.0153584075043 4.94943109834e-23)
(-0.0388680863408 0.0191428941011 3.44205135633e-23)
(-0.0397527114901 0.0176466033603 3.52983790166e-23)
(-0.0394876332793 0.0215792831194 -5.25995392799e-23)
(-0.0404276076428 0.0200359002813 3.46258002103e-23)
(-0.0400924079143 0.0241087228786 -3.54828955424e-22)
(-0.0411098302741 0.0225448494844 -1.35223443949e-22)
(-0.040754969147 0.0267467924233 -1.03126095449e-21)
(-0.0417887432337 0.0251881868049 -5.24021457326e-22)
(-0.0418838620238 0.0294766485215 -2.62619572144e-21)
(-0.0425975163422 0.0279838673383 -1.51771400434e-21)
(-0.0441628139023 0.0309775415696 -3.58465002806e-21)
(-0.0350146748322 0.00192092747866 -7.45989996527e-23)
(-0.0353783224044 0.000962373687122 -1.20226830979e-22)
(-0.0362138134104 0.00384553337641 -5.34135239625e-23)
(-0.0365746663333 0.00283532065543 -8.21545452602e-23)
(-0.0372843650765 0.00578486575186 -1.06006451307e-23)
(-0.0377893729853 0.00469360361706 -6.18499418318e-23)
(-0.0380876551789 0.00775120797432 3.86196282821e-23)
(-0.038736097648 0.00660305808113 9.51237995751e-24)
(-0.0387096637842 0.00975810178983 4.90842680334e-23)
(-0.0394287441667 0.00854060798636 3.85172568249e-23)
(-0.0392837560158 0.0118188615673 4.29471727032e-23)
(-0.0400279413498 0.0105263748052 4.37539607826e-23)
(-0.0398868380768 0.0139450507243 4.05569108057e-23)
(-0.0406441741057 0.0125754575434 4.50811151771e-23)
(-0.0405443183478 0.016155929463 3.85549980814e-23)
(-0.04132163492 0.0147037314094 4.24037536534e-23)
(-0.0412524671834 0.0184685093201 3.55036656635e-23)
(-0.0420665923311 0.0169312266018 4.26805225975e-23)
(-0.0419912797376 0.0209114054206 -4.7998104459e-23)
(-0.0428733874777 0.0192866704968 5.80509669332e-23)
(-0.0427416241291 0.0235099258622 -3.04415945852e-22)
(-0.0437133523899 0.0218043093393 -7.18704281019e-23)
(-0.0435617447828 0.0263047835002 -1.01047450718e-21)
(-0.0445927925343 0.0245185767275 -3.51519484701e-22)
(-0.0448219311432 0.0293267295074 -2.47616831096e-21)
(-0.0456341824038 0.0274852110544 -1.161046802e-21)
(-0.0473822386284 0.0308110968564 -2.91170141481e-21)
(-0.0368905473287 0.00183038964437 -1.27782376587e-22)
(-0.0372067793795 0.000918588277498 -1.59795200081e-22)
(-0.0380961476289 0.00366249160615 -9.05909631295e-23)
(-0.038404609021 0.0026879591006 -1.23765136758e-22)
(-0.0391853304849 0.00550261386775 -4.17369167436e-23)
(-0.0396272589065 0.00444641479331 -7.46990484691e-23)
(-0.0400219290546 0.00736976868108 9.41000850037e-24)
(-0.0406010543568 0.00625020044648 -2.76498148947e-24)
(-0.0406920017032 0.00927878879908 3.31869495741e-23)
(-0.0413357579555 0.00808221094925 2.17976931413e-23)
(-0.0413316080575 0.0112453423738 4.58879032565e-23)
(-0.0419929163538 0.00996405248411 3.76585243457e-23)
(-0.0420182982968 0.013287039109 4.69279580248e-23)
(-0.0426850586828 0.0119141185589 4.81594150616e-23)
(-0.0427796076359 0.0154222746427 4.65292781695e-23)
(-0.0434572304766 0.0139496239042 3.73712013757e-23)
(-0.0436170102039 0.0176815122186 6.52278238672e-23)
(-0.0443278083944 0.0160932892273 4.62021456898e-23)
(-0.0445217290531 0.0200887888197 3.41786432903e-23)
(-0.0452847088485 0.0183785756539 7.20596524548e-23)
(-0.0454896615488 0.0227035583291 -1.18973966951e-22)
(-0.0463346997575 0.0208481819926 -3.74363217471e-24)
(-0.0465785510925 0.0255824338706 -5.0209177952e-22)
(-0.047482977556 0.0235500703372 -1.50652625383e-22)
(-0.0480942306158 0.0287716223648 -1.59657990584e-21)
(-0.0488413653359 0.0265462800436 -6.41653095762e-22)
(-0.0508513675638 0.0299651822508 -1.87860924239e-21)
(-0.0386676651678 0.00173089585676 -1.55777960253e-22)
(-0.0389354923492 0.000867862002216 -1.65301554708e-22)
(-0.0398765431158 0.00345686216987 -1.07873222098e-22)
(-0.0401281881659 0.00252127446893 -1.35544279024e-22)
(-0.04098155688 0.00519050875863 -3.5727113215e-23)
(-0.0413584504189 0.00416946465396 -5.93108748631e-23)
(-0.0418511536787 0.00694361916918 9.62270315143e-24)
(-0.0423517652505 0.00585479529076 1.89241366679e-24)
(-0.0425720414911 0.00873925027364 2.62692679129e-23)
(-0.0431292263812 0.00756766566465 1.7097583476e-23)
(-0.0432803127216 0.010596171266 3.99300361508e-23)
(-0.0438481915531 0.00933077153135 2.29295317217e-23)
(-0.04405682383 0.0125318967375 3.86026584125e-23)
(-0.0446200530696 0.0111623262634 3.10113765487e-23)
(-0.0449336397762 0.0145683721276 3.70440688961e-23)
(-0.045494382128 0.0130800907268 1.98296422826e-23)
(-0.0459186751075 0.0167275387607 5.30339742774e-23)
(-0.0464895975004 0.0151080500228 3.5443408112e-23)
(-0.0470155040714 0.0190548281255 3.41373769897e-23)
(-0.0476170931959 0.0172771541081 4.33493898406e-23)
(-0.0482360681858 0.0215955313455 -3.54222906066e-23)
(-0.0488834316562 0.0196280145607 7.38128834e-24)
(-0.0496401152535 0.0244112740904 -2.90213941625e-22)
(-0.0503121018764 0.0222082661573 -5.51709537875e-23)
(-0.0514714175278 0.027548055733 -9.23682432308e-22)
(-0.0519993254982 0.0250682964442 -4.25067297509e-22)
(-0.0542846452225 0.0283137920577 -1.20481657484e-21)
(-0.0403346235332 0.00161995939602 -1.4506787348e-22)
(-0.0405531738224 0.000806357455768 -1.72885163034e-22)
(-0.0415418561216 0.003222734596 -8.69819317899e-23)
(-0.0417285227014 0.00233273506388 -1.02663245486e-22)
(-0.0426613101387 0.00482927838527 -2.16913479814e-23)
(-0.0429624973155 0.00385963513753 -3.75188882678e-23)
(-0.0435635511668 0.00646103859574 9.36729399131e-24)
(-0.0439810933141 0.0054150601591 5.70978807104e-24)
(-0.0443356803625 0.00813340104561 1.37578472848e-23)
(-0.04479941931 0.00699477900739 1.15262307787e-23)
(-0.0451134089171 0.00986361299143 1.40108721195e-23)
(-0.0455768055466 0.00862325335439 1.12555601001e-23)
(-0.0459797834419 0.0116695747442 1.22383604188e-23)
(-0.0464254254945 0.0103171154187 6.91007342955e-24)
(-0.0469708648518 0.0135721273172 1.82289814986e-23)
(-0.0473979015545 0.0120932039702 -1.5222172361e-25)
(-0.048102579847 0.0155971112548 2.57588236752e-23)
(-0.048517707682 0.0139730356305 1.8707832366e-23)
(-0.0493890690734 0.0177751355622 1.65933011909e-23)
(-0.0498009692079 0.0159814546353 1.73533590339e-23)
(-0.0508536259959 0.0201521600144 -1.2367374841e-23)
(-0.0512694853608 0.0181502377067 9.22890668775e-24)
(-0.0525531705767 0.0227713915846 -1.90024309672e-22)
(-0.0529462812293 0.0205165779525 -2.32617612556e-23)
(-0.0546717243279 0.0256657385595 -7.06201440041e-22)
(-0.0549174696636 0.0231134103834 -3.00623974317e-22)
(-0.0574192906485 0.0260083634526 -1.00028418331e-21)
(-0.0418782025777 0.0014880143543 -1.30480535041e-22)
(-0.0420390012118 0.000738338141007 -2.02046733571e-22)
(-0.0430801295563 0.00296137671693 -5.3200201964e-23)
(-0.0431995893248 0.00212489528033 -1.01745196859e-22)
(-0.0442121820062 0.00443541652751 -1.01177522154e-23)
(-0.044434190518 0.00351630088211 -4.1470407312e-23)
(-0.04514549355 0.00592895781212 7.86872485844e-24)
(-0.0454723419727 0.00492954024059 -5.4629043117e-25)
(-0.0459666519578 0.00746043341361 9.02394359401e-24)
(-0.0463288530303 0.00636320621687 3.24003826648e-24)
(-0.0468110843738 0.00904654454129 4.1547614101e-24)
(-0.0471614413513 0.00784210573305 4.32246019664e-24)
(-0.0477621159523 0.0107036591165 -5.48050871284e-24)
(-0.0480820799802 0.0093817100595 -3.95078039898e-24)
(-0.0488587947664 0.0124491446811 3.26629143805e-25)
(-0.0491445084648 0.010996234844 -1.04249155496e-23)
(-0.0501230017241 0.0143026387691 1.03023677247e-23)
(-0.0503745298324 0.0127020398021 8.58217149921e-25)
(-0.0515753106087 0.0162886383177 9.9889645308e-24)
(-0.0517930690658 0.0145165571252 4.39697046399e-24)
(-0.0532444070114 0.0184335374978 -1.66547972685e-24)
(-0.0534236766812 0.0164602103 1.32280985868e-23)
(-0.0551836773182 0.0207722004396 -1.33861425901e-22)
(-0.0553006089854 0.0185539269458 3.0259907858e-24)
(-0.0575286099519 0.0233188180706 -5.94706717587e-22)
(-0.05748548472 0.0208122381721 -1.75380400984e-22)
(-0.0601637590009 0.0232634939871 -8.28021879622e-22)
(-0.043286587674 0.0013448257715 -1.7331139539e-22)
(-0.0433819030181 0.000667471567491 -2.40834655967e-22)
(-0.0444806863245 0.00267500691666 -9.00154022075e-23)
(-0.0445277605961 0.00190044922428 -1.45181658741e-22)
(-0.0456211392848 0.00400227585593 -3.18989455278e-23)
(-0.0457593441117 0.00314233949641 -6.92598669597e-23)
(-0.0465814638611 0.00534550057256 -5.17497702313e-24)
(-0.0468134069598 0.00440064661124 -2.31317827878e-24)
(-0.0474476439127 0.00672260380349 -1.4614451309e-24)
(-0.0477039239922 0.00567564770278 2.83796953275e-25)
(-0.0483532685781 0.00814993132388 -3.78308161244e-24)
(-0.0485871704571 0.00699219284745 -2.33065867646e-24)
(-0.0493806903459 0.00964172229629 -8.89518723575e-24)
(-0.0495731609088 0.00836449309477 -8.48005452662e-24)
(-0.0505704659704 0.0112106112373 -9.89332754349e-24)
(-0.0507141713541 0.00980277582188 -8.51595974833e-24)
(-0.0519464612754 0.0128697962921 -5.04718011079e-24)
(-0.0520366411063 0.0113178128113 -2.48318499284e-24)
(-0.0535308390303 0.014633258742 7.63610451995e-24)
(-0.0535622238002 0.0129198741502 6.4327738008e-25)
(-0.0553550791083 0.0165138268285 1.79195690994e-23)
(-0.0553131404759 0.0146151245145 2.3229581291e-23)
(-0.0574690187272 0.0185273258442 -3.84929842974e-23)
(-0.0573270241743 0.0164043583371 3.2519737859e-23)
(-0.0599734449561 0.0206947951356 -4.0869556302e-22)
(-0.0596711639983 0.0182934407241 -3.35942354511e-23)
(-0.0631993445735 0.02295155146 -1.73796120984e-21)
(-0.0624454854236 0.0202701155426 -5.70477352084e-22)
(-0.0675656307404 0.0251243768185 -4.78296385983e-21)
(-0.0661432294672 0.0221544713939 -2.76623425038e-21)
(-0.0710616383487 0.0244013752357 -4.81278837199e-21)
(-0.0445473969768 0.00119262469219 -2.12704919318e-22)
(-0.0445729676402 0.0005909001213 -2.88676700966e-22)
(-0.0457298714714 0.00236616010851 -1.24426123493e-22)
(-0.0456995745431 0.0016596782172 -1.89521663217e-22)
(-0.0468749766498 0.00353380305349 -3.96740997107e-23)
(-0.046925021629 0.00274020166308 -9.05324445706e-23)
(-0.0478593827328 0.00471467955573 3.14559569763e-24)
(-0.0479920830174 0.00383190794118 1.29794009824e-23)
(-0.048766575103 0.00592471704613 -5.85416592293e-25)
(-0.0489116753562 0.00493752381752 1.00009713262e-23)
(-0.0497269870313 0.00718283041695 -7.02763159065e-24)
(-0.0498432144259 0.00608180208639 3.06687153865e-25)
(-0.0508214510747 0.00849810620306 -8.1008270392e-24)
(-0.0508870859558 0.00727709964864 -6.77018695161e-24)
(-0.0520894801519 0.00987874976762 -1.10581719768e-24)
(-0.0520948337146 0.00853014541009 -5.53142805282e-24)
(-0.0535532824179 0.0113316473845 3.20727249802e-24)
(-0.053491711343 0.00984771795987 2.98905527644e-24)
(-0.0552336851072 0.0128622152632 1.62367541511e-23)
(-0.05509782868 0.0112331103171 -7.08147307019e-24)
(-0.0571639366631 0.0144700482179 3.78297500505e-23)
(-0.0569294707316 0.0126728369463 3.77279189283e-23)
(-0.0593728834832 0.0161676450809 3.74184867053e-23)
(-0.0590370122206 0.014168159348 6.10787793284e-23)
(-0.0619364156774 0.0178692352404 -1.95376024516e-22)
(-0.0613895923704 0.0157089801637 5.9157534826e-23)
(-0.0651255412549 0.0195547262598 -1.59875039263e-21)
(-0.0641527929562 0.0172289177246 -2.90765747993e-22)
(-0.0693071416856 0.0210415455025 -2.79605876255e-21)
(-0.0676538248059 0.0185514426312 -2.08244343749e-21)
(-0.0722607150543 0.0198582154327 -1.16085912435e-21)
(-0.0456476576254 0.00102770208935 -2.65493444865e-22)
(-0.0468158473943 0.00203465612334 -1.55627984294e-22)
(-0.0479627871452 0.00303234425148 -3.78789438775e-23)
(-0.0489685620911 0.0040404843073 1.9834776611e-23)
(-0.0499128107758 0.00507525406381 1.08930750724e-23)
(-0.0509220431057 0.00615542935583 5.641317929e-25)
(-0.0520748446627 0.00728611418689 -4.20078796522e-24)
(-0.0534076538611 0.00847430369273 -1.43655557869e-24)
(-0.0549391134861 0.0097229462399 -7.29969029178e-24)
(-0.0566852967191 0.0110277273948 1.4409691707e-23)
(-0.0586726500373 0.0123799749787 6.09769482061e-23)
(-0.0609047679664 0.0137453729035 8.28178274491e-23)
(-0.0634195585571 0.0150910688649 -3.62321886512e-23)
(-0.0664222889479 0.0162876452553 -7.74458792851e-22)
(-0.0702573107122 0.0171300592904 -4.47243799286e-22)
)
;

boundaryField
{
    back
    {
        type            calculated;
        value           uniform (0 0 0);
    }
    sides
    {
        type            calculated;
        value           nonuniform List<vector> 0();
    }
    bottom
    {
        type            calculated;
        value           uniform (0 0 0);
    }
    front
    {
        type            calculated;
        value           uniform (0 0 0);
    }
    atmosphere
    {
        type            calculated;
        value           nonuniform List<vector> 0();
    }
    floatingObject
    {
        type            calculated;
        value           nonuniform List<vector> 0();
    }
    procBoundary7to6
    {
        type            processor;
        value           nonuniform List<vector> 
11
(
(-0.044337859692 0.0322934812014 -5.23455944022e-21)
(-0.0474986077865 0.0325283328061 -5.81078323109e-21)
(-0.050944336631 0.0322192123599 -3.49186379916e-21)
(-0.0544773108559 0.0309562915359 -2.74069325385e-21)
(-0.0577802129268 0.028771494395 -1.74609409978e-21)
(-0.0607076951522 0.0260355967066 -1.89322193568e-21)
(-0.0639270838296 0.0256788310581 -2.80316126589e-21)
(-0.0691213357637 0.0287429096127 -6.38432724445e-21)
(-0.0722685935901 0.0270306945504 -1.03981545154e-20)
(-0.0738877415746 0.0222222515578 -6.19386587564e-21)
(-0.0744854334653 0.017358801266 -4.2866409957e-21)
)
;
    }
    procBoundary7to8
    {
        type            processor;
        value           nonuniform List<vector> 
17
(
(-0.0251099255149 0.00107323703626 -2.49518581238e-22)
(-0.0262457684883 0.00330063604295 -2.95165568576e-22)
(-0.0273356278533 0.00550499089141 -1.84614680313e-22)
(-0.0281154161798 0.00778669284618 2.15213019551e-23)
(-0.0286056691583 0.010112070633 1.52763310559e-22)
(-0.0289627536706 0.0124840622953 1.72159677932e-22)
(-0.0292991305011 0.0149046718099 1.51423541715e-22)
(-0.0296673218747 0.0173699642037 1.38396560108e-22)
(-0.0311144906797 0.0183739649394 1.08397393712e-22)
(-0.0325757312021 0.0193870171077 7.87812491904e-23)
(-0.0330746594424 0.0218761391502 4.43678832205e-23)
(-0.033610497688 0.0243846706286 -8.945053572e-23)
(-0.0351429022472 0.0252820515865 -3.56845883712e-22)
(-0.0366539877373 0.0262693874568 -5.9237679823e-22)
(-0.03740880548 0.0286930221498 -2.14676573284e-21)
(-0.0392817003847 0.0295995929335 -3.4108964266e-21)
(-0.0413250515487 0.0309096086169 -4.3241942955e-21)
)
;
    }
    procBoundary7to9
    {
        type            processor;
        value           nonuniform List<vector> 
16
(
(-0.0455995215999 0.000505708475085 -3.41634890283e-22)
(-0.0467051824317 0.00140116186973 -2.23067744058e-22)
(-0.0479210161678 0.00231039103077 -1.02714296731e-22)
(-0.0489981558828 0.00322578439413 1.93144149775e-23)
(-0.0499441036227 0.00415430487522 1.72108458511e-23)
(-0.0509210744549 0.00511930208368 4.05841864266e-24)
(-0.0520159373113 0.00613089685649 -2.55667907754e-24)
(-0.0532823506804 0.00719491252519 -2.65745723934e-24)
(-0.0547415926749 0.00831567236102 3.65902048757e-24)
(-0.0564065847008 0.00949148842498 -5.60422514558e-24)
(-0.0582891094872 0.0106915150756 3.20746922738e-23)
(-0.0604136398221 0.0119326351885 4.77819249235e-23)
(-0.0627503476331 0.0131810091401 1.55134975052e-23)
(-0.0653679459508 0.0143187633899 -2.5930737315e-22)
(-0.0685151588471 0.0151165814632 -1.26088193376e-21)
(-0.0725049573412 0.0156530366912 3.63732564307e-22)
)
;
    }
}


// ************************************************************************* //
