/*--------------------------------*- C++ -*----------------------------------*\
| =========                 |                                                 |
| \\      /  F ield         | OpenFOAM: The Open Source CFD Toolbox           |
|  \\    /   O peration     | Version:  v2012                                 |
|   \\  /    A nd           | Website:  www.openfoam.com                      |
|    \\/     M anipulation  |                                                 |
\*---------------------------------------------------------------------------*/
FoamFile
{
    version     2.0;
    format      ascii;
    class       volScalarField;
    location    "1.3";
    object      nut;
}
// * * * * * * * * * * * * * * * * * * * * * * * * * * * * * * * * * * * * * //

dimensions      [0 2 -1 0 0 0 0];


internalField   nonuniform List<scalar> 
164
(
0.00135676946955
0.00136047828038
0.00136452670028
0.00136886115623
0.00137341590131
0.00137815079444
0.00138311647738
0.00138880222676
0.00139807338478
0.00143258749809
0.00166725814954
0.00250665673118
0.0033503575711
0.000874466078114
0.00128674457865
0.0013233976887
0.00133734504513
0.00134767208597
0.00135123534718
0.00135500227698
0.00135916101029
0.001363701963
0.00136854659526
0.0013736170923
0.0013788780329
0.00138437671337
0.00139052086013
0.0013996301745
0.00142887916891
0.00161430049109
0.00238046512165
0.00328866246511
0.000871583121889
0.00128271402032
0.00131959381685
0.0013338740225
0.00134052451657
0.00134484496101
0.00134876576465
0.00135296141179
0.00135764139092
0.00136275323304
0.00136817572973
0.00137381837738
0.00137966032994
0.00138573564934
0.00139240054321
0.00140143309504
0.00142739069292
0.00158748448278
0.00233661773017
0.00330172978476
0.000868555483941
0.00127867921988
0.00131572949871
0.00133024503317
0.00133713607675
0.00134171844443
0.00134595393406
0.00135054746308
0.00135577129175
0.00136149755759
0.0013675436979
0.00137381447505
0.00138029203149
0.00138697065886
0.00139416852907
0.00140329434653
0.00142706584352
0.00157115577556
0.0022764717876
0.00336415471062
0.000865484670307
0.00127484139734
0.00131199341429
0.00132661057801
0.00133359921919
0.00133826796822
0.00134250020956
0.001346849158
0.00135213185257
0.00135817226875
0.0013647669254
0.00137183126068
0.00137931524102
0.00138702996629
0.00139506969569
0.00140459451002
0.00142516911979
0.00154359655705
0.002200993117
0.00346236097066
0.000862504234805
0.00127143615199
0.00130861392306
0.0013231620109
0.00132999189806
0.00133419624279
0.00133674895052
0.00133581807102
0.00133824803562
0.00134276626448
0.00134942531016
0.00135805633222
0.00136884210421
0.00138033319025
0.00139126028955
0.00140248182312
0.00142002473626
0.00150021311046
0.00196338273997
0.00313953343934
0.000859767481943
0.00126867941546
0.00130581730919
0.00132009828734
0.00132632492445
0.00132863073201
0.00132350165241
0.00129683023506
0.000945702072274
0.00093870489889
0.000942536187574
0.000954378443734
0.00131773070959
0.00135044791312
0.00137301400225
0.00139047944211
0.0014092092238
0.00147394647908
0.0018754435615
0.0032102109466
0.000857459374806
0.00126674911288
0.00130382661408
0.00131762394689
0.00132257628817
0.00132111536125
0.00130319702382
0.000906705316346
0.000855879623111
0.00126558000456
0.00130276207985
0.00131639322328
0.00132076979292
0.00131737624299
0.00129351824012
0.000884335952687
0.00085587992399
0.00126558037074
0.00130276227797
0.00131639320962
0.00132076959598
0.00131737592042
0.00129351793286
0.000884335913063
0.000857460097288
0.00126675007791
0.00130382720435
0.00131762409433
0.00132257596756
0.00132111479999
0.00130319645568
0.000906705444384
)
;

boundaryField
{
    back
    {
        type            nutkWallFunction;
        blending        stepwise;
        Cmu             0.09;
        kappa           0.41;
        E               9.8;
        value           nonuniform List<scalar> 
164
(
0.000131724725215
0.000132050510928
0.000132406345706
0.000132787433357
0.0001331880681
0.000133604799133
0.000134041956122
0.000134541571058
0.000135337737233
0.000138111020991
0.000156987888702
0.000228237420093
0.000375457501226
0.000114861365618
0.000125593682788
0.000128817841756
0.000130033541209
0.000130929640289
0.000131241065203
0.000131571527104
0.000131936884496
0.000132335985981
0.000132761859154
0.000133207721969
0.000133670558012
0.000134154464514
0.000134695059418
0.000135482738848
0.000137875033555
0.00015277416838
0.000217616684816
0.000370072861294
0.000114520534269
0.000125239849718
0.00012848528105
0.0001297307142
0.000130307759856
0.000130683448315
0.000131026330736
0.000131394559058
0.000131805797458
0.000132255056909
0.000132731589858
0.000133227507604
0.000133741109466
0.000134275454283
0.000134861956549
0.000135646640002
0.000137793358975
0.000150749037364
0.000213355159538
0.000372161769058
0.000114162325493
0.000124885618345
0.000128147242023
0.000129413881226
0.000130012217197
0.000130411065019
0.00013078180645
0.000131185409638
0.000131644773855
0.000132148124862
0.000132679314227
0.000133230087274
0.000133799036703
0.000134385818944
0.000135018295245
0.000135812642008
0.000137791569948
0.000149738859498
0.000210648273779
0.00037866614669
0.000113798682153
0.00012454861307
0.000127820195929
0.00012909626695
0.000129703508986
0.000130110379815
0.000130481741561
0.000130865471213
0.000131331252276
0.0001318626555
0.000132441804144
0.000133061595742
0.000133717760825
0.000134393716543
0.000135098474193
0.000135928294184
0.000137638289559
0.000147271408348
0.000200913148695
0.000383061621105
0.000113445336675
0.000124249447612
0.000127524083618
0.000128794561257
0.000129388423731
0.000129755680207
0.0001299820125
0.000129903692798
0.000130123341739
0.000130522012673
0.000131105984952
0.000131862171685
0.000132805586321
0.000133809298709
0.00013476331151
0.000135738537197
0.000137208460465
0.000143657798875
0.000181183576251
0.000275110417989
0.000113120351123
0.000124007013553
0.000127278728699
0.000128526172269
0.000129067841418
0.000129270162678
0.000128821553723
0.000126455773712
0.000123327204345
0.000122496702783
0.000122937256323
0.000124327832535
0.00012829025246
0.000131169618057
0.000133151046472
0.00013468280699
0.000136302069489
0.00014180090735
0.000175734362551
0.000287133452777
0.000112845556883
0.000123836871602
0.000127103730264
0.000128309033308
0.000128739239369
0.000128610680855
0.000127036590392
0.000118675160565
0.000112656667263
0.000123733624005
0.000127010081296
0.000128201067891
0.000128581305726
0.00012828410072
0.000126187363723
0.000116026220406
0.00011265668866
0.000123733640651
0.000127010084041
0.000128201054875
0.000128581281395
0.000128284072215
0.000126187349611
0.000116026220637
0.000112845609982
0.000123836923253
0.00012710375066
0.00012830901943
0.000128739193973
0.00012861062601
0.000127036548211
0.000118675190643
)
;
    }
    sides
    {
        type            nutkWallFunction;
        blending        stepwise;
        Cmu             0.09;
        kappa           0.41;
        E               9.8;
        value           nonuniform List<scalar> 0();
    }
    bottom
    {
        type            nutkWallFunction;
        blending        stepwise;
        Cmu             0.09;
        kappa           0.41;
        E               9.8;
        value           nonuniform List<scalar> 10(6.1130547754e-05 6.0949207532e-05 6.07586181567e-05 6.05651336284e-05 6.03771247934e-05 6.02042027016e-05 6.00579846845e-05 5.99574752906e-05 5.99574866758e-05 6.00580129392e-05);
    }
    front
    {
        type            nutkWallFunction;
        blending        stepwise;
        Cmu             0.09;
        kappa           0.41;
        E               9.8;
        value           nonuniform List<scalar> 
164
(
0.000131724725215
0.000132050510928
0.000132406345706
0.000132787433357
0.0001331880681
0.000133604799133
0.000134041956122
0.000134541571058
0.000135337737233
0.000138111020991
0.000156987888702
0.000228237420093
0.000375457501226
0.000114861365618
0.000125593682788
0.000128817841756
0.000130033541209
0.000130929640289
0.000131241065203
0.000131571527104
0.000131936884496
0.000132335985981
0.000132761859154
0.000133207721969
0.000133670558012
0.000134154464514
0.000134695059418
0.000135482738848
0.000137875033555
0.00015277416838
0.000217616684816
0.000370072861294
0.000114520534269
0.000125239849718
0.00012848528105
0.0001297307142
0.000130307759856
0.000130683448315
0.000131026330736
0.000131394559058
0.000131805797458
0.000132255056909
0.000132731589858
0.000133227507604
0.000133741109466
0.000134275454283
0.000134861956549
0.000135646640002
0.000137793358975
0.000150749037364
0.000213355159538
0.000372161769058
0.000114162325493
0.000124885618345
0.000128147242023
0.000129413881226
0.000130012217197
0.000130411065019
0.00013078180645
0.000131185409638
0.000131644773855
0.000132148124862
0.000132679314227
0.000133230087274
0.000133799036703
0.000134385818944
0.000135018295245
0.000135812642008
0.000137791569948
0.000149738859498
0.000210648273779
0.00037866614669
0.000113798682153
0.00012454861307
0.000127820195929
0.00012909626695
0.000129703508986
0.000130110379815
0.000130481741561
0.000130865471213
0.000131331252276
0.0001318626555
0.000132441804144
0.000133061595742
0.000133717760825
0.000134393716543
0.000135098474193
0.000135928294184
0.000137638289559
0.000147271408348
0.000200913148695
0.000383061621105
0.000113445336675
0.000124249447612
0.000127524083618
0.000128794561257
0.000129388423731
0.000129755680207
0.0001299820125
0.000129903692798
0.000130123341739
0.000130522012673
0.000131105984952
0.000131862171685
0.000132805586321
0.000133809298709
0.00013476331151
0.000135738537197
0.000137208460465
0.000143657798875
0.000181183576251
0.000275110417989
0.000113120351123
0.000124007013553
0.000127278728699
0.000128526172269
0.000129067841418
0.000129270162678
0.000128821553723
0.000126455773712
0.000123327204345
0.000122496702783
0.000122937256323
0.000124327832535
0.00012829025246
0.000131169618057
0.000133151046472
0.00013468280699
0.000136302069489
0.00014180090735
0.000175734362551
0.000287133452777
0.000112845556883
0.000123836871602
0.000127103730264
0.000128309033308
0.000128739239369
0.000128610680855
0.000127036590392
0.000118675160565
0.000112656667263
0.000123733624005
0.000127010081296
0.000128201067891
0.000128581305726
0.00012828410072
0.000126187363723
0.000116026220406
0.00011265668866
0.000123733640651
0.000127010084041
0.000128201054875
0.000128581281395
0.000128284072215
0.000126187349611
0.000116026220637
0.000112845609982
0.000123836923253
0.00012710375066
0.00012830901943
0.000128739193973
0.00012861062601
0.000127036548211
0.000118675190643
)
;
    }
    atmosphere
    {
        type            calculated;
        value           nonuniform List<scalar> 7(0.009 0.009 0.009 0.009 0.009 0.00313953343934 0.009);
    }
    floatingObject
    {
        type            nutkWallFunction;
        blending        stepwise;
        Cmu             0.09;
        kappa           0.41;
        E               9.8;
        value           nonuniform List<scalar> 8(6.56338246751e-05 6.51921341295e-05 6.54264384913e-05 6.61659715899e-05 6.31594726951e-05 6.1750287842e-05 6.17502879651e-05 6.31594886949e-05);
    }
    procBoundary3to4
    {
        type            processor;
        value           nonuniform List<scalar> 
13
(
0.0013582649149
0.0013615877308
0.00136521514314
0.000877134650331
0.00129061925933
0.00132700226754
0.00134055159528
0.00135017138487
0.00135338931355
0.00135338931355
0.00134366941421
0.00134366941421
0.00134366941421
)
;
    }
    procBoundary3to5
    {
        type            processor;
        value           nonuniform List<scalar> 10(0.00136911124682 0.00137322418897 0.00137752690442 0.00138209563405 0.0013875492265 0.00139704361876 0.00143588941865 0.00172673601034 0.00251717880421 0.003393438978);
    }
    procBoundary3to6
    {
        type            processor;
        value           nonuniform List<scalar> 8(0.000950927607061 0.00132304734542 0.00135361977124 0.00137618775916 0.00140014656174 0.00148175803479 0.00197862526759 0.0034826967288);
    }
    procBoundary3to8
    {
        type            processor;
        value           nonuniform List<scalar> 8(0.00085976858363 0.00126868097952 0.00130581841055 0.00132009874249 0.00132632470504 0.00132862992519 0.00132350096719 0.00129683026124);
    }
}


// ************************************************************************* //
