/*--------------------------------*- C++ -*----------------------------------*\
| =========                 |                                                 |
| \\      /  F ield         | OpenFOAM: The Open Source CFD Toolbox           |
|  \\    /   O peration     | Version:  v2012                                 |
|   \\  /    A nd           | Website:  www.openfoam.com                      |
|    \\/     M anipulation  |                                                 |
\*---------------------------------------------------------------------------*/
FoamFile
{
    version     2.0;
    format      ascii;
    class       volVectorField;
    location    "1.3";
    object      U_0;
}
// * * * * * * * * * * * * * * * * * * * * * * * * * * * * * * * * * * * * * //

dimensions      [0 1 -1 0 0 0 0];


internalField   nonuniform List<vector> 
164
(
(0.0724815967963 0.0534622888874 2.91556942746e-24)
(0.0786229673283 0.0613688715776 1.1282944472e-22)
(0.0862886425057 0.0688317523692 -2.36799994446e-23)
(0.0953709023544 0.0754486603645 6.18588506033e-24)
(0.105658334314 0.0808172852025 3.82659885645e-23)
(0.11690571523 0.0845508380703 -7.23037469365e-22)
(0.129018645155 0.0859797493204 -2.40519674799e-23)
(0.141937543389 0.0838390121077 1.03277575609e-21)
(0.156216435721 0.0819430523889 -4.91770971221e-21)
(0.168379779579 0.0734215783396 1.72398848764e-20)
(0.178638963491 0.0633354957463 3.70678241469e-20)
(0.0772805074614 0.0727449767944 8.02983761837e-20)
(-0.477907330636 -0.520790087025 1.00267948469e-19)
(0.0457997488931 0.00433881639656 1.99080861693e-21)
(0.0495282574378 0.00945986412221 -1.43356332088e-21)
(0.0510298300691 0.0168477542491 -3.14137454398e-22)
(0.0523001241696 0.0245045906647 1.43996392901e-22)
(0.0561053019656 0.0407284950826 1.7527879432e-22)
(0.0593339714929 0.0496276208448 2.18446825491e-22)
(0.0638515619743 0.0590341543758 1.07048607451e-22)
(0.0702280708724 0.0685842507285 1.46881085612e-22)
(0.0786148936555 0.0776829291531 3.90670473073e-22)
(0.0888180438095 0.0857861445758 2.62015829388e-22)
(0.10061767439 0.0924687889084 -5.28195273449e-23)
(0.113935592765 0.097499496081 2.17212381553e-22)
(0.129018682784 0.100351948856 1.35153967777e-21)
(0.145874894723 0.100495832 -2.65375017664e-21)
(0.164516146262 0.0990004506573 -1.5840858607e-20)
(0.181411173255 0.0940808299953 -1.70689742563e-20)
(0.185121723834 0.0591202519681 -1.17641038639e-20)
(0.140677448054 0.0409648909471 -1.07943974511e-19)
(0.101695573271 -0.290495925188 -1.00063683238e-19)
(0.0391270866554 0.00451587675969 4.52735249895e-21)
(0.0423454194095 0.00977922319197 -1.33212155767e-21)
(0.0435356491642 0.0175054156179 -2.27964329373e-23)
(0.0443807399955 0.0255853513128 1.96076585378e-22)
(0.0453946792976 0.0340552185033 2.89705923933e-22)
(0.0469504738801 0.0432834870353 5.89919430968e-23)
(0.0495511403763 0.0534187661782 3.11188824142e-22)
(0.0534592494198 0.0646317496589 -3.66595615827e-22)
(0.0600274170881 0.0763181009108 1.23964358316e-22)
(0.0692681125575 0.0874919416295 1.85882189273e-23)
(0.0807306096053 0.0974431118144 4.53972036179e-22)
(0.0940648487191 0.105860322647 2.31549162771e-21)
(0.109340018091 0.112851866763 -8.23574642558e-23)
(0.127018587435 0.117492194386 -4.20156358522e-21)
(0.146855044321 0.120237015576 5.05855439544e-21)
(0.16852981294 0.117725675601 3.28064938139e-20)
(0.193137111614 0.115723097666 2.40748186784e-20)
(0.211353268931 0.0731764285926 1.9872541118e-20)
(0.246225968711 0.0674118971655 -7.24311401291e-20)
(0.420665396457 -0.316752194332 -5.68244239592e-20)
(0.0322742138271 0.00461251930315 6.0752527633e-21)
(0.0349385226654 0.0098750981169 -1.27386921533e-21)
(0.0357452560252 0.0177724213192 8.45754333502e-22)
(0.0360132519924 0.0260900547712 1.36456538812e-21)
(0.0361987850774 0.0349937138866 8.6653820752e-22)
(0.0366669227107 0.0450365892953 2.88967895103e-22)
(0.0381226885305 0.0564890022783 9.58260636491e-22)
(0.0405405762124 0.0700984135806 -1.99781310311e-22)
(0.0475133836143 0.0845892409012 -1.78781857249e-21)
(0.0579761170985 0.0983309643832 -6.40715665244e-22)
(0.070937107414 0.11045627097 -2.05545135883e-21)
(0.085758483257 0.121056202547 -4.46579191231e-21)
(0.102719486213 0.130451653648 4.59238068244e-21)
(0.122378949575 0.137045613491 4.11489217887e-20)
(0.144268961859 0.142449532357 6.14557058832e-21)
(0.169588110287 0.142609891222 -6.94527656832e-20)
(0.204329227992 0.148938797936 -9.01500358735e-20)
(0.241568552834 0.12193430952 -4.23965943046e-20)
(0.394244222622 0.106434507005 -6.54272299024e-19)
(1.18193343775 -0.501905636056 -4.5031204136e-19)
(0.0254080938889 0.0045971704604 4.86633459554e-21)
(0.0275029915101 0.00968411528129 -1.14801266711e-21)
(0.0278649295903 0.0175256963914 1.05006894412e-21)
(0.0274148191983 0.0257925666706 6.64111238072e-22)
(0.0264745488005 0.0348014047205 1.2775040398e-21)
(0.0252332951871 0.0453783442446 2.29556305694e-21)
(0.0244036988488 0.0580932641643 9.31845273833e-21)
(0.0227075795185 0.0749281948072 6.9599871575e-20)
(0.0297932225068 0.0926656669886 1.02918232945e-19)
(0.0422992449321 0.108788272807 1.5510713434e-19)
(0.0571787994128 0.12325647013 7.36258565445e-20)
(0.0735797737898 0.137352182957 1.21527408532e-20)
(0.0942887050201 0.149710354243 -2.50213412986e-20)
(0.116905038207 0.158721158706 -1.85270815812e-19)
(0.139961976299 0.165994438187 -7.94387472325e-20)
(0.166184774398 0.175709111159 1.28967442513e-19)
(0.211555123746 0.180286468876 1.40889034309e-19)
(0.291218494155 0.18313306712 -1.98741390997e-21)
(0.661963085077 0.116514224559 -3.28568912951e-19)
(2.87666742816 -0.676421206791 -9.00182523934e-20)
(0.0187476431106 0.00443301355703 2.9631113769e-21)
(0.0202891020441 0.00916294949685 -6.14633331537e-23)
(0.0201947590775 0.016672082463 -7.6682321197e-23)
(0.0190050371606 0.0244709245896 4.77116525279e-22)
(0.0169059815612 0.0329109520458 4.43520561804e-21)
(0.0139829624985 0.0429798313609 1.40098481538e-20)
(0.0114500668931 0.0553566368832 8.2296865984e-20)
(0.00634165195266 0.0751147988499 7.08941528421e-19)
(0.0208181562652 0.0945476410841 1.2221290487e-18)
(0.0307711883697 0.11423523859 3.49117191294e-18)
(0.0419363249521 0.131854665325 3.23046070556e-18)
(0.0547899107674 0.153835527586 2.15533798123e-18)
(0.0804555455187 0.170829565798 -5.68911996513e-20)
(0.104148100842 0.180929237408 6.43869680564e-19)
(0.126285256395 0.190916850962 1.62576703514e-19)
(0.14358662682 0.215486257388 -2.21639858214e-19)
(0.172238154289 0.243048620896 -1.16792369481e-19)
(0.205083193838 0.400627532106 -9.5941142294e-20)
(0.402771390713 0.339065872121 3.38636945414e-19)
(0.394104646032 2.90573488305 2.52913890543e-19)
(0.0125316202829 0.00410878369603 2.89016627529e-21)
(0.0135393643419 0.00834812725157 -1.42971632314e-21)
(0.0130115024931 0.0152966674445 4.49566354924e-22)
(0.0110027971653 0.0223510962622 1.80068364027e-21)
(0.00712232088651 0.0299291927964 2.29755742959e-20)
(0.000845071547269 0.03956822698 1.04932404171e-19)
(-0.00820672935271 0.050037808199 5.80355467793e-19)
(-0.0265062085897 0.0673287728966 3.65164398599e-18)
(-0.0146785515593 0.0816448565998 1.05750218257e-17)
(0.0051951740474 0.0917944797324 2.19732373716e-17)
(0.019615943999 0.113390917476 1.29266979377e-17)
(0.0310497779782 0.155873402245 1.82226529677e-17)
(0.0823465724651 0.178400480939 1.62696339981e-17)
(0.10032906542 0.178981087694 5.92696373737e-18)
(0.109585009314 0.189458051711 3.74340419216e-18)
(0.121915801218 0.20777730758 2.52653193463e-18)
(0.131922158948 0.211216032675 6.83637327515e-19)
(0.118162490191 0.204674230072 4.43844781814e-19)
(-0.0657174899973 0.212070925053 3.45985648309e-19)
(-0.677182005668 -0.214075138436 5.95514400055e-19)
(0.00705827691463 0.00363586552689 -7.34841907836e-22)
(0.00762574216389 0.00728972173406 -2.15457944979e-21)
(0.00706239597486 0.0132583024268 2.97264439429e-22)
(0.00525574780979 0.0183657320851 7.55797370676e-21)
(0.00155133049513 0.0222341950721 6.65953672134e-20)
(-0.00489581372366 0.024732006748 4.53878663903e-19)
(-0.0136179740273 0.0190879276773 2.09591640612e-18)
(-0.0260709070664 0.0215246365226 9.04813955147e-18)
(0.00227864686434 0.00337367217231 3.30647161499e-21)
(0.00247632219897 0.00674259115061 2.97241177182e-22)
(0.00229122113995 0.0123316160964 1.80142769658e-21)
(0.00178179359388 0.0168923837259 1.69627311133e-20)
(0.000910306621137 0.0199763754766 1.51118111011e-19)
(-0.000290431679707 0.0199627843372 1.10243679248e-18)
(-0.00134929152999 0.0136208168121 4.84820428317e-18)
(0.00184003829065 0.00984468997805 2.70971597711e-17)
(-0.00227817072044 0.00337361117798 4.03376680752e-21)
(-0.00247551688771 0.00674246223842 6.87724212772e-22)
(-0.002290693302 0.0123314995132 2.08114353297e-21)
(-0.00178188656365 0.0168922897113 1.63911038413e-20)
(-0.000911137713712 0.0199762763293 1.50806575579e-19)
(0.000288870404225 0.0199626031772 1.10136539023e-18)
(0.00134701142569 0.0136206783849 4.84678366948e-18)
(-0.00184296184399 0.00984466038583 2.70998143297e-17)
(-0.00705810950376 0.00363568315377 3.53041751245e-21)
(-0.00762529255172 0.00728935568393 4.57448404865e-21)
(-0.00706218155183 0.0132579311107 2.09008900294e-21)
(-0.0052560675842 0.0183653858675 7.84496503122e-21)
(-0.0015522543166 0.0222338586879 6.50179810115e-20)
(0.00489434429049 0.0247316517067 4.50474196381e-19)
(0.0136158870808 0.0190876995755 2.09375059268e-18)
(0.0260680977905 0.0215246232926 9.04834499705e-18)
)
;

boundaryField
{
    back
    {
        type            noSlip;
    }
    sides
    {
        type            noSlip;
    }
    bottom
    {
        type            noSlip;
    }
    front
    {
        type            noSlip;
    }
    atmosphere
    {
        type            pressureInletOutletVelocity;
        value           nonuniform List<vector> 7((0 -0.520790087025 0) (0 -0.290495925188 0) (0 -0.316752194332 0) (0 -0.501905636056 0) (0 -0.676421206791 0) (0.394104646032 2.90573488305 2.52913890543e-19) (0 -0.214075138436 0));
    }
    floatingObject
    {
        type            movingWallVelocity;
        value           nonuniform List<vector> 8((0 -4.4408920985e-15 5.55111512313e-16) (0 0 5.55111512313e-16) (0 0 0) (0 -8.881784197e-15 5.55111512313e-16) (1.11022302463e-15 0 0) (0 0 5.55111512313e-16) (0 0 5.55111512313e-16) (0 0 0));
    }
    procBoundary3to4
    {
        type            processor;
        value           nonuniform List<vector> 
13
(
(0.07973475146 0.0480327291895 5.19215650923e-23)
(0.0855873133179 0.0546425089541 1.27635682052e-22)
(0.0926340097858 0.0608239249338 1.35187622255e-22)
(0.0521705053025 0.00410391634962 5.38795096697e-21)
(0.0563470578425 0.0089796209441 -9.97932782381e-22)
(0.0580908415174 0.0159156674207 8.15240881027e-23)
(0.0596530311801 0.0230374020101 4.84770240948e-22)
(0.0642104833313 0.0377191970691 1.68518333882e-22)
(0.0677653895167 0.0454931097363 8.84842015027e-23)
(0.0677653895167 0.0454931097363 8.84842015027e-23)
(0.0538797177872 0.0323804595131 2.07279168497e-22)
(0.0538797177872 0.0323804595131 2.07279168497e-22)
(0.0538797177872 0.0323804595131 2.07279168497e-22)
)
;
    }
    procBoundary3to5
    {
        type            processor;
        value           nonuniform List<vector> 10((0.100793744701 0.0663022317081 1.5149958077e-22) (0.109866041957 0.0707991375202 1.96103076714e-22) (0.119480828463 0.0740493885391 -8.46437883097e-22) (0.129023341342 0.0754610495692 4.79051103372e-22) (0.138233661162 0.0739176741148 1.21834029385e-22) (0.145313417709 0.0690755642655 -1.79680933324e-20) (0.145738657139 0.0339585932484 1.36460926338e-20) (0.111822971591 0.0241418986577 -1.67404098347e-20) (-0.400740608105 -0.113244682901 2.68744557204e-19) (-1.63514157143 -0.431155497209 1.45625826168e-19));
    }
    procBoundary3to6
    {
        type            processor;
        value           nonuniform List<vector> 8((0.0560839152787 0.104134506809 1.30883886171e-17) (0.0883647738581 0.105071499218 6.45314142578e-18) (0.0967357717303 0.139874787406 5.30271149591e-18) (0.103187816297 0.180140125743 4.16743847328e-18) (0.129987417348 0.2152028911 2.72272082702e-18) (0.191433537495 0.238710861681 1.40386507976e-18) (0.431651932538 0.185676909812 7.59596728081e-19) (2.62281595662 -1.46087881441 7.834474378e-19));
    }
    procBoundary3to8
    {
        type            processor;
        value           nonuniform List<vector> 8((-0.0125321590038 0.0041086110135 2.20524716523e-21) (-0.0135396960675 0.00834777244532 -9.08588602725e-22) (-0.0130120002711 0.0152963035442 -1.25942757571e-22) (-0.0110036133842 0.0223507590102 1.99112217009e-21) (-0.00712341872629 0.0299288557353 1.66288728126e-20) (-0.000846383042124 0.0395678747096 9.49332037664e-20) (0.00820525114501 0.0500373678275 5.75938773088e-19) (0.0265044407381 0.0673276313379 3.65043050411e-18));
    }
}


// ************************************************************************* //
