/*--------------------------------*- C++ -*----------------------------------*\
| =========                 |                                                 |
| \\      /  F ield         | OpenFOAM: The Open Source CFD Toolbox           |
|  \\    /   O peration     | Version:  v2012                                 |
|   \\  /    A nd           | Website:  www.openfoam.com                      |
|    \\/     M anipulation  |                                                 |
\*---------------------------------------------------------------------------*/
FoamFile
{
    version     2.0;
    format      ascii;
    class       volScalarField;
    location    "2.3";
    object      rAU;
}
// * * * * * * * * * * * * * * * * * * * * * * * * * * * * * * * * * * * * * //

dimensions      [-1 3 1 0 0 0 0];


internalField   nonuniform List<scalar> 
167
(
1.09426861482e-05
1.0940798761e-05
1.09367407922e-05
1.09250622187e-05
1.09216222767e-05
1.09556157792e-05
1.71124494144e-05
0.000398574552735
0.00455457092818
1.09410245817e-05
1.09363119731e-05
1.09248869914e-05
1.09252869325e-05
1.0844704102e-05
1.66580712115e-05
0.000389063564446
0.00421354149423
1.0941752644e-05
1.09379876546e-05
1.09279523985e-05
1.09283136041e-05
1.08467711267e-05
1.64028682942e-05
0.000352313857993
0.00412296264049
1.09448308424e-05
1.09427715414e-05
1.09404824086e-05
1.09298640034e-05
1.09267590998e-05
1.08954354749e-05
1.61722885381e-05
0.000307193272457
0.00441999400823
1.09457033261e-05
1.09434943189e-05
1.09425375408e-05
1.0928842003e-05
1.09166061488e-05
1.09309857641e-05
1.58307044852e-05
0.00025910885703
0.00517027662631
1.09464756317e-05
1.09438995561e-05
1.09443508012e-05
1.09276176601e-05
1.09057727063e-05
1.09514166411e-05
1.54099228854e-05
0.000212990832011
0.00646472608329
1.09477214445e-05
1.09471872407e-05
1.09443136505e-05
1.0946418858e-05
1.09273104103e-05
1.08987131825e-05
1.08461909619e-05
1.47447045406e-05
0.000176189107437
0.00723683911312
1.09485092632e-05
1.09482233751e-05
1.09478283256e-05
1.0944729465e-05
1.09487898449e-05
1.0927159487e-05
1.08947701065e-05
1.08476674401e-05
1.42908736778e-05
0.000152272986201
0.00762815263718
1.0948909593e-05
1.09486536168e-05
1.09483818459e-05
1.0945117934e-05
1.09515292959e-05
1.09272147014e-05
1.08891726405e-05
1.08473057244e-05
1.38496349308e-05
0.000127921744189
0.00745106242649
1.09490233428e-05
1.09488820709e-05
1.09454311254e-05
1.09545663895e-05
1.09276377833e-05
1.08776223802e-05
1.08425957044e-05
1.34538127045e-05
0.000109212150659
0.00722858050515
1.09493164611e-05
1.09492476719e-05
1.09456053386e-05
1.09571908481e-05
1.0927622177e-05
1.0859326023e-05
1.08280597319e-05
1.31340534223e-05
9.46504806814e-05
0.00703172915575
1.09495505478e-05
1.09494625268e-05
1.09457617876e-05
1.09585014103e-05
1.09272219185e-05
1.08570376318e-05
1.08263056761e-05
1.28631692489e-05
8.39607396986e-05
0.0068024789156
1.09498868991e-05
1.09496478463e-05
1.09459976654e-05
1.09570985505e-05
1.09252346613e-05
1.08562084606e-05
1.08228951684e-05
1.26017874674e-05
7.55773069439e-05
0.00643198248682
1.09504373601e-05
1.09500225604e-05
1.09465100674e-05
1.09554209092e-05
1.09235240763e-05
1.08821089166e-05
1.08479200323e-05
1.24132573735e-05
6.95544174619e-05
0.0062476847663
1.09527143938e-05
1.09524346483e-05
1.09518832018e-05
1.0948770856e-05
1.09559108803e-05
1.0923952954e-05
1.0898927425e-05
1.08664176863e-05
1.22626208116e-05
6.30470238878e-05
0.00614639916409
1.09636824334e-05
1.09635313987e-05
1.09631812498e-05
1.0960650007e-05
1.09634013094e-05
1.09311850371e-05
1.08732008271e-05
1.08437475463e-05
1.21692187889e-05
5.76934762252e-05
0.00500070002112
1.10303928395e-05
1.10308207648e-05
1.10316261398e-05
1.10294304776e-05
1.10075995573e-05
1.09714208109e-05
1.09460297376e-05
1.09355567718e-05
1.23691715353e-05
5.11399549953e-05
0.00310919412461
)
;

boundaryField
{
    back
    {
        type            calculated;
        value           nonuniform List<scalar> 
167
(
1.09426861482e-05
1.0940798761e-05
1.09367407922e-05
1.09250622187e-05
1.09216222767e-05
1.09556157792e-05
1.71124494144e-05
0.000398574552735
0.00455457092818
1.09410245817e-05
1.09363119731e-05
1.09248869914e-05
1.09252869325e-05
1.0844704102e-05
1.66580712115e-05
0.000389063564446
0.00421354149423
1.0941752644e-05
1.09379876546e-05
1.09279523985e-05
1.09283136041e-05
1.08467711267e-05
1.64028682942e-05
0.000352313857993
0.00412296264049
1.09448308424e-05
1.09427715414e-05
1.09404824086e-05
1.09298640034e-05
1.09267590998e-05
1.08954354749e-05
1.61722885381e-05
0.000307193272457
0.00441999400823
1.09457033261e-05
1.09434943189e-05
1.09425375408e-05
1.0928842003e-05
1.09166061488e-05
1.09309857641e-05
1.58307044852e-05
0.00025910885703
0.00517027662631
1.09464756317e-05
1.09438995561e-05
1.09443508012e-05
1.09276176601e-05
1.09057727063e-05
1.09514166411e-05
1.54099228854e-05
0.000212990832011
0.00646472608329
1.09477214445e-05
1.09471872407e-05
1.09443136505e-05
1.0946418858e-05
1.09273104103e-05
1.08987131825e-05
1.08461909619e-05
1.47447045406e-05
0.000176189107437
0.00723683911312
1.09485092632e-05
1.09482233751e-05
1.09478283256e-05
1.0944729465e-05
1.09487898449e-05
1.0927159487e-05
1.08947701065e-05
1.08476674401e-05
1.42908736778e-05
0.000152272986201
0.00762815263718
1.0948909593e-05
1.09486536168e-05
1.09483818459e-05
1.0945117934e-05
1.09515292959e-05
1.09272147014e-05
1.08891726405e-05
1.08473057244e-05
1.38496349308e-05
0.000127921744189
0.00745106242649
1.09490233428e-05
1.09488820709e-05
1.09454311254e-05
1.09545663895e-05
1.09276377833e-05
1.08776223802e-05
1.08425957044e-05
1.34538127045e-05
0.000109212150659
0.00722858050515
1.09493164611e-05
1.09492476719e-05
1.09456053386e-05
1.09571908481e-05
1.0927622177e-05
1.0859326023e-05
1.08280597319e-05
1.31340534223e-05
9.46504806814e-05
0.00703172915575
1.09495505478e-05
1.09494625268e-05
1.09457617876e-05
1.09585014103e-05
1.09272219185e-05
1.08570376318e-05
1.08263056761e-05
1.28631692489e-05
8.39607396986e-05
0.0068024789156
1.09498868991e-05
1.09496478463e-05
1.09459976654e-05
1.09570985505e-05
1.09252346613e-05
1.08562084606e-05
1.08228951684e-05
1.26017874674e-05
7.55773069439e-05
0.00643198248682
1.09504373601e-05
1.09500225604e-05
1.09465100674e-05
1.09554209092e-05
1.09235240763e-05
1.08821089166e-05
1.08479200323e-05
1.24132573735e-05
6.95544174619e-05
0.0062476847663
1.09527143938e-05
1.09524346483e-05
1.09518832018e-05
1.0948770856e-05
1.09559108803e-05
1.0923952954e-05
1.0898927425e-05
1.08664176863e-05
1.22626208116e-05
6.30470238878e-05
0.00614639916409
1.09636824334e-05
1.09635313987e-05
1.09631812498e-05
1.0960650007e-05
1.09634013094e-05
1.09311850371e-05
1.08732008271e-05
1.08437475463e-05
1.21692187889e-05
5.76934762252e-05
0.00500070002112
1.10303928395e-05
1.10308207648e-05
1.10316261398e-05
1.10294304776e-05
1.10075995573e-05
1.09714208109e-05
1.09460297376e-05
1.09355567718e-05
1.23691715353e-05
5.11399549953e-05
0.00310919412461
)
;
    }
    sides
    {
        type            calculated;
        value           nonuniform List<scalar> 
11
(
1.10303928395e-05
1.10308207648e-05
1.10316261398e-05
1.10294304776e-05
1.10075995573e-05
1.09714208109e-05
1.09460297376e-05
1.09355567718e-05
1.23691715353e-05
5.11399549953e-05
0.00310919412461
)
;
    }
    bottom
    {
        type            calculated;
        value           nonuniform List<scalar> 0();
    }
    front
    {
        type            calculated;
        value           nonuniform List<scalar> 
167
(
1.09426861482e-05
1.0940798761e-05
1.09367407922e-05
1.09250622187e-05
1.09216222767e-05
1.09556157792e-05
1.71124494144e-05
0.000398574552735
0.00455457092818
1.09410245817e-05
1.09363119731e-05
1.09248869914e-05
1.09252869325e-05
1.0844704102e-05
1.66580712115e-05
0.000389063564446
0.00421354149423
1.0941752644e-05
1.09379876546e-05
1.09279523985e-05
1.09283136041e-05
1.08467711267e-05
1.64028682942e-05
0.000352313857993
0.00412296264049
1.09448308424e-05
1.09427715414e-05
1.09404824086e-05
1.09298640034e-05
1.09267590998e-05
1.08954354749e-05
1.61722885381e-05
0.000307193272457
0.00441999400823
1.09457033261e-05
1.09434943189e-05
1.09425375408e-05
1.0928842003e-05
1.09166061488e-05
1.09309857641e-05
1.58307044852e-05
0.00025910885703
0.00517027662631
1.09464756317e-05
1.09438995561e-05
1.09443508012e-05
1.09276176601e-05
1.09057727063e-05
1.09514166411e-05
1.54099228854e-05
0.000212990832011
0.00646472608329
1.09477214445e-05
1.09471872407e-05
1.09443136505e-05
1.0946418858e-05
1.09273104103e-05
1.08987131825e-05
1.08461909619e-05
1.47447045406e-05
0.000176189107437
0.00723683911312
1.09485092632e-05
1.09482233751e-05
1.09478283256e-05
1.0944729465e-05
1.09487898449e-05
1.0927159487e-05
1.08947701065e-05
1.08476674401e-05
1.42908736778e-05
0.000152272986201
0.00762815263718
1.0948909593e-05
1.09486536168e-05
1.09483818459e-05
1.0945117934e-05
1.09515292959e-05
1.09272147014e-05
1.08891726405e-05
1.08473057244e-05
1.38496349308e-05
0.000127921744189
0.00745106242649
1.09490233428e-05
1.09488820709e-05
1.09454311254e-05
1.09545663895e-05
1.09276377833e-05
1.08776223802e-05
1.08425957044e-05
1.34538127045e-05
0.000109212150659
0.00722858050515
1.09493164611e-05
1.09492476719e-05
1.09456053386e-05
1.09571908481e-05
1.0927622177e-05
1.0859326023e-05
1.08280597319e-05
1.31340534223e-05
9.46504806814e-05
0.00703172915575
1.09495505478e-05
1.09494625268e-05
1.09457617876e-05
1.09585014103e-05
1.09272219185e-05
1.08570376318e-05
1.08263056761e-05
1.28631692489e-05
8.39607396986e-05
0.0068024789156
1.09498868991e-05
1.09496478463e-05
1.09459976654e-05
1.09570985505e-05
1.09252346613e-05
1.08562084606e-05
1.08228951684e-05
1.26017874674e-05
7.55773069439e-05
0.00643198248682
1.09504373601e-05
1.09500225604e-05
1.09465100674e-05
1.09554209092e-05
1.09235240763e-05
1.08821089166e-05
1.08479200323e-05
1.24132573735e-05
6.95544174619e-05
0.0062476847663
1.09527143938e-05
1.09524346483e-05
1.09518832018e-05
1.0948770856e-05
1.09559108803e-05
1.0923952954e-05
1.0898927425e-05
1.08664176863e-05
1.22626208116e-05
6.30470238878e-05
0.00614639916409
1.09636824334e-05
1.09635313987e-05
1.09631812498e-05
1.0960650007e-05
1.09634013094e-05
1.09311850371e-05
1.08732008271e-05
1.08437475463e-05
1.21692187889e-05
5.76934762252e-05
0.00500070002112
1.10303928395e-05
1.10308207648e-05
1.10316261398e-05
1.10294304776e-05
1.10075995573e-05
1.09714208109e-05
1.09460297376e-05
1.09355567718e-05
1.23691715353e-05
5.11399549953e-05
0.00310919412461
)
;
    }
    atmosphere
    {
        type            calculated;
        value           nonuniform List<scalar> 
17
(
0.00455457092818
0.00421354149423
0.00412296264049
0.00441999400823
0.00517027662631
0.00646472608329
0.00723683911312
0.00762815263718
0.00745106242649
0.00722858050515
0.00703172915575
0.0068024789156
0.00643198248682
0.0062476847663
0.00614639916409
0.00500070002112
0.00310919412461
)
;
    }
    floatingObject
    {
        type            calculated;
        value           nonuniform List<scalar> 0();
    }
    procBoundary11to9
    {
        type            processor;
        value           nonuniform List<scalar> 9(1.09420659802e-05 1.09403392589e-05 1.09370711281e-05 1.0924814822e-05 1.09150150366e-05 1.09092460259e-05 1.71321524647e-05 0.000400263319543 0.00576896013419);
    }
    procBoundary11to10
    {
        type            processor;
        value           nonuniform List<scalar> 
23
(
1.09436614686e-05
1.09431629216e-05
1.09431629216e-05
1.09438605789e-05
1.09438605789e-05
1.09457529194e-05
1.0946503437e-05
1.09471542066e-05
1.09471542066e-05
1.09480504188e-05
1.09480504188e-05
1.09487849857e-05
1.09491425109e-05
1.09492229793e-05
1.09492229793e-05
1.09494994438e-05
1.09497462392e-05
1.09501155231e-05
1.09506816797e-05
1.09506816797e-05
1.09529162682e-05
1.09638012519e-05
1.10301739477e-05
)
;
    }
}


// ************************************************************************* //
