/*--------------------------------*- C++ -*----------------------------------*\
| =========                 |                                                 |
| \\      /  F ield         | OpenFOAM: The Open Source CFD Toolbox           |
|  \\    /   O peration     | Version:  v2012                                 |
|   \\  /    A nd           | Website:  www.openfoam.com                      |
|    \\/     M anipulation  |                                                 |
\*---------------------------------------------------------------------------*/
FoamFile
{
    version     2.0;
    format      ascii;
    class       volScalarField;
    location    "2.2";
    object      epsilon_0;
}
// * * * * * * * * * * * * * * * * * * * * * * * * * * * * * * * * * * * * * //

dimensions      [0 2 -3 0 0 0 0];


internalField   nonuniform List<scalar> 
164
(
0.00526277439751
0.00486513438664
0.00529965786181
0.00587380307083
0.00861790475511
0.0257104268475
0.102910783465
0.236201483355
0.00536366792306
0.00493745006606
0.00530488898264
0.00585617594538
0.0082938724612
0.0225099148581
0.0878926756367
0.210184766846
0.00536374778132
0.00493758518484
0.0053050919771
0.00585641713415
0.00829409555116
0.0225097208331
0.0878933095705
0.210179282983
0.00526294695857
0.00486541981767
0.00530009183852
0.00587428242422
0.00861793031674
0.0257083793962
0.102912640114
0.236204747509
0.00549648213082
0.00652013540716
0.0123280986075
0.0371737732907
0.110106412017
0.221690538778
0.00567337536845
0.00701907733463
0.0158239298559
0.0515155739936
0.129181157728
0.210403034377
0.00565881440869
0.00617211932735
0.00940160460363
0.0287484430142
0.0955427415892
0.196092040294
0.00569549529632
0.00634716308863
0.0102520083435
0.0299333210951
0.0925450492223
0.189266124652
0.00573075814887
0.00654901857943
0.0111716122881
0.033612640757
0.10194456555
0.191534037592
0.00579626587931
0.00691379313142
0.012718146565
0.037079262514
0.0998145579103
0.188790359443
0.00594002229568
0.0075826966129
0.0150910177289
0.0414849995956
0.0948417043175
0.183186877521
0.00626354664795
0.00892073416982
0.0185717656122
0.0454974781685
0.0927611463042
0.178592780202
0.00733116767103
0.0128654792123
0.026187245458
0.0492536070433
0.0849424692002
0.137451804549
0.00658434112235
0.0102411651147
0.0222013038673
0.0494897467636
0.0937031020513
0.175836559687
0.00639640481372
0.00932269663548
0.0199240050675
0.0466899812064
0.0908583375562
0.176608911744
0.00660698212647
0.00958723160438
0.0186026243929
0.040428114336
0.0775797944476
0.152698765759
0.00695980131734
0.0101813373447
0.0178616241571
0.0378460005766
0.10355960351
0.185809661832
0.00661260639833
0.00935615944529
0.0162415330232
0.0310013751695
0.0670760831639
0.0915470695427
0.00634214508871
0.00856608897477
0.0146348184823
0.027316691875
0.052631651698
0.0906831723724
0.00614938533277
0.00790857276525
0.0136740054596
0.0300515025897
0.0687408802685
0.166039210478
0.00605620770517
0.00754120770344
0.0129050424941
0.0307741600662
0.0752881468172
0.174673370922
0.0060324364774
0.00740955044314
0.0123015465937
0.0291279732033
0.0734774444075
0.173565438313
0.00603386491739
0.00737411267048
0.0118228552541
0.0264134679086
0.0663257189069
0.166261615903
0.00604205367255
0.00736931384334
0.0114150870112
0.0227538693243
0.0492851862998
0.129181413434
0.0111128356678
0.0204215227445
0.0376102204125
0.059001169114
0.0109298785955
0.0195911363574
0.0356985167208
0.0581934783815
0.0110269800551
0.0202497369058
0.0442753344786
0.137913884122
)
;

boundaryField
{
    back
    {
        lowReCorrection 0;
        blending        stepwise;
        n               2;
        type            epsilonWallFunction;
        value           nonuniform List<scalar> 
164
(
0.00526277439751
0.00486513438664
0.00529965786181
0.00587380307083
0.00861790475511
0.0257104268475
0.102910783465
0.236201483355
0.00536366792306
0.00493745006606
0.00530488898264
0.00585617594538
0.0082938724612
0.0225099148581
0.0878926756367
0.210184766846
0.00536374778132
0.00493758518484
0.0053050919771
0.00585641713415
0.00829409555116
0.0225097208331
0.0878933095705
0.210179282983
0.00526294695857
0.00486541981767
0.00530009183852
0.00587428242422
0.00861793031674
0.0257083793962
0.102912640114
0.236204747509
0.00549648213082
0.00652013540716
0.0123280986075
0.0371737732907
0.110106412017
0.221690538778
0.00567337536845
0.00701907733463
0.0158239298559
0.0515155739936
0.129181157728
0.210403034377
0.00565881440869
0.00617211932735
0.00940160460363
0.0287484430142
0.0955427415892
0.196092040294
0.00569549529632
0.00634716308863
0.0102520083435
0.0299333210951
0.0925450492223
0.189266124652
0.00573075814887
0.00654901857943
0.0111716122881
0.033612640757
0.10194456555
0.191534037592
0.00579626587931
0.00691379313142
0.012718146565
0.037079262514
0.0998145579103
0.188790359443
0.00594002229568
0.0075826966129
0.0150910177289
0.0414849995956
0.0948417043175
0.183186877521
0.00626354664795
0.00892073416982
0.0185717656122
0.0454974781685
0.0927611463042
0.178592780202
0.00733116767103
0.0128654792123
0.026187245458
0.0492536070433
0.0849424692002
0.137451804549
0.00658434112235
0.0102411651147
0.0222013038673
0.0494897467636
0.0937031020513
0.175836559687
0.00639640481372
0.00932269663548
0.0199240050675
0.0466899812064
0.0908583375562
0.176608911744
0.00660698212647
0.00958723160438
0.0186026243929
0.040428114336
0.0775797944476
0.152698765759
0.00695980131734
0.0101813373447
0.0178616241571
0.0378460005766
0.10355960351
0.185809661832
0.00661260639833
0.00935615944529
0.0162415330232
0.0310013751695
0.0670760831639
0.0915470695427
0.00634214508871
0.00856608897477
0.0146348184823
0.027316691875
0.052631651698
0.0906831723724
0.00614938533277
0.00790857276525
0.0136740054596
0.0300515025897
0.0687408802685
0.166039210478
0.00605620770517
0.00754120770344
0.0129050424941
0.0307741600662
0.0752881468172
0.174673370922
0.0060324364774
0.00740955044314
0.0123015465937
0.0291279732033
0.0734774444075
0.173565438313
0.00603386491739
0.00737411267048
0.0118228552541
0.0264134679086
0.0663257189069
0.166261615903
0.00604205367255
0.00736931384334
0.0114150870112
0.0227538693243
0.0492851862998
0.129181413434
0.0111128356678
0.0204215227445
0.0376102204125
0.059001169114
0.0109298785955
0.0195911363574
0.0356985167208
0.0581934783815
0.0110269800551
0.0202497369058
0.0442753344786
0.137913884122
)
;
    }
    sides
    {
        lowReCorrection 0;
        blending        stepwise;
        n               2;
        type            epsilonWallFunction;
        value           nonuniform List<scalar> 0();
    }
    bottom
    {
        lowReCorrection 0;
        blending        stepwise;
        n               2;
        type            epsilonWallFunction;
        value           nonuniform List<scalar> 0();
    }
    front
    {
        lowReCorrection 0;
        blending        stepwise;
        n               2;
        type            epsilonWallFunction;
        value           nonuniform List<scalar> 
164
(
0.00526277439751
0.00486513438664
0.00529965786181
0.00587380307083
0.00861790475511
0.0257104268475
0.102910783465
0.236201483355
0.00536366792306
0.00493745006606
0.00530488898264
0.00585617594538
0.0082938724612
0.0225099148581
0.0878926756367
0.210184766846
0.00536374778132
0.00493758518484
0.0053050919771
0.00585641713415
0.00829409555116
0.0225097208331
0.0878933095705
0.210179282983
0.00526294695857
0.00486541981767
0.00530009183852
0.00587428242422
0.00861793031674
0.0257083793962
0.102912640114
0.236204747509
0.00549648213082
0.00652013540716
0.0123280986075
0.0371737732907
0.110106412017
0.221690538778
0.00567337536845
0.00701907733463
0.0158239298559
0.0515155739936
0.129181157728
0.210403034377
0.00565881440869
0.00617211932735
0.00940160460363
0.0287484430142
0.0955427415892
0.196092040294
0.00569549529632
0.00634716308863
0.0102520083435
0.0299333210951
0.0925450492223
0.189266124652
0.00573075814887
0.00654901857943
0.0111716122881
0.033612640757
0.10194456555
0.191534037592
0.00579626587931
0.00691379313142
0.012718146565
0.037079262514
0.0998145579103
0.188790359443
0.00594002229568
0.0075826966129
0.0150910177289
0.0414849995956
0.0948417043175
0.183186877521
0.00626354664795
0.00892073416982
0.0185717656122
0.0454974781685
0.0927611463042
0.178592780202
0.00733116767103
0.0128654792123
0.026187245458
0.0492536070433
0.0849424692002
0.137451804549
0.00658434112235
0.0102411651147
0.0222013038673
0.0494897467636
0.0937031020513
0.175836559687
0.00639640481372
0.00932269663548
0.0199240050675
0.0466899812064
0.0908583375562
0.176608911744
0.00660698212647
0.00958723160438
0.0186026243929
0.040428114336
0.0775797944476
0.152698765759
0.00695980131734
0.0101813373447
0.0178616241571
0.0378460005766
0.10355960351
0.185809661832
0.00661260639833
0.00935615944529
0.0162415330232
0.0310013751695
0.0670760831639
0.0915470695427
0.00634214508871
0.00856608897477
0.0146348184823
0.027316691875
0.052631651698
0.0906831723724
0.00614938533277
0.00790857276525
0.0136740054596
0.0300515025897
0.0687408802685
0.166039210478
0.00605620770517
0.00754120770344
0.0129050424941
0.0307741600662
0.0752881468172
0.174673370922
0.0060324364774
0.00740955044314
0.0123015465937
0.0291279732033
0.0734774444075
0.173565438313
0.00603386491739
0.00737411267048
0.0118228552541
0.0264134679086
0.0663257189069
0.166261615903
0.00604205367255
0.00736931384334
0.0114150870112
0.0227538693243
0.0492851862998
0.129181413434
0.0111128356678
0.0204215227445
0.0376102204125
0.059001169114
0.0109298785955
0.0195911363574
0.0356985167208
0.0581934783815
0.0110269800551
0.0202497369058
0.0442753344786
0.137913884122
)
;
    }
    atmosphere
    {
        type            inletOutlet;
        inletValue      uniform 0.1;
        value           nonuniform List<scalar> 
27
(
0.1
0.210184766846
0.210179282983
0.1
0.1
0.1
0.1
0.1
0.1
0.1
0.1
0.1
0.137451804549
0.1
0.1
0.1
0.1
0.0915470695427
0.0906831723724
0.1
0.1
0.1
0.1
0.1
0.059001169114
0.0581934783815
0.1
)
;
    }
    floatingObject
    {
        lowReCorrection 0;
        blending        stepwise;
        n               2;
        type            epsilonWallFunction;
        value           nonuniform List<scalar> 4(0.00526277439751 0.00536366792306 0.00536374778132 0.00526294695857);
    }
    procBoundary6to3
    {
        type            processor;
        value           nonuniform List<scalar> 8(0.00457236255881 0.00511160001186 0.00549619173262 0.00651999455808 0.012329261877 0.0371744344681 0.110100744288 0.221688247981);
    }
    procBoundary6to7
    {
        type            processor;
        value           nonuniform List<scalar> 
11
(
0.00568511195291
0.00564146931558
0.00561867703661
0.00560932682358
0.00560501471986
0.00560253113231
0.00604874866006
0.00735987329686
0.00735987329686
0.00734813771149
0.00739245069148
)
;
    }
    procBoundary6to8
    {
        type            processor;
        value           nonuniform List<scalar> 
16
(
0.00457244927733
0.0051117832563
0.0051117832563
0.0053922864726
0.00550624487519
0.00553840350484
0.00554736215226
0.00555789236764
0.00558419755658
0.00564476464936
0.00583951628589
0.00571290449688
0.00569035558052
0.00575133807594
0.00585332992056
0.00575357972282
)
;
    }
    procBoundary6to9
    {
        type            processor;
        value           nonuniform List<scalar> 4(0.0111824104326 0.020889690259 0.0447482405621 0.129896643592);
    }
}


// ************************************************************************* //
