/*--------------------------------*- C++ -*----------------------------------*\
| =========                 |                                                 |
| \\      /  F ield         | OpenFOAM: The Open Source CFD Toolbox           |
|  \\    /   O peration     | Version:  v2012                                 |
|   \\  /    A nd           | Website:  www.openfoam.com                      |
|    \\/     M anipulation  |                                                 |
\*---------------------------------------------------------------------------*/
FoamFile
{
    version     2.0;
    format      ascii;
    class       volVectorField;
    location    "2.2";
    object      U;
}
// * * * * * * * * * * * * * * * * * * * * * * * * * * * * * * * * * * * * * //

dimensions      [0 1 -1 0 0 0 0];


internalField   nonuniform List<vector> 
164
(
(-0.108750378897 -0.0273959016313 8.67536159469e-18)
(-0.0470481854582 -0.0551066883149 7.02888783282e-18)
(-0.0190298747394 -0.0756071800627 4.6825799715e-18)
(-0.0110287617716 -0.0699819051471 2.84118010927e-18)
(0.00314623955662 -0.0890664492028 1.81408947999e-18)
(0.0124665562082 -0.00611533687029 1.12878176323e-18)
(0.379949155361 -0.0330456234094 1.57824312685e-18)
(3.33375023158 -0.944283049319 1.45213249407e-18)
(-0.0432374488589 -0.0612763814004 5.18235763641e-18)
(-0.0119354185264 -0.0940441717517 5.15123733184e-18)
(-0.0045377621536 -0.113918564842 4.27262361295e-18)
(-0.00566345637711 -0.114627456712 3.3803877391e-18)
(-0.000861426435469 -0.156732028195 2.54587487012e-18)
(0.018365518352 -0.0745825855648 2.04793392025e-18)
(0.309552300667 -0.206333886995 2.56481715761e-18)
(0.60474457364 1.96555614389 2.34339354887e-18)
(0.0432309677946 -0.0612772522915 5.20518523209e-18)
(0.0119309423524 -0.0940468629528 5.16369194935e-18)
(0.00453598760963 -0.11392241779 4.28017905089e-18)
(0.00566532441363 -0.114632421878 3.3892202598e-18)
(0.000868380994448 -0.156736996924 2.63745430306e-18)
(-0.0183330053842 -0.0745722992909 2.32301754694e-18)
(-0.309368787591 -0.206341004044 3.97177944082e-18)
(-0.604172463547 1.96616924516 3.54615668718e-18)
(0.108747200039 -0.0273986418626 8.72567366818e-18)
(0.0470454736352 -0.0551137860598 7.05327553306e-18)
(0.0190290358272 -0.0756156459571 4.69971850735e-18)
(0.0110286051416 -0.0699911297807 2.85901162014e-18)
(-0.00314669506098 -0.0890734881376 1.85670663554e-18)
(-0.012455599731 -0.00611642331704 1.07458393101e-18)
(-0.380013620613 -0.0330598273101 9.71819322954e-19)
(-3.33382159455 -0.944199642968 1.27958995643e-18)
(0.0247805858091 -0.0736673912007 3.3205260457e-18)
(0.00225594454237 -0.0776225193829 1.37207243255e-18)
(-0.0220001338764 -0.106972098033 7.60681210337e-19)
(-0.0605807405319 -0.0801207552853 5.40744535428e-19)
(-0.193412285523 -0.123726758651 1.7394965083e-18)
(-0.855623455564 -0.775927646138 1.29605312357e-18)
(0.0399345573283 -0.0743559646214 1.04729971557e-18)
(0.0369182571302 -0.0865984511628 4.10209856934e-19)
(0.017111395141 -0.128823825603 2.90693863578e-19)
(-0.0501647961135 -0.143932403434 4.88546742698e-19)
(-0.0936212804901 -0.245904893901 1.8668644507e-18)
(-0.392209177513 -0.445449521693 4.09375653528e-19)
(0.0479344092035 -0.0613564381345 9.61242834305e-20)
(0.0537675326032 -0.0597771540668 4.2710910212e-20)
(0.0485579053097 -0.0804249679144 4.53946867358e-20)
(0.0340373491206 -0.0544437459783 3.46087318801e-20)
(0.0848127476554 -0.12518871473 1.64621335108e-19)
(-0.275469597575 -0.228229728855 1.53970967052e-19)
(0.0487732566627 -0.0611520594953 1.10765010259e-20)
(0.0513334792362 -0.0633157405562 -8.13850392348e-21)
(0.0421645167317 -0.0786969152629 -3.00717454652e-20)
(0.00326930494208 -0.0549078247974 -9.52919281697e-20)
(-0.0255087959466 -0.0968343629508 -2.56786675975e-19)
(-0.10753981201 -0.229532087558 -1.10390272916e-19)
(0.0514467754806 -0.0564993594246 -2.04786896209e-21)
(0.0559045962782 -0.0559663876809 -8.5054103648e-21)
(0.0578145791388 -0.0625234335869 -3.20515525042e-20)
(0.0375770094763 -0.0507052673988 -1.23396302665e-19)
(0.13120399741 -0.0969675297157 -2.49797231463e-19)
(-0.0386936793714 -0.224467601097 -1.37792034467e-19)
(0.0511075947499 -0.0541202960725 -6.77505330176e-21)
(0.0545923619167 -0.0554717683576 -1.67414330304e-20)
(0.064013586468 -0.0686454249211 -4.23954218008e-20)
(0.0604713472563 -0.0667152170008 -1.15690598726e-19)
(0.128213931128 -0.0884745597644 -1.27914103265e-19)
(0.00148069146214 -0.0832369400472 -8.85260102746e-20)
(0.0557672880941 -0.0550533945881 -8.14824998283e-21)
(0.064905764604 -0.0587184800408 -3.17460219249e-20)
(0.0863821828221 -0.0779825538721 -5.12856754042e-20)
(0.0986094067188 -0.0818643573813 -1.4065216988e-19)
(0.102074807543 -0.11038028438 -1.44199731822e-19)
(0.025960857894 -0.170562451762 -5.37350863492e-20)
(0.0545926345494 -0.0493984222071 -1.52530035523e-20)
(0.0642536647457 -0.0505682268998 -5.16196651448e-20)
(0.103114663257 -0.0651440298172 -1.54751049435e-19)
(0.151067851243 -0.0740994270065 -3.40799908637e-19)
(0.106972408625 -0.0780265814378 -3.41944621114e-19)
(0.0602734534998 -0.116191320193 -1.07869448718e-19)
(0.0609718686292 -0.0567171889259 -1.66622334549e-20)
(0.0685658132255 -0.0578096172087 -9.71585396109e-20)
(0.0907106926798 -0.051066246316 -3.21075102605e-19)
(0.127389737662 -0.0298839735447 -5.02357550597e-19)
(0.102400028748 0.0608010389148 -5.04013601261e-19)
(0.0456296035414 0.147798986762 -2.60688989198e-19)
(0.0690143092245 -0.0460800771633 -6.8914469005e-21)
(0.0722525745836 -0.0469365061407 -8.88106571519e-20)
(0.061922801598 -0.0531491389894 -2.48473816404e-19)
(0.0379125611611 -0.0487377493813 -4.78856264684e-19)
(0.0593153828078 0.00323565916891 -4.75826982357e-19)
(-0.0235839753997 0.0473183946475 -1.3226555231e-19)
(0.0683860417195 -0.0438471379422 -1.20030188935e-20)
(0.0688975869431 -0.0443342016834 -4.15928885679e-20)
(0.0594700043379 -0.0569470222506 -1.33519339897e-19)
(0.0394986020456 -0.0608889208419 -3.13115959665e-19)
(0.0622540782659 -0.039640833011 -3.09143213986e-19)
(0.0244484070342 -0.0709220601718 -6.34016887406e-20)
(0.0701440499608 -0.0455311269994 -8.03018406098e-21)
(0.0730643031348 -0.0501158092385 -3.69424844429e-20)
(0.0717308195821 -0.0609812639389 -7.94422390052e-20)
(0.0565839303101 -0.064468283091 -1.72638820297e-19)
(0.0556052766186 -0.0710704030052 -1.70117874222e-19)
(0.00335828225648 -0.0789996417368 4.12163870627e-20)
(0.0762697256871 -0.0464561789436 -4.68830092894e-21)
(0.0756298577992 -0.0504150527354 2.64187205175e-22)
(0.0730295232278 -0.0529694873083 -1.66946210234e-20)
(0.0802775110966 -0.0460824048084 -6.72407896552e-20)
(0.0780899795263 -0.0794003930616 -6.57649462254e-20)
(0.0422799524075 -0.205577770326 1.28787411202e-19)
(0.0831031451362 -0.0412437042449 4.51720301942e-21)
(0.0819539866431 -0.0504814167672 9.49020345329e-21)
(0.0774518366824 -0.0587695043024 -7.4552259465e-21)
(0.0953823004864 -0.0538444241379 -3.27755160227e-20)
(0.0959380565587 -0.0598707139825 -2.82445007389e-20)
(0.110766499049 0.0315964027516 1.77868617476e-20)
(0.0887758605743 -0.0348232471457 -8.379936743e-21)
(0.0891022631379 -0.0413319295419 -1.54059379486e-20)
(0.0773613046228 -0.0478727752345 -9.66132060953e-21)
(0.0671432991867 -0.0451359138562 -3.21084466765e-20)
(0.0437652940046 -0.0186575082562 -3.12350400027e-20)
(-0.0445383827502 0.079148252941 -6.7630161841e-21)
(0.0931218982115 -0.0257024147884 -9.07396723803e-21)
(0.0947689382182 -0.0258874234409 -9.13410751099e-21)
(0.0788699882619 -0.0302322330527 -9.99460532394e-22)
(0.0487070415472 -0.0274185562917 -2.95429204651e-20)
(0.0334927954752 -0.0139088555522 -2.92720074736e-20)
(-0.0457514952981 -0.0233786650164 -2.22643749025e-20)
(0.0931737430408 -0.0182412180959 -3.80956126235e-21)
(0.093733388013 -0.0164463289707 -1.0333139246e-20)
(0.0784330538989 -0.0212560563984 -2.54754132557e-21)
(0.0505503800209 -0.0252293812533 2.72529517997e-21)
(0.0513411650514 -0.0213774681009 2.07105000033e-21)
(-0.0188211728339 -0.0742394051386 -7.22982925783e-23)
(0.0927272523632 -0.0139557344466 -1.85943481218e-21)
(0.0933846607208 -0.0136761633534 -4.10232897851e-21)
(0.0829833072625 -0.019638499699 -8.43651956822e-21)
(0.0644026924625 -0.0263804575083 -1.87414458668e-20)
(0.0673471428985 -0.0305311207905 -1.88684823663e-20)
(0.0107565649812 -0.0884962219311 1.35891339576e-20)
(0.0933444505791 -0.010585230587 -2.28599952024e-21)
(0.0953273289332 -0.0122029652806 -5.21901885629e-21)
(0.0910090215152 -0.017938224493 -1.04724068669e-20)
(0.0831151572572 -0.0258695827868 -2.26909498619e-20)
(0.083564685457 -0.0330610520863 -2.18391183812e-20)
(0.0363697720832 -0.0822002124313 2.57137461827e-21)
(0.0947100964607 -0.00679793962919 -2.16238375823e-21)
(0.098548210215 -0.00949894980632 -6.4407105994e-21)
(0.0993186240924 -0.0145461316038 -1.26507919319e-20)
(0.0981919857691 -0.0227517460006 -1.77272166989e-20)
(0.0931679015334 -0.0269306890479 -1.818437098e-20)
(0.053040686804 -0.0424383146073 2.50227797873e-21)
(0.106097243847 -0.007856701738 -1.39374964435e-20)
(0.105528968206 -0.0152454105077 -1.24733450788e-20)
(0.0862917729011 -0.0156151660572 -1.32763313468e-20)
(0.044759660147 0.0150384827141 -1.88854467729e-21)
(0.110774440366 0.00199868662906 -9.67923383933e-21)
(0.108354454397 -0.00328861150149 -7.26315434686e-21)
(0.046363538697 0.00177439942607 -5.71523681607e-21)
(0.0210130138891 0.0609919293515 -5.06622864357e-21)
(0.112680905069 0.0120705441455 -7.10276101549e-21)
(0.111752763927 0.00987964590118 -6.85881830443e-21)
(0.0493971216962 0.00502679049382 -9.95683023728e-21)
(0.0174098868849 -0.0460265319185 1.26892463282e-20)
)
;

boundaryField
{
    back
    {
        type            noSlip;
    }
    sides
    {
        type            noSlip;
    }
    bottom
    {
        type            noSlip;
    }
    front
    {
        type            noSlip;
    }
    atmosphere
    {
        type            pressureInletOutletVelocity;
        value           nonuniform List<vector> 
27
(
(0 -0.944283049319 0)
(0.60474457364 1.96555614389 2.34339354887e-18)
(-0.604172463547 1.96616924516 3.54615668718e-18)
(0 -0.944199642968 0)
(0 -0.775927646138 0)
(0 -0.445449521693 0)
(0 -0.228229728855 0)
(0 -0.229532087558 0)
(0 -0.224467601097 0)
(0 -0.0832369400472 0)
(0 -0.170562451762 0)
(0 -0.116191320193 0)
(0.0456296035414 0.147798986762 -2.60688989198e-19)
(-0.0235839753997 0.0473183946475 -1.3226555231e-19)
(0 -0.0709220601718 0)
(0 -0.0789996417368 0)
(0 -0.205577770326 0)
(0.110766499049 0.0315964027516 1.77868617476e-20)
(-0.0445383827502 0.079148252941 -6.7630161841e-21)
(0 -0.0233786650164 0)
(0 -0.0742394051386 0)
(0 -0.0884962219311 0)
(0 -0.0822002124313 0)
(0 -0.0424383146073 0)
(0.044759660147 0.0150384827141 -1.88854467729e-21)
(0.0210130138891 0.0609919293515 -5.06622864357e-21)
(0 -0.0460265319185 0)
)
;
    }
    floatingObject
    {
        type            movingWallVelocity;
        value           nonuniform List<vector> 4((0 0 0) (0 0 0) (-2.42861286637e-16 0 0) (0 0 0));
    }
    procBoundary6to3
    {
        type            processor;
        value           nonuniform List<vector> 8((-0.0997352178141 -0.0896376667215 1.06882190818e-17) (-0.0549266782833 -0.0644179123078 6.89950971912e-18) (-0.0247823140316 -0.0736603545003 3.31304747581e-18) (-0.0022581487857 -0.0776142955156 1.37240243152e-18) (0.0219997449695 -0.106962585446 8.11436010095e-19) (0.0605871213755 -0.0801136363732 7.40055417105e-19) (0.193419568536 -0.123739147357 2.27444836719e-18) (0.855409884329 -0.775974426197 1.60225471801e-18));
    }
    procBoundary6to7
    {
        type            processor;
        value           nonuniform List<vector> 
11
(
(0.0844388535449 -0.0301014399172 -2.29956623446e-21)
(0.0874030022995 -0.0240269180733 -2.16605626927e-21)
(0.0884869604661 -0.018157329031 -4.35073646457e-22)
(0.0888639364023 -0.0136578423338 -3.52985443529e-22)
(0.0894557050752 -0.00974768010442 -3.59841604907e-22)
(0.0902834684039 -0.00572102439138 -3.44957542201e-23)
(0.096295083489 -0.00196323995316 -1.95667989442e-21)
(0.102098641448 -0.00464155529084 -6.23900992051e-21)
(0.102098641448 -0.00464155529084 -6.23900992051e-21)
(0.104275688786 0.00263054973946 -4.22145414434e-21)
(0.104451025259 0.0108071972186 -1.16167248677e-21)
)
;
    }
    procBoundary6to8
    {
        type            processor;
        value           nonuniform List<vector> 
16
(
(0.0997358300246 -0.0896419207542 1.07226159356e-17)
(0.0549260507249 -0.0644247563457 6.91486678539e-18)
(0.0549260507249 -0.0644247563457 6.91486678539e-18)
(0.0496297473887 -0.0630148789264 2.35589001945e-18)
(0.0479279402301 -0.0582286586283 2.64656987403e-19)
(0.0476658312221 -0.0575530612012 2.9281813049e-20)
(0.0486808867769 -0.0546712957192 1.03402461447e-21)
(0.0496208884104 -0.052049032588 -1.35010621036e-21)
(0.0524367897901 -0.0510679533899 -2.17121679322e-21)
(0.053327545482 -0.0468765092528 -4.37094746902e-21)
(0.0586285980837 -0.0507735918753 -3.56533229786e-21)
(0.0649453697804 -0.0439755469341 4.18636474674e-22)
(0.0667474398374 -0.0418384944399 -7.49896516009e-21)
(0.0688993003472 -0.0404524411613 -3.67429250645e-21)
(0.074981671527 -0.0404335435813 -9.74671906121e-22)
(0.0804098366847 -0.0349474689464 2.36529699526e-21)
)
;
    }
    procBoundary6to9
    {
        type            processor;
        value           nonuniform List<vector> 4((0.111843886742 0.0212367980339 -3.79912012123e-21) (0.115855813373 0.021267723603 -1.09786575268e-20) (0.0831601850164 0.0175932835949 -1.09298840335e-20) (0.0402662831833 -0.0352601770533 -1.73660334375e-21));
    }
}


// ************************************************************************* //
