/*--------------------------------*- C++ -*----------------------------------*\
| =========                 |                                                 |
| \\      /  F ield         | OpenFOAM: The Open Source CFD Toolbox           |
|  \\    /   O peration     | Version:  v2012                                 |
|   \\  /    A nd           | Website:  www.openfoam.com                      |
|    \\/     M anipulation  |                                                 |
\*---------------------------------------------------------------------------*/
FoamFile
{
    version     2.0;
    format      ascii;
    class       volScalarField;
    location    "1.3";
    object      ddt0(k);
}
// * * * * * * * * * * * * * * * * * * * * * * * * * * * * * * * * * * * * * //

dimensions      [0 2 -3 0 0 0 0];


internalField   nonuniform List<scalar> 
167
(
-0.0141219319368
-0.0141254485492
-0.0141269947047
-0.0141305817884
-0.01413516909
-0.0141398196526
-0.0141423692712
-0.0141341561212
-0.0136104367054
-0.0140396327132
-0.0141004979626
-0.0141039506215
-0.0141050199723
-0.0141078758528
-0.0141114954389
-0.01411487068
-0.0141153874629
-0.0141028071331
-0.0140423205997
-0.0135885596521
-0.0140184478798
-0.0140798277431
-0.0140832636537
-0.0140839281619
-0.0140861368514
-0.0140888927031
-0.0140910993789
-0.0140896840273
-0.0140726714973
-0.0139989451388
-0.0135672505522
-0.0139980013886
-0.014059961286
-0.0140634321515
-0.0140637568416
-0.0140653975125
-0.0140673854181
-0.0140685259782
-0.0140653153643
-0.0140437749211
-0.0113295407941
-0.0135465718789
-0.0139783580233
-0.0140409629955
-0.014044521293
-0.0140445706525
-0.0140457247536
-0.0140470387659
-0.0140472297228
-0.0140422889655
-0.0140162626466
-0.0113050781369
-0.0135266706816
-0.0139595799388
-0.0140228815412
-0.014026576268
-0.0140264172632
-0.0140271673477
-0.0140279126308
-0.014027268756
-0.0140207919635
-0.0139902364078
-0.0112812311173
-0.0135076076559
-0.0139417142826
-0.0140057520182
-0.0140096327227
-0.0140093357704
-0.0140097736865
-0.0140100556391
-0.0140087520594
-0.014000733904
-0.0112581140144
-0.0134894599819
-0.0139248137509
-0.0139896216102
-0.0139937426496
-0.0139933877856
-0.0139936115266
-0.0139935527937
-0.0139916336242
-0.0112358594154
-0.0134723509104
-0.0139090002566
-0.0139746210292
-0.0139790520112
-0.0139787352629
-0.0139788543145
-0.0139785640643
-0.0139761489294
-0.0112146785041
-0.0134565892679
-0.0138946382415
-0.0139611559978
-0.0139660024795
-0.0139658521806
-0.0139660142371
-0.0139656411189
-0.0139629341921
-0.0139513639232
-0.0111950617156
-0.0134429804298
-0.0138827070239
-0.0139503150637
-0.0139557603856
-0.0139559709711
-0.0139563793977
-0.0139561376317
-0.0139533503208
-0.0139410649832
-0.011178143459
-0.0134331891983
-0.0138752080381
-0.0139443214617
-0.0139506995288
-0.0139515880515
-0.01395256845
-0.0139528159687
-0.013950360476
-0.0139378522771
-0.0111656153235
-0.0134285382272
-0.0138736608788
-0.0139449816494
-0.013952852025
-0.0139549253527
-0.0139569971191
-0.0139583074106
-0.0139568378729
-0.0139449370517
-0.0111548700399
-0.013419046378
-0.0138662596689
-0.0139403112932
-0.0139503637193
-0.0139542828957
-0.013958141614
-0.013961299695
-0.0139617859017
-0.0139516518119
-0.0111107506371
-0.0133335566513
-0.0137717033503
-0.0138465724849
-0.0138589257289
-0.0138650797913
-0.013871175951
-0.013876758143
-0.0138798931969
-0.0108535653354
-0.0128697936164
-0.0132558411782
-0.0133218850246
-0.013334513945
-0.0133419776791
-0.0133493907405
-0.013356363707
-0.0133611970456
-0.00965834507686
-0.0108396356224
-0.011050127658
-0.0110852168186
-0.0110971498225
-0.0111072569255
-0.011116662384
-0.0111247941416
-0.0111305306762
)
;

boundaryField
{
    back
    {
        type            calculated;
        value           nonuniform List<scalar> 
167
(
-0.0141219319368
-0.0141254485492
-0.0141269947047
-0.0141305817884
-0.01413516909
-0.0141398196526
-0.0141423692712
-0.0141341561212
-0.0136104367054
-0.0140396327132
-0.0141004979626
-0.0141039506215
-0.0141050199723
-0.0141078758528
-0.0141114954389
-0.01411487068
-0.0141153874629
-0.0141028071331
-0.0140423205997
-0.0135885596521
-0.0140184478798
-0.0140798277431
-0.0140832636537
-0.0140839281619
-0.0140861368514
-0.0140888927031
-0.0140910993789
-0.0140896840273
-0.0140726714973
-0.0139989451388
-0.0135672505522
-0.0139980013886
-0.014059961286
-0.0140634321515
-0.0140637568416
-0.0140653975125
-0.0140673854181
-0.0140685259782
-0.0140653153643
-0.0140437749211
-0.0113295407941
-0.0135465718789
-0.0139783580233
-0.0140409629955
-0.014044521293
-0.0140445706525
-0.0140457247536
-0.0140470387659
-0.0140472297228
-0.0140422889655
-0.0140162626466
-0.0113050781369
-0.0135266706816
-0.0139595799388
-0.0140228815412
-0.014026576268
-0.0140264172632
-0.0140271673477
-0.0140279126308
-0.014027268756
-0.0140207919635
-0.0139902364078
-0.0112812311173
-0.0135076076559
-0.0139417142826
-0.0140057520182
-0.0140096327227
-0.0140093357704
-0.0140097736865
-0.0140100556391
-0.0140087520594
-0.014000733904
-0.0112581140144
-0.0134894599819
-0.0139248137509
-0.0139896216102
-0.0139937426496
-0.0139933877856
-0.0139936115266
-0.0139935527937
-0.0139916336242
-0.0112358594154
-0.0134723509104
-0.0139090002566
-0.0139746210292
-0.0139790520112
-0.0139787352629
-0.0139788543145
-0.0139785640643
-0.0139761489294
-0.0112146785041
-0.0134565892679
-0.0138946382415
-0.0139611559978
-0.0139660024795
-0.0139658521806
-0.0139660142371
-0.0139656411189
-0.0139629341921
-0.0139513639232
-0.0111950617156
-0.0134429804298
-0.0138827070239
-0.0139503150637
-0.0139557603856
-0.0139559709711
-0.0139563793977
-0.0139561376317
-0.0139533503208
-0.0139410649832
-0.011178143459
-0.0134331891983
-0.0138752080381
-0.0139443214617
-0.0139506995288
-0.0139515880515
-0.01395256845
-0.0139528159687
-0.013950360476
-0.0139378522771
-0.0111656153235
-0.0134285382272
-0.0138736608788
-0.0139449816494
-0.013952852025
-0.0139549253527
-0.0139569971191
-0.0139583074106
-0.0139568378729
-0.0139449370517
-0.0111548700399
-0.013419046378
-0.0138662596689
-0.0139403112932
-0.0139503637193
-0.0139542828957
-0.013958141614
-0.013961299695
-0.0139617859017
-0.0139516518119
-0.0111107506371
-0.0133335566513
-0.0137717033503
-0.0138465724849
-0.0138589257289
-0.0138650797913
-0.013871175951
-0.013876758143
-0.0138798931969
-0.0108535653354
-0.0128697936164
-0.0132558411782
-0.0133218850246
-0.013334513945
-0.0133419776791
-0.0133493907405
-0.013356363707
-0.0133611970456
-0.00965834507686
-0.0108396356224
-0.011050127658
-0.0110852168186
-0.0110971498225
-0.0111072569255
-0.011116662384
-0.0111247941416
-0.0111305306762
)
;
    }
    sides
    {
        type            calculated;
        value           nonuniform List<scalar> 9(-0.00965834507686 -0.0108396356224 -0.011050127658 -0.0110852168186 -0.0110971498225 -0.0111072569255 -0.011116662384 -0.0111247941416 -0.0111305306762);
    }
    bottom
    {
        type            calculated;
        value           nonuniform List<scalar> 
13
(
-0.0113295407941
-0.0113050781369
-0.0112812311173
-0.0112581140144
-0.0112358594154
-0.0112146785041
-0.0111950617156
-0.011178143459
-0.0111656153235
-0.0111548700399
-0.0111107506371
-0.0108535653354
-0.00965834507686
)
;
    }
    front
    {
        type            calculated;
        value           nonuniform List<scalar> 
167
(
-0.0141219319368
-0.0141254485492
-0.0141269947047
-0.0141305817884
-0.01413516909
-0.0141398196526
-0.0141423692712
-0.0141341561212
-0.0136104367054
-0.0140396327132
-0.0141004979626
-0.0141039506215
-0.0141050199723
-0.0141078758528
-0.0141114954389
-0.01411487068
-0.0141153874629
-0.0141028071331
-0.0140423205997
-0.0135885596521
-0.0140184478798
-0.0140798277431
-0.0140832636537
-0.0140839281619
-0.0140861368514
-0.0140888927031
-0.0140910993789
-0.0140896840273
-0.0140726714973
-0.0139989451388
-0.0135672505522
-0.0139980013886
-0.014059961286
-0.0140634321515
-0.0140637568416
-0.0140653975125
-0.0140673854181
-0.0140685259782
-0.0140653153643
-0.0140437749211
-0.0113295407941
-0.0135465718789
-0.0139783580233
-0.0140409629955
-0.014044521293
-0.0140445706525
-0.0140457247536
-0.0140470387659
-0.0140472297228
-0.0140422889655
-0.0140162626466
-0.0113050781369
-0.0135266706816
-0.0139595799388
-0.0140228815412
-0.014026576268
-0.0140264172632
-0.0140271673477
-0.0140279126308
-0.014027268756
-0.0140207919635
-0.0139902364078
-0.0112812311173
-0.0135076076559
-0.0139417142826
-0.0140057520182
-0.0140096327227
-0.0140093357704
-0.0140097736865
-0.0140100556391
-0.0140087520594
-0.014000733904
-0.0112581140144
-0.0134894599819
-0.0139248137509
-0.0139896216102
-0.0139937426496
-0.0139933877856
-0.0139936115266
-0.0139935527937
-0.0139916336242
-0.0112358594154
-0.0134723509104
-0.0139090002566
-0.0139746210292
-0.0139790520112
-0.0139787352629
-0.0139788543145
-0.0139785640643
-0.0139761489294
-0.0112146785041
-0.0134565892679
-0.0138946382415
-0.0139611559978
-0.0139660024795
-0.0139658521806
-0.0139660142371
-0.0139656411189
-0.0139629341921
-0.0139513639232
-0.0111950617156
-0.0134429804298
-0.0138827070239
-0.0139503150637
-0.0139557603856
-0.0139559709711
-0.0139563793977
-0.0139561376317
-0.0139533503208
-0.0139410649832
-0.011178143459
-0.0134331891983
-0.0138752080381
-0.0139443214617
-0.0139506995288
-0.0139515880515
-0.01395256845
-0.0139528159687
-0.013950360476
-0.0139378522771
-0.0111656153235
-0.0134285382272
-0.0138736608788
-0.0139449816494
-0.013952852025
-0.0139549253527
-0.0139569971191
-0.0139583074106
-0.0139568378729
-0.0139449370517
-0.0111548700399
-0.013419046378
-0.0138662596689
-0.0139403112932
-0.0139503637193
-0.0139542828957
-0.013958141614
-0.013961299695
-0.0139617859017
-0.0139516518119
-0.0111107506371
-0.0133335566513
-0.0137717033503
-0.0138465724849
-0.0138589257289
-0.0138650797913
-0.013871175951
-0.013876758143
-0.0138798931969
-0.0108535653354
-0.0128697936164
-0.0132558411782
-0.0133218850246
-0.013334513945
-0.0133419776791
-0.0133493907405
-0.013356363707
-0.0133611970456
-0.00965834507686
-0.0108396356224
-0.011050127658
-0.0110852168186
-0.0110971498225
-0.0111072569255
-0.011116662384
-0.0111247941416
-0.0111305306762
)
;
    }
    atmosphere
    {
        type            calculated;
        value           nonuniform List<scalar> 0();
    }
    floatingObject
    {
        type            calculated;
        value           nonuniform List<scalar> 0();
    }
    procBoundary10to9
    {
        type            processor;
        value           nonuniform List<scalar> 
15
(
-0.0141439400627
-0.0141475778163
-0.0141496394338
-0.0141540291273
-0.0141596494955
-0.01416568732
-0.0141702673269
-0.0141663954515
-0.0136327135414
-0.0140614417356
-0.0140614417356
-0.0114048121918
-0.0113795914205
-0.0113544207885
-0.0113544207885
)
;
    }
    procBoundary10to11
    {
        type            processor;
        value           nonuniform List<scalar> 
23
(
-0.0140861921653
-0.0140861921653
-0.0138420621951
-0.0137598796463
-0.013956357489
-0.013956357489
-0.0139147270003
-0.0138745197007
-0.0139658690933
-0.0139658690933
-0.0139822751446
-0.0139822751446
-0.013965582944
-0.013965582944
-0.0139048253098
-0.0138914479141
-0.0138858646396
-0.013891750857
-0.0138991020061
-0.0138727123217
-0.0138727123217
-0.0133566748292
-0.011129334012
)
;
    }
}


// ************************************************************************* //
