/*--------------------------------*- C++ -*----------------------------------*\
| =========                 |                                                 |
| \\      /  F ield         | OpenFOAM: The Open Source CFD Toolbox           |
|  \\    /   O peration     | Version:  v2012                                 |
|   \\  /    A nd           | Website:  www.openfoam.com                      |
|    \\/     M anipulation  |                                                 |
\*---------------------------------------------------------------------------*/
FoamFile
{
    version     2.0;
    format      ascii;
    class       volScalarField;
    location    "5.6";
    object      alpha.water;
}
// * * * * * * * * * * * * * * * * * * * * * * * * * * * * * * * * * * * * * //

dimensions      [0 0 0 0 0 0 0];


internalField   nonuniform List<scalar> 
164
(
0.999999479881
1.00000034559
1.0000011565
1.00000224979
1.00000345355
1.00000434898
1.00000464294
1.00000378538
1.00000396432
1.00000324139
1.000002675
1.0000024049
0.999998048593
0.999993193098
1.00000143652
1.00000248634
1.00000318746
1.00000391748
1.00000468871
1.00000520124
1.00000511495
1.00000422078
1.00000274599
1.0000011388
1.00000020152
0.999999933197
0.999999372401
0.999991417958
1.00000335251
1.00000435288
1.00000503633
1.00000562221
1.00000603239
1.000005963
1.00000510902
1.00000332515
1.00000091349
0.999999006197
0.999996829458
0.999996654887
0.999997354347
0.999990011328
1.00000485536
1.00000579212
1.00000634772
1.00000667454
1.00000663715
1.00000596252
1.00000442467
1.00000192863
0.99999942589
0.999997130496
0.999994230139
0.999991786072
0.99999117234
0.999986496336
1.0000058678
1.00000673642
1.00000724092
1.00000733963
1.0000068075
1.00000557614
1.00000345456
1.0000005075
0.999998197955
0.999995669456
0.999994481589
0.999989302537
0.999977227651
0.999971361873
1.00000671135
1.00000745868
1.00000784382
1.00000776484
1.00000698726
1.00000530752
1.00000259431
0.999999755992
0.999997549924
0.999992530236
0.999990076011
0.999988691966
0.999969500917
0.999921069814
1.00000698289
1.00000752798
1.000007835
1.00000771664
1.00000683997
1.00000492163
1.00000189283
0.999999359401
0.999996010759
0.999988566718
0.999980909299
0.999975403304
0.999931830877
0.999902419314
1.00000647425
1.00000684962
1.00000720284
1.00000721944
1.00000648485
1.00000465559
1.00000167542
0.999999687782
0.999994122764
0.999982645956
0.9999794674
0.999954874011
0.999902419314
0.999902412536
1.00000517893
1.00000565098
1.00000635438
1.00000685618
1.00000666271
1.00000529681
1.00000253991
1.00000029765
0.999993323064
0.999986366921
0.999982390642
0.999967981077
0.999912835269
0.999902410025
1.00000365295
1.00000449134
1.00000580864
1.00000706846
1.0000076407
1.0000068962
1.00000435369
1.00000139473
0.999997326621
0.999993568836
0.999986731021
0.999972965473
0.999970202428
0.999907524165
1.00000250349
1.00000365602
1.00000549182
1.00000740088
1.00000865966
1.00000847927
1.00000645193
1.00000311598
1.00000039863
0.999994239351
0.999983677176
0.99998367715
0.999978462475
0.999956002938
1.00000223818
0.999992603162
0.999974041831
0.999958963529
0.999956596599
0.999955810662
0.999942788397
0.999923608144
0.999923607334
0.999923607334
)
;

boundaryField
{
    back
    {
        type            zeroGradient;
    }
    sides
    {
        type            zeroGradient;
    }
    bottom
    {
        type            zeroGradient;
    }
    front
    {
        type            zeroGradient;
    }
    atmosphere
    {
        type            inletOutlet;
        inletValue      nonuniform List<scalar> 0();
        value           nonuniform List<scalar> 0();
    }
    floatingObject
    {
        type            zeroGradient;
    }
    procBoundary8to3
    {
        type            processor;
        value           nonuniform List<scalar> 8(0.999998588207 0.999998618349 0.999999534369 1.00000055792 1.00000143699 1.00000219511 1.00000272307 1.00000236831);
    }
    procBoundary8to6
    {
        type            processor;
        value           nonuniform List<scalar> 
16
(
0.99999558529
0.99999121314
0.999992576668
0.999993846649
0.999994626895
0.999992373537
0.999983133117
0.999957475822
0.999923993552
0.99990241272
0.999902425774
0.999917833894
0.999946990725
0.999955368336
0.999930387941
0.999923607334
)
;
    }
    procBoundary8to7
    {
        type            processor;
        value           nonuniform List<scalar> 
17
(
1.00000155559
1.00000286735
1.00000500902
1.00000741969
1.00000925831
1.00000988249
1.000008305
1.00000510166
1.00000510166
1.00000165399
0.999995285447
0.99997977423
0.99997977423
0.999969107374
0.999924582384
0.999924582384
0.999923607334
)
;
    }
}


// ************************************************************************* //
