/*--------------------------------*- C++ -*----------------------------------*\
| =========                 |                                                 |
| \\      /  F ield         | OpenFOAM: The Open Source CFD Toolbox           |
|  \\    /   O peration     | Version:  v2012                                 |
|   \\  /    A nd           | Website:  www.openfoam.com                      |
|    \\/     M anipulation  |                                                 |
\*---------------------------------------------------------------------------*/
FoamFile
{
    version     2.0;
    format      ascii;
    class       volScalarField;
    location    "5.6";
    object      k;
}
// * * * * * * * * * * * * * * * * * * * * * * * * * * * * * * * * * * * * * //

dimensions      [0 2 -2 0 0 0 0];


internalField   nonuniform List<scalar> 
164
(
0.00110794739759
0.00138996292772
0.00148572397869
0.00152391766253
0.00153673713947
0.00153089881601
0.00149762174296
0.00141295835485
0.00131911758412
0.00131062200572
0.00133065160338
0.00139751047986
0.00164995322084
0.00198133467997
0.00111434750297
0.00139594703163
0.00149232177183
0.00153212479452
0.00154916762449
0.00155424846289
0.00154941412415
0.00153474976449
0.00153476341199
0.0015482869691
0.0015685767644
0.00160771162816
0.00171780608684
0.00192540148523
0.00112130904699
0.00140281797284
0.00149966194137
0.00154045405553
0.00155989980143
0.00157068081901
0.00157758064165
0.00158388567349
0.00159439826676
0.00160994508505
0.00162913740234
0.00166050496711
0.00173484217032
0.00189690531891
0.00112856994366
0.00141027627136
0.00150744443212
0.00154864844339
0.0015689669738
0.0015816748366
0.00159202688822
0.00160258959521
0.00161511513352
0.00163000368381
0.00164801462438
0.00167590700286
0.00173534980086
0.00187751739168
0.00113594395472
0.00141807611262
0.00151548300691
0.00155676238118
0.00157717609745
0.00159017791876
0.0016010875809
0.00161211445843
0.00162429245106
0.001638069404
0.00165477588827
0.00168039317654
0.00173348937438
0.00186641696734
0.00114321157581
0.00142596603888
0.00152356120701
0.00156474082002
0.00158489866684
0.00159757974436
0.00160811905745
0.00161863272461
0.0016300023921
0.00164279238362
0.00165858302661
0.00168311807635
0.00173417286415
0.00186385466099
0.00115019002537
0.00143370741486
0.00153148531484
0.00157248136879
0.00159224714375
0.00160441385555
0.00161434218487
0.00162413940812
0.00163469202309
0.0016467030647
0.00166202971517
0.00168675424909
0.00173899458898
0.00187061341182
0.00115678253034
0.00144114059507
0.0015390996373
0.001579877449
0.00159920911698
0.00161082599225
0.00162012535247
0.00162923259247
0.00163907157285
0.00165048585679
0.00166566613741
0.00169131578341
0.00174643851759
0.00188304493336
0.00116296635765
0.00144819252168
0.00154631231074
0.00158685708898
0.00160574968819
0.00161683257268
0.00162554582677
0.00163403396321
0.00164325136502
0.00165414766398
0.00166919350246
0.00169566011665
0.00175331798644
0.00189394405903
0.0011686688297
0.00145479015195
0.00155305804995
0.00159336259354
0.00161182792527
0.00162241053258
0.00163059164552
0.00163852714221
0.00164718902071
0.00165757669668
0.00167230544578
0.0016989666314
0.00175780459746
0.00190031554681
0.00117389988824
0.00146089700887
0.0015592891605
0.00159935161846
0.00161741011143
0.00162753303658
0.0016352386156
0.00164268601045
0.00165084704405
0.00166072756746
0.0016749800403
0.00170133420868
0.00176038595429
0.00190391788908
0.00165420482276
0.00166358949659
0.0016772752054
0.00170295420137
0.00176144181493
0.00190504081553
0.00170354101994
0.00175978213112
0.00189972469433
0.00188561143311
)
;

boundaryField
{
    back
    {
        type            kqRWallFunction;
        value           nonuniform List<scalar> 
164
(
0.00110794739759
0.00138996292772
0.00148572397869
0.00152391766253
0.00153673713947
0.00153089881601
0.00149762174296
0.00141295835485
0.00131911758412
0.00131062200572
0.00133065160338
0.00139751047986
0.00164995322084
0.00198133467997
0.00111434750297
0.00139594703163
0.00149232177183
0.00153212479452
0.00154916762449
0.00155424846289
0.00154941412415
0.00153474976449
0.00153476341199
0.0015482869691
0.0015685767644
0.00160771162816
0.00171780608684
0.00192540148523
0.00112130904699
0.00140281797284
0.00149966194137
0.00154045405553
0.00155989980143
0.00157068081901
0.00157758064165
0.00158388567349
0.00159439826676
0.00160994508505
0.00162913740234
0.00166050496711
0.00173484217032
0.00189690531891
0.00112856994366
0.00141027627136
0.00150744443212
0.00154864844339
0.0015689669738
0.0015816748366
0.00159202688822
0.00160258959521
0.00161511513352
0.00163000368381
0.00164801462438
0.00167590700286
0.00173534980086
0.00187751739168
0.00113594395472
0.00141807611262
0.00151548300691
0.00155676238118
0.00157717609745
0.00159017791876
0.0016010875809
0.00161211445843
0.00162429245106
0.001638069404
0.00165477588827
0.00168039317654
0.00173348937438
0.00186641696734
0.00114321157581
0.00142596603888
0.00152356120701
0.00156474082002
0.00158489866684
0.00159757974436
0.00160811905745
0.00161863272461
0.0016300023921
0.00164279238362
0.00165858302661
0.00168311807635
0.00173417286415
0.00186385466099
0.00115019002537
0.00143370741486
0.00153148531484
0.00157248136879
0.00159224714375
0.00160441385555
0.00161434218487
0.00162413940812
0.00163469202309
0.0016467030647
0.00166202971517
0.00168675424909
0.00173899458898
0.00187061341182
0.00115678253034
0.00144114059507
0.0015390996373
0.001579877449
0.00159920911698
0.00161082599225
0.00162012535247
0.00162923259247
0.00163907157285
0.00165048585679
0.00166566613741
0.00169131578341
0.00174643851759
0.00188304493336
0.00116296635765
0.00144819252168
0.00154631231074
0.00158685708898
0.00160574968819
0.00161683257268
0.00162554582677
0.00163403396321
0.00164325136502
0.00165414766398
0.00166919350246
0.00169566011665
0.00175331798644
0.00189394405903
0.0011686688297
0.00145479015195
0.00155305804995
0.00159336259354
0.00161182792527
0.00162241053258
0.00163059164552
0.00163852714221
0.00164718902071
0.00165757669668
0.00167230544578
0.0016989666314
0.00175780459746
0.00190031554681
0.00117389988824
0.00146089700887
0.0015592891605
0.00159935161846
0.00161741011143
0.00162753303658
0.0016352386156
0.00164268601045
0.00165084704405
0.00166072756746
0.0016749800403
0.00170133420868
0.00176038595429
0.00190391788908
0.00165420482276
0.00166358949659
0.0016772752054
0.00170295420137
0.00176144181493
0.00190504081553
0.00170354101994
0.00175978213112
0.00189972469433
0.00188561143311
)
;
    }
    sides
    {
        type            kqRWallFunction;
        value           nonuniform List<scalar> 0();
    }
    bottom
    {
        type            kqRWallFunction;
        value           nonuniform List<scalar> 
11
(
0.00110794739759
0.00111434750297
0.00112130904699
0.00112856994366
0.00113594395472
0.00114321157581
0.00115019002537
0.00115678253034
0.00116296635765
0.0011686688297
0.00117389988824
)
;
    }
    front
    {
        type            kqRWallFunction;
        value           nonuniform List<scalar> 
164
(
0.00110794739759
0.00138996292772
0.00148572397869
0.00152391766253
0.00153673713947
0.00153089881601
0.00149762174296
0.00141295835485
0.00131911758412
0.00131062200572
0.00133065160338
0.00139751047986
0.00164995322084
0.00198133467997
0.00111434750297
0.00139594703163
0.00149232177183
0.00153212479452
0.00154916762449
0.00155424846289
0.00154941412415
0.00153474976449
0.00153476341199
0.0015482869691
0.0015685767644
0.00160771162816
0.00171780608684
0.00192540148523
0.00112130904699
0.00140281797284
0.00149966194137
0.00154045405553
0.00155989980143
0.00157068081901
0.00157758064165
0.00158388567349
0.00159439826676
0.00160994508505
0.00162913740234
0.00166050496711
0.00173484217032
0.00189690531891
0.00112856994366
0.00141027627136
0.00150744443212
0.00154864844339
0.0015689669738
0.0015816748366
0.00159202688822
0.00160258959521
0.00161511513352
0.00163000368381
0.00164801462438
0.00167590700286
0.00173534980086
0.00187751739168
0.00113594395472
0.00141807611262
0.00151548300691
0.00155676238118
0.00157717609745
0.00159017791876
0.0016010875809
0.00161211445843
0.00162429245106
0.001638069404
0.00165477588827
0.00168039317654
0.00173348937438
0.00186641696734
0.00114321157581
0.00142596603888
0.00152356120701
0.00156474082002
0.00158489866684
0.00159757974436
0.00160811905745
0.00161863272461
0.0016300023921
0.00164279238362
0.00165858302661
0.00168311807635
0.00173417286415
0.00186385466099
0.00115019002537
0.00143370741486
0.00153148531484
0.00157248136879
0.00159224714375
0.00160441385555
0.00161434218487
0.00162413940812
0.00163469202309
0.0016467030647
0.00166202971517
0.00168675424909
0.00173899458898
0.00187061341182
0.00115678253034
0.00144114059507
0.0015390996373
0.001579877449
0.00159920911698
0.00161082599225
0.00162012535247
0.00162923259247
0.00163907157285
0.00165048585679
0.00166566613741
0.00169131578341
0.00174643851759
0.00188304493336
0.00116296635765
0.00144819252168
0.00154631231074
0.00158685708898
0.00160574968819
0.00161683257268
0.00162554582677
0.00163403396321
0.00164325136502
0.00165414766398
0.00166919350246
0.00169566011665
0.00175331798644
0.00189394405903
0.0011686688297
0.00145479015195
0.00155305804995
0.00159336259354
0.00161182792527
0.00162241053258
0.00163059164552
0.00163852714221
0.00164718902071
0.00165757669668
0.00167230544578
0.0016989666314
0.00175780459746
0.00190031554681
0.00117389988824
0.00146089700887
0.0015592891605
0.00159935161846
0.00161741011143
0.00162753303658
0.0016352386156
0.00164268601045
0.00165084704405
0.00166072756746
0.0016749800403
0.00170133420868
0.00176038595429
0.00190391788908
0.00165420482276
0.00166358949659
0.0016772752054
0.00170295420137
0.00176144181493
0.00190504081553
0.00170354101994
0.00175978213112
0.00189972469433
0.00188561143311
)
;
    }
    atmosphere
    {
        type            inletOutlet;
        inletValue      nonuniform List<scalar> 0();
        value           nonuniform List<scalar> 0();
    }
    floatingObject
    {
        type            kqRWallFunction;
        value           nonuniform List<scalar> 4(0.00131911758412 0.00131062200572 0.00133065160338 0.00139751047986);
    }
    procBoundary8to3
    {
        type            processor;
        value           nonuniform List<scalar> 8(0.00110235532912 0.00138484575905 0.00148014668472 0.00151674274099 0.00152565601132 0.00151005225172 0.00144939684151 0.00122599738281);
    }
    procBoundary8to6
    {
        type            processor;
        value           nonuniform List<scalar> 
16
(
0.00171223505475
0.00221241157075
0.00248375673641
0.00235094543001
0.00228307260848
0.00224505192592
0.00222356455772
0.00221497900531
0.00222140185786
0.00223768060226
0.00225090587073
0.00225795149917
0.00226321916146
0.00226576638774
0.00225570849315
0.00222781805269
)
;
    }
    procBoundary8to7
    {
        type            processor;
        value           nonuniform List<scalar> 
17
(
0.00117861970862
0.00146646348678
0.00156496673461
0.00160479562926
0.00162247583943
0.00163218489887
0.00163946849993
0.00164648782117
0.00164648782117
0.00165721550489
0.0016661349197
0.00167910993595
0.00167910993595
0.00170294931949
0.00175467203571
0.00175467203571
0.00186559490338
)
;
    }
}


// ************************************************************************* //
