/*--------------------------------*- C++ -*----------------------------------*\
| =========                 |                                                 |
| \\      /  F ield         | OpenFOAM: The Open Source CFD Toolbox           |
|  \\    /   O peration     | Version:  v2012                                 |
|   \\  /    A nd           | Website:  www.openfoam.com                      |
|    \\/     M anipulation  |                                                 |
\*---------------------------------------------------------------------------*/
FoamFile
{
    version     2.0;
    format      ascii;
    class       surfaceVectorField;
    location    "5.6";
    object      Uf_0;
}
// * * * * * * * * * * * * * * * * * * * * * * * * * * * * * * * * * * * * * //

dimensions      [0 1 -1 0 0 0 0];


internalField   nonuniform List<vector> 
300
(
(-0.00302331493478 0.0011862443411 9.95726241017e-21)
(-0.00347350032226 0.000630895273462 3.46974923321e-21)
(-0.00326505046324 0.0024907844708 3.85876022705e-20)
(-0.0038428362293 0.00194214437325 1.15235252325e-20)
(-0.00331289553958 0.00389994683742 1.4699546155e-19)
(-0.00406146667082 0.0033400652061 4.55678606782e-20)
(-0.00306235462513 0.00542439611796 5.14060443511e-19)
(-0.00406362019817 0.0049028956549 1.73829890229e-19)
(-0.00230745588271 0.00718273805363 1.59883358792e-18)
(-0.00385821346943 0.00658075894388 6.01982489126e-19)
(-6.93614784789e-05 0.00932446251627 4.07861384849e-18)
(-0.00322385329474 0.00840682420715 1.83916076385e-18)
(0.00467808704045 0.0127234796121 8.44691916082e-18)
(-0.00102100814014 0.0105579436082 4.48600304575e-18)
(0.00374040389688 0.0191203379916 1.4469386773e-17)
(0.00241029664449 0.015499146464 8.58775282647e-18)
(-0.00359565942503 0.0235710469234 1.86774427444e-17)
(-0.00445413041283 0.0212788915997 1.29108822906e-17)
(-0.00637356785665 0.0331806954869 1.67375123067e-17)
(-0.00961272513956 0.0258728431821 1.38495639029e-17)
(-0.00188740097693 0.0419402115295 1.43392714413e-17)
(-0.00876170426383 0.0332349557315 1.05869634304e-17)
(-0.00346859130026 0.0446296501551 1.23472611653e-17)
(-0.00269046876303 0.0387975218561 1.15111887004e-17)
(-0.0138368722913 0.0408521065057 7.75533572345e-18)
(-0.00643126059471 0.0402553874098 8.35550777109e-18)
(-0.0149629613783 0.0391710774349 5.43573341239e-18)
(-0.00431742870087 0.00131782527199 5.03601205557e-21)
(-0.00479087868471 0.000692210455599 2.1925494725e-21)
(-0.00465823510985 0.00275172528461 1.85037836402e-20)
(-0.00527661437924 0.00209738015711 5.31604778713e-21)
(-0.00479501342567 0.00431790119265 7.24022893575e-20)
(-0.00562798742163 0.00360721229462 2.03770892398e-20)
(-0.00468884322947 0.00597625745286 2.61751935844e-19)
(-0.00572295944266 0.0053062916488 7.9843783129e-20)
(-0.00436151647703 0.00764793269875 8.42309665054e-19)
(-0.00553162837458 0.00712544222647 2.83418306329e-19)
(-0.00373152587661 0.00949451030654 2.24654996112e-18)
(-0.00507302016601 0.00908354969575 8.8453360357e-19)
(-0.00285770322568 0.0127420720376 4.62683671141e-18)
(-0.00427186628496 0.0114090255573 2.2270201846e-18)
(-0.00496909103564 0.0188133319291 7.02924834401e-18)
(-0.00366462121737 0.015881962295 4.19058535629e-18)
(-0.00975443572057 0.0222914488196 8.08300344905e-18)
(-0.00793581149201 0.0203120894457 5.5518979753e-18)
(-0.0118295126627 0.0253033197297 7.69901502664e-18)
(-0.0126275484901 0.0228957683524 5.75924784596e-18)
(-0.00963224029904 0.0293909195393 7.75888068949e-18)
(-0.0128511821755 0.0253178273723 5.38455401228e-18)
(-0.00640386434587 0.0364291548842 7.51943530621e-18)
(-0.00972908984981 0.0292402373375 6.22896144069e-18)
(-0.00900515988095 0.0385910854715 6.03590546003e-18)
(-0.00859168150127 0.0350108350635 5.4895930504e-18)
(-0.0156320033918 0.0384647169952 4.29663559403e-18)
(-0.00574619066357 0.00139595101222 2.47258520406e-21)
(-0.00618703786193 0.000727166171882 1.69899717292e-21)
(-0.00622796464766 0.00291455427976 7.18935338669e-21)
(-0.00679577428968 0.00218262068772 2.26275745552e-21)
(-0.00652427377136 0.004572621209 2.78185830113e-20)
(-0.00728708981642 0.00375129524952 7.41970384632e-21)
(-0.00656784930459 0.00639324067377 1.01510153614e-19)
(-0.00754523885534 0.00554201647258 2.90668717556e-20)
(-0.00636782668962 0.00842678687358 3.25642244844e-19)
(-0.00756753712924 0.00752122974645 1.03756701171e-19)
(-0.00598025679555 0.0108143599682 8.65003827048e-19)
(-0.00746367067562 0.00976196923071 3.21398781849e-19)
(-0.00573326308652 0.0139262417802 1.79076882948e-18)
(-0.00738735264642 0.0123893051473 8.06667880114e-19)
(-0.00744158512508 0.0180739271953 2.71323498759e-18)
(-0.00781606288822 0.0159089559114 1.53298116828e-18)
(-0.0111609739918 0.0208049389235 3.22814237221e-18)
(-0.0106702354462 0.0192555883797 2.03713897215e-18)
(-0.0134277800826 0.0223900988121 3.44478683161e-18)
(-0.0142152783995 0.0212825039111 2.22966916435e-18)
(-0.01256503595 0.0247926837454 3.85463476349e-18)
(-0.0152550961177 0.0228468888116 2.38298877372e-18)
(-0.0112712961061 0.0291857049519 4.19911918488e-18)
(-0.0141216532745 0.025340967816 2.91428364835e-18)
(-0.0143074688243 0.0344881753712 3.75032318439e-18)
(-0.0138914565692 0.0306798664342 2.95035484448e-18)
(-0.0194872458966 0.0360170958421 2.31138283038e-18)
(-0.00722715353223 0.00142981433409 1.48916942438e-21)
(-0.0076175443917 0.000734490310263 1.45402090278e-21)
(-0.00784516824647 0.00298630526031 2.49310791516e-21)
(-0.00835330506936 0.00220200054041 1.0720740671e-21)
(-0.00830098552801 0.00469059313554 8.66799259063e-21)
(-0.00899289310391 0.00378123571197 2.31958595757e-21)
(-0.00853990534817 0.00658635110609 3.13134193123e-20)
(-0.00944310940536 0.00558635084943 8.73196928224e-21)
(-0.00862543288942 0.00872007645366 9.95132381756e-20)
(-0.00970400970769 0.00758148799909 3.0802826253e-20)
(-0.00873830715056 0.0111715369031 2.63062834915e-19)
(-0.00991844988743 0.00982227551743 9.42096220623e-20)
(-0.00918727502619 0.0140641421745 5.48880218909e-19)
(-0.0102836126187 0.0123757163552 2.35368185137e-19)
(-0.0107331584201 0.0173645913111 8.56885152838e-19)
(-0.0111201124199 0.0153497728888 4.51880341152e-19)
(-0.0134085127784 0.0198779482721 1.03866576429e-18)
(-0.0131866556086 0.0182064508893 6.24881832024e-19)
(-0.0156085769664 0.0214328334333 1.16787110646e-18)
(-0.0157722332998 0.0202487120488 6.88194828831e-19)
(-0.016312761008 0.0234965889948 1.44263765858e-18)
(-0.0173195916203 0.021961925776 7.91135406856e-19)
(-0.0165418581797 0.0272543283156 1.66551930795e-18)
(-0.0178781860737 0.0244024534939 1.03142577659e-18)
(-0.019184990592 0.0322859770968 1.51141449046e-18)
(-0.0189195547039 0.0287466029116 1.07527068684e-18)
(-0.0233464892474 0.0334410280394 8.4713699642e-19)
(-0.00872011849623 0.00141759873482 1.03692554549e-21)
(-0.00903611085461 0.000718695907169 1.29124467956e-21)
(-0.0094755728577 0.00295949868674 8.98552109509e-22)
(-0.00989649127475 0.0021564284672 6.78032086536e-22)
(-0.0100996839669 0.004647201218 2.38356264918e-21)
(-0.0106823285933 0.00369573526272 7.14955964586e-22)
(-0.0105524542525 0.00650681990867 8.22137622293e-21)
(-0.0113050080814 0.00544255762408 2.33496381787e-21)
(-0.0109117024611 0.00858097673757 2.54992101397e-20)
(-0.0117810002491 0.00735072742305 7.85181275264e-21)
(-0.0113463016895 0.0109078004386 6.65149722843e-20)
(-0.0122485512987 0.00945711665502 2.33718128863e-20)
(-0.0120727321836 0.0135150931943 1.38368307379e-19)
(-0.0128943694754 0.0117896163013 5.76207647059e-20)
(-0.0134432146111 0.016307608923 2.19877020338e-19)
(-0.0139158953635 0.0143444980656 1.10591816803e-19)
(-0.015474773166 0.0187355901424 2.74410896566e-19)
(-0.0156172610192 0.0168506960224 1.57000513858e-19)
(-0.0174432368803 0.020681038953 3.11459129224e-19)
(-0.0177192617853 0.0189761195909 1.77695976321e-19)
(-0.0188771409522 0.0228991124845 3.79923524865e-19)
(-0.0195379265751 0.0209416735868 2.0166927741e-19)
(-0.0202972738452 0.0260385746719 4.41177155479e-19)
(-0.0210159724332 0.0233987039542 2.56665731173e-19)
(-0.0231268020078 0.0300805230378 4.10993192797e-19)
(-0.022957601487 0.0268771040461 2.71724012202e-19)
(-0.0266602337737 0.0305806550541 2.21326463406e-19)
(-0.0101802110449 0.00136578899853 9.32351220607e-22)
(-0.0104029399672 0.000687889982934 1.27406122687e-21)
(-0.0110648916002 0.00285317137461 4.94435941613e-22)
(-0.0113851863499 0.00205813663696 5.732788382e-22)
(-0.0118398930417 0.00446767449557 6.66357133276e-22)
(-0.0122985465648 0.00351771287808 3.081425612e-22)
(-0.0124687765726 0.00622878905132 1.96540034759e-21)
(-0.0130683235752 0.00516057493655 6.53590457677e-22)
(-0.0130319528585 0.00815175798677 5.72441549926e-21)
(-0.0137066439969 0.00692707600498 1.87570017886e-21)
(-0.0136880179459 0.0102625326131 1.44776053079e-20)
(-0.0143623460733 0.00883516456153 5.10528430101e-21)
(-0.0145977524798 0.0125481060779 2.98442741298e-20)
(-0.0151830534685 0.0108959489667 1.22664578949e-20)
(-0.0159355158099 0.0149368590253 4.7715310323e-20)
(-0.0163074929685 0.0130877744729 2.33546846543e-20)
(-0.0177204913305 0.0171904285535 6.02855936122e-20)
(-0.0178730125433 0.0152791594546 3.34640398474e-20)
(-0.0196609352199 0.0192539373983 6.79061245065e-20)
(-0.0197839484397 0.0173223011504 3.83027172938e-20)
(-0.0215423486641 0.0214756022498 7.84114837186e-20)
(-0.021759549632 0.019330066842 4.22448683451e-20)
(-0.0236182009545 0.0242353655115 8.72125878963e-20)
(-0.0237739119154 0.0216440446105 4.9926179769e-20)
(-0.0264917212529 0.0275153739664 8.20572828105e-20)
(-0.0262338301099 0.0244854839635 5.13376702739e-20)
(-0.0295118848127 0.0274443036464 4.13017865494e-20)
(-0.0115686158218 0.00128932493095 9.14988844463e-22)
(-0.0116932116083 0.000648248475092 1.13028833849e-21)
(-0.0125709231156 0.00268743340104 3.86985457787e-22)
(-0.0127844634825 0.00192460674736 4.25959220906e-22)
(-0.0134723771438 0.00419350383407 2.95375885601e-22)
(-0.0138061396813 0.0032767164254 1.50532857084e-22)
(-0.0142391555523 0.00581491025295 5.63890288948e-22)
(-0.0146916786652 0.00478537320535 2.64071968189e-22)
(-0.0149498735712 0.00755734644988 1.25656898061e-21)
(-0.0154514339546 0.00638323026504 5.39840232261e-22)
(-0.0157523831396 0.00942133223803 2.89413688797e-21)
(-0.0162289628355 0.00807437974849 1.10358992243e-21)
(-0.0167772542171 0.011401268047 5.77686841935e-21)
(-0.0171656623408 0.00986200509844 2.46353710031e-21)
(-0.0181291417963 0.0134472004639 9.10341417862e-21)
(-0.0183558241468 0.011731602049 4.49601727235e-21)
(-0.0198355229241 0.0154633695077 1.14811635289e-20)
(-0.0198909636278 0.0136216998184 6.40518032888e-21)
(-0.0217896073133 0.0174323891064 1.26414611324e-20)
(-0.0217538494014 0.0154654839706 7.34364405285e-21)
(-0.0239208879466 0.0194902997636 1.37595643955e-20)
(-0.0238172749873 0.0173192596723 7.657416552e-21)
(-0.0263651636344 0.0218613494452 1.40512621466e-20)
(-0.0261432374607 0.0193485564297 8.20666994563e-21)
(-0.0292715666303 0.0245065021954 1.05821740128e-20)
(-0.0288756272203 0.02161609885 6.75230647689e-21)
(-0.0319199168111 0.0239382848693 -4.0329526283e-23)
(-0.012862538229 0.00119756910706 6.41258714932e-22)
(-0.0128915213148 0.000601576751061 6.17991130203e-22)
(-0.013966008373 0.00248402592963 1.89506620203e-22)
(-0.0140718343114 0.00176672570566 1.17095601017e-22)
(-0.0149678205275 0.00385999009258 1.19228939672e-22)
(-0.0151833252472 0.00299247573064 -4.28578306808e-23)
(-0.0158364219887 0.00532201953728 2.40021911502e-22)
(-0.0161553015809 0.00434643291493 9.46135735831e-23)
(-0.0166487426738 0.00686561515957 3.86861174077e-22)
(-0.0169969728737 0.00575983855207 2.4151261143e-22)
(-0.0175447288752 0.00848604740388 6.72990134769e-22)
(-0.0178515723434 0.00723078174334 3.55749577864e-22)
(-0.0186418165319 0.0101724609721 1.18268595331e-21)
(-0.0188542810428 0.00875530589304 5.93800734998e-22)
(-0.020022916013 0.0119086510142 1.79778342261e-21)
(-0.0200939761613 0.0103230500919 9.43760719698e-22)
(-0.0217211257139 0.0136462965046 2.2676608528e-21)
(-0.0216300392731 0.0119024732253 1.31823998323e-21)
(-0.0237101121025 0.015367606243 2.35959947241e-21)
(-0.023475825841 0.0134562590315 1.48228589996e-21)
(-0.0259844209173 0.0171589833714 2.10452210213e-21)
(-0.025608427199 0.0150084053434 1.31663157304e-21)
(-0.0285982513985 0.0190844766052 9.07714275964e-22)
(-0.0280672346596 0.0166326665595 8.43483742414e-22)
(-0.0314920625675 0.0210645450106 -3.87019706216e-21)
(-0.0308528680653 0.0183290721793 -1.46216773293e-21)
(-0.0338169777728 0.0200520998625 -9.85159255409e-21)
(-0.0140481073151 0.00109016420396 9.38280162881e-23)
(-0.0139820607565 0.000548047684576 4.83377699787e-23)
(-0.0152317145474 0.00225142867045 -1.15268849867e-22)
(-0.0152336393686 0.00158879169262 -1.80528403002e-22)
(-0.0163087260912 0.00347827527648 -6.747319677e-23)
(-0.0164110015559 0.00267431274029 -2.00185332014e-22)
(-0.0172469442156 0.00476559955817 9.6104273511e-23)
(-0.0174438101778 0.00386101199568 -7.34274018624e-24)
(-0.018122165436 0.00610337534987 2.10401015217e-22)
(-0.0183362765288 0.00508163613416 1.58304221352e-22)
(-0.0190723925974 0.00748347291156 2.76560178093e-22)
(-0.0192334421289 0.00633224155294 2.1911219316e-22)
(-0.0202083905566 0.00889293338235 3.54875501385e-22)
(-0.0202655780831 0.00760433998654 2.49296527014e-22)
(-0.0216019433252 0.0103178397441 4.64217280316e-22)
(-0.0215205413804 0.00888337759353 2.99954213828e-22)
(-0.0232863507729 0.0117253451075 5.32865030391e-22)
(-0.0230386929798 0.0101452335422 3.74704360441e-22)
(-0.0252771859899 0.0130933486057 4.39318000586e-22)
(-0.0248443413821 0.0113632290744 3.47337889361e-22)
(-0.027600096452 0.0144610603575 5.55932133251e-23)
(-0.0269759302471 0.0125351664146 1.73900961351e-22)
(-0.0302507681984 0.0158721239581 -1.52639826649e-21)
(-0.029477063722 0.0136787419718 -4.04884652615e-22)
(-0.0331227268271 0.0172941231154 -7.44356322487e-21)
(-0.0322725398197 0.0147999376445 -3.00838981237e-21)
(-0.0352540108616 0.015951095533 -1.2387097881e-20)
(-0.0151113982975 0.000970724587571 -2.26018649312e-22)
(-0.0149527523669 0.00048934401285 -2.03468947129e-22)
(-0.0163536919482 0.00199378146542 -2.65444885149e-22)
(-0.0162568400192 0.00139449133786 -3.16166977834e-22)
(-0.0174824508611 0.0030614674413 -1.4005487543e-22)
(-0.0174791431574 0.00233152356672 -2.32145307075e-22)
(-0.0184636847056 0.00416669315948 5.4857207655e-23)
(-0.0185498775694 0.00334605850192 -9.63733993345e-24)
(-0.0193714747925 0.00529817735847 1.67015399295e-22)
(-0.0194689836484 0.00437408344358 1.43449583289e-22)
(-0.0203430040375 0.00644472959445 1.91848542081e-22)
(-0.0203815058826 0.00541109753832 1.82678547672e-22)
(-0.0214835397227 0.00759222232825 1.94375239456e-22)
(-0.0214146946261 0.00644614715894 1.72689105011e-22)
(-0.0228554549332 0.00871577594014 2.10441293953e-22)
(-0.0226455167611 0.00745929034644 1.74421502519e-22)
(-0.0244951520404 0.00979392739208 1.89177219411e-22)
(-0.0241178884842 0.00842623048094 1.79291269324e-22)
(-0.0264396633475 0.0108021479875 8.19208501262e-23)
(-0.0258530772507 0.00932316981182 1.25562989704e-22)
(-0.0287264125591 0.0117434429688 -2.86576904589e-22)
(-0.0279171395751 0.0101224962 -6.21869899143e-23)
(-0.0313551937998 0.0125948662979 -1.8868761985e-21)
(-0.0303275188188 0.0107994383658 -6.69136424752e-22)
(-0.0342558218642 0.0134435067858 -7.95192446853e-21)
(-0.0331192931617 0.0113592000266 -3.25957587269e-21)
(-0.0361892880041 0.0118990500716 -1.2035695507e-20)
(-0.0160408825967 0.000841285022366 -2.93617275651e-22)
(-0.0173225558317 0.00171975796866 -2.82867399761e-22)
(-0.0184831766689 0.00262495246384 -1.01727771579e-22)
(-0.0194871500656 0.00354937231021 7.89550357002e-23)
(-0.0204061786201 0.00448200053103 1.59112731665e-22)
(-0.0213749085898 0.00541102256063 1.63519110602e-22)
(-0.0224920139084 0.00631929334151 1.52735368074e-22)
(-0.0238127460597 0.0071826758728 1.43271477891e-22)
(-0.0253739197648 0.00796754468949 1.15677039618e-22)
(-0.024903853863 0.00681515077222 1.11663047574e-22)
(-0.0272186608477 0.00865924542432 -1.85448503364e-23)
(-0.0265453851921 0.00743677522083 7.41004854494e-23)
(-0.0293937936176 0.00918990800189 -4.44746510077e-22)
(-0.0284478612938 0.00791602645015 -9.62771793593e-23)
(-0.031943665978 0.00956577143864 -2.04183609895e-21)
(-0.0307027244065 0.00819479090206 -6.95302212858e-22)
(-0.0348688620225 0.00981971055584 -7.34334691119e-21)
(-0.0333717861597 0.00823747425227 -3.00596516697e-21)
(-0.0364788211444 0.0081183234062 -1.00831333866e-20)
(-0.025983695049 0.00630542929609 7.00864934053e-23)
(-0.0276757723703 0.00672664136655 -3.63184357347e-24)
(-0.0296510836656 0.00695032079472 -3.4683288214e-22)
(-0.0319977396528 0.0068998072309 -1.65943128088e-21)
(-0.0306518564341 0.0059323248781 -5.83094273552e-22)
(-0.03481303199 0.00657560683101 -5.74575164234e-21)
(-0.0330465185794 0.00557856206867 -2.32734517295e-21)
(-0.0360469618305 0.00491687278818 -7.23845019275e-21)
(-0.0316100571363 0.00467314934605 -1.25100816562e-21)
(-0.0341618005846 0.00398431224766 -3.82004372336e-21)
(-0.0351178898453 0.00257509001842 -5.02915148759e-21)
)
;

boundaryField
{
    back
    {
        type            calculated;
        value           uniform (0 0 0);
    }
    sides
    {
        type            calculated;
        value           nonuniform List<vector> 0();
    }
    bottom
    {
        type            calculated;
        value           uniform (0 0 0);
    }
    front
    {
        type            calculated;
        value           uniform (0 0 0);
    }
    atmosphere
    {
        type            calculated;
        value           nonuniform List<vector> 0();
    }
    floatingObject
    {
        type            calculated;
        value           nonuniform List<vector> 4((0 -2.22044604925e-15 2.77555756156e-16) (0 -2.22044604925e-15 2.77555756156e-16) (0 0 0) (0 -4.4408920985e-15 2.77555756156e-16));
    }
    procBoundary8to3
    {
        type            processor;
        value           nonuniform List<vector> 8((-0.00228938656404 0.000568004055593 5.7533639448e-21) (-0.00254004552207 0.00177887776596 2.09548353714e-20) (-0.00265339176364 0.00304506746165 8.15135729599e-20) (-0.0025392659082 0.00439137540529 2.95099188126e-19) (-0.00209874994499 0.00577027315849 9.63665340532e-19) (-0.00107956617522 0.00696561274184 2.80803811548e-18) (0.00238180579432 0.00821357989761 6.4060674247e-18) (0.00881173306767 0.00949517586203 1.18505528922e-17));
    }
    procBoundary8to6
    {
        type            processor;
        value           nonuniform List<vector> 
16
(
(-0.010209241204 0.0232743269394 7.38290561418e-18)
(-0.019211234664 0.0262123167751 4.71876922655e-18)
(-0.0229174095356 0.0366053912431 4.32053918152e-18)
(-0.0193093001191 0.0392628562575 4.13298785959e-18)
(-0.0226564087713 0.0383474145202 2.55799119887e-18)
(-0.0255108222834 0.0361500148343 1.01529536541e-18)
(-0.0280121027766 0.0333992644427 2.76432639809e-19)
(-0.030292130141 0.0303717181321 5.13298439422e-20)
(-0.0324168933571 0.0269186325444 -3.43331209875e-21)
(-0.0343492321681 0.0229650419865 -1.9874405385e-20)
(-0.0359828138608 0.0187339943516 -2.68139028891e-20)
(-0.0372909912928 0.0143810954114 -2.54238186916e-20)
(-0.0381055754023 0.0101110603811 -2.22578986358e-20)
(-0.0381858441401 0.00614508995449 -1.57619752751e-20)
(-0.0375808623065 0.00305612525615 -1.05767193278e-20)
(-0.0366250502539 0.00107697562846 -6.47011624388e-21)
)
;
    }
    procBoundary8to7
    {
        type            processor;
        value           nonuniform List<vector> 
17
(
(-0.0157937260222 0.00042780854398 -2.32409240905e-22)
(-0.0171351774562 0.00119104198066 -2.71957049095e-22)
(-0.0183845089804 0.00197775177398 -1.65178134215e-22)
(-0.019474851371 0.00282227046588 2.24599196781e-23)
(-0.0204025485609 0.00366455702395 1.35817233545e-22)
(-0.0213117640664 0.00450076335745 1.58965797316e-22)
(-0.0223244160918 0.00531956135754 1.41994144056e-22)
(-0.0235102628963 0.00609980770387 1.29328913865e-22)
(-0.0245230321879 0.00574891618445 9.77204835474e-23)
(-0.025462071021 0.00532390991558 7.15848937388e-23)
(-0.0269672639124 0.00571421969533 3.53516391138e-23)
(-0.0286718095562 0.00594538867866 -8.32619808423e-23)
(-0.0295956732859 0.00497646280539 -3.19523372254e-22)
(-0.0303486409328 0.00398620813607 -5.30636021028e-22)
(-0.0323570027726 0.00345866933795 -1.81879367986e-21)
(-0.0332482033599 0.00211095173971 -3.02790144409e-21)
(-0.0340831225846 0.00106889409314 -3.87867435723e-21)
)
;
    }
}


// ************************************************************************* //
