/*--------------------------------*- C++ -*----------------------------------*\
| =========                 |                                                 |
| \\      /  F ield         | OpenFOAM: The Open Source CFD Toolbox           |
|  \\    /   O peration     | Version:  v2012                                 |
|   \\  /    A nd           | Website:  www.openfoam.com                      |
|    \\/     M anipulation  |                                                 |
\*---------------------------------------------------------------------------*/
FoamFile
{
    version     2.0;
    format      ascii;
    class       volScalarField;
    location    "2";
    object      ddt0(epsilon);
}
// * * * * * * * * * * * * * * * * * * * * * * * * * * * * * * * * * * * * * //

dimensions      [0 2 -4 0 0 0 0];


internalField   nonuniform List<scalar> 
164
(
-0.00724446309721
-0.00630566904427
-0.00698546484485
-0.00698264142379
-0.00343469814056
0.0099829043623
-0.0341387187479
-0.00355482936169
-0.0063331673031
-0.00603473237462
-0.0065569204324
-0.00682234389638
-0.0047071743372
0.0126186315623
0.0675632202599
0.0457590402181
-0.00633318710664
-0.006034881642
-0.00655727134076
-0.00682273436125
-0.00470743959829
0.0126186730279
0.0675676985783
0.0457186181742
-0.00724477897257
-0.00630619998104
-0.00698641769196
-0.00698382019502
-0.00343702953767
0.00997545224623
-0.0341756609865
-0.00367259050921
-0.00734416369757
-0.00676955773099
-0.000204755080243
-0.00597092758194
-0.076446582969
-0.00816600625278
-0.007800025372
-0.00751247116938
0.000409904242497
0.0816277602292
0.0804998196358
0.0807747676386
-0.00783980536472
-0.00772590363094
-0.00475195163569
0.0198457752342
0.07852639059
0.00664971079836
-0.0077134423725
-0.00711087150445
-0.000130673706885
0.0363806374151
0.0345895101973
-0.0180698344841
-0.00752473701994
-0.00629707772184
0.00127757028487
0.0201315449329
0.00491705363923
-0.0386697384892
-0.0072814387353
-0.00541019960658
0.00375659313947
0.0219279361237
-0.0390038892857
-0.0928058394832
-0.00690435055664
-0.00379538347137
0.0106837058503
0.043276982544
-0.113678645768
-0.213795852741
-0.00596665651646
0.000833869901528
0.0251901912246
0.0592392149754
-0.0632461092327
-0.104935178629
-0.00311567464141
0.0188721782114
0.0937307502658
0.223324752074
0.425142044939
0.00238365286185
-0.00563767759509
0.00272583964358
0.038069537716
0.1137532873
0.0728536856755
-0.115011080701
-0.00572557088059
0.000576004843045
0.028246252395
0.0991981820484
-0.109421057937
-0.219195707279
-0.00489874082855
0.00033093615024
0.00900045762947
0.0234261655833
-0.067793092998
-0.168881019706
-0.00400021587688
-0.00343572926553
-0.0263065596646
-0.0799239198249
-0.0156735469896
0.351822951121
-0.00469861769286
0.00206057227054
0.012210631066
-0.00144328753008
-0.0286636157528
-0.508095856165
-0.00578182010548
-0.00116039034609
0.0109988308695
0.0200699725624
-0.0906955430263
-0.698653098058
-0.00642850473204
-0.00388393521634
0.00602471736516
0.0333559734887
0.0325097074667
0.0320668493408
-0.00682413434388
-0.00583175647408
-0.000743520539957
0.0193451034475
0.0794338556591
0.0587215044942
-0.00704022901062
-0.0069134798117
-0.00575299203686
0.00238869994762
0.0375396376777
0.0363863703331
-0.0071960057504
-0.00757786070157
-0.00892181015448
-0.0112788128307
-0.00857430490311
-0.00909978461423
-0.00733604130348
-0.00805894697041
-0.0109632130492
-0.0232997806024
-0.0660280523497
-0.274138655685
-0.0125374691254
-0.0301273309238
-0.0843204912328
-0.225945136756
-0.013963867258
-0.0346428192251
-0.0843903435578
-0.211332553338
-0.0148341036253
-0.0365612222531
-0.0921403496965
-0.0667651972279
)
;

boundaryField
{
    back
    {
        type            calculated;
        value           nonuniform List<scalar> 
164
(
-0.00724446309721
-0.00630566904427
-0.00698546484485
-0.00698264142379
-0.00343469814056
0.0099829043623
-0.0341387187479
-0.00355482936169
-0.0063331673031
-0.00603473237462
-0.0065569204324
-0.00682234389638
-0.0047071743372
0.0126186315623
0.0675632202599
0.0457590402181
-0.00633318710664
-0.006034881642
-0.00655727134076
-0.00682273436125
-0.00470743959829
0.0126186730279
0.0675676985783
0.0457186181742
-0.00724477897257
-0.00630619998104
-0.00698641769196
-0.00698382019502
-0.00343702953767
0.00997545224623
-0.0341756609865
-0.00367259050921
-0.00734416369757
-0.00676955773099
-0.000204755080243
-0.00597092758194
-0.076446582969
-0.00816600625278
-0.007800025372
-0.00751247116938
0.000409904242497
0.0816277602292
0.0804998196358
0.0807747676386
-0.00783980536472
-0.00772590363094
-0.00475195163569
0.0198457752342
0.07852639059
0.00664971079836
-0.0077134423725
-0.00711087150445
-0.000130673706885
0.0363806374151
0.0345895101973
-0.0180698344841
-0.00752473701994
-0.00629707772184
0.00127757028487
0.0201315449329
0.00491705363923
-0.0386697384892
-0.0072814387353
-0.00541019960658
0.00375659313947
0.0219279361237
-0.0390038892857
-0.0928058394832
-0.00690435055664
-0.00379538347137
0.0106837058503
0.043276982544
-0.113678645768
-0.213795852741
-0.00596665651646
0.000833869901528
0.0251901912246
0.0592392149754
-0.0632461092327
-0.104935178629
-0.00311567464141
0.0188721782114
0.0937307502658
0.223324752074
0.425142044939
0.00238365286184
-0.00563767759509
0.00272583964358
0.038069537716
0.1137532873
0.0728536856755
-0.115011080701
-0.00572557088059
0.000576004843045
0.028246252395
0.0991981820484
-0.109421057937
-0.219195707279
-0.00489874082855
0.00033093615024
0.00900045762947
0.0234261655833
-0.067793092998
-0.168881019706
-0.00400021587688
-0.00343572926553
-0.0263065596646
-0.0799239198249
-0.0156735469896
0.351822951121
-0.00469861769286
0.00206057227054
0.012210631066
-0.00144328753008
-0.0286636157528
-0.508095856165
-0.00578182010548
-0.00116039034609
0.0109988308695
0.0200699725624
-0.0906955430263
-0.698653098058
-0.00642850473204
-0.00388393521634
0.00602471736516
0.0333559734887
0.0325097074667
0.0320668493408
-0.00682413434388
-0.00583175647408
-0.000743520539957
0.0193451034475
0.0794338556591
0.0587215044942
-0.00704022901062
-0.0069134798117
-0.00575299203686
0.00238869994762
0.0375396376777
0.0363863703331
-0.0071960057504
-0.00757786070157
-0.00892181015448
-0.0112788128307
-0.00857430490311
-0.00909978461423
-0.00733604130348
-0.00805894697041
-0.0109632130492
-0.0232997806024
-0.0660280523497
-0.274138655685
-0.0125374691254
-0.0301273309238
-0.0843204912328
-0.225945136756
-0.013963867258
-0.0346428192251
-0.0843903435578
-0.211332553338
-0.0148341036253
-0.0365612222531
-0.0921403496965
-0.0667651972279
)
;
    }
    sides
    {
        type            calculated;
        value           nonuniform List<scalar> 0();
    }
    bottom
    {
        type            calculated;
        value           nonuniform List<scalar> 0();
    }
    front
    {
        type            calculated;
        value           nonuniform List<scalar> 
164
(
-0.00724446309721
-0.00630566904427
-0.00698546484485
-0.00698264142379
-0.00343469814056
0.0099829043623
-0.0341387187479
-0.00355482936169
-0.0063331673031
-0.00603473237462
-0.0065569204324
-0.00682234389638
-0.0047071743372
0.0126186315623
0.0675632202599
0.0457590402181
-0.00633318710664
-0.006034881642
-0.00655727134076
-0.00682273436125
-0.00470743959829
0.0126186730279
0.0675676985783
0.0457186181742
-0.00724477897257
-0.00630619998104
-0.00698641769196
-0.00698382019502
-0.00343702953767
0.00997545224623
-0.0341756609865
-0.00367259050921
-0.00734416369757
-0.00676955773099
-0.000204755080243
-0.00597092758194
-0.076446582969
-0.00816600625278
-0.007800025372
-0.00751247116938
0.000409904242497
0.0816277602292
0.0804998196358
0.0807747676386
-0.00783980536472
-0.00772590363094
-0.00475195163569
0.0198457752342
0.07852639059
0.00664971079836
-0.0077134423725
-0.00711087150445
-0.000130673706885
0.0363806374151
0.0345895101973
-0.0180698344841
-0.00752473701994
-0.00629707772184
0.00127757028487
0.0201315449329
0.00491705363923
-0.0386697384892
-0.0072814387353
-0.00541019960658
0.00375659313947
0.0219279361237
-0.0390038892857
-0.0928058394832
-0.00690435055664
-0.00379538347137
0.0106837058503
0.043276982544
-0.113678645768
-0.213795852741
-0.00596665651646
0.000833869901528
0.0251901912246
0.0592392149754
-0.0632461092327
-0.104935178629
-0.00311567464141
0.0188721782114
0.0937307502658
0.223324752074
0.425142044939
0.00238365286184
-0.00563767759509
0.00272583964358
0.038069537716
0.1137532873
0.0728536856755
-0.115011080701
-0.00572557088059
0.000576004843045
0.028246252395
0.0991981820484
-0.109421057937
-0.219195707279
-0.00489874082855
0.00033093615024
0.00900045762947
0.0234261655833
-0.067793092998
-0.168881019706
-0.00400021587688
-0.00343572926553
-0.0263065596646
-0.0799239198249
-0.0156735469896
0.351822951121
-0.00469861769286
0.00206057227054
0.012210631066
-0.00144328753008
-0.0286636157528
-0.508095856165
-0.00578182010548
-0.00116039034609
0.0109988308695
0.0200699725624
-0.0906955430263
-0.698653098058
-0.00642850473204
-0.00388393521634
0.00602471736516
0.0333559734887
0.0325097074667
0.0320668493408
-0.00682413434388
-0.00583175647408
-0.000743520539957
0.0193451034475
0.0794338556591
0.0587215044942
-0.00704022901062
-0.0069134798117
-0.00575299203686
0.00238869994762
0.0375396376777
0.0363863703331
-0.0071960057504
-0.00757786070157
-0.00892181015448
-0.0112788128307
-0.00857430490311
-0.00909978461423
-0.00733604130348
-0.00805894697041
-0.0109632130492
-0.0232997806024
-0.0660280523497
-0.274138655685
-0.0125374691254
-0.0301273309238
-0.0843204912328
-0.225945136756
-0.013963867258
-0.0346428192251
-0.0843903435578
-0.211332553338
-0.0148341036253
-0.0365612222531
-0.0921403496965
-0.0667651972279
)
;
    }
    atmosphere
    {
        type            calculated;
        value           nonuniform List<scalar> 
27
(
3.24914951344e-28
0.0457590402181
0.0457186181742
3.24915259632e-28
3.301655817e-31
0.0807747676386
3.70168253563e-16
-1.82873933815e-22
3.21106657054e-28
-3.68678820474e-37
0
-1.8814873332
-0.703710891723
2.30730439472
8.61758125295e-32
0.000139116365321
-1.82086962916
-0.724491531237
-4.19128585756
3.5539941946e-26
-2.55235277453e-23
-1.06733513763e-18
-4.06989300727e-21
-0.287657043501
-0.225507931661
-0.21155860594
-2.45532694357e-16
)
;
    }
    floatingObject
    {
        type            calculated;
        value           nonuniform List<scalar> 4(-0.00724446309721 -0.0063331673031 -0.00633318710664 -0.00724477897257);
    }
    procBoundary6to3
    {
        type            processor;
        value           nonuniform List<scalar> 8(-0.00686544118171 -0.00714886106999 -0.00734354246613 -0.00676829370858 -0.000200260610262 -0.00595058323994 -0.0764101072618 -0.00808218592934);
    }
    procBoundary6to7
    {
        type            processor;
        value           nonuniform List<scalar> 
11
(
-0.00689960176524
-0.00699055485979
-0.0070453298997
-0.00707832819763
-0.00710725130236
-0.00713798077722
-0.00746730706311
-0.00846278648929
-0.00846278648929
-0.00889913475347
-0.00926772608606
)
;
    }
    procBoundary6to8
    {
        type            processor;
        value           nonuniform List<scalar> 
16
(
-0.00686542794552
-0.00714914274358
-0.00714914274358
-0.00768497432547
-0.00775493421907
-0.00768141273918
-0.00759376271674
-0.00749853025075
-0.00738195468515
-0.00719406375566
-0.00682702787374
-0.00705016751799
-0.0069986150196
-0.0067548940025
-0.00635329159014
-0.00671300351811
)
;
    }
    procBoundary6to9
    {
        type            processor;
        value           nonuniform List<scalar> 4(-0.0150208036513 -0.0369424057906 -0.0916177290247 -0.0608036340119);
    }
}


// ************************************************************************* //
