/*--------------------------------*- C++ -*----------------------------------*\
| =========                 |                                                 |
| \\      /  F ield         | OpenFOAM: The Open Source CFD Toolbox           |
|  \\    /   O peration     | Version:  v2012                                 |
|   \\  /    A nd           | Website:  www.openfoam.com                      |
|    \\/     M anipulation  |                                                 |
\*---------------------------------------------------------------------------*/
FoamFile
{
    version     2.0;
    format      ascii;
    class       volScalarField;
    location    "2";
    object      p_rgh;
}
// * * * * * * * * * * * * * * * * * * * * * * * * * * * * * * * * * * * * * //

dimensions      [1 -1 -2 0 0 0 0];


internalField   nonuniform List<scalar> 
164
(
8821.54161092
8826.81150434
8835.39380679
8849.15701342
8856.36670802
8872.06278864
1246.1573436
-18.0298095681
8828.15364974
8831.26911765
8841.12066344
8858.49344598
8866.73942676
8924.80451812
7032.44157577
698.050260122
8828.15453117
8831.27112096
8841.12837627
8858.50463929
8866.7485398
8924.80558114
7032.70991904
698.171211015
8821.5430213
8826.82037459
8835.41096076
8849.17685957
8856.3705235
8872.06197173
1246.19517123
-18.031503134
8828.07537545
8844.88063861
8856.42859446
8499.17846663
1726.21935711
-11.5323751269
8819.1875309
8838.75589923
8857.95165736
8895.91581064
5502.81635906
234.807813753
8809.97900312
8823.07730537
8832.14995688
8848.04506319
817.053693311
-6.47572623899
8799.54320784
8809.82319737
8817.17402644
8587.54616073
801.96119844
-2.76958514227
8788.47524968
8796.54848258
8802.69615936
8115.04173255
833.379881317
-0.855024966081
8777.48826911
8784.79364775
8791.94555831
8055.68216194
799.86868293
-0.397971008257
8766.11699523
8772.87036827
8781.91089413
8154.306722
750.97015417
-0.207296241917
8753.1353612
8756.28484191
8757.83886199
7561.29407915
710.079170912
-0.0970204603271
8745.23639496
8748.73517106
8747.04529483
6891.66984663
620.705879974
-0.233815957109
8729.72095506
8731.14884526
8732.39668683
7309.13607019
459.94773938
-0.0946289701299
8715.67193551
8716.60422265
8717.10498787
7305.09348957
169.421009566
0.0196916944302
8701.0199818
8699.75824151
8695.93624649
6559.64896783
148.145771835
-0.00283766152969
8687.05065205
8683.11831328
8676.72149418
5636.01587015
277.202537378
-0.0172459336288
8676.7995289
8673.54665454
8668.85534912
6210.91852415
0.34755992291
-0.0482880863808
8667.51720037
8664.39516254
8658.7469352
6051.65739926
-0.0528499769628
-0.0365277159182
8658.92097422
8656.82934368
8653.76243404
6154.76527873
-0.0152782906778
0.0196804984952
8650.38084366
8649.41079649
8649.49336926
6139.8825988
0.208220505514
0.0663871984457
8641.48387432
8641.04012865
8642.21001229
5963.2537306
20.1649472303
0.0270359829924
8631.79347664
8631.03622263
8631.73642788
5728.55446303
14.0141336011
-0.00167170552442
8621.35375328
8619.7259067
8619.34063445
5474.30326413
-0.0742560926258
-0.0303399938274
8603.34734958
5157.25460145
-0.0801222952919
-0.00657362415564
8579.61396968
4831.85894314
0.228144992376
0.00465444053805
8552.9326752
4511.05509865
0.752846598422
0.00178611201226
)
;

boundaryField
{
    back
    {
        type            fixedFluxPressure;
        gradient        uniform 0;
        value           nonuniform List<scalar> 
164
(
8821.54161092
8826.81150434
8835.39380679
8849.15701342
8856.36670802
8872.06278864
1246.1573436
-18.0298095681
8828.15364974
8831.26911765
8841.12066344
8858.49344598
8866.73942676
8924.80451812
7032.44157577
698.050260122
8828.15453117
8831.27112096
8841.12837627
8858.50463929
8866.7485398
8924.80558114
7032.70991904
698.171211015
8821.5430213
8826.82037459
8835.41096076
8849.17685957
8856.3705235
8872.06197173
1246.19517123
-18.031503134
8828.07537545
8844.88063861
8856.42859446
8499.17846663
1726.21935711
-11.5323751269
8819.1875309
8838.75589923
8857.95165736
8895.91581064
5502.81635906
234.807813753
8809.97900312
8823.07730537
8832.14995688
8848.04506319
817.053693311
-6.47572623899
8799.54320784
8809.82319737
8817.17402644
8587.54616073
801.96119844
-2.76958514227
8788.47524968
8796.54848258
8802.69615936
8115.04173255
833.379881317
-0.855024966081
8777.48826911
8784.79364775
8791.94555831
8055.68216194
799.86868293
-0.397971008257
8766.11699523
8772.87036827
8781.91089413
8154.306722
750.97015417
-0.207296241917
8753.1353612
8756.28484191
8757.83886199
7561.29407915
710.079170912
-0.0970204603271
8745.23639496
8748.73517106
8747.04529483
6891.66984663
620.705879974
-0.233815957109
8729.72095506
8731.14884526
8732.39668683
7309.13607019
459.94773938
-0.0946289701299
8715.67193551
8716.60422265
8717.10498787
7305.09348957
169.421009566
0.0196916944302
8701.0199818
8699.75824151
8695.93624649
6559.64896783
148.145771835
-0.00283766152969
8687.05065205
8683.11831328
8676.72149418
5636.01587015
277.202537378
-0.0172459336288
8676.7995289
8673.54665454
8668.85534912
6210.91852415
0.34755992291
-0.0482880863808
8667.51720037
8664.39516254
8658.7469352
6051.65739926
-0.0528499769628
-0.0365277159182
8658.92097422
8656.82934368
8653.76243404
6154.76527873
-0.0152782906778
0.0196804984952
8650.38084366
8649.41079649
8649.49336926
6139.8825988
0.208220505514
0.0663871984457
8641.48387432
8641.04012865
8642.21001229
5963.2537306
20.1649472303
0.0270359829924
8631.79347664
8631.03622263
8631.73642788
5728.55446303
14.0141336011
-0.00167170552442
8621.35375328
8619.7259067
8619.34063445
5474.30326413
-0.0742560926258
-0.0303399938274
8603.34734958
5157.25460145
-0.0801222952919
-0.00657362415564
8579.61396968
4831.85894314
0.228144992376
0.00465444053805
8552.9326752
4511.05509865
0.752846598422
0.00178611201226
)
;
    }
    sides
    {
        type            fixedFluxPressure;
        gradient        nonuniform List<scalar> 0();
        value           nonuniform List<scalar> 0();
    }
    bottom
    {
        type            fixedFluxPressure;
        gradient        nonuniform List<scalar> 0();
        value           nonuniform List<scalar> 0();
    }
    front
    {
        type            fixedFluxPressure;
        gradient        uniform 0;
        value           nonuniform List<scalar> 
164
(
8821.54161092
8826.81150434
8835.39380679
8849.15701342
8856.36670802
8872.06278864
1246.1573436
-18.0298095681
8828.15364974
8831.26911765
8841.12066344
8858.49344598
8866.73942676
8924.80451812
7032.44157577
698.050260122
8828.15453117
8831.27112096
8841.12837627
8858.50463929
8866.7485398
8924.80558114
7032.70991904
698.171211015
8821.5430213
8826.82037459
8835.41096076
8849.17685957
8856.3705235
8872.06197173
1246.19517123
-18.031503134
8828.07537545
8844.88063861
8856.42859446
8499.17846663
1726.21935711
-11.5323751269
8819.1875309
8838.75589923
8857.95165736
8895.91581064
5502.81635906
234.807813753
8809.97900312
8823.07730537
8832.14995688
8848.04506319
817.053693311
-6.47572623899
8799.54320784
8809.82319737
8817.17402644
8587.54616073
801.96119844
-2.76958514227
8788.47524968
8796.54848258
8802.69615936
8115.04173255
833.379881317
-0.855024966081
8777.48826911
8784.79364775
8791.94555831
8055.68216194
799.86868293
-0.397971008257
8766.11699523
8772.87036827
8781.91089413
8154.306722
750.97015417
-0.207296241917
8753.1353612
8756.28484191
8757.83886199
7561.29407915
710.079170912
-0.0970204603271
8745.23639496
8748.73517106
8747.04529483
6891.66984663
620.705879974
-0.233815957109
8729.72095506
8731.14884526
8732.39668683
7309.13607019
459.94773938
-0.0946289701299
8715.67193551
8716.60422265
8717.10498787
7305.09348957
169.421009566
0.0196916944302
8701.0199818
8699.75824151
8695.93624649
6559.64896783
148.145771835
-0.00283766152969
8687.05065205
8683.11831328
8676.72149418
5636.01587015
277.202537378
-0.0172459336288
8676.7995289
8673.54665454
8668.85534912
6210.91852415
0.34755992291
-0.0482880863808
8667.51720037
8664.39516254
8658.7469352
6051.65739926
-0.0528499769628
-0.0365277159182
8658.92097422
8656.82934368
8653.76243404
6154.76527873
-0.0152782906778
0.0196804984952
8650.38084366
8649.41079649
8649.49336926
6139.8825988
0.208220505514
0.0663871984457
8641.48387432
8641.04012865
8642.21001229
5963.2537306
20.1649472303
0.0270359829924
8631.79347664
8631.03622263
8631.73642788
5728.55446303
14.0141336011
-0.00167170552442
8621.35375328
8619.7259067
8619.34063445
5474.30326413
-0.0742560926258
-0.0303399938274
8603.34734958
5157.25460145
-0.0801222952919
-0.00657362415564
8579.61396968
4831.85894314
0.228144992376
0.00465444053805
8552.9326752
4511.05509865
0.752846598422
0.00178611201226
)
;
    }
    atmosphere
    {
        type            totalPressure;
        rho             rho;
        psi             none;
        gamma           1;
        p0              uniform 0;
        value           nonuniform List<scalar> 
27
(
-1.05842222937
0
0
-1.0584901589
-0.552059688065
0
-0.289274605767
-0.143353989723
-0.0504186595674
-0.0233197633361
-0.00969897600717
-0.00777979005692
-0.070215217663
-0.0270030007143
-0.0058064288075
-0.00137672643019
-0.0262573558815
0
0
-0.00753257916105
-0.0100998841806
-0.00944189299689
-0.00338721873545
0
0
0
0
)
;
    }
    floatingObject
    {
        type            fixedFluxPressure;
        gradient        uniform 0;
        value           nonuniform List<scalar> 4(8821.54161092 8828.15364974 8828.15453117 8821.5430213);
    }
    procBoundary6to3
    {
        type            processor;
        value           nonuniform List<scalar> 8(8806.55117626 8819.07458724 8828.07194324 8844.8778267 8856.42683681 8499.03536113 1726.43521175 -11.531156698);
    }
    procBoundary6to7
    {
        type            processor;
        value           nonuniform List<scalar> 
11
(
8669.50366162
8660.55354863
8651.65340694
8642.63127779
8633.26602327
8623.53774597
8610.34700443
8607.36981121
8607.36981121
8594.40222818
8581.43951638
)
;
    }
    procBoundary6to8
    {
        type            processor;
        value           nonuniform List<scalar> 
16
(
8806.52932033
8819.06053339
8819.06053339
8812.39670748
8801.05090806
8790.61609952
8780.49013528
8770.36778866
8760.03697721
8749.22394501
8739.31874093
8726.55212301
8714.02034405
8701.34660744
8689.31562296
8678.97793419
)
;
    }
    procBoundary6to9
    {
        type            processor;
        value           nonuniform List<scalar> 4(8523.30509335 4223.82011881 0.127623575737 0.00526044337131);
    }
}


// ************************************************************************* //
