/*--------------------------------*- C++ -*----------------------------------*\
| =========                 |                                                 |
| \\      /  F ield         | OpenFOAM: The Open Source CFD Toolbox           |
|  \\    /   O peration     | Version:  v2012                                 |
|   \\  /    A nd           | Website:  www.openfoam.com                      |
|    \\/     M anipulation  |                                                 |
\*---------------------------------------------------------------------------*/
FoamFile
{
    version     2.0;
    format      ascii;
    class       surfaceScalarField;
    location    "2";
    object      phi;
}
// * * * * * * * * * * * * * * * * * * * * * * * * * * * * * * * * * * * * * //

dimensions      [0 3 -1 0 0 0 0];
oriented        oriented;


internalField   nonuniform List<scalar> 
293
(
-3.01951906745e-05
-0.000253664149445
-5.90487336941e-05
-3.16890755976e-05
-3.65516354238e-05
7.68234409213e-05
5.87648540962e-05
0.000108877693196
0.00016843412501
0.000211034895805
0.000532179639189
0.000196671254325
-0.00107035455108
0.00236977169061
0.0148850296097
-0.000253650875429
-8.75232560888e-09
-0.000285327905209
-7.06050142308e-09
-0.000208498191324
-1.29072022243e-09
-9.96251717329e-05
9.29595903731e-09
0.000111390071262
2.29574818419e-08
0.000308024329702
3.84592636783e-08
0.00267764198222
1.54909591574e-07
2.43903095558e-07
-0.000253654635735
0.000253650822136
-0.000285337576248
3.16807410784e-05
-0.000208511622316
-7.68227122281e-05
-9.9637882452e-05
-0.000108860486436
0.000111385758117
-0.000210998104016
0.000308034271332
-0.000196609383211
0.00267782826376
-0.00236963880997
-0.0148847142384
-3.02113950073e-05
-5.90728970305e-05
-3.65772933803e-05
-9.93138033192e-05
5.87471453695e-05
-0.000204181516385
0.00016843960786
-0.000320688784423
0.000532192672811
-0.000560361932666
-0.0010704550955
-0.000766991387394
-0.00395005619546
-3.67717086795e-05
-8.95479187113e-05
-7.02032998153e-05
-0.000170746843329
-0.000109636212108
-0.000281254219215
-0.000116069320222
-0.000553928249585
-0.000600746618212
-0.000282318179488
0.00503638504827
-2.28638173745e-05
-9.04104542988e-05
-9.31152880116e-05
-0.000100492430807
-0.000212313554956
-0.000162054392123
-0.000516590212009
-0.00024965135621
0.00147056418706
-0.00226947146209
-0.0100017843831
-5.11562469408e-05
-9.35228102998e-05
-3.37477463811e-05
-0.000117898255598
1.31512001743e-05
-0.000208952146874
5.12349368409e-05
-0.000287734776272
-0.000864081213977
-0.0013541581229
-0.00493329871371
-9.83445675618e-05
-9.38001152502e-05
-7.99847697482e-05
-0.000136255651783
-0.000103219060922
-0.000185716834113
-0.000130110108638
-0.00026084350742
-0.000833827271568
-0.000650440868811
-0.00215655173746
-0.00013927571382
-9.76644294704e-05
-0.000118536912329
-0.000156992352897
-0.000112881508312
-0.000191371357779
-0.000158156870135
-0.00021556798448
-0.000640073970699
-0.000168523944802
-0.00087510678315
-0.000193717560129
-9.43497389046e-05
-0.000183461602807
-0.000167246541735
-0.000172991903318
-0.000201840330305
-0.000202196529366
-0.000186363236122
-0.000520395295656
0.000149674317942
-0.000177035325534
-0.000268262066894
-7.20412488243e-05
-0.000282627936833
-0.000152879236641
-0.000298793524068
-0.000185674168932
-0.000311604564567
-0.000173552103824
-0.000387379534887
0.000225449348008
0.000237194301717
-0.000365254096511
-1.55362520356e-05
-0.000422203807527
-9.59283985977e-05
-0.000455649424387
-0.000152228100043
-0.000526003426143
-0.000103198036414
-0.000545783980148
0.000245231646321
0.000313950190228
-0.00054122455728
0.000133892405198
-0.000810360988531
0.000173208918338
-0.00118499148084
0.000222402749727
-0.0015767068554
0.000288517456931
-0.00191411203363
0.000582635849911
0.000197868198228
-0.000402747550558
0.000196481313821
-0.000484767767662
0.000255229837399
-0.000597410917558
0.0003350461729
-0.000720707040062
0.000411813563883
-0.00110971300762
0.000971643066249
0.000130523284401
-0.000364754711753
0.00024203977619
-0.000402237509462
0.000292713219784
-0.000478805344271
0.000411614216856
-0.000610683209432
0.000543691451848
-0.000485145851977
0.000846105494412
0.000261043203234
-0.000334842852271
0.000279938677527
-0.000359824311523
0.000317695201229
-0.000334320561203
0.000386110657951
-0.000327313551457
0.000536684494004
-0.000232447426879
0.000751238393889
0.000382235450239
-0.000317899952202
0.000307486377792
-0.000301540995448
0.000301336776631
-0.000142889506598
0.000227459365269
0.000169582412396
0.000224212576466
-0.000746457855991
0.00166728044416
0.000463281478446
-0.000270558553205
0.000337515750996
-0.000312692230039
0.000343471041029
-0.000341726438022
0.000256493776331
-0.000229597345227
0.000112083465767
0.000959586888459
0.000478095866763
0.000107187206708
-0.000257364719055
0.000373846019448
-0.000310873173507
0.000396980154957
-0.000383459758907
0.000329080589545
-0.000385565453911
0.000114189032616
1.99670201556e-05
7.25634872412e-05
-0.000188417780244
-0.000198552687487
0.000389574802549
-0.000217852856756
0.000416281063663
-0.000271600623686
0.000382828606227
-0.000386302593928
0.000228891478944
-0.000368155689225
5.44163533553e-05
1.81617601841e-05
-0.000152467162975
0.000394604272057
-0.000157537616158
0.00042135231901
-0.00019193424787
0.000417225500541
-0.000303127079012
0.000340085117085
-0.000498208018861
0.000249497106879
0.000224391336044
-0.000119709493233
0.000395662379551
-0.000119308679166
0.000420952466524
-0.000131502294018
0.00042941942202
-0.000202508476514
0.000411091290622
-0.000508029886394
0.000555017669408
0.00033524279187
-9.13755424035e-05
0.000393941045079
-8.76396395777e-05
0.000417217569744
-8.80972800545e-05
0.000429877419745
-0.000121690981973
0.00044468507032
-0.000257460999083
0.000690787866558
0.000485259599676
-6.79644277595e-05
-6.45385509392e-05
-6.57974576011e-05
0.000431136720588
-6.2491871648e-05
0.000441379464514
0.000195695013202
0.000432601540451
0.000260547423564
-3.85619135852e-05
0.000427376497954
-2.45699105952e-05
0.000427387499617
5.89555739899e-05
0.000349075457501
3.40980766174e-05
-6.55981067167e-06
0.000416499388606
9.05639657311e-06
0.000411771046527
1.0519889844e-05
0.000347609636336
-3.47947190349e-05
1.94206879737e-05
3.39211901473e-05
1.28088659889e-05
)
;

boundaryField
{
    back
    {
        type            calculated;
        value           uniform 0;
    }
    sides
    {
        type            calculated;
        value           nonuniform List<scalar> 0();
    }
    bottom
    {
        type            calculated;
        value           nonuniform List<scalar> 0();
    }
    front
    {
        type            calculated;
        value           uniform 0;
    }
    atmosphere
    {
        type            calculated;
        value           nonuniform List<scalar> 
27
(
-0.0120047660668
0.0175624267316
0.0175627861693
-0.0120051098579
-0.0095871791249
0.0165087265644
-0.00593255996548
-0.0036105736614
-0.00192151805536
-0.001218465747
-0.000801608775264
-0.000622541057752
-0.00179802908799
-0.00104236889187
-0.000615665379325
-0.000353638860178
-0.000827505192313
0.0013156811147
0.000315572025211
-0.00057473512056
-0.000704437450153
-0.000618880470917
-0.000407477496932
0.000420407065863
0.000285403753098
7.94109327464e-05
8.03902991676e-06
)
;
    }
    floatingObject
    {
        type            calculated;
        value           uniform 0;
    }
    procBoundary6to3
    {
        type            processor;
        value           nonuniform List<scalar> 8(0.000283866087044 6.05506503204e-05 -9.93114481209e-05 -0.000204185116622 -0.000320697936393 -0.000560413471654 -0.00076721560889 -0.00395056093486);
    }
    procBoundary6to7
    {
        type            processor;
        value           nonuniform List<scalar> 
11
(
0.000221036200743
0.000182825834206
0.000147439821515
0.000118653740051
9.30994168161e-05
7.0988503157e-05
0.000390919375656
0.00041379278437
4.23232335756e-05
1.74379583027e-05
-3.34448005666e-06
)
;
    }
    procBoundary6to8
    {
        type            processor;
        value           nonuniform List<scalar> 
16
(
0.000283867143593
6.05472532993e-05
2.70128124117e-05
2.37328744965e-05
5.42747777647e-05
9.86276187488e-05
0.000143145194869
0.000190407319232
0.000245957247288
0.00030875201231
0.000391798156083
0.000340160398158
0.000319197686749
0.000296945181303
0.000290353620582
0.000240530805721
)
;
    }
    procBoundary6to9
    {
        type            processor;
        value           nonuniform List<scalar> 4(0.000400424122501 0.000397269788972 0.000368719199057 -3.00270383265e-05);
    }
}


// ************************************************************************* //
