/*--------------------------------*- C++ -*----------------------------------*\
| =========                 |                                                 |
| \\      /  F ield         | OpenFOAM: The Open Source CFD Toolbox           |
|  \\    /   O peration     | Version:  v2012                                 |
|   \\  /    A nd           | Website:  www.openfoam.com                      |
|    \\/     M anipulation  |                                                 |
\*---------------------------------------------------------------------------*/
FoamFile
{
    version     2.0;
    format      ascii;
    class       volVectorField;
    location    "2";
    object      U_0;
}
// * * * * * * * * * * * * * * * * * * * * * * * * * * * * * * * * * * * * * //

dimensions      [0 1 -1 0 0 0 0];


internalField   nonuniform List<vector> 
164
(
(-0.0595340943818 -0.000454107466755 9.60416969677e-18)
(-0.0107899168089 -0.00724382678615 7.9456327079e-18)
(0.0219901414853 -0.0124202681861 5.10154703299e-18)
(0.0366845657537 0.00672779189096 3.27794121736e-18)
(0.060824752578 0.0170395140842 2.0768278535e-18)
(0.0850932292357 0.0726654565615 1.09042481952e-18)
(0.435811214007 0.0903567336742 1.16916619049e-18)
(3.26311557416 -1.48026060931 1.26568660343e-18)
(-0.0405530383307 -0.0456576854192 5.56857734336e-18)
(0.000912151312585 -0.05753273997 5.39697683765e-18)
(0.0158114485819 -0.0527492885311 4.5128700806e-18)
(0.0172462629866 -0.013873085789 3.79063583667e-18)
(0.0389088782745 -0.0275526723384 2.81281292174e-18)
(0.0319205315217 0.112453380499 2.09321897563e-18)
(0.3306989027 -0.0423050174952 2.36258806603e-18)
(0.483510885637 2.34969985097 2.24551588818e-18)
(0.0405497666461 -0.0456580620461 5.60056120036e-18)
(-0.000914694623853 -0.0575336999356 5.4128098497e-18)
(-0.0158117973507 -0.0527514846056 4.5232701492e-18)
(-0.0172423796302 -0.0138760193464 3.78707618665e-18)
(-0.038899287725 -0.0275555771753 2.87214177454e-18)
(-0.0319043102554 0.112454151646 2.16403106178e-18)
(-0.330649540772 -0.042303601131 3.11234910175e-18)
(-0.483428761204 2.34976432578 2.88409880657e-18)
(0.0595322018291 -0.00045544410182 9.67536947228e-18)
(0.0107877704067 -0.00724813505204 7.97651215342e-18)
(-0.021989622324 -0.0124255874282 5.12051521253e-18)
(-0.0366817082263 0.00672337637561 3.29344850164e-18)
(-0.0608199073279 0.017037669392 2.12685219636e-18)
(-0.0850821024154 0.0726682665834 1.06124688663e-18)
(-0.435800807184 0.0903587063092 7.15288015961e-19)
(-3.26306061004 -1.48032106674 1.25593146078e-18)
(-0.0204488011021 -0.00616548958547 3.75612704142e-18)
(-0.0407581419818 0.00201522605882 1.62767943791e-18)
(-0.0603025989097 -0.0269976946613 9.37695959427e-19)
(-0.106643885994 0.000879929676089 5.4269437079e-19)
(0.148387764844 -0.0601090567378 1.17374851491e-18)
(1.11827087771 -1.06172245063 9.53275704765e-19)
(-0.0195193882413 -0.00489492150841 8.93781313557e-19)
(-0.0265620900259 0.00715238552477 4.26531681198e-19)
(-0.0424610401102 -0.0380396530289 2.409567595e-19)
(-0.0851850474245 -0.0153025310205 1.43400023818e-19)
(-0.305674140802 -0.210840248219 8.81614643957e-19)
(-0.382104249459 2.134610856 6.47158201553e-19)
(-0.0219858480194 -0.0100122706249 -3.38517568971e-20)
(-0.0269961949506 -0.000438132269482 -1.84616698664e-20)
(-0.0456873675403 -0.00820294960953 1.74728771587e-20)
(-0.0464568447946 0.0246064133751 -6.44186762011e-20)
(-0.45447846511 -0.0100812853272 -2.72411500329e-20)
(-2.33678447447 -0.76367022708 -4.21648124474e-20)
(-0.0219504692097 -0.0176639664749 1.39710949334e-20)
(-0.02954677182 -0.0128762907797 -3.38496993857e-21)
(-0.0442489686964 -0.018479813801 -3.02016114518e-20)
(-0.0585340711621 -0.0113842129952 -8.15332471807e-20)
(-0.199835566062 -0.0287215991651 -3.66715747036e-19)
(-0.488475920668 -0.540761581447 -4.46530304617e-20)
(-0.0225552989302 -0.0264559960318 -2.3486916659e-21)
(-0.0332695742618 -0.0223608868892 -3.38182402808e-21)
(-0.0417678789465 -0.0222910076902 -1.2952045406e-20)
(-0.0503220099344 -0.0189992653102 -1.03377370224e-19)
(-0.0804836846408 -0.0517617745303 -5.29638027335e-19)
(-0.351327636389 -0.319812633256 -3.71037096407e-19)
(-0.0223592329633 -0.0374189982248 -4.35755870521e-21)
(-0.0357220207553 -0.0339255632134 -1.20308953084e-20)
(-0.040524736635 -0.035391450116 -2.27930557483e-20)
(-0.0368233483732 -0.026045456992 -9.86715097455e-20)
(0.0137330825607 -0.0536141302216 -3.12677439632e-19)
(-0.0907707270332 -0.215974440962 -2.55971600888e-19)
(-0.0203184415756 -0.0508890306474 -3.95704819475e-21)
(-0.0360653517231 -0.0507489246825 -1.48966858607e-20)
(-0.0406447677295 -0.0610516868253 -2.46424453915e-20)
(-0.0357569020836 -0.0386176925909 -1.28734893091e-19)
(0.0446435601535 -0.0599098844127 -2.96951416464e-19)
(0.00377883106924 -0.132135447359 -2.36109986557e-19)
(-0.0160466314809 -0.0665158595163 -1.1207970318e-20)
(-0.0388231272747 -0.0733860121351 -1.97902592945e-20)
(-0.0578495992632 -0.0903703286339 -8.16145946291e-20)
(-0.0594637949196 -0.0784094784518 -3.08718522384e-19)
(0.028917355313 -0.100209537212 -7.971963736e-19)
(0.100090556238 -0.0875623248315 -7.03344173473e-19)
(0.00818873689396 -0.0891600857513 -4.54524982198e-21)
(0.00382406236515 -0.125312984519 -1.45654709451e-20)
(0.00148516844088 -0.199134033732 -1.55060790336e-19)
(0.0152852422481 -0.27376534678 -5.76800407414e-19)
(0.0534591710124 -0.354794702364 -8.43968489339e-19)
(0.0405985741286 -0.397174962096 -3.91901595787e-19)
(0.0325144023696 -0.0733748921572 2.67831276508e-21)
(0.048347992961 -0.0849928198154 -3.96378817165e-20)
(0.0685023355411 -0.111200813955 -1.21612962685e-19)
(0.081337030229 -0.10057330451 -3.74577308977e-19)
(0.133684540705 -0.167661619671 -9.3437708413e-19)
(0.0119730219323 -0.190936022966 -7.97731767673e-19)
(0.0398270051826 -0.0688694779482 -1.36628036342e-20)
(0.0490238666719 -0.0750481093572 -2.01495206894e-20)
(0.06534775936 -0.0937383482785 -5.73728895769e-20)
(0.0819027148063 -0.0766807768479 -1.86028810503e-19)
(0.184743946158 -0.136744384946 -3.55640404555e-19)
(0.045477179194 -0.142679112507 -2.71194913267e-19)
(0.0453763157523 -0.0634536667527 -2.92291367872e-21)
(0.0527762099276 -0.0680404641021 -1.2889503767e-20)
(0.0786393568321 -0.0759588149368 -3.97998849946e-20)
(0.116287167864 -0.0711325871368 -1.84565353948e-19)
(0.182440833613 -0.0752650410592 -3.41071058626e-19)
(0.0397695296659 -0.0805522488423 -2.74635290797e-19)
(0.0557658719239 -0.0617773028341 1.20180183817e-21)
(0.0578684854406 -0.0622921125233 1.95490792771e-20)
(0.0525365929805 -0.0499806491238 2.60313145874e-20)
(0.0673011894951 -0.038198842478 -6.48830963643e-21)
(0.227034907243 0.0707170060614 -1.14897087248e-19)
(0.104842752603 -0.198408985186 -3.4697922229e-20)
(0.064106562161 -0.0512989996278 3.24950734747e-21)
(0.0651348505828 -0.0580223299013 1.30750284665e-20)
(0.0419771387094 -0.0732850302127 5.94784296828e-21)
(0.0237778766458 -0.0716461372215 -2.82340842666e-20)
(0.258705915486 -0.0103184226583 -6.7642648145e-20)
(0.0505072994726 0.302380906765 -1.12761753893e-19)
(0.0685341783779 -0.0482014225796 -6.72043956892e-21)
(0.0712764409349 -0.0568489356465 -2.2445967374e-20)
(0.053655586975 -0.0768837026626 -9.04392410251e-21)
(0.0105686464205 -0.073321523627 -2.49713575423e-20)
(0.00966524208294 -0.0689698400685 -2.7107095095e-20)
(-0.0338375166337 0.0798935522372 7.91014593785e-20)
(0.074872190647 -0.0384415427369 -6.51211654644e-21)
(0.0814788628001 -0.0413838917008 -7.51196939928e-21)
(0.0750055962383 -0.0506820894683 3.78967487339e-21)
(0.0361772526557 -0.0463433789129 -2.70706761333e-20)
(-0.0258889079375 -0.0719944839783 -3.4237999367e-20)
(-0.00385385551914 -0.132712698091 -1.02629744657e-21)
(0.0759753052342 -0.0303056314496 -1.62462552288e-21)
(0.0816690151674 -0.0310424898543 -4.81924163246e-21)
(0.0790374283312 -0.0327318455133 -5.68512643896e-21)
(0.0569289374745 -0.0324993150549 -9.73654743611e-21)
(0.0407333148337 -0.0675358088989 -1.59935496758e-20)
(0.0322433098981 -0.171086127878 -5.84418587137e-20)
(0.0762024599278 -0.0240024717778 -1.78919996233e-21)
(0.0813604045171 -0.0236677134301 -4.96091063483e-21)
(0.082074413866 -0.0223012767548 -1.07688864866e-20)
(0.0735787557456 -0.0246005627569 -1.21709120079e-20)
(0.107113987878 -0.0405707727165 -1.02564916057e-20)
(0.0538012824682 -0.133149301778 3.20595737791e-20)
(0.0759084337823 -0.018618236729 -1.90893727589e-21)
(0.0805762031239 -0.0177635613368 -5.26026345812e-21)
(0.0827189708456 -0.0152861009749 -9.46716215407e-21)
(0.0838496284836 -0.0196863680839 -1.38705541154e-20)
(0.153509229828 -0.0226071588026 -1.41280278388e-20)
(0.0791781589318 -0.0817358557857 -8.22735171325e-22)
(0.0752236091141 -0.0142003118922 -1.7211167667e-21)
(0.0793954124582 -0.0134435790216 -6.07614817721e-21)
(0.0822397387501 -0.0109952221385 -1.46476344024e-20)
(0.0857647704672 -0.0176342083128 -1.6698801332e-20)
(0.127600097681 -0.00963379162016 -1.4243195268e-20)
(0.0930885190722 0.106992234247 2.08604696058e-20)
(0.0815435930039 -0.00680597190374 -1.25426488067e-20)
(0.0823195107938 -0.0138294269119 -1.02491589618e-20)
(0.0780668483419 -0.0062876188204 -9.28709847086e-21)
(0.0317040981268 0.0644964936568 -5.37075177927e-21)
(0.0797625390658 -0.00203203101054 -6.782056939e-21)
(0.0782769804371 -0.00651774547585 -4.23093042249e-21)
(0.0653346320597 0.00134933469449 -3.79284627195e-21)
(-0.0126303768243 0.0148146759926 -9.60175663879e-21)
(0.077166489211 0.000863826997334 -3.14902934386e-21)
(0.075707609264 -0.000805825928975 -9.39788107811e-21)
(0.0673877347161 0.00591366316787 -8.71061366241e-21)
(-0.00792118783764 0.00016650967814 -9.01289809836e-22)
)
;

boundaryField
{
    back
    {
        type            noSlip;
    }
    sides
    {
        type            noSlip;
    }
    bottom
    {
        type            noSlip;
    }
    front
    {
        type            noSlip;
    }
    atmosphere
    {
        type            pressureInletOutletVelocity;
        value           nonuniform List<vector> 
27
(
(0 -1.48026060931 0)
(0.483510885637 2.34969985097 2.24551588818e-18)
(-0.483428761204 2.34976432578 2.88409880657e-18)
(0 -1.48032106674 0)
(0 -1.06172245063 0)
(-0.382104249459 2.134610856 6.47158201553e-19)
(0 -0.76367022708 0)
(0 -0.540761581447 0)
(0 -0.319812633256 0)
(0 -0.215974440962 0)
(0 -0.132135447359 0)
(0 -0.0875623248315 0)
(0 -0.397174962096 0)
(0 -0.190936022966 0)
(0 -0.142679112507 0)
(0 -0.0805522488423 0)
(0 -0.198408985186 0)
(0.0505072994726 0.302380906765 -1.12761753893e-19)
(-0.0338375166337 0.0798935522372 7.91014593785e-20)
(0 -0.132712698091 0)
(0 -0.171086127878 0)
(0 -0.133149301778 0)
(0 -0.0817358557857 0)
(0.0930885190722 0.106992234247 2.08604696058e-20)
(0.0317040981268 0.0644964936568 -5.37075177927e-21)
(-0.0126303768243 0.0148146759926 -9.60175663879e-21)
(0 0.00016650967814 0)
)
;
    }
    floatingObject
    {
        type            movingWallVelocity;
        value           nonuniform List<vector> 4((0 0 0) (0 0 0) (-2.42861286637e-16 0 0) (0 0 0));
    }
    procBoundary6to3
    {
        type            processor;
        value           nonuniform List<vector> 8((-0.0386523818859 -0.025093685353 1.26690600827e-17) (-0.00718696432025 0.00078116327633 7.97753826373e-18) (0.0204475916676 -0.00616193396983 3.74590119322e-18) (0.0407570695223 0.00201785625655 1.61698747724e-18) (0.0603010748149 -0.0269991712613 9.47296370861e-19) (0.106647628465 0.000872835816305 5.62450993918e-19) (-0.148312212616 -0.0601483458872 1.09892751525e-18) (-1.11791865379 -1.06164574341 1.00398447434e-18));
    }
    procBoundary6to7
    {
        type            processor;
        value           nonuniform List<vector> 
11
(
(0.0633787864525 -0.0417344143929 -1.33240988753e-21)
(0.0675684113109 -0.0351782355408 -7.8409565812e-22)
(0.0696734663341 -0.0289948185152 3.00966578333e-22)
(0.0707559614598 -0.0236559923035 -2.45292369196e-22)
(0.0711829354889 -0.0189341383426 -6.40578637358e-24)
(0.0711225572766 -0.0148839714936 3.72356048317e-22)
(0.0744130799803 -0.0104302378421 -1.44291332174e-21)
(0.078323442685 -0.00961635712115 -5.79876048387e-21)
(0.078323442685 -0.00961635712115 -5.79876048387e-21)
(0.0768647019195 -0.00577804244601 -3.1272499534e-21)
(0.0748281967124 -0.00270503002503 1.30247406766e-22)
)
;
    }
    procBoundary6to8
    {
        type            processor;
        value           nonuniform List<vector> 
16
(
(0.0386529440479 -0.0250979599409 1.27005305931e-17)
(0.0071862653852 0.000776249195398 7.99223368269e-18)
(0.0071862653852 0.000776249195398 7.99223368269e-18)
(-0.00413384705188 0.000595659715417 1.45562754017e-18)
(-0.0104064086745 -0.00807273162632 5.61856389745e-20)
(-0.0124465206982 -0.0174066033076 1.41840311076e-20)
(-0.0132667289981 -0.0257423203394 -1.48242266456e-21)
(-0.0121734006399 -0.0343796588118 -5.09748083407e-22)
(-0.00874958606941 -0.0437669281634 -1.17520909739e-21)
(-0.00293836874644 -0.0538203273918 -3.31638396073e-21)
(0.0119155168473 -0.0656340469775 -1.98710374685e-21)
(0.027292951544 -0.0609612916914 1.26463735327e-22)
(0.0353928509961 -0.0586379479574 -6.29902105808e-21)
(0.0421552485435 -0.0545997993961 -2.23262601711e-21)
(0.0518323084969 -0.0535024561011 8.6921045341e-22)
(0.0592495570864 -0.0453739622118 2.01962718095e-21)
)
;
    }
    procBoundary6to9
    {
        type            processor;
        value           nonuniform List<vector> 4((0.0747045039652 0.00099236536361 -5.02824204192e-21) (0.0741891367422 0.000567540726004 -1.44813650739e-20) (0.0712753965215 0.00609817225539 -1.43179760151e-20) (-0.00390806653287 -0.00259148331013 -1.62216404658e-21));
    }
}


// ************************************************************************* //
