/*--------------------------------*- C++ -*----------------------------------*\
| =========                 |                                                 |
| \\      /  F ield         | OpenFOAM: The Open Source CFD Toolbox           |
|  \\    /   O peration     | Version:  v2012                                 |
|   \\  /    A nd           | Website:  www.openfoam.com                      |
|    \\/     M anipulation  |                                                 |
\*---------------------------------------------------------------------------*/
FoamFile
{
    version     2.0;
    format      ascii;
    class       volScalarField;
    location    "1";
    object      ddt0(epsilon);
}
// * * * * * * * * * * * * * * * * * * * * * * * * * * * * * * * * * * * * * //

dimensions      [0 2 -4 0 0 0 0];


internalField   nonuniform List<scalar> 
166
(
-0.0385615668795
-0.0385417048781
-0.0385164821515
-0.0384780770506
-0.0383889608167
-0.0380953352117
-0.0370913513091
-0.0341292181611
-0.0271845087687
-0.0151609388502
-0.00250035948786
-0.000219100806789
-0.00479461552276
-0.0386332753337
-0.0386206607868
-0.0386061208214
-0.0385883440372
-0.038565424803
-0.0385300661791
-0.0384471852406
-0.0381738415983
-0.0372436592771
-0.0345228955968
-0.0282382714563
-0.0176802493191
-0.00747079182721
-0.00753380184664
-0.00880651898296
-0.0377188467413
-0.0368492360057
-0.0386899131234
-0.0386793548633
-0.0386685668642
-0.0386561984678
-0.0386407397617
-0.0386205627336
-0.0385888081101
-0.0385131702726
-0.038262835192
-0.0374147178016
-0.0349584173362
-0.0293887410909
-0.0204045728126
-0.0128137986908
-0.0154607851278
-0.0131224343303
-0.0378064914527
-0.0369070320531
-0.0385173754275
-0.0387331253305
-0.0387394698586
-0.0387305008739
-0.038721630956
-0.038711471424
-0.0386986668438
-0.0386816269095
-0.0386540353838
-0.0385866476644
-0.0383618817287
-0.0376034478515
-0.0354325126703
-0.0306257639447
-0.0233040658514
-0.018479879266
-0.0239588211303
-0.0177369350132
-0.0378977288555
-0.0369688132138
-0.0385737338552
-0.0387871067916
-0.0387938679357
-0.0387863401278
-0.0387796327211
-0.0387720628927
-0.0387623192523
-0.0387488883082
-0.0387260829397
-0.0386679584198
-0.03847107539
-0.0378087491076
-0.0359399947596
-0.031933220623
-0.0263472273917
-0.0244671525404
-0.0332761765701
-0.0227963598159
-0.0379915942763
-0.0370340121301
-0.0386343186734
-0.0388455042411
-0.03885261019
-0.0388468042403
-0.0388425736604
-0.0388380023775
-0.0388317797984
-0.0388225045115
-0.0388051726989
-0.0387573113716
-0.0385902652177
-0.038028889163
-0.0364743103994
-0.0332931799482
-0.0294892075519
-0.0306293995344
-0.0430095903576
-0.0281006362795
-0.038087142624
-0.037102108332
-0.0386985449589
-0.0389078210863
-0.0389155116959
-0.0389117324413
-0.0389103262862
-0.0389091844426
-0.0389069943776
-0.0389024863838
-0.0388913692322
-0.0388547278694
-0.0387189861301
-0.0382613797216
-0.0370268954188
-0.0346833017029
-0.0326880922984
-0.0369464127859
-0.0532623411701
-0.0336495158014
-0.0381832516435
-0.0371725156806
-0.0387660147604
-0.0389737199941
-0.0389822535345
-0.0389808078854
-0.0389826074531
-0.0389853657432
-0.0389877724296
-0.0389887058482
-0.0389845930574
-0.0389600601921
-0.0388564846484
-0.0385029601544
-0.0375866905577
-0.0360733912357
-0.0358786300375
-0.0433073746184
-0.0640773884063
-0.0394231429917
-0.0382785888421
-0.0372444857003
-0.0388361869938
-0.0390427084569
-0.0390523529823
-0.0390535709674
-0.0390589954574
-0.0390661696849
-0.0390737862149
-0.0390809041989
-0.0390846415035
-0.0390730316952
-0.0390018031922
-0.0387497518736
-0.0381401562641
-0.0374241642917
-0.0389749624106
-0.0495586372117
-0.0751118908921
-0.0451482950516
)
;

boundaryField
{
    back
    {
        type            calculated;
        value           nonuniform List<scalar> 
166
(
-0.0385615668795
-0.0385417048781
-0.0385164821515
-0.0384780770506
-0.0383889608167
-0.0380953352117
-0.0370913513091
-0.0341292181611
-0.0271845087687
-0.0151609388502
-0.00250035948786
-0.000219100806789
-0.00479461552276
-0.0386332753337
-0.0386206607868
-0.0386061208214
-0.0385883440372
-0.038565424803
-0.0385300661791
-0.0384471852406
-0.0381738415983
-0.0372436592771
-0.0345228955968
-0.0282382714563
-0.0176802493191
-0.00747079182721
-0.00753380184664
-0.00880651898296
-0.0377188467413
-0.0368492360057
-0.0386899131234
-0.0386793548633
-0.0386685668642
-0.0386561984678
-0.0386407397617
-0.0386205627336
-0.0385888081101
-0.0385131702726
-0.038262835192
-0.0374147178016
-0.0349584173362
-0.0293887410909
-0.0204045728126
-0.0128137986908
-0.0154607851278
-0.0131224343303
-0.0378064914527
-0.0369070320531
-0.0385173754275
-0.0387331253305
-0.0387394698586
-0.0387305008739
-0.038721630956
-0.038711471424
-0.0386986668438
-0.0386816269095
-0.0386540353838
-0.0385866476644
-0.0383618817287
-0.0376034478515
-0.0354325126703
-0.0306257639447
-0.0233040658514
-0.018479879266
-0.0239588211303
-0.0177369350132
-0.0378977288555
-0.0369688132138
-0.0385737338552
-0.0387871067916
-0.0387938679357
-0.0387863401278
-0.0387796327211
-0.0387720628927
-0.0387623192523
-0.0387488883082
-0.0387260829397
-0.0386679584198
-0.03847107539
-0.0378087491076
-0.0359399947596
-0.031933220623
-0.0263472273917
-0.0244671525404
-0.0332761765701
-0.0227963598159
-0.0379915942763
-0.0370340121301
-0.0386343186734
-0.0388455042411
-0.03885261019
-0.0388468042403
-0.0388425736604
-0.0388380023775
-0.0388317797984
-0.0388225045115
-0.0388051726989
-0.0387573113716
-0.0385902652177
-0.038028889163
-0.0364743103994
-0.0332931799482
-0.0294892075519
-0.0306293995344
-0.0430095903576
-0.0281006362795
-0.038087142624
-0.037102108332
-0.0386985449589
-0.0389078210863
-0.0389155116959
-0.0389117324413
-0.0389103262862
-0.0389091844426
-0.0389069943776
-0.0389024863838
-0.0388913692322
-0.0388547278694
-0.0387189861301
-0.0382613797216
-0.0370268954188
-0.0346833017029
-0.0326880922984
-0.0369464127859
-0.0532623411701
-0.0336495158014
-0.0381832516435
-0.0371725156806
-0.0387660147604
-0.0389737199941
-0.0389822535345
-0.0389808078854
-0.0389826074531
-0.0389853657432
-0.0389877724296
-0.0389887058482
-0.0389845930574
-0.0389600601921
-0.0388564846484
-0.0385029601544
-0.0375866905577
-0.0360733912357
-0.0358786300375
-0.0433073746184
-0.0640773884063
-0.0394231429917
-0.0382785888421
-0.0372444857003
-0.0388361869938
-0.0390427084569
-0.0390523529823
-0.0390535709674
-0.0390589954574
-0.0390661696849
-0.0390737862149
-0.0390809041989
-0.0390846415035
-0.0390730316952
-0.0390018031922
-0.0387497518736
-0.0381401562641
-0.0374241642917
-0.0389749624106
-0.0495586372117
-0.0751118908921
-0.0451482950516
)
;
    }
    sides
    {
        type            calculated;
        value           nonuniform List<scalar> 0();
    }
    bottom
    {
        type            calculated;
        value           nonuniform List<scalar> 7(-0.0377188467413 -0.0378064914527 -0.0378977288555 -0.0379915942763 -0.038087142624 -0.0381832516435 -0.0382785888421);
    }
    front
    {
        type            calculated;
        value           nonuniform List<scalar> 
166
(
-0.0385615668795
-0.0385417048781
-0.0385164821515
-0.0384780770506
-0.0383889608167
-0.0380953352117
-0.0370913513091
-0.0341292181611
-0.0271845087687
-0.0151609388502
-0.00250035948786
-0.000219100806789
-0.00479461552276
-0.0386332753337
-0.0386206607868
-0.0386061208214
-0.0385883440372
-0.038565424803
-0.0385300661791
-0.0384471852406
-0.0381738415983
-0.0372436592771
-0.0345228955968
-0.0282382714563
-0.0176802493191
-0.00747079182721
-0.00753380184664
-0.00880651898296
-0.0377188467413
-0.0368492360057
-0.0386899131234
-0.0386793548633
-0.0386685668642
-0.0386561984678
-0.0386407397617
-0.0386205627336
-0.0385888081101
-0.0385131702726
-0.038262835192
-0.0374147178016
-0.0349584173362
-0.0293887410909
-0.0204045728126
-0.0128137986908
-0.0154607851278
-0.0131224343303
-0.0378064914527
-0.0369070320531
-0.0385173754275
-0.0387331253305
-0.0387394698586
-0.0387305008739
-0.038721630956
-0.038711471424
-0.0386986668438
-0.0386816269095
-0.0386540353838
-0.0385866476644
-0.0383618817287
-0.0376034478515
-0.0354325126703
-0.0306257639447
-0.0233040658514
-0.018479879266
-0.0239588211303
-0.0177369350132
-0.0378977288555
-0.0369688132138
-0.0385737338552
-0.0387871067916
-0.0387938679357
-0.0387863401278
-0.0387796327211
-0.0387720628927
-0.0387623192523
-0.0387488883082
-0.0387260829397
-0.0386679584198
-0.03847107539
-0.0378087491076
-0.0359399947596
-0.031933220623
-0.0263472273917
-0.0244671525404
-0.0332761765701
-0.0227963598159
-0.0379915942763
-0.0370340121301
-0.0386343186734
-0.0388455042411
-0.03885261019
-0.0388468042403
-0.0388425736604
-0.0388380023775
-0.0388317797984
-0.0388225045115
-0.0388051726989
-0.0387573113716
-0.0385902652177
-0.038028889163
-0.0364743103994
-0.0332931799482
-0.0294892075519
-0.0306293995344
-0.0430095903576
-0.0281006362795
-0.038087142624
-0.037102108332
-0.0386985449589
-0.0389078210863
-0.0389155116959
-0.0389117324413
-0.0389103262862
-0.0389091844426
-0.0389069943776
-0.0389024863838
-0.0388913692322
-0.0388547278694
-0.0387189861301
-0.0382613797216
-0.0370268954188
-0.0346833017029
-0.0326880922984
-0.0369464127859
-0.0532623411701
-0.0336495158014
-0.0381832516435
-0.0371725156806
-0.0387660147604
-0.0389737199941
-0.0389822535345
-0.0389808078854
-0.0389826074531
-0.0389853657432
-0.0389877724296
-0.0389887058482
-0.0389845930574
-0.0389600601921
-0.0388564846484
-0.0385029601544
-0.0375866905577
-0.0360733912357
-0.0358786300375
-0.0433073746184
-0.0640773884063
-0.0394231429917
-0.0382785888421
-0.0372444857003
-0.0388361869938
-0.0390427084569
-0.0390523529823
-0.0390535709674
-0.0390589954574
-0.0390661696849
-0.0390737862149
-0.0390809041989
-0.0390846415035
-0.0390730316952
-0.0390018031922
-0.0387497518736
-0.0381401562641
-0.0374241642917
-0.0389749624106
-0.0495586372117
-0.0751118908921
-0.0451482950516
)
;
    }
    atmosphere
    {
        type            calculated;
        value           uniform 0;
    }
    floatingObject
    {
        type            calculated;
        value           nonuniform List<scalar> 0();
    }
    procBoundary0to1
    {
        type            processor;
        value           nonuniform List<scalar> 10(-0.0384325062094 -0.0383380074278 -0.0380266490868 -0.0369571117682 -0.0337774784662 -0.0262304654174 -0.012856013669 0.00206801907654 0.00638516216833 -0.00121757164685);
    }
    procBoundary0to2
    {
        type            processor;
        value           nonuniform List<scalar> 
14
(
-0.0385222441848
-0.0385006471195
-0.0384734740565
-0.0385920118879
-0.0385779210655
-0.0385779210655
-0.037635303556
-0.0367954369368
-0.0386449688492
-0.0386449688492
-0.0384654229406
-0.0384654229406
-0.0386836402761
-0.0386836402761
)
;
    }
    procBoundary0to4
    {
        type            processor;
        value           nonuniform List<scalar> 8(-0.038371577967 -0.0373173050525 -0.0389085083399 -0.0391142337161 -0.0391252710495 -0.0391295040627 -0.0391389924296 -0.0391511458407);
    }
    procBoundary0to5
    {
        type            processor;
        value           nonuniform List<scalar> 
12
(
-0.0391646457158
-0.0391787278648
-0.0391912088752
-0.0391932620631
-0.0391538968489
-0.0389977994642
-0.0386735467252
-0.0386929443907
-0.0418756117651
-0.0554688225021
-0.0861449826802
-0.0504998050431
)
;
    }
}


// ************************************************************************* //
