/*--------------------------------*- C++ -*----------------------------------*\
| =========                 |                                                 |
| \\      /  F ield         | OpenFOAM: The Open Source CFD Toolbox           |
|  \\    /   O peration     | Version:  v2012                                 |
|   \\  /    A nd           | Website:  www.openfoam.com                      |
|    \\/     M anipulation  |                                                 |
\*---------------------------------------------------------------------------*/
FoamFile
{
    version     2.0;
    format      ascii;
    class       volScalarField;
    location    "1";
    object      k;
}
// * * * * * * * * * * * * * * * * * * * * * * * * * * * * * * * * * * * * * //

dimensions      [0 2 -2 0 0 0 0];


internalField   nonuniform List<scalar> 
166
(
0.0200731519119
0.0200970227935
0.0201235385324
0.020153216108
0.02018992364
0.0202532034089
0.0204242109049
0.0209798978932
0.0226707298775
0.0270279860795
0.0362646615761
0.0528122804942
0.0801548934631
0.0200681095677
0.0200869705721
0.0201079457233
0.0201316032636
0.020157954236
0.0201875553434
0.0202242223369
0.0202872007954
0.0204565699802
0.0210057848711
0.0226762408137
0.0269815858988
0.0361157632826
0.0525422531772
0.0800007400639
0.015727127919
0.0190616532997
0.0200829609576
0.020103140776
0.0201218561389
0.0201427679537
0.0201663741323
0.0201927378228
0.020222429279
0.0202591848988
0.0203218436374
0.0204889706008
0.0210293555895
0.0226730038078
0.0269130175816
0.0359235494077
0.0522090063165
0.0798161201021
0.0157549948196
0.0190926328895
0.019886826417
0.0200725913919
0.0201175174412
0.0201377540099
0.0201564728458
0.0201774405762
0.0202011541696
0.0202277028469
0.0202576540088
0.0202946338829
0.0203569429203
0.0205211544948
0.0210500931809
0.022659801658
0.0268197856916
0.0356838432121
0.0518055467986
0.0795979366464
0.0157810417546
0.0191222917195
0.0199192386814
0.0201060967016
0.0201513822589
0.0201717720855
0.0201906296341
0.0202117924023
0.0202357747928
0.0202626809793
0.0202930651108
0.0203304094617
0.0203923317919
0.0205529003057
0.0210675643167
0.0226356374497
0.0266998112452
0.0353928303621
0.0513228239495
0.0793418968675
0.0158050350609
0.0191504628531
0.0199504824815
0.0201386101538
0.0201843608311
0.0202050161121
0.0202241486036
0.020245656213
0.0202700732264
0.0202975138975
0.0203285105947
0.0203663666625
0.0204278664005
0.0205840296235
0.0210814026674
0.0225994524604
0.0265500337782
0.0350429100797
0.0507501933182
0.0790438918179
0.0158267148609
0.0191769188706
0.0199803364317
0.020169919827
0.020216257891
0.0202373021588
0.0202568497686
0.0202788586193
0.0203038821554
0.0203320414354
0.0203638391773
0.0204023651507
0.0204634181644
0.0206144085749
0.0210913490203
0.0225503606337
0.0263675529438
0.0346272912667
0.0500719280107
0.0786977699327
0.0158458027285
0.0192014200668
0.0200085763887
0.0201998137711
0.020246873863
0.0202684380537
0.020288546715
0.0203112202804
0.0203370309049
0.0203661016572
0.020398899997
0.0204382692887
0.0204988778318
0.0206439772819
0.0210974118836
0.0224883472318
0.0261517543798
0.0341429535896
0.0492803369761
0.0783005014162
0.0158620014015
0.0192237105421
0.0200349661814
0.0202280710419
0.0202759985615
0.0202982217566
0.020319045623
0.0203425589444
0.0203693499942
0.0203995334701
0.0204335455232
0.0204739520796
0.0205341597327
0.0206727481221
0.0210998223941
0.0224140134702
0.0259030771427
0.0335874403313
0.0483586051869
0.0778473419508
)
;

boundaryField
{
    back
    {
        type            kqRWallFunction;
        value           nonuniform List<scalar> 
166
(
0.0200731519119
0.0200970227935
0.0201235385324
0.020153216108
0.02018992364
0.0202532034089
0.0204242109049
0.0209798978932
0.0226707298775
0.0270279860795
0.0362646615761
0.0528122804942
0.0801548934631
0.0200681095677
0.0200869705721
0.0201079457233
0.0201316032636
0.020157954236
0.0201875553434
0.0202242223369
0.0202872007954
0.0204565699802
0.0210057848711
0.0226762408137
0.0269815858988
0.0361157632826
0.0525422531772
0.0800007400639
0.015727127919
0.0190616532997
0.0200829609576
0.020103140776
0.0201218561389
0.0201427679537
0.0201663741323
0.0201927378228
0.020222429279
0.0202591848988
0.0203218436374
0.0204889706008
0.0210293555895
0.0226730038078
0.0269130175816
0.0359235494077
0.0522090063165
0.0798161201021
0.0157549948196
0.0190926328895
0.019886826417
0.0200725913919
0.0201175174412
0.0201377540099
0.0201564728458
0.0201774405762
0.0202011541696
0.0202277028469
0.0202576540088
0.0202946338829
0.0203569429203
0.0205211544948
0.0210500931809
0.022659801658
0.0268197856916
0.0356838432121
0.0518055467986
0.0795979366464
0.0157810417546
0.0191222917195
0.0199192386814
0.0201060967016
0.0201513822589
0.0201717720855
0.0201906296341
0.0202117924023
0.0202357747928
0.0202626809793
0.0202930651108
0.0203304094617
0.0203923317919
0.0205529003057
0.0210675643167
0.0226356374497
0.0266998112452
0.0353928303621
0.0513228239495
0.0793418968675
0.0158050350609
0.0191504628531
0.0199504824815
0.0201386101538
0.0201843608311
0.0202050161121
0.0202241486036
0.020245656213
0.0202700732264
0.0202975138975
0.0203285105947
0.0203663666625
0.0204278664005
0.0205840296235
0.0210814026674
0.0225994524604
0.0265500337782
0.0350429100797
0.0507501933182
0.0790438918179
0.0158267148609
0.0191769188706
0.0199803364317
0.020169919827
0.020216257891
0.0202373021588
0.0202568497686
0.0202788586193
0.0203038821554
0.0203320414354
0.0203638391773
0.0204023651507
0.0204634181644
0.0206144085749
0.0210913490203
0.0225503606337
0.0263675529438
0.0346272912667
0.0500719280107
0.0786977699327
0.0158458027285
0.0192014200668
0.0200085763887
0.0201998137711
0.020246873863
0.0202684380537
0.020288546715
0.0203112202804
0.0203370309049
0.0203661016572
0.020398899997
0.0204382692887
0.0204988778318
0.0206439772819
0.0210974118836
0.0224883472318
0.0261517543798
0.0341429535896
0.0492803369761
0.0783005014162
0.0158620014015
0.0192237105421
0.0200349661814
0.0202280710419
0.0202759985615
0.0202982217566
0.020319045623
0.0203425589444
0.0203693499942
0.0203995334701
0.0204335455232
0.0204739520796
0.0205341597327
0.0206727481221
0.0210998223941
0.0224140134702
0.0259030771427
0.0335874403313
0.0483586051869
0.0778473419508
)
;
    }
    sides
    {
        type            kqRWallFunction;
        value           nonuniform List<scalar> 0();
    }
    bottom
    {
        type            kqRWallFunction;
        value           nonuniform List<scalar> 7(0.015727127919 0.0157549948196 0.0157810417546 0.0158050350609 0.0158267148609 0.0158458027285 0.0158620014015);
    }
    front
    {
        type            kqRWallFunction;
        value           nonuniform List<scalar> 
166
(
0.0200731519119
0.0200970227935
0.0201235385324
0.020153216108
0.02018992364
0.0202532034089
0.0204242109049
0.0209798978932
0.0226707298775
0.0270279860795
0.0362646615761
0.0528122804942
0.0801548934631
0.0200681095677
0.0200869705721
0.0201079457233
0.0201316032636
0.020157954236
0.0201875553434
0.0202242223369
0.0202872007954
0.0204565699802
0.0210057848711
0.0226762408137
0.0269815858988
0.0361157632826
0.0525422531772
0.0800007400639
0.015727127919
0.0190616532997
0.0200829609576
0.020103140776
0.0201218561389
0.0201427679537
0.0201663741323
0.0201927378228
0.020222429279
0.0202591848988
0.0203218436374
0.0204889706008
0.0210293555895
0.0226730038078
0.0269130175816
0.0359235494077
0.0522090063165
0.0798161201021
0.0157549948196
0.0190926328895
0.019886826417
0.0200725913919
0.0201175174412
0.0201377540099
0.0201564728458
0.0201774405762
0.0202011541696
0.0202277028469
0.0202576540088
0.0202946338829
0.0203569429203
0.0205211544948
0.0210500931809
0.022659801658
0.0268197856916
0.0356838432121
0.0518055467986
0.0795979366464
0.0157810417546
0.0191222917195
0.0199192386814
0.0201060967016
0.0201513822589
0.0201717720855
0.0201906296341
0.0202117924023
0.0202357747928
0.0202626809793
0.0202930651108
0.0203304094617
0.0203923317919
0.0205529003057
0.0210675643167
0.0226356374497
0.0266998112452
0.0353928303621
0.0513228239495
0.0793418968675
0.0158050350609
0.0191504628531
0.0199504824815
0.0201386101538
0.0201843608311
0.0202050161121
0.0202241486036
0.020245656213
0.0202700732264
0.0202975138975
0.0203285105947
0.0203663666625
0.0204278664005
0.0205840296235
0.0210814026674
0.0225994524604
0.0265500337782
0.0350429100797
0.0507501933182
0.0790438918179
0.0158267148609
0.0191769188706
0.0199803364317
0.020169919827
0.020216257891
0.0202373021588
0.0202568497686
0.0202788586193
0.0203038821554
0.0203320414354
0.0203638391773
0.0204023651507
0.0204634181644
0.0206144085749
0.0210913490203
0.0225503606337
0.0263675529438
0.0346272912667
0.0500719280107
0.0786977699327
0.0158458027285
0.0192014200668
0.0200085763887
0.0201998137711
0.020246873863
0.0202684380537
0.020288546715
0.0203112202804
0.0203370309049
0.0203661016572
0.020398899997
0.0204382692887
0.0204988778318
0.0206439772819
0.0210974118836
0.0224883472318
0.0261517543798
0.0341429535896
0.0492803369761
0.0783005014162
0.0158620014015
0.0192237105421
0.0200349661814
0.0202280710419
0.0202759985615
0.0202982217566
0.020319045623
0.0203425589444
0.0203693499942
0.0203995334701
0.0204335455232
0.0204739520796
0.0205341597327
0.0206727481221
0.0210998223941
0.0224140134702
0.0259030771427
0.0335874403313
0.0483586051869
0.0778473419508
)
;
    }
    atmosphere
    {
        type            inletOutlet;
        inletValue      uniform 0.1;
        value           uniform 0.1;
    }
    floatingObject
    {
        type            kqRWallFunction;
        value           nonuniform List<scalar> 0();
    }
    procBoundary0to1
    {
        type            processor;
        value           nonuniform List<scalar> 10(0.0201192267191 0.02015608712 0.0202196511808 0.0203918124199 0.020952039909 0.022657861086 0.0270556432455 0.0363770333621 0.05302941598 0.0802830267665);
    }
    procBoundary0to2
    {
        type            processor;
        value           nonuniform List<scalar> 
14
(
0.0200382926762
0.0200625336836
0.0200893284211
0.0200326535362
0.0200518043407
0.0200518043407
0.015697614748
0.0190294959626
0.0200477130378
0.0200477130378
0.0198532916679
0.0198532916679
0.020038134998
0.020038134998
)
;
    }
    procBoundary0to4
    {
        type            processor;
        value           nonuniform List<scalar> 8(0.015874998096 0.0192435123391 0.0200592475674 0.0202544520258 0.0203034032004 0.0203264336392 0.0203481388385 0.0203726816187);
    }
    procBoundary0to5
    {
        type            processor;
        value           nonuniform List<scalar> 
12
(
0.0204006678358
0.0204321746905
0.0204676304857
0.0205092959186
0.0205692035202
0.0207008016091
0.0210989796419
0.0223283471544
0.0256226364748
0.0329603337848
0.0472981233035
0.0773399652585
)
;
    }
}


// ************************************************************************* //
