/*--------------------------------*- C++ -*----------------------------------*\
| =========                 |                                                 |
| \\      /  F ield         | OpenFOAM: The Open Source CFD Toolbox           |
|  \\    /   O peration     | Version:  v2012                                 |
|   \\  /    A nd           | Website:  www.openfoam.com                      |
|    \\/     M anipulation  |                                                 |
\*---------------------------------------------------------------------------*/
FoamFile
{
    version     2.0;
    format      ascii;
    class       volVectorField;
    location    "1";
    object      U_0;
}
// * * * * * * * * * * * * * * * * * * * * * * * * * * * * * * * * * * * * * //

dimensions      [0 1 -1 0 0 0 0];


internalField   nonuniform List<vector> 
166
(
(0.132003631654 -0.0415470674859 -1.42197530317e-23)
(0.135084747246 -0.0477211450635 -8.30983964556e-24)
(0.138557441044 -0.0541321891853 -2.13708298028e-23)
(0.14242341709 -0.060815096781 2.84533847121e-24)
(0.14668391091 -0.0678183030598 -5.16421554797e-23)
(0.151331089958 -0.0751872941927 3.35364332574e-23)
(0.156347444544 -0.0828739858343 1.75402340312e-22)
(0.161697637129 -0.0909268059649 5.39923856831e-22)
(0.16709640995 -0.100028679666 8.79384119307e-22)
(0.171797804221 -0.110450326317 -1.62381536322e-21)
(0.173871965501 -0.121077256898 -2.11660143155e-21)
(0.174970697672 -0.129335647689 2.44500232957e-21)
(0.155410921057 -0.141118839762 2.20166562244e-21)
(0.132536035446 -0.0275993497506 -2.87375004392e-23)
(0.134995892585 -0.0329925438988 -3.51136468652e-23)
(0.137873867368 -0.0385570428126 -3.71937433071e-23)
(0.141173630507 -0.0443233329635 -1.75706029003e-23)
(0.144899202668 -0.0503238778062 -2.4822291048e-23)
(0.149055385595 -0.0565939107224 -1.4433512834e-23)
(0.153647144577 -0.0631815103732 -1.03275304854e-22)
(0.158671617141 -0.0701331728206 3.18660074069e-23)
(0.164117699204 -0.0774132393383 1.34240731521e-22)
(0.169951297738 -0.0850642000122 -4.979207981e-23)
(0.175891608257 -0.0936780096659 2.21945522147e-23)
(0.181188748642 -0.103742696997 -2.03947507846e-21)
(0.18363910494 -0.11514070795 -2.82455284471e-21)
(0.185232891222 -0.12334958887 -3.39553209896e-21)
(0.163793215507 -0.132826272728 -3.26850198803e-21)
(0.127350434979 -0.00290693885486 -3.89247171624e-23)
(0.131045183341 -0.00623398029846 1.17020345261e-21)
(0.135476571925 -0.0204546639237 -2.99507236951e-23)
(0.137648217235 -0.0252751453957 -1.16155110487e-23)
(0.140261982008 -0.0302369654162 -1.40782204974e-23)
(0.14332321412 -0.0353657001689 -2.82394447264e-23)
(0.14683760267 -0.0406911054247 -3.59354719878e-23)
(0.150811811923 -0.0462451294164 -1.02358167516e-23)
(0.155253979067 -0.0520626478025 -3.78780614023e-23)
(0.160173145787 -0.0581905164519 -3.74558150437e-23)
(0.165572119611 -0.0646753253611 3.35991723417e-23)
(0.171447310381 -0.0714930826876 1.27046868353e-22)
(0.177766573529 -0.0786779484872 1.70688850527e-22)
(0.184255320728 -0.0867183621697 -5.32939666444e-23)
(0.190168149262 -0.0963261363434 -8.80216825915e-22)
(0.193032361942 -0.108540948399 -2.55972832523e-21)
(0.195078282326 -0.116293767669 -1.27026143017e-20)
(0.171777448464 -0.123574011647 -1.27023281929e-20)
(0.131465238082 -0.00265405198095 -2.44676719792e-22)
(0.135341950714 -0.00557551008853 2.47401482609e-21)
(0.136749035172 -0.00994736105239 3.69204822068e-23)
(0.138187908919 -0.0141875379896 -1.62960234307e-22)
(0.140024638169 -0.0184470248796 -4.62644367073e-23)
(0.14231864125 -0.0228129326852 -2.29893602667e-23)
(0.145081536269 -0.0273151282997 -2.1398876185e-23)
(0.14832027662 -0.031977949064 1.5701589563e-23)
(0.152042628125 -0.0368299611578 -5.01068787144e-23)
(0.156257924035 -0.0419019303341 -3.10880960272e-23)
(0.160977704652 -0.0472275307268 2.13571494325e-23)
(0.166215289594 -0.0528514169456 -9.44978959244e-23)
(0.171979653162 -0.0588190932024 8.34919340267e-23)
(0.17827549124 -0.0651165694943 2.3812917821e-22)
(0.185073535863 -0.0717683126199 4.85393414496e-22)
(0.192107779976 -0.0791492363366 6.26355778633e-22)
(0.198649375164 -0.088179091222 -7.46339542664e-21)
(0.201969937841 -0.101208807357 -8.10714126221e-21)
(0.20439871432 -0.108095149727 -1.25179657959e-20)
(0.179327008117 -0.113350893665 -1.26139867269e-20)
(0.135129655935 -0.00238547982876 -9.80152315016e-22)
(0.139182902155 -0.00488419332175 -2.6422423912e-22)
(0.140665660282 -0.00878740086235 -3.83858102462e-22)
(0.14217890479 -0.0125487832985 -2.46652834804e-22)
(0.144109137012 -0.0163322213453 -4.65647793648e-23)
(0.146520446268 -0.0202176970206 -6.20876089187e-24)
(0.149426111027 -0.0242330334165 -2.17792485004e-23)
(0.152834603317 -0.0284009786079 1.90558392539e-24)
(0.15675562607 -0.0327483513701 -3.58876841296e-23)
(0.161201050719 -0.0373040113367 -2.90845918969e-23)
(0.166185714368 -0.0420995164907 3.41222899335e-23)
(0.171727196552 -0.0471762411183 -1.3098028515e-23)
(0.177840877063 -0.0525772867249 6.36477150105e-23)
(0.184540149254 -0.0582963802853 8.82217189587e-23)
(0.191799475577 -0.0643465412643 2.99058447354e-22)
(0.199365645315 -0.0709840240466 1.08643904983e-22)
(0.206539437333 -0.079303051568 -5.18019419084e-21)
(0.210337621158 -0.0930412588341 -1.03043067445e-20)
(0.213005449912 -0.098820529922 -1.03143804148e-20)
(0.186353919517 -0.101906743725 -9.95217249572e-21)
(0.138321552733 -0.00210125233822 -1.34637582374e-21)
(0.142545310535 -0.00416201744017 -6.36295865522e-22)
(0.144101719335 -0.00757327058853 -4.15809810532e-22)
(0.145686321493 -0.0108316465114 -2.8236419601e-22)
(0.147705466583 -0.0141151784125 -5.71704939202e-23)
(0.150227972661 -0.017495622128 -1.63040243892e-23)
(0.153268658878 -0.0209983872935 -6.6480730874e-24)
(0.156837287049 -0.0246442310496 7.69230683414e-24)
(0.160945198941 -0.028457676043 -4.57563497701e-23)
(0.165606487984 -0.0324649441134 -6.56317992201e-24)
(0.170838972144 -0.0366945275626 1.9386274933e-23)
(0.176664205962 -0.0411833689577 -4.68530000134e-23)
(0.183103865926 -0.0459706306212 1.10666118766e-22)
(0.190180296547 -0.0510552982222 1.47991319055e-22)
(0.197872850002 -0.0564369279162 3.75070779067e-22)
(0.205943717659 -0.062248515561 3.92856609324e-22)
(0.213731609469 -0.0697011689614 -1.82959453826e-21)
(0.218018281486 -0.08399046034 -4.60403141958e-21)
(0.220671926038 -0.0884314155104 -5.01114608847e-21)
(0.192704168517 -0.0894364113419 -4.65338877172e-21)
(0.141019947583 -0.00180135887648 -1.27538769074e-21)
(0.145407828083 -0.00341120011988 3.77451295377e-22)
(0.147034951468 -0.00630844654051 3.48886381237e-22)
(0.14868743487 -0.00904041562138 -5.86770714753e-23)
(0.150790338872 -0.011801470776 -3.56781078558e-23)
(0.153417142943 -0.0146538925454 -2.68956360261e-23)
(0.156584001024 -0.0176203120333 -2.21712679522e-23)
(0.160301583927 -0.0207191357081 -2.54154072153e-23)
(0.164582429111 -0.0239720798989 -4.18797450625e-23)
(0.1694423188 -0.0274020158126 -2.3135551519e-23)
(0.174901492455 -0.0310334148987 2.77400000481e-24)
(0.180984878838 -0.034897636514 -5.87998735703e-23)
(0.187719797078 -0.0390281558644 4.45483782112e-23)
(0.195136963022 -0.0434262157079 4.67334009872e-23)
(0.203221444976 -0.0480763260002 -6.79827806592e-23)
(0.211748863852 -0.0529758976536 -1.18470055474e-21)
(0.220099155557 -0.0593442650652 -7.22014514818e-21)
(0.224889920362 -0.0739787514642 -4.09865230771e-21)
(0.227257906645 -0.0768242821405 2.53416286021e-21)
(0.198297607587 -0.0758695119705 1.92750182923e-21)
(0.14320507012 -0.00148566571638 -7.79566247484e-22)
(0.147750735483 -0.00263426341324 -2.53232903096e-23)
(0.149444062838 -0.00499695611461 1.98680534984e-22)
(0.151160745586 -0.00717950774732 -7.00328470757e-23)
(0.153342031924 -0.00939687575832 -3.00330681388e-23)
(0.156065835041 -0.0117001976377 -2.1205509884e-23)
(0.159349346354 -0.0141089048666 -1.94025974001e-23)
(0.16320358315 -0.016638708378 -3.79658773205e-23)
(0.16764175648 -0.0193080671279 -5.00076030715e-23)
(0.172680520005 -0.0221358688473 -2.66425992149e-23)
(0.178341779556 -0.0251416742746 -4.52170241781e-23)
(0.184652859138 -0.0283502439269 -8.79647759973e-23)
(0.191645605317 -0.0317879437472 4.67755715204e-23)
(0.199357607218 -0.0354557513256 1.44388790936e-22)
(0.207779056987 -0.0393245047574 5.68477641848e-23)
(0.216693376249 -0.0432478670829 4.66328547419e-22)
(0.225506411031 -0.0482968884483 -1.31315339139e-21)
(0.230808302471 -0.0630258131434 -4.31520305341e-21)
(0.232595889675 -0.064026446907 -2.82233449396e-21)
(0.203058148096 -0.0614230411248 -3.81523213999e-21)
(0.144858599411 -0.00115375131489 -9.10065974931e-22)
(0.149556043958 -0.00183411278874 9.76970144612e-22)
(0.151308163143 -0.00364316858988 6.37668111685e-23)
(0.153086114801 -0.00525252988928 -6.67842078227e-23)
(0.155340721188 -0.00690664823277 -3.33544247367e-23)
(0.158154260127 -0.00864217293449 -2.02269794402e-23)
(0.161544791521 -0.010474709252 -1.1824957596e-23)
(0.165522750762 -0.0124169710604 -1.56294047805e-23)
(0.170101824937 -0.0144838694262 -3.29986250729e-23)
(0.175297965519 -0.0166897839705 -2.8472658251e-23)
(0.181134231529 -0.0190485838389 -4.33574248188e-23)
(0.187638801198 -0.0215776859382 -9.70040206781e-23)
(0.194846719327 -0.0242952398461 3.5948048302e-23)
(0.202801574457 -0.0272009374268 1.8845356006e-22)
(0.211498780932 -0.0302596160899 6.75250519614e-23)
(0.220716582061 -0.0331879685513 -2.7282277748e-22)
(0.229817036281 -0.0366632427215 -7.07204209332e-21)
(0.235635502469 -0.0511768217357 -2.5767787555e-21)
(0.23650866955 -0.0500842150711 7.07650320246e-22)
(0.20693106766 -0.0461715815128 -7.36388042595e-22)
)
;

boundaryField
{
    back
    {
        type            noSlip;
    }
    sides
    {
        type            noSlip;
    }
    bottom
    {
        type            noSlip;
    }
    front
    {
        type            noSlip;
    }
    atmosphere
    {
        type            pressureInletOutletVelocity;
        value           nonuniform List<vector> 9((0 -0.141118839762 0) (0 -0.132826272728 0) (0 -0.123574011647 0) (0 -0.113350893665 0) (0 -0.101906743725 0) (0 -0.0894364113419 0) (0 -0.0758695119705 0) (0 -0.0614230411248 0) (0 -0.0461715815128 0));
    }
    floatingObject
    {
        type            movingWallVelocity;
        value           nonuniform List<vector> 0();
    }
    procBoundary0to1
    {
        type            processor;
        value           nonuniform List<vector> 10((0.135399096145 -0.0647242196431 4.1061094238e-23) (0.139329010583 -0.0721000313682 -2.04843223082e-24) (0.143601585974 -0.0798388345649 2.45836634305e-23) (0.148194076417 -0.0878800354915 4.38743259683e-23) (0.153069961571 -0.0962743504791 2.82471998907e-22) (0.157942935309 -0.105785110892 -5.92325242884e-23) (0.162082931457 -0.116496548303 -4.74534360508e-21) (0.163823598567 -0.126433139003 -1.02457657995e-20) (0.164426235676 -0.134460773525 -5.4449793055e-21) (0.1466990524 -0.14842083384 -5.15220753862e-21));
    }
    procBoundary0to2
    {
        type            processor;
        value           nonuniform List<vector> 
14
(
(0.125744270644 -0.0443329842609 2.08242474313e-24)
(0.128605185191 -0.0508817078183 -2.05043381901e-23)
(0.131823804595 -0.0576674697165 -2.04100817707e-23)
(0.127009791109 -0.0297818539641 -2.78474438968e-23)
(0.129312561161 -0.0355775213414 -3.00120400954e-23)
(0.129312561161 -0.0355775213414 -3.00120400954e-23)
(0.122808394823 -0.0031440409009 -1.06484934906e-21)
(0.126316373139 -0.00685791389508 4.05086163491e-23)
(0.130490595741 -0.0223510821693 -2.24707063496e-23)
(0.130490595741 -0.0223510821693 -2.24707063496e-23)
(0.132375165234 -0.0110500821895 1.65548447219e-22)
(0.132375165234 -0.0110500821895 1.65548447219e-22)
(0.133737148635 -0.0157440085054 -9.36752162392e-23)
(0.133737148635 -0.0157440085054 -9.36752162392e-23)
)
;
    }
    procBoundary0to4
    {
        type            processor;
        value           nonuniform List<vector> 8((0.145963726952 -0.000804975959515 -3.78012400373e-22) (0.150805831477 -0.0010141541946 -4.41552835455e-23) (0.152606642703 -0.00225053662383 -1.62602249198e-22) (0.154445688877 -0.00326066524766 -9.60795790234e-23) (0.156768926343 -0.00433513295199 -3.38953544354e-23) (0.159665219693 -0.00548721385775 -7.52428835911e-24) (0.163153886751 -0.00672857131029 -3.43811200526e-25) (0.167242281566 -0.00806855843998 1.76880108422e-24));
    }
    procBoundary0to5
    {
        type            processor;
        value           nonuniform List<vector> 
12
(
(0.171946514977 -0.00951879563558 -1.03923793588e-23)
(0.177277079063 -0.011088849972 -9.46957182042e-24)
(0.183260489437 -0.0127860606751 -1.17761532944e-24)
(0.189922105452 -0.0146203223939 -1.67658522541e-23)
(0.197297977701 -0.0165993869252 7.27621179444e-23)
(0.205440238489 -0.0187206640063 9.41274874212e-23)
(0.214355252423 -0.0209599707049 6.06656355248e-23)
(0.223804842342 -0.022955583071 1.85750732092e-22)
(0.232890581652 -0.024582787191 7.16557369602e-22)
(0.239232419633 -0.038531140231 -1.17991732451e-21)
(0.238774866365 -0.0351233205596 -7.04810388558e-21)
(0.209970240385 -0.0305926920827 -6.91417808815e-21)
)
;
    }
}


// ************************************************************************* //
