/*--------------------------------*- C++ -*----------------------------------*\
| =========                 |                                                 |
| \\      /  F ield         | OpenFOAM: The Open Source CFD Toolbox           |
|  \\    /   O peration     | Version:  v2012                                 |
|   \\  /    A nd           | Website:  www.openfoam.com                      |
|    \\/     M anipulation  |                                                 |
\*---------------------------------------------------------------------------*/
FoamFile
{
    version     2.0;
    format      ascii;
    class       surfaceVectorField;
    location    "1";
    object      Uf_0;
}
// * * * * * * * * * * * * * * * * * * * * * * * * * * * * * * * * * * * * * //

dimensions      [0 1 -1 0 0 0 0];


internalField   nonuniform List<vector> 
302
(
(0.13354418945 -0.0446126978413 -1.12647963386e-23)
(0.135003972358 -0.0400520551493 -2.57067481694e-23)
(0.136821094145 -0.0509005928154 -1.48403347242e-23)
(0.138199827214 -0.0460222390135 -1.29402212729e-23)
(0.140490429067 -0.0574429842752 -9.26274566577e-24)
(0.141805015136 -0.0522280334958 -2.30965604254e-23)
(0.144553664 -0.0642770470625 -2.43984085043e-23)
(0.145822730345 -0.0587045037517 -5.79408718142e-24)
(0.149007500434 -0.071443473861 -9.05286111115e-24)
(0.150255953948 -0.0654999067165 -7.74587301669e-23)
(0.153839267251 -0.0789875413492 1.04469386785e-22)
(0.155099234167 -0.0726602335066 3.27012203322e-23)
(0.159022540837 -0.0869603571843 3.57663098572e-22)
(0.160338256898 -0.0801436125863 1.54821535917e-22)
(0.16439702354 -0.0954140393132 7.09653988069e-22)
(0.165937360449 -0.0879955029885 2.45065888511e-22)
(0.169447107086 -0.104403454899 -3.72215621957e-22)
(0.171612086784 -0.0968533446661 4.50789335761e-22)
(0.172834884861 -0.113975781815 -1.87020839738e-21)
(0.17661745465 -0.107096511657 -1.83164522084e-21)
(0.174421331586 -0.123905751261 1.64200449013e-22)
(0.178882197635 -0.118108982424 -2.47057713813e-21)
(0.165190809364 -0.134321826059 2.32333397601e-21)
(0.180225270971 -0.12634261828 -4.75264884694e-22)
(0.159582348689 -0.136972556245 -5.33418182795e-22)
(0.133765964015 -0.0302859117634 -3.19255736522e-23)
(0.135149380011 -0.0264372475731 -2.0176505744e-23)
(0.136434879976 -0.0357619978257 -3.61536950862e-23)
(0.137690802307 -0.0316147546575 -2.45959336813e-23)
(0.139523748937 -0.0414238820005 -2.73821731037e-23)
(0.140665867186 -0.0369613714908 -3.27165940168e-23)
(0.143036416587 -0.0473032851845 -2.11964469742e-23)
(0.144079235703 -0.0425072191941 -2.67530374441e-23)
(0.146977294131 -0.0534345162623 -1.9627901941e-23)
(0.147936245561 -0.0482845036113 -1.75290538998e-23)
(0.151351265086 -0.0598551491089 -5.8854408844e-23)
(0.152243356643 -0.0543282792625 -2.61557871182e-23)
(0.156159380859 -0.0666066980911 -3.57046487236e-23)
(0.157007490898 -0.0606860134126 -7.03655599488e-23)
(0.161394658173 -0.0737360246494 8.30533694641e-23)
(0.162228544879 -0.0674042490908 3.27325898743e-23)
(0.167034498471 -0.0812970007085 4.22243258557e-23)
(0.167899215355 -0.074453161013 1.30643799937e-22)
(0.172921452998 -0.0893452216338 -1.37987637976e-23)
(0.173985564558 -0.0818710742497 6.04483853587e-23)
(0.17854017845 -0.0979413245511 -1.00864026312e-21)
(0.180208176178 -0.0901981859178 -1.55497072148e-23)
(0.182413926791 -0.107145445803 -2.43201396159e-21)
(0.185821568692 -0.10003441667 -1.45984595219e-21)
(0.184435998081 -0.116746508328 -3.11004247184e-21)
(0.188483257739 -0.111840828174 -2.69214058497e-21)
(0.174513053364 -0.126811776196 -3.3320170435e-21)
(0.190290463457 -0.119821678269 -8.04907320032e-21)
(0.167781719825 -0.128200142188 -7.98541509048e-21)
(0.12919780916 -0.00432408375173 5.65639367725e-22)
(0.129414546979 -0.0027804954179 -1.41800718477e-22)
(0.133237752238 -0.0059047451935 1.82210913935e-21)
(0.13656239458 -0.0228590751538 -2.07831173719e-23)
(0.137803618603 -0.0194508444016 -3.81075802012e-23)
(0.138955099621 -0.0277503343507 -1.28468657731e-23)
(0.140040656601 -0.0240440390404 -1.73024356577e-23)
(0.141792598064 -0.0327936759872 -2.11588326119e-23)
(0.142734157643 -0.028776046858 -1.77385483412e-23)
(0.145080408395 -0.0380180747765 -3.20874583571e-23)
(0.145890275341 -0.0336718246165 -6.2689275817e-24)
(0.148824707296 -0.0434546200154 -2.30856443697e-23)
(0.149515785099 -0.0387605332912 -4.30211753511e-23)
(0.153032895495 -0.0491371041753 -2.40569390769e-23)
(0.15361872805 -0.0440735298752 -2.06619563894e-23)
(0.157713562427 -0.0551027239534 -3.7666938223e-23)
(0.158208968806 -0.0496450892647 -8.26045598489e-24)
(0.162872632699 -0.0613929132498 -1.928321351e-24)
(0.1632976674 -0.0555209666987 -6.5976855484e-23)
(0.168509714996 -0.0680550722781 8.03230203472e-23)
(0.168890687462 -0.0617472092817 5.85455531842e-23)
(0.174606941955 -0.0751445086177 1.4886785944e-22)
(0.174988633786 -0.0683048260909 1.82588023281e-22)
(0.181010947128 -0.0827192254305 5.86974419414e-23)
(0.181560264386 -0.0752231305536 3.28041132512e-22)
(0.187211734995 -0.0908446150382 -4.6675539628e-22)
(0.188333552229 -0.0829337992531 2.86530905994e-22)
(0.191600255602 -0.0995924386976 -1.71997257557e-21)
(0.194569385317 -0.0922526137827 -4.17180612628e-21)
(0.194055322134 -0.108766426145 -7.63117131345e-21)
(0.197657242874 -0.104874877878 -5.33343479372e-21)
(0.183427865395 -0.118355031368 -1.27024712473e-20)
(0.19987898217 -0.112194458698 -1.26102900488e-20)
(0.175565982587 -0.118462452656 -1.26581574599e-20)
(0.133403594398 -0.0038839697469 1.11466905315e-21)
(0.133298524283 -0.00251976590486 -6.12414517404e-22)
(0.136045492943 -0.00795065958089 1.25546765415e-21)
(0.13730445218 -0.00522985170514 1.10489529348e-21)
(0.137468472046 -0.0120940550821 -6.30198760503e-23)
(0.13875272753 -0.00936738095737 -1.73468810127e-22)
(0.139106273544 -0.0163132394868 -1.04612335507e-22)
(0.14023143051 -0.0133681606441 -2.04806534556e-22)
(0.14117163971 -0.0206281094241 -3.4626898487e-23)
(0.142118504534 -0.0173896231125 -4.6414608036e-23)
(0.14370008876 -0.0250631993515 -2.21941182258e-23)
(0.144475761362 -0.0215153148529 -1.45990605793e-23)
(0.146700906445 -0.0296447111702 -2.84864331101e-24)
(0.147315681924 -0.0257740808581 -2.15890623427e-23)
(0.150181452372 -0.0344004774163 -1.72026445757e-23)
(0.150646050183 -0.0301894638359 8.80358674419e-24)
(0.15415027608 -0.0393603704427 -4.05974873708e-23)
(0.154475681656 -0.0347891562639 -4.2997281422e-23)
(0.158617814344 -0.0445569079384 -4.86547329734e-24)
(0.158815263152 -0.0396029708354 -3.0086343962e-23)
(0.163596497123 -0.050026007872 -3.6570373246e-23)
(0.163678060393 -0.0446635236088 2.7739719683e-23)
(0.169097471378 -0.0558079217644 -5.50298094883e-24)
(0.169079567775 -0.0500138290319 -5.37979622197e-23)
(0.175127572201 -0.0619492689936 1.60810556118e-22)
(0.175032017662 -0.0556981899636 7.35698245186e-23)
(0.181674513551 -0.0685051496874 3.61761296353e-22)
(0.181544496131 -0.0617064748898 1.63175448584e-22)
(0.18859065792 -0.0755340018132 5.55874596564e-22)
(0.188589099281 -0.0680574269421 3.92225930925e-22)
(0.19537857757 -0.0831060242299 -3.418519824e-21)
(0.195905561081 -0.0750666301916 3.67499841808e-22)
(0.200309656502 -0.0913144372742 -7.78526834443e-21)
(0.20277779134 -0.083741071395 -6.32179480874e-21)
(0.203184326081 -0.0999815612795 -1.0312553529e-20)
(0.206324365143 -0.0971250330955 -9.20572400336e-21)
(0.191862861219 -0.108975374115 -1.25659762614e-20)
(0.208872614881 -0.103457839825 -1.14161731053e-20)
(0.18283360333 -0.107628818695 -1.12830796113e-20)
(0.137156279045 -0.00342108956863 -6.22188277068e-22)
(0.136719619322 -0.00224336608349 -1.16326406938e-21)
(0.139924281218 -0.00701953249177 -3.24041170791e-22)
(0.140902901986 -0.00452310538096 -4.50260052321e-22)
(0.141422282536 -0.0106930187721 -3.15255468633e-22)
(0.142426223521 -0.00818033572544 -3.99833956497e-22)
(0.143144020901 -0.0144395415318 -1.46608807084e-22)
(0.143977965345 -0.011690214905 -2.64508515407e-22)
(0.14531479164 -0.018277477102 -2.63867701283e-23)
(0.145956453489 -0.0152236998789 -5.18676366425e-23)
(0.147973278647 -0.0222299377218 -1.39940046961e-23)
(0.148428235372 -0.0188566595743 -1.12563926406e-23)
(0.151130357172 -0.0263216778835 -9.93683228748e-24)
(0.151407433818 -0.022615710355 -1.42136607939e-23)
(0.154795114693 -0.0305788954273 -1.69910501021e-23)
(0.154903276018 -0.0265226048287 4.79894537977e-24)
(0.158978338394 -0.0350296121384 -3.24861380132e-23)
(0.158926401698 -0.0306030137065 -4.08220169499e-23)
(0.163693382543 -0.0397042741771 2.51884901832e-24)
(0.163489922616 -0.034884477725 -1.78238859094e-23)
(0.16895645546 -0.0446365214962 1.05121307092e-23)
(0.168610299141 -0.0393970220267 2.67542824332e-23)
(0.174784036807 -0.049864177188 2.52748432478e-23)
(0.17430720973 -0.044179805038 -2.99755142642e-23)
(0.181190513159 -0.0554314882182 7.59347169846e-23)
(0.180599311477 -0.049273958673 8.71569168883e-23)
(0.188169812415 -0.0613916429319 1.93640083157e-22)
(0.187504632408 -0.0546758392538 1.18106519007e-22)
(0.195582560446 -0.0678023151564 2.03851176169e-22)
(0.194999754304 -0.0603917345902 3.37064613211e-22)
(0.202952541324 -0.0747358248465 -2.53577514293e-21)
(0.202839057325 -0.0666162698038 2.50750257154e-22)
(0.208438529245 -0.0822949756071 -7.74225046768e-21)
(0.210336935331 -0.0745021102647 -3.50489436455e-21)
(0.211671535535 -0.0903391503085 -1.03093435796e-20)
(0.214368538338 -0.0885158595871 -7.45416908205e-21)
(0.199679684714 -0.0984738324692 -1.01332764552e-20)
(0.21700707508 -0.0936259727162 -7.66276325163e-21)
(0.189525545463 -0.0956715775336 -7.30278063372e-21)
(0.140433431634 -0.00293648789266 -9.91335844633e-22)
(0.13965611041 -0.00195130560735 -1.31088175724e-21)
(0.143323514935 -0.00604456027591 -5.26052838027e-22)
(0.144010978488 -0.00378660878003 -1.29422285073e-22)
(0.144894020414 -0.0092253168673 -3.49087003271e-22)
(0.14560698672 -0.00694085856452 -3.34617146478e-23)
(0.146695894038 -0.0124757802501 -1.69767344965e-22)
(0.147228438125 -0.00993603106638 -1.70520633742e-22)
(0.148966719622 -0.0158126645885 -3.67372591547e-23)
(0.149293349349 -0.0129583245943 -4.6424300888e-23)
(0.15174831577 -0.0192574468726 -1.14760487383e-23)
(0.151873029988 -0.0160747573367 -2.15998302077e-23)
(0.155052972964 -0.0228330871044 5.22116873374e-25)
(0.154983085354 -0.0193093496634 -1.44096705198e-23)
(0.158891242995 -0.0265636793561 -1.9032021468e-23)
(0.158633876554 -0.0226816833789 -8.8615501906e-24)
(0.163275843462 -0.0304747654518 -2.61597648461e-23)
(0.162837491294 -0.026214877971 -4.38180474163e-23)
(0.168222730064 -0.0345938924194 6.41154750548e-24)
(0.167609047225 -0.029933479963 -1.48493657205e-23)
(0.173751589053 -0.0389513606023 -1.37333625402e-23)
(0.172967758951 -0.0338639712306 1.10801374689e-23)
(0.179884035944 -0.0435812288266 3.19065593764e-23)
(0.178937064397 -0.0380405027359 -5.28264367919e-23)
(0.186642081237 -0.0485236101028 1.2932871891e-22)
(0.185541675712 -0.0424993932428 7.76072484886e-23)
(0.194026573275 -0.0538274258297 2.61531049061e-22)
(0.192808429896 -0.0472407569651 9.73623600209e-23)
(0.201908283831 -0.0595475895711 3.83963694196e-22)
(0.200719901062 -0.0522566269582 1.53543999204e-22)
(0.209837663564 -0.0657550153393 -7.18368964466e-22)
(0.209046469867 -0.0576122066073 -3.9592197271e-22)
(0.215874945478 -0.0725610234316 -3.21681297892e-21)
(0.21714293682 -0.0645227170133 -4.52486984322e-21)
(0.219345103762 -0.0798601354759 -4.80758875403e-21)
(0.221667649079 -0.0789846059021 -4.35134186365e-21)
(0.206688047278 -0.0870194305554 -4.8322674301e-21)
(0.22416611884 -0.0826278488254 -1.23849161413e-21)
(0.195495055546 -0.0826529616562 -1.36294347125e-21)
(0.143213887833 -0.00243131502824 -4.48968197681e-22)
(0.142087423636 -0.00164351229643 -1.02747696911e-21)
(0.146221389775 -0.00502836354458 3.63168838307e-22)
(0.146608026715 -0.00302273176656 1.76064002534e-22)
(0.147861193169 -0.00769464171781 1.45104654881e-22)
(0.148273267914 -0.00565270132756 2.7378345811e-22)
(0.149738886871 -0.010426833543 -4.71775896655e-23)
(0.149960637091 -0.00810996168435 -6.43549592755e-23)
(0.152103740907 -0.013239980598 -3.1286871941e-23)
(0.15210650732 -0.0105991732672 -3.28555879973e-23)
(0.155000571983 -0.0161537728668 -2.45334519892e-23)
(0.154786835514 -0.0131770450916 -2.40505729551e-23)
(0.158442792476 -0.0191890909126 -2.37933375838e-23)
(0.158018416695 -0.0158646084499 -2.07869326762e-23)
(0.162442006519 -0.0223674769209 -3.36475761389e-23)
(0.161812273117 -0.018678922043 -3.16906422679e-23)
(0.167012373955 -0.0257113993361 -3.25076482908e-23)
(0.166181419223 -0.0216400735134 -4.5943674067e-23)
(0.172171905627 -0.02924468226 -1.01807757571e-23)
(0.171142328919 -0.02476894233 -2.4889075367e-23)
(0.177943185646 -0.032993208658 -2.80129367828e-23)
(0.176716276938 -0.0280875445866 -2.12215120866e-23)
(0.184352337958 -0.0369858379472 -7.12574767958e-24)
(0.182929678877 -0.0316239402204 -7.33823247838e-23)
(0.19142838005 -0.0412565637793 4.56408895992e-23)
(0.189812382306 -0.0354080498058 4.56619748658e-23)
(0.199179203999 -0.0458468986101 -1.0624689836e-23)
(0.197398743716 -0.0394409835167 9.55610959616e-23)
(0.207485154414 -0.050803945421 -6.26341667702e-22)
(0.205676927983 -0.0437004153788 -5.56750823722e-24)
(0.215924009704 -0.0561872422151 -4.20242285146e-21)
(0.214429750832 -0.0481118823683 -3.59186003663e-22)
(0.222494537959 -0.0620936690834 -5.65939872795e-21)
(0.223049355261 -0.0538205767568 -4.26664926979e-21)
(0.226073913503 -0.068510625003 -7.82244723752e-22)
(0.228084603385 -0.0685022823038 -4.20692768056e-21)
(0.212777757116 -0.0744845721534 2.23083234472e-21)
(0.230139783538 -0.0704253645237 -1.44085816874e-22)
(0.200677303775 -0.0686462765476 -9.43865155377e-22)
(0.145477902802 -0.0019068157799 -4.02444768897e-22)
(0.143994231636 -0.00131970851564 -8.44816111207e-22)
(0.148597399161 -0.00397400085675 8.66786223371e-23)
(0.148675206879 -0.00223418810099 4.75823427151e-22)
(0.150302404212 -0.00610486300195 6.43238439541e-23)
(0.150404130429 -0.00432006235225 1.31223673076e-22)
(0.152251388755 -0.00829768047056 -5.00329576072e-23)
(0.152153461409 -0.0062160188183 -6.84085274492e-23)
(0.154703933483 -0.0105660225291 -2.56192890114e-23)
(0.154374862321 -0.00815176199555 -3.16937464378e-23)
(0.157707590697 -0.0129276405617 -2.03040536421e-23)
(0.157148470488 -0.0101711852861 -2.07162446621e-23)
(0.161276464752 -0.0154010656919 -2.86842373603e-23)
(0.16049185928 -0.0122918070593 -1.56137774981e-23)
(0.165422669815 -0.0180048290429 -4.3986740196e-23)
(0.164416051973 -0.0145278397192 -2.67976410505e-23)
(0.170161138242 -0.0207578500889 -3.83251011432e-23)
(0.168934448515 -0.016895968277 -4.15031140722e-23)
(0.17551114978 -0.0236794380613 -3.59298116965e-23)
(0.174063915931 -0.0194128264089 -2.7557628733e-23)
(0.181497319347 -0.0267901039152 -6.65909000877e-23)
(0.179826932168 -0.0220951290567 -4.42872244985e-23)
(0.188149232228 -0.0301121855477 -2.05946022384e-23)
(0.186251741526 -0.0249639649325 -9.24843983377e-23)
(0.195501606268 -0.03367190354 9.55821812282e-23)
(0.193372075628 -0.0280415917966 4.13618099112e-23)
(0.203568332103 -0.0375013298278 1.0061827756e-22)
(0.201228143125 -0.0313283443762 1.66421175498e-22)
(0.212236216618 -0.0416367565337 2.61588155802e-22)
(0.209812329406 -0.0347920604236 6.21864080731e-23)
(0.22109989364 -0.0461169209638 -4.23412421987e-22)
(0.21890989546 -0.0382179178171 9.67528849695e-23)
(0.228157356751 -0.0509916807214 -2.8141782224e-21)
(0.227924104818 -0.0424800655849 -4.19259774236e-21)
(0.231702096073 -0.0563810861327 -3.56876877368e-21)
(0.23347400688 -0.0571013174396 -3.44599090445e-21)
(0.217827018885 -0.0610461025722 -3.31878331697e-21)
(0.234804476755 -0.0570553309891 -1.05734208686e-21)
(0.204949647505 -0.0537973113188 -2.27581009129e-21)
(0.147207321684 -0.00136448212838 3.34520848404e-23)
(0.15043210355 -0.00288481931712 5.2036847789e-22)
(0.152197138972 -0.00445902108609 -1.50869832713e-24)
(0.154213417995 -0.00609252549335 -5.00693162797e-23)
(0.156747490658 -0.00779705921852 -2.67907020885e-23)
(0.159849525824 -0.00958788498107 -1.60259685181e-23)
(0.163533771141 -0.0114810448756 -1.37271811882e-23)
(0.167812287849 -0.0134914994854 -2.43140149267e-23)
(0.172699895228 -0.0156345538399 -3.0735641662e-23)
(0.178216098524 -0.0179239883664 -3.59150415349e-23)
(0.184386516363 -0.0203744666544 -7.01807227485e-23)
(0.191242760263 -0.023000608215 -3.05279861881e-23)
(0.198824146892 -0.0258196460307 1.12200804181e-22)
(0.207150177694 -0.0288546103654 1.27989306011e-22)
(0.216107681497 -0.0321341568963 -1.02648862759e-22)
(0.225266809171 -0.0356702876357 -3.6724324354e-21)
(0.232726269375 -0.0393756584371 -4.82441042441e-21)
(0.236072086009 -0.0435978170738 -9.34564217626e-22)
(0.221719868605 -0.0467145082207 -1.43688611748e-23)
)
;

boundaryField
{
    back
    {
        type            calculated;
        value           uniform (0 0 0);
    }
    sides
    {
        type            calculated;
        value           nonuniform List<vector> 0();
    }
    bottom
    {
        type            calculated;
        value           uniform (0 0 0);
    }
    front
    {
        type            calculated;
        value           uniform (0 0 0);
    }
    atmosphere
    {
        type            calculated;
        value           nonuniform List<vector> 9((0 -0.142861203637 0) (0 -0.135011073922 0) (0 -0.126139205263 0) (0 -0.11624281813 0) (0 -0.105165556603 0) (0 -0.0929886926351 0) (0 -0.0796665451838 0) (0 -0.0653181358595 0) (0 -0.0501166556802 0));
    }
    floatingObject
    {
        type            calculated;
        value           nonuniform List<vector> 0();
    }
    procBoundary0to1
    {
        type            processor;
        value           nonuniform List<vector> 10((0.138988674731 -0.0627696582121 2.19532163546e-23) (0.143089544041 -0.069959167214 -2.68452938553e-23) (0.14755519033 -0.0775130643788 2.9060048344e-23) (0.152365468422 -0.0853770106629 1.0963833314e-22) (0.15748370499 -0.093600578222 4.11197927869e-22) (0.16262269317 -0.102906895279 4.10075797509e-22) (0.167045140687 -0.11347343731 -3.18457948415e-21) (0.168952232641 -0.12375519795 -6.18118361555e-21) (0.169809250271 -0.131898210607 -1.49998848796e-21) (0.151042922904 -0.144769836801 -1.47527095809e-21));
    }
    procBoundary0to2
    {
        type            processor;
        value           nonuniform List<vector> 
14
(
(0.12893632123 -0.0429400258734 -6.06866414428e-24)
(0.131911922353 -0.0493014264409 -1.44070889178e-23)
(0.135262622073 -0.0558998294509 -2.08904557867e-23)
(0.129829284994 -0.0286906018574 -2.8292472168e-23)
(0.130658096408 -0.0385450743502 -2.21158965636e-23)
(0.132214691721 -0.0342850326201 -3.25628434803e-23)
(0.12509044729 -0.00302548987788 -5.51887033113e-22)
(0.128726208458 -0.00654594709677 6.05356034481e-22)
(0.131513315594 -0.0249658606966 -2.56041033944e-23)
(0.133037014791 -0.0214028730465 -2.62107150223e-23)
(0.131710174288 -0.00883560710048 6.67875949916e-22)
(0.134609307071 -0.0104987216209 1.01234464713e-22)
(0.13460686028 -0.0180925109023 -6.18129699671e-23)
(0.136012220742 -0.0149657732475 -1.28317725273e-22)
)
;
    }
    procBoundary0to4
    {
        type            processor;
        value           nonuniform List<vector> 8((0.145358702858 -0.000979363637204 -6.44039187652e-22) (0.150195536761 -0.00142413349167 4.66407430533e-22) (0.15197833127 -0.00294685260686 -4.9417719015e-23) (0.153786972788 -0.00425659756847 -8.14318934231e-23) (0.156079410391 -0.00562089059238 -3.36248895861e-23) (0.158939315438 -0.00706469339612 -1.38756338997e-23) (0.162385041601 -0.00860164028115 -6.08438439826e-24) (0.166426525709 -0.0102427647502 -6.93030184812e-24));
    }
    procBoundary0to5
    {
        type            processor;
        value           nonuniform List<vector> 
12
(
(0.171077515544 -0.0120013325309 -2.16955022159e-23)
(0.176353350417 -0.0138893169713 -1.89711150357e-23)
(0.182277399016 -0.015917322257 -2.22675200741e-23)
(0.188877862139 -0.018099004166 -5.68849364661e-23)
(0.196191085975 -0.0204473133856 5.43550831232e-23)
(0.204263077444 -0.0229608007166 1.41290523741e-22)
(0.213091847754 -0.0256097933974 6.40953437431e-23)
(0.222446003999 -0.0280717758111 -4.3536022694e-23)
(0.23162946363 -0.0306230149563 -3.17774236186e-21)
(0.237696163349 -0.0448539809834 -1.87834804e-21)
(0.237920852121 -0.0426037678154 -3.17022678267e-21)
(0.208352099424 -0.0383821367978 -3.82528306537e-21)
)
;
    }
}


// ************************************************************************* //
