/*--------------------------------*- C++ -*----------------------------------*\
| =========                 |                                                 |
| \\      /  F ield         | OpenFOAM: The Open Source CFD Toolbox           |
|  \\    /   O peration     | Version:  v2012                                 |
|   \\  /    A nd           | Website:  www.openfoam.com                      |
|    \\/     M anipulation  |                                                 |
\*---------------------------------------------------------------------------*/
FoamFile
{
    version     2.0;
    format      ascii;
    class       volScalarField;
    location    "0.6";
    object      k;
}
// * * * * * * * * * * * * * * * * * * * * * * * * * * * * * * * * * * * * * //

dimensions      [0 2 -2 0 0 0 0];


internalField   nonuniform List<scalar> 
1984
(
0.0226633099469
0.0252897481823
0.0257534301679
0.0258406830249
0.0258730172097
0.0258987547587
0.025923607305
0.0259480637186
0.0259720886735
0.0259956006509
0.0260185208607
0.0260407707784
0.0260623387215
0.0260838996079
0.0261122744204
0.0262005645883
0.0266868359732
0.0292742259628
0.0401975683215
0.0738428778693
0.0253195066427
0.0298816561372
0.0307309101549
0.0308920190788
0.030934247184
0.0309601523772
0.0309842666061
0.0310081814045
0.0310319562073
0.0310555070649
0.0310787560179
0.0311016419894
0.031124259609
0.0311480072208
0.0311842569352
0.0313096649574
0.0319520628604
0.0349941036593
0.0463083023647
0.0769237629779
0.0258378838401
0.0308182153958
0.0317709662276
0.031951351469
0.0319947793957
0.0320193089332
0.0320419584939
0.0320645320266
0.032087030705
0.0321093097603
0.0321312454457
0.0321527448168
0.0321738831651
0.0321961210786
0.0322313703713
0.0323587164312
0.0330103369281
0.0360471177622
0.0472011225463
0.0772595841768
0.0259456968596
0.0310156199395
0.0319911105526
0.0321742645797
0.0322161690334
0.0322387830705
0.0322597297134
0.0322808123986
0.0323019670951
0.0323229875838
0.0323437060581
0.0323640019965
0.0323839297904
0.0324049676764
0.0324392553596
0.032566926603
0.0332227208734
0.0362659813368
0.0473988939984
0.0773279388771
0.0259834746623
0.031067414621
0.0320457716319
0.0322277379037
0.0322676771796
0.0322884376488
0.0323077857856
0.032327506254
0.0323474911319
0.0323674982749
0.0323873160572
0.0324067953622
0.0324259818722
0.0324463782092
0.0324803949523
0.0326095450787
0.0332733431475
0.0363394137838
0.0474986335071
0.0773720157668
0.0260114629796
0.031095308116
0.0320729108164
0.0322532192153
0.0322913520566
0.0323104277658
0.0323282872661
0.0323467223231
0.0323656068947
0.0323846761197
0.0324036993976
0.0324224985767
0.0324411087571
0.0324610759336
0.0324951679764
0.03262672134
0.033301800037
0.036400683833
0.0476034897968
0.0774208924828
0.0260387063386
0.0311202651495
0.0320967587036
0.0322756145214
0.0323122010788
0.0323297811127
0.0323462672814
0.0323634802033
0.0323812983688
0.0323994483995
0.032417687467
0.0324358223989
0.0324538820503
0.0324734733298
0.0325078153366
0.0326425163575
0.0333317614945
0.0364714476681
0.0477281290397
0.0774783366226
0.026066394918
0.0311453875969
0.0321208964469
0.0322985575544
0.0323338447007
0.0323501198956
0.0323653640249
0.0323814374777
0.0323982365394
0.0324154921799
0.0324329566649
0.0324504312157
0.0324679449372
0.0324871853772
0.0325219224319
0.0326604934351
0.0333667226361
0.0365546821008
0.0478740298581
0.0775451291148
0.0260946749798
0.0311710712662
0.0321457362577
0.0323224158908
0.032356616131
0.0323717670284
0.0323859089259
0.0324009442121
0.0324167944268
0.0324332018606
0.0324499223699
0.032466756571
0.0324837418295
0.0325026673314
0.0325379601341
0.0326811619342
0.0334072528533
0.0366508516892
0.0480411417741
0.0776214990312
0.0261235698404
0.0311973602262
0.0321712890414
0.0323471551733
0.0323804473018
0.0323946384037
0.0324078173277
0.0324219263973
0.0324369143244
0.0324525401084
0.0324685669961
0.0324848006983
0.0325012932646
0.0325199582826
0.0325559947602
0.032704649263
0.0334535943682
0.0367602075856
0.0482293817088
0.0777077338947
0.0261530874772
0.031224262852
0.0321975374209
0.0323727241573
0.0324052588905
0.032418637667
0.0324309874118
0.032444285899
0.0324585090844
0.0324734337091
0.032488834541
0.0325045247201
0.0325205778435
0.0325390561623
0.032576055507
0.0327310587376
0.0335060009545
0.0368831015191
0.048438729317
0.0778038926757
0.0261832286589
0.031251785381
0.0322244726669
0.0323990904567
0.0324309965921
0.0324436953153
0.0324553424461
0.0324679464828
0.032481508333
0.0324958234794
0.0325106785939
0.0325258973604
0.0325415802854
0.0325599648813
0.0325981803721
0.0327605125514
0.0335647646668
0.0370199125768
0.0486692004351
0.0779102898842
0.0262139847353
0.0312799315785
0.0322520920246
0.0324262354898
0.032457625513
0.0324697640093
0.0324808283711
0.0324928529311
0.0325058614217
0.0325196664029
0.0325340678186
0.0325489002976
0.0325642972714
0.0325827004458
0.0326224223393
0.0327931571773
0.0336302166812
0.0371710518473
0.0489208464183
0.0780273890087
0.0262453348381
0.0313086995495
0.03228039355
0.0324541474547
0.0324851222408
0.0324968110763
0.0325074071528
0.0325189664666
0.0325315326433
0.032544934627
0.0325589844154
0.0325735285759
0.0325887387747
0.0326072929601
0.0326488518333
0.0328291657738
0.0337027319959
0.0373370026793
0.0491936974006
0.0781555144667
0.0262772431734
0.031338078798
0.0323093719319
0.0324828158387
0.0325134686272
0.0325248118532
0.0325350505732
0.0325462595647
0.0325584986712
0.0325716114856
0.0325854224282
0.032599788362
0.0326149256723
0.0326337840916
0.032677554065
0.0328687340019
0.0337827115042
0.037518221847
0.0494878069118
0.0782953613632
0.0263096563336
0.0313680474735
0.0323390150678
0.0325122271064
0.0325426460838
0.0325537451876
0.032563737623
0.0325747117002
0.0325867426219
0.0325996886885
0.0326133823098
0.03262769311
0.0326428870796
0.0326622260941
0.0327086290648
0.032912079962
0.0338705743844
0.0377151341437
0.0498032527085
0.078447858381
0.0263425000436
0.0313985698399
0.0323693009096
0.0325423598898
0.0325726351544
0.0325835889125
0.0325934443943
0.0326043031408
0.0326162530163
0.0326291614088
0.0326428721055
0.0326572670075
0.0326726661101
0.0326926877796
0.032742197511
0.0329594441764
0.0339667479505
0.037928086058
0.050140009304
0.0786137153909
0.026375676281
0.0314295931398
0.0324001943158
0.0325731871201
0.0326034029661
0.0326143119228
0.032624141429
0.0326350042347
0.0326470034153
0.0326600126186
0.0326738833749
0.032688511372
0.032704278031
0.032725209935
0.0327783588161
0.0330110613261
0.0340716392384
0.0381573186957
0.0504973352214
0.0787919249162
0.0264090596404
0.0314610446855
0.0324316459667
0.0326046601486
0.0326349071459
0.0326458719152
0.0326557973854
0.0326668031962
0.0326789972331
0.0326922628486
0.0327064580765
0.0327214916729
0.0327378162098
0.032759919897
0.0328172955576
0.0330672230472
0.034185659455
0.0384029881666
0.0508741233974
0.0789810540224
0.0264424881679
0.031492823764
0.0324635815307
0.0326367177371
0.0326670912418
0.0326782266067
0.0326883753529
0.0326996657334
0.0327122121684
0.0327259046371
0.0327406064524
0.0327562390709
0.0327733360579
0.0327969063469
0.0328591576741
0.0331281959094
0.0343091773677
0.0386652214465
0.0512697989211
0.0791815063806
0.0264757727115
0.0315248080678
0.0324959037805
0.0326692785033
0.0326998852796
0.0327113087874
0.0327218172281
0.0327335469721
0.0327466183112
0.0327609260816
0.0327763377611
0.0327927876889
0.0328109007025
0.0328362703729
0.0329041075848
0.03319423775
0.0344424603722
0.0389439125518
0.051685087487
0.0793968972151
0.0265086826852
0.0315568479416
0.032528501672
0.0327022411077
0.0327331929305
0.0327450317113
0.0327560485726
0.0327683878462
0.0327821747891
0.032797307897
0.0328136578596
0.032831172403
0.0328505785347
0.0328781218161
0.0329523133303
0.0332655834189
0.0345856796817
0.0392386198084
0.052116257146
0.0796240922018
0.0265409418674
0.0315887544821
0.0325612249683
0.03273547221
0.032766891796
0.0327792850316
0.0327909737317
0.0328041106891
0.0328188254806
0.0328350193454
0.0328525655063
0.0328714257449
0.0328924405387
0.0329225762751
0.0330039422549
0.0333424275959
0.0347388346272
0.0395486757316
0.0525645175358
0.0798672247473
0.0265722248818
0.0316202994814
0.032593888794
0.0327688064527
0.0328008297176
0.0328139308198
0.0328264720687
0.0328406159154
0.0328564959045
0.0328740152297
0.0328930493585
0.0329135749329
0.0329365570766
0.032969750238
0.0330591488271
0.0334248925934
0.034901755819
0.0398728890243
0.0530250617889
0.0801226067799
0.0266021526186
0.0316512109457
0.0326262697054
0.0328020425428
0.0328348207229
0.0328487995993
0.0328623940165
0.0328777782907
0.0328950891362
0.0329142316447
0.0329350838224
0.0329576380749
0.0329829943077
0.0330197552784
0.0331180525613
0.0335129188988
0.0350735408951
0.0402083522374
0.0534960537137
0.0803905838464
0.0266302893196
0.0316811687322
0.0326581003888
0.0328349372601
0.0328686382327
0.0328836830188
0.0328985537502
0.0329154390029
0.0329344794524
0.0329555800188
0.0329786243018
0.0330036207958
0.0330318119288
0.0330726950788
0.0331807349505
0.0336063202806
0.0352531347549
0.0405521942928
0.0539691653619
0.0806572514337
0.0266561292948
0.0317097901702
0.0326890549607
0.0328671910446
0.0329020010722
0.0329183196286
0.0329347130053
0.0329533862732
0.0329744850618
0.0329979189091
0.0330235708043
0.0330514706896
0.0330830081754
0.0331286018681
0.0332471595933
0.0337046096029
0.0354386348995
0.0408996859499
0.0544310276194
0.0808686891624
0.0266791168443
0.0317366541393
0.0327187736165
0.0328984727762
0.032934598567
0.0329524219508
0.0329706125079
0.0329913972341
0.0330149310574
0.0330411190784
0.0330698533037
0.0331011846265
0.0331366483603
0.0331875732985
0.0333172768019
0.0338069894569
0.0356270318731
0.0412416161797
0.0548367846677
0.0807546556095
0.0266986232446
0.031761268454
0.0327468267077
0.0329283827668
0.0329660523255
0.0329856343586
0.0330059243617
0.033029175914
0.0330555528404
0.0330849727756
0.0331173298504
0.0331526911914
0.033192727062
0.033249620639
0.0333908789594
0.0339122916481
0.0358144842688
0.0415650914445
0.0551532630045
0.0805338372303
0.0267139539599
0.0317830755698
0.0327727190231
0.0329564582456
0.0329959233637
0.0330175447679
0.0330402704345
0.0330663867226
0.0330960696027
0.0331292479649
0.0331658243019
0.0332058829627
0.033251205697
0.0333147066014
0.0334676071789
0.0340188060996
0.0359953843312
0.0418569384184
0.0554049242759
0.0805384972555
0.0267243645211
0.0318014486399
0.0327958839111
0.0329821687735
0.0330237072454
0.0330476769413
0.0330732084633
0.0331026282724
0.0331361280866
0.0331736502319
0.0332151107302
0.0332606105782
0.0333120068212
0.033382738712
0.0335469372766
0.0341242479719
0.0361625689066
0.0421020790617
0.0555837267596
0.0805856481222
0.0267291778047
0.0318155700923
0.0328156446197
0.0330049081137
0.0330488294623
0.0330754863247
0.0331042294855
0.0331374349516
0.033175314416
0.0332178270478
0.0332649081896
0.0333166735925
0.0333750048307
0.0334535634237
0.0336281782454
0.0342257240235
0.0363073132278
0.0422850725615
0.0556766651769
0.0806152114124
0.0267308706344
0.0318224497131
0.0328302512213
0.033023736646
0.0330706040259
0.0331003487023
0.0331327398242
0.0331702545131
0.0332131398949
0.0332613594315
0.0333148712703
0.0333738101828
0.0334400170461
0.0335269690853
0.0337105144513
0.0343198351278
0.0364192741408
0.0423853899299
0.0556467913155
0.0805668586433
0.0267298762139
0.0318205676789
0.0328384501306
0.0330377290785
0.0330883039024
0.0331216297517
0.0331581575939
0.033200524962
0.0332490248471
0.0333036704321
0.0333644836156
0.0334316300234
0.0335067897524
0.0336027022373
0.0337931445309
0.0344032958163
0.036488366995
0.0423833471871
0.055454773759
0.0804125359711
0.0267250541223
0.0318093017249
0.0328393120809
0.0330460395465
0.0331011412823
0.0331385939061
0.0331798078476
0.0332276691522
0.0332825188374
0.0333444057798
0.0334133862865
0.0334896374271
0.0335747393457
0.0336802598574
0.0338752958121
0.0344731148523
0.0365029287766
0.0422528110562
0.0550497427701
0.0801290029842
0.026715211544
0.0317879524233
0.0328318884052
0.0330477481233
0.0331082605329
0.033150445897
0.0331969558852
0.0332509936122
0.0333129747013
0.0333830088406
0.033461177312
0.0335476924678
0.033644008466
0.0337602776618
0.0339578720868
0.0345260958711
0.0364530905694
0.041972740184
0.0543784117452
0.079695428096
0.026699042456
0.0317558334085
0.0328152715276
0.0330419015553
0.0331087603486
0.033156334135
0.0332087963505
0.0332697517443
0.0333397365869
0.0334188945213
0.0335073395746
0.0336053066995
0.0337141712801
0.0338428571756
0.0340454842631
0.0345817011087
0.0363568340919
0.0415152607756
0.0533819660212
0.0790696524191
0.0266752202982
0.0317125573672
0.0327886886746
0.033027578274
0.0331017146422
0.0331553626118
0.0332144792255
0.0332831856725
0.0333621432299
0.0334514880587
0.033551365647
0.0336620198948
0.0337847835518
0.0339274724626
0.0341372320341
0.0346434958444
0.0362661122934
0.0409771807122
0.0519297028577
0.0755241038089
0.0266425877312
0.0316580130487
0.0327515492696
0.033003905342
0.0330862021091
0.0331466387063
0.0332131743231
0.0332905442898
0.0333795256387
0.0334802384333
0.0335927997624
0.033717421761
0.0338553717734
0.034013468547
0.0342321619774
0.0347104732401
0.036175659514
0.0403971026539
0.050254645035
0.0710428494779
0.026600095766
0.0315923129966
0.0327034671939
0.0329701361459
0.033061366676
0.033129307059
0.0332040819972
0.0332911043835
0.0333912968041
0.0335047106719
0.0336313155994
0.0337712449072
0.0339256670873
0.0341005316988
0.0343300154902
0.0347830548869
0.0360900329032
0.0397968257029
0.0484828691566
0.065928271132
0.0265469128281
0.0315158741006
0.0326443438128
0.0329257316935
0.0330265003014
0.0331026091499
0.0331864332285
0.0332842268328
0.0333970330748
0.0335247065973
0.0336668732189
0.0338234913047
0.0339955749001
0.0341882231548
0.0344297819621
0.0348599763939
0.0360147508306
0.0392233753553
0.0472789797361
0.0741361135451
0.0264827280681
0.0314296310026
0.0325745235305
0.0328704993826
0.0329811081838
0.0330659157774
0.0331596499116
0.0332694904258
0.0333965966606
0.0335403864704
0.0336998576759
0.0338746426411
0.0340655535753
0.0342768970649
0.0345318552347
0.0349428235742
0.0359570358325
0.038693762925
0.0462927314149
0.0801523724769
0.0264079569075
0.0313353701603
0.0324950559317
0.0328047452753
0.0329250996207
0.0330189498612
0.0331233621304
0.03324666751
0.0333903157368
0.0335525520452
0.0337313367326
0.0339258853609
0.0341367723855
0.0343672781047
0.0346362126122
0.0350310623994
0.0359228509492
0.0382510889045
0.0458857321602
0.090796296502
0.0263238281639
0.0312359244105
0.0324079214272
0.0327295526469
0.032858887478
0.0329616235102
0.033077411988
0.0332160751086
0.0333791589787
0.0335625888402
0.033762774824
0.033978772446
0.0342110629426
0.0344611539147
0.0347442787678
0.0351259458917
0.0359060881385
0.0378146052367
0.0440781277474
0.0816264194221
0.0262325200383
0.0311353413144
0.032316334137
0.0326470659203
0.0327836742922
0.0328943985746
0.0330213658494
0.0331765441369
0.0333612987523
0.0335678199917
0.0337911448391
0.0340312374815
0.0342879901415
0.0345584944789
0.0348565862925
0.0352253374975
0.035907428276
0.0374530911742
0.0424626884539
0.0725812017735
0.0261372336994
0.0310387579468
0.0322247430889
0.0325606307999
0.0327014116526
0.0328168182868
0.0329490951692
0.0331069719503
0.0332970214563
0.0335149160125
0.0337584689839
0.0340312683859
0.0343304005604
0.0346365137542
0.0349608843732
0.0353280029648
0.0359464621231
0.0373279210538
0.0453387234943
0.0893211173227
0.0260420922076
0.0309518786275
0.0321386951293
0.0324748232741
0.0326140783706
0.0327224816756
0.0328173374038
0.0328149550966
0.032869590522
0.0330078808029
0.0332460750163
0.0335904484109
0.0340405518915
0.03450719604
0.0349516465427
0.0353884732801
0.0360123628689
0.0373935265461
0.0475478502031
0.0957631367857
0.0259517198138
0.0308797144614
0.0320640517083
0.0323946250448
0.0325212658573
0.0325833061031
0.0324262656245
0.0313157036186
0.0297014068616
0.0292181537328
0.0293648129299
0.0300424836044
0.0319784021644
0.0334520744511
0.0344411689494
0.0351985883385
0.0359792829191
0.0372828500766
0.0443600375833
0.0879813528323
0.0258718945618
0.0308271028263
0.0320076887935
0.0323254659999
0.0324165343987
0.0323567691135
0.0317029326358
0.0276431460519
0.0304747512382
0.0326029450653
0.0338696090771
0.0348613175223
0.035798050069
0.0370726963347
0.041925717162
0.0766416275919
0.0258132359274
0.0307940677089
0.0319775064389
0.0322925513882
0.0323714607637
0.0322613504058
0.0314182840307
0.0266680623896
0.0277124144324
0.0317445170896
0.0332925056756
0.0343991082782
0.0354529072722
0.0367233045014
0.0397231232919
0.0604568867633
0.0258132331622
0.0307940610487
0.0319774981649
0.0322925422655
0.0323714514107
0.0322613416268
0.0314182765787
0.0266680603206
0.0277124793698
0.0317446517974
0.03329274272
0.0343993804904
0.0354532801221
0.0367237945701
0.0397222324528
0.0604523081687
0.0258718838642
0.0308270835281
0.0320076656706
0.0323254410235
0.0324165091656
0.0323567472991
0.0317029155327
0.0276431400808
0.0304749149805
0.0326031954228
0.0338700224099
0.0348617553062
0.0357985779154
0.0370733265441
0.0419258925286
0.0766415646465
0.0259517024611
0.0308796841646
0.0320640158256
0.0323945866643
0.0325212275846
0.0325832712291
0.0324262416077
0.0313156897656
0.0297014199514
0.0292181758606
0.0293648475848
0.0300425452644
0.031978546146
0.0334523432885
0.0344416816551
0.035199121436
0.0359798814849
0.0372835615901
0.0443607371934
0.0879813533555
0.0260420610224
0.0309518325195
0.0321386430351
0.0324747702921
0.0326140289754
0.0327224409427
0.0328173124379
0.0328149526947
0.0328696214312
0.0330079437671
0.0332461691554
0.0335905872992
0.0340407540822
0.0345075087902
0.0349522120805
0.0353890466332
0.0360129842304
0.037394263684
0.0475483842755
0.0957631446227
0.0261371932725
0.031038700489
0.0322246790896
0.0325605660381
0.032701351821
0.032816770138
0.0329490662576
0.0331069708179
0.033297056465
0.0335149922985
0.0337585890288
0.0340314416107
0.0343306489551
0.0346368783885
0.0349615074315
0.0353286134157
0.0359471072466
0.0373286505474
0.0453392477162
0.0893212778121
0.0262324742551
0.0311352775716
0.0323162629155
0.0326469924014
0.0327836044377
0.0328943441946
0.0330213341156
0.0331765438837
0.0333613386036
0.0335679070514
0.0337912841611
0.0340314408293
0.0342882764825
0.0345588996271
0.0348572465465
0.0352259623215
0.0359080775651
0.0374538115629
0.0424635033383
0.072583070105
0.0263237803036
0.031235858829
0.0324078455443
0.0327294693099
0.0328587898281
0.0329615590144
0.0330773767312
0.0332160756927
0.0333792026884
0.0335626835394
0.033762926942
0.0339789965912
0.0342113775974
0.0344615879373
0.0347449573942
0.0351265646088
0.0359067166645
0.0378153161062
0.0440791614608
0.0816285204376
0.0264079097074
0.0313353033552
0.0324949740912
0.0328046551768
0.0329249986244
0.0330188437856
0.0331233044187
0.0332466641703
0.033390359465
0.0335526494118
0.0337314955326
0.033926124573
0.0341371098786
0.0343677340834
0.0346368974429
0.0350316638347
0.0359234435582
0.038251741848
0.0458865913747
0.090796789372
0.0264826897704
0.0314295801296
0.0325744639221
0.0328704293493
0.0329810406372
0.0330658597185
0.0331596111115
0.0332694545409
0.0333966271654
0.0335404801159
0.0337000254914
0.0338749131636
0.0340659390511
0.0342774005347
0.0345325617646
0.0349434182275
0.0359575937732
0.038694345803
0.0462933485903
0.0801528889767
0.0265468865164
0.0315158410622
0.0326443063881
0.0329256938576
0.0330264585572
0.0331025689524
0.0331864151292
0.0332842320827
0.0333970829153
0.0335248076456
0.0336670347576
0.0338237479417
0.0339959315408
0.0341886871769
0.03443042456
0.0348605110302
0.0360152496074
0.039223874819
0.047279439672
0.0741364076006
0.0266000832324
0.0315922998666
0.0327034519069
0.0329701189985
0.0330613523854
0.0331292976122
0.0332040775284
0.0332911249831
0.033391353526
0.0335048074587
0.0336314598158
0.0337714811101
0.0339259976751
0.0341009583541
0.0343305997047
0.034783531789
0.0360904711374
0.0397972424197
0.0484832128383
0.0659284575249
0.0266425873551
0.0316580157577
0.0327515501289
0.0330039039301
0.0330862007785
0.0331466422723
0.0332131902238
0.0332905758013
0.0333795839875
0.0334803253077
0.033592921745
0.0337176285873
0.0338556556979
0.0340138389333
0.0342326661017
0.0347108837588
0.0361760338418
0.040397446238
0.0502549361335
0.0710429724541
0.0266752282875
0.0317125709031
0.0327887001929
0.0330275867861
0.0331017220162
0.0331553733119
0.033214500382
0.0332832230373
0.0333622036409
0.0334515692991
0.0335514732055
0.0336622051143
0.0337850318093
0.0339277954015
0.0341376597959
0.0346438418108
0.0362664293625
0.040977471017
0.0519299696101
0.0755242624395
0.0266990510606
0.0317558486356
0.0328152857495
0.0330419140923
0.0331087733741
0.0331563523492
0.0332088247065
0.0332697945943
0.0333397994349
0.0334189706443
0.0335074417624
0.0336054801883
0.033714393962
0.033843147557
0.0340458512056
0.0345819947369
0.0363571054999
0.041515494417
0.0533821850606
0.0790697452529
0.0267152292416
0.031787978393
0.0328319143008
0.0330477725342
0.0331082840828
0.0331504704032
0.0331969838117
0.0332510282206
0.0333130309915
0.0333830835913
0.0334612766438
0.0335478588651
0.0336442137478
0.0337605410207
0.0339581891025
0.034526345506
0.0364533134218
0.0419729186844
0.0543785537674
0.0796954961366
0.0267250743755
0.0318093314686
0.0328393429491
0.033046070093
0.0331011717946
0.0331386253655
0.0331798415359
0.0332277057751
0.0332825603865
0.0333444582579
0.0334134588256
0.033489773518
0.03357492981
0.0336805067438
0.0338755678457
0.0344733226253
0.0365031048883
0.0422529461998
0.0550498533171
0.0801290579557
0.0267298973706
0.0318205991143
0.0328384837422
0.0330377634536
0.0330883391938
0.0331216666073
0.033158196758
0.033200566397
0.0332490691663
0.0333037225164
0.0333645492324
0.0334317318686
0.0335069342155
0.0336029136481
0.0337933757196
0.034403467606
0.0364885033782
0.0423834474539
0.0554548595463
0.0804125804141
0.0267308916981
0.0318224814785
0.0328302860995
0.0330237733366
0.0330706426681
0.0331003897621
0.0331327837635
0.0331703008727
0.0332131889212
0.0332614149713
0.0333149382279
0.033373904717
0.0334401440962
0.0335271356107
0.0337107132132
0.0343199770597
0.0364193782394
0.0423854622696
0.0556468560273
0.0805668938017
0.0267291978691
0.0318156015072
0.0328156796664
0.0330049458204
0.0330488700572
0.0330755302068
0.03310427691
0.033137485262
0.0331753674711
0.0332178859015
0.0332649772231
0.0333167649814
0.0333751234503
0.0334537139397
0.0336283533854
0.0342258426375
0.0363073925222
0.0422851236847
0.0556767133357
0.0806152371469
0.0267243833826
0.0318014787338
0.0327959180324
0.0329822061838
0.0330237482678
0.0330477219356
0.0330732575359
0.0331026806218
0.0331361832879
0.0331737106889
0.0332151802706
0.0332606985413
0.0333121175356
0.0333828759817
0.0335470935836
0.0341243514583
0.0361626322272
0.0421021149467
0.0555837606457
0.0805856675153
0.0267139714877
0.0317831038031
0.0327727514185
0.0329564942914
0.0329959634467
0.0330175892065
0.0330403191908
0.0330664388641
0.0330961244614
0.0331293077719
0.0331658923517
0.0332059662241
0.0332513075395
0.0333148309554
0.0334677484738
0.0340189010856
0.0359954383361
0.0418569618186
0.0554049496811
0.0805385127819
0.0266986395661
0.0317612948495
0.0327468571708
0.0329284169621
0.032966090681
0.0329856770812
0.0330059710988
0.0330292255036
0.0330556042787
0.0330850295414
0.0331173949017
0.0331527687315
0.0331928185333
0.0332497300555
0.0333910041732
0.0339123823665
0.0358145338442
0.0415651075621
0.0551532860441
0.0805338517124
0.0266791325963
0.0317366796337
0.0327188029815
0.0328985057814
0.0329346356689
0.0329524631613
0.0329706567684
0.0329914427428
0.0330149757108
0.0330411710135
0.0330699152321
0.0331012563876
0.0331367291846
0.0331876658936
0.0333173833562
0.0338070766928
0.0356270815904
0.0412416277741
0.0548368028194
0.0807546688993
0.0266561437302
0.031709813734
0.0326890822186
0.0328672218811
0.0329020360109
0.0329183590255
0.0329347559566
0.0329534316603
0.0329745336162
0.0329979725007
0.0330236301734
0.0330515350635
0.0330830768241
0.0331286746156
0.0332472334099
0.0337046716946
0.0354386760545
0.0408996959362
0.05443104151
0.0808686988268
0.0266303006525
0.0316811879271
0.0326581228629
0.032834962985
0.0328686676565
0.0328837164225
0.0328985906765
0.032915478086
0.0329345205677
0.0329556256508
0.0329786721928
0.033003670283
0.0330318625153
0.0330727466147
0.0331807850274
0.0336063629574
0.035253163192
0.040552202514
0.053969177451
0.0806572584004
0.026602166193
0.0316512323067
0.0326262941251
0.0328020697613
0.0328348510855
0.0328488335125
0.0328624317955
0.0328778197044
0.0328951346785
0.0329142820212
0.0329351385263
0.0329576969445
0.0329830567991
0.0330198193633
0.0331181123905
0.0335129631532
0.03507356379
0.0402083650756
0.0534960698708
0.0803905913122
0.0265722347499
0.0316203156513
0.0325939076546
0.0327688278005
0.0328008537747
0.0328139577878
0.0328265020868
0.0328406489809
0.0328565319101
0.0328740543314
0.0328930913677
0.032913619802
0.0329366044655
0.0329697985446
0.033059193178
0.0334249246641
0.0349017724212
0.0398729017569
0.0530250813001
0.080122615637
0.0265409521736
0.0315887705753
0.0325612433494
0.0327354926557
0.0327669144072
0.0327793099606
0.0327910011381
0.0328041407201
0.0328188582361
0.032835054971
0.0328526040307
0.0328714671534
0.032892484439
0.0329226211223
0.0330039836206
0.0333424581778
0.0347388518346
0.0395486900907
0.0525645389111
0.0798672346005
0.0265086930113
0.031556863654
0.0325285192854
0.0327022607111
0.0327332144052
0.0327450550642
0.032756073915
0.0327684153846
0.0327822047226
0.032797340434
0.0328136931157
0.0328312103371
0.0328506185847
0.0328781625173
0.0329523507076
0.0332656111626
0.0345856959055
0.0392386344702
0.052116279008
0.0796241023552
0.0264757819729
0.0315248221884
0.0324959191952
0.0326692967032
0.0326999055268
0.0327113308002
0.0327218409447
0.0327335725974
0.0327466460685
0.0327609562551
0.0327763705468
0.0327928229042
0.0328109372033
0.0328363067368
0.0329041402735
0.0331942613648
0.0344424737656
0.0389439253728
0.051685108059
0.0793969070876
0.0264424954715
0.0314928351975
0.0324635933303
0.0326367346655
0.0326671103644
0.0326782477055
0.0326883980931
0.0326996903292
0.0327122389797
0.0327259342668
0.032740639762
0.0327562753199
0.0327733722493
0.0327969411723
0.0328591880302
0.0331282167791
0.0343091882083
0.0386652314803
0.0512698170613
0.0791815157573
0.0264090663397
0.0314610579575
0.0324316625093
0.0326046788736
0.0326349244466
0.0326458916864
0.032655819154
0.0326668274846
0.0326790243639
0.0326922946407
0.0327064971496
0.0327215336287
0.0327378554654
0.0327599555618
0.0328173256762
0.0330672424234
0.0341856680013
0.0384029941555
0.0508741374976
0.0789810622451
0.0263756881994
0.0314296129336
0.0324002156324
0.0325732097216
0.0326034208163
0.0326143280667
0.032624159488
0.0326350269183
0.0326470295041
0.0326600468979
0.0326739255573
0.032688560885
0.0327043184757
0.0327252441489
0.0327783856736
0.0330110782262
0.0340716440871
0.0381573219167
0.0504973463233
0.078791931564
0.0263425146481
0.0313985932898
0.0323693233176
0.0325423855274
0.0325726535758
0.032583605215
0.0325934598908
0.032604318399
0.0326162710494
0.0326291855601
0.0326429121165
0.0326573153332
0.0326726995939
0.0326927083606
0.0327422122372
0.0329594515424
0.0339667499781
0.0379280895984
0.050140022318
0.0786137222395
0.0263096710895
0.0313680734742
0.0323390341242
0.0325122411188
0.0325426591157
0.0325537570982
0.0325637483897
0.0325747216085
0.0325867544968
0.03259970641
0.0326134132233
0.0326277370597
0.0326429183573
0.0326622376929
0.032708634515
0.0329120803197
0.0338705736919
0.0377151403564
0.0498032703954
0.0784478672092
0.0262772537245
0.031338095974
0.0323093836839
0.0324828263193
0.0325134790511
0.0325248225848
0.0325350616026
0.032546269961
0.032558510743
0.0325716323222
0.0325854498214
0.0325998241322
0.0326149521201
0.0326337969418
0.032677561404
0.0328687366877
0.0337827123547
0.0375182300837
0.0494878275927
0.0782953717477
0.0262453435084
0.0313087111078
0.0322804021259
0.0324541559606
0.0324851312898
0.0324968207174
0.0325074173226
0.0325189772459
0.0325315469076
0.0325449575299
0.0325590175819
0.0325735697422
0.0325887607909
0.0326073085883
0.0326488632032
0.0328291724595
0.0337027366759
0.0373370139275
0.0491937207698
0.078155525507
0.0262139919407
0.0312799380158
0.0322520984342
0.0324262424728
0.0324576332988
0.0324697726545
0.032480837896
0.0324928640492
0.0325058781762
0.0325196929487
0.0325340969301
0.0325489350641
0.0325643192929
0.0325827185276
0.0326224370598
0.0327931679377
0.0336302257071
0.0371710673771
0.0489208728117
0.0780274002106
0.0261832317388
0.0312517898106
0.0322244777243
0.0323990962479
0.0324310032606
0.032443702961
0.0324553515515
0.0324679593295
0.0324815313659
0.0324958489341
0.0325107094858
0.0325259269186
0.0325416019747
0.0325599841711
0.0325981973314
0.0327605262958
0.0335647774254
0.0370199320749
0.0486692303492
0.0779103019104
0.0261530897098
0.031224266396
0.0321975415905
0.0323727289972
0.0324052645366
0.0324186444064
0.0324309965319
0.0324443018727
0.0324585304926
0.0324734638948
0.0324888651653
0.0325045472398
0.0325205987488
0.0325390765092
0.0325760744465
0.0327310753451
0.0335060171153
0.0368831248492
0.0484387629365
0.077803905734
0.0261235718744
0.0311973633248
0.032171292592
0.0323471592083
0.0323804519872
0.0323946442114
0.0324078262403
0.0324219406651
0.0324369355916
0.0324525686151
0.0324685865748
0.0324848200967
0.0325013136862
0.0325199793493
0.0325560153557
0.0327046682847
0.0334536135305
0.0367602344255
0.0482294190761
0.0777077483036
0.0260946770425
0.0311710741326
0.0321457393399
0.0323224192016
0.0323566198386
0.0323717716579
0.0323859162509
0.0324009551584
0.0324168123732
0.0324332234564
0.0324499401757
0.0324667747019
0.0324837617124
0.032502688648
0.0325379818209
0.0326811827946
0.0334072745604
0.0366508815436
0.0480411825756
0.0776215147112
0.026066397104
0.0311453903377
0.0321208991463
0.0322985601862
0.0323338474294
0.0323501231195
0.0323653690669
0.0323814460743
0.0323982508401