/*--------------------------------*- C++ -*----------------------------------*\
| =========                 |                                                 |
| \\      /  F ield         | OpenFOAM: The Open Source CFD Toolbox           |
|  \\    /   O peration     | Version:  v2012                                 |
|   \\  /    A nd           | Website:  www.openfoam.com                      |
|    \\/     M anipulation  |                                                 |
\*---------------------------------------------------------------------------*/
FoamFile
{
    version     2.0;
    format      ascii;
    class       volScalarField;
    location    "0.6";
    object      p;
}
// * * * * * * * * * * * * * * * * * * * * * * * * * * * * * * * * * * * * * //

dimensions      [1 -1 -2 0 0 0 0];


internalField   nonuniform List<scalar> 
1984
(
9174.80941685
8685.5705639
8197.00379248
7709.02196732
7221.60929754
6734.77040393
6248.51376476
5762.85004287
5277.79180533
4793.35328688
4309.54980204
3826.39777064
3343.91453011
2862.11910572
2381.02891539
1900.64238666
1420.98703085
942.258297049
463.939736303
106.8439674
9174.3829212
8685.14047843
8196.58656873
7708.61205263
7221.19605435
6734.34835066
6248.07975231
5762.40176291
5277.32738169
4792.87108283
4309.04844806
3825.87609662
3343.37143706
2861.55366442
2380.44290457
1900.03522326
1420.31969324
941.642707878
464.280277697
108.138189841
9173.22392756
8683.95900502
8195.39746139
7707.41534728
7219.98709708
6733.12283157
6246.8339201
5761.13231889
5276.0314001
4791.5461706
4307.69260841
3824.48783958
3341.94972661
2860.09800855
2378.953432
1898.5102612
1418.75369052
940.014528277
462.347302945
106.753941499
9171.42714777
8682.1412094
8193.56451164
7705.56511168
7218.11490179
6731.22354997
6244.90261311
5759.1644332
5274.02294071
4789.49358291
4305.5932533
3822.33970447
3339.75163857
2857.84971514
2376.65562292
1896.16433511
1416.35999253
937.580437853
459.93837866
105.516747459
9169.02541747
8679.72516989
8191.13077944
7703.1074917
7215.62666579
6728.69791876
6242.33308074
5756.54496449
5271.34810754
4786.75874501
4302.79455798
3819.47449736
3336.81830435
2854.847865
2373.58619126
1893.02925874
1413.15895096
934.324596627
456.698730947
103.864682996
9166.02819542
8676.71491094
8188.09964907
7700.04631436
7212.52639737
6725.54979966
6239.12879339
5753.27679775
5268.00912495
4783.34294493
4299.29705192
3815.89168882
3333.14805724
2851.08964342
2369.74122984
1889.10025737
1409.14777832
930.246261969
452.617694791
101.786900928
9162.44565618
8673.11799719
8184.47789988
7696.38805907
7208.82026734
6721.78489362
6235.29479845
5749.36415057
5264.00919147
4779.24822831
4295.10138329
3811.59047174
3328.73847086
2846.57089816
2365.11479673
1884.3695848
1404.31703348
925.335321859
447.693594172
99.2807908759
9158.29030236
8668.94615198
8180.27678704
7692.14353904
7204.5185693
6717.4128241
6230.83986857
5744.81474176
5259.35477366
4774.47956316
4290.21081256
3806.57215157
3323.58867778
2841.28836251
2359.70098935
1878.82829199
1398.65347506
919.57171987
441.924174486
96.3528955697
9153.57649152
8664.21338507
8175.50991362
7687.32585108
7199.63376566
6712.44525174
6225.77466047
5739.63800562
5254.05381762
4769.04317424
4284.6295212
3800.83858826
3317.69790976
2835.23833234
2353.49287815
1872.4659292
1392.14266264
912.938263873
435.301679063
93.0036964358
9148.32084383
8658.93608983
8170.19328084
7681.95044896
7194.18059823
6706.89601062
6220.11187767
5733.84525471
5248.11598171
4762.94671388
4278.362856
3794.3924266
3311.06572679
2828.41688779
2346.48268565
1865.27046686
1384.76789991
905.413294462
427.821560723
89.2362621018
9142.54260029
8653.13334089
8164.34558411
7676.03545805
7188.17642736
6700.78147748
6213.86665909
5727.45011039
5241.55302399
4756.19975606
4271.41775866
3787.23756058
3303.69248961
2820.82035079
2338.66220631
1857.22873755
1376.51065781
896.974820715
419.473355999
85.0510286344
9136.26387383
8646.82711496
8157.98842996
7669.60190509
7181.64148617
6694.12084919
6207.05689222
5720.46882777
5234.37923172
4748.81416617
4263.80325987
3779.37963034
3295.57986767
2812.44577265
2330.02316084
1848.32626569
1367.34916959
887.591802631
410.251954881
80.4588002154
9129.50988669
8640.04251837
8151.14656643
7662.67396316
7174.5991487
6686.93644788
6199.70354944
5712.92069614
5226.61179072
4740.80462036
4255.53095287
3770.82658433
3286.731469
2803.2916265
2320.5579715
1838.54832125
1357.26047607
877.232509748
400.148184252
75.4681191641
9122.30920787
8632.80802668
8143.84813271
7655.27922061
7167.07622882
6679.25405113
6191.8310688
5704.82844651
5218.271325
4732.18909376
4246.61565465
3761.58938646
3277.15363184
2793.35870611
2310.26077453
1827.88096183
1346.22082416
865.861800152
389.146396101
70.0855284025
9114.69398569
8625.1557242
8136.12491299
7647.44896005
7159.10329552
6671.1032611
6183.46776987
5696.21871159
5209.38231723
4722.98945541
4237.07599834
3751.68271738
3266.85625753
2782.65111106
2299.1286119
1816.31234471
1334.20712572
853.439572321
377.223103569
64.3211181944
9106.70016837
8617.12153422
8128.01258403
7639.21843818
7150.71500174
6662.51782059
6174.64612825
5687.12245102
5199.97372589
4713.23212606
4226.93512397
3741.1258264
3255.85376883
2771.17751032
2287.16311923
1803.83543125
1321.20170265
839.926580862
364.335083123
58.1872783888
9098.36761499
8608.74535386
8119.55092047
7630.62714131
7141.95020097
6653.53588533
6165.40343372
5677.57560187
5190.07970101
4702.94880121
4216.2217286
3729.94354486
3244.16636462
2758.95249055
2274.37243756
1790.45097905
1307.20041685
825.301569216
350.409074498
51.7098579396
9089.74029533
8600.07128421
8110.78394539
7621.71872395
7132.85250083
6644.20068936
6155.78203732
5667.61926124
5179.73987941
4692.17710561
4204.97058752
3718.16691234
3231.82042473
2745.99706785
2260.77146453
1776.16856055
1292.21499789
809.581893277
335.529494129
44.9823782289
9080.86643375
8591.14767846
8101.76002345
7612.54182744
7123.47034416
6634.5601444
6145.82985375
5657.30110177
5169.00077066
4680.96180051
4193.2240267
3705.83491326
3218.85058961
2732.34043183
2246.3830231
1761.00526045
1276.2536928
792.762130506
320.253573681
38.2745389116
9071.79830301
8582.02708757
8092.53212145
7603.14968789
7113.85714424
6624.66865236
6135.60117635
5646.67497017
5157.91558174
4669.35484858
4181.03194165
3692.99433573
3205.2992343
2718.01899334
2231.23602498
1744.98151216
1259.3252037
774.872006419
304.406839193
31.5721277298
9062.59319316
8572.76714037
8083.15797875
7593.60057153
7104.07233401
6614.58590998
6125.15630389
5635.80159975
5146.54510122
4657.41650872
4168.45319152
3679.7014443
3191.21840145
2703.07837684
2215.3667283
1728.1205818
1241.43180416
755.875341456
287.981021092
24.9347269408
9053.31207642
8563.42938518
8073.70010271
7583.95786116
7094.18008318
6604.3773759
6114.56203031
5624.74903153
5134.95833704
4645.21622525
4155.55680383
3666.02357147
3176.67189173
2687.57620224
2198.82262215
1710.45378713
1222.58409056
735.762217775
271.052343185
18.4566037754
9044.01965028
8554.07916796
8064.2247169
7574.28909357
7084.24963417
6594.11428719
6103.89177832
5613.59293082
5123.23306151
4632.83347939
4142.42321739
3652.04089385
3161.73776752
2671.58570327
2181.66834761
1692.02972931
1202.80900537
714.580331766
253.66730927
12.2420078626
9034.78387903
8544.78525191
8054.80179795
7564.66600348
7074.35503318
6583.87347611
6093.2255476
5602.41671933
5111.45618998
4620.35848759
4129.14540288
3637.8481184
3146.51083007
2655.19931539
2163.99062032
1672.92717281
1182.17626051
692.33517716
235.967627638
6.42541869844
9025.67541433
8535.61923359
8045.50449316
7555.16399171
7064.57466656
6573.73698828
6082.64964692
5591.31146836
5099.72389347
4607.89263316
4115.82973691
3623.5559455
3131.1047934
2638.53154403
2145.90129556
1653.25014265
1160.76752425
669.037488175
218.082019307
1.1595163629
9016.76683518
8526.65477182
8036.40837407
7545.86140999
7054.99058157
6563.79145482
6072.25613386
5580.37545531
5088.14139708
4595.54859738
4102.59662083
3609.29232739
3115.65440145
2621.722337
2127.54329882
1633.14157793
1138.70909616
644.780803391
200.23359966
-3.36208467219
9008.13140929
8517.96630502
8027.59021945
7536.83838707
7045.68734015
6554.1269528
6062.14173754
5569.71320989
5076.82211709
4583.44976649
4089.58020594
3595.20265111
3100.3162344
2604.93878284
2109.09367432
1612.78927243
1116.18095872
619.660387723
182.66656081
-6.89705718821
8999.84249745
8509.62835946
8019.12745868
7528.17621401
7036.75123633
6544.83607479
6052.40679346
5559.43442273
5065.88679311
4571.7296115
4076.92830445
3581.45032272
3085.27000506
2588.37674801
2090.76455216
1592.43064534
1093.46154648
593.615427738
165.681658354
-9.14452611792
8991.97140431
8501.71316891
8011.09625174
7519.95530363
7028.26805052
6536.01154901
6043.15284841
5549.65149181
5055.46090011
4560.52903933
4064.79974906
3568.21444332
3070.71673255
2572.25926895
2072.79759334
1572.30058138
1070.71629648
567.73588136
151.62694917
-9.57995233718
8984.58631947
8494.28889923
8003.57080069
7512.25360682
7020.32090154
6527.74387123
6034.48013699
5540.47694748
5045.67209811
4549.99397071
4053.36210086
3555.68791646
3056.87832475
2556.84042844
2055.47877841
1552.70390051
1048.28279724
541.729680665
136.894359042
-9.72265167157
8977.75417745
8487.41680458
7996.62237233
7505.14328796
7012.98683267
6520.11814607
6026.48445281
5532.02007413
5036.64642196
4540.27106949
4042.78725929
3544.07322059
3043.99415091
2542.40417255
2039.14518693
1534.03923638
1026.63377188
516.562362147
122.750619879
-9.76738727304
8971.53001689
8481.1365599
7990.31641533
7498.68455671
7006.33302962
6513.2110183
6019.25390303
5524.38317091
5028.50393638
4531.50269248
4033.24552738
3533.57555044
3032.31304825
2529.25503348
2024.17598558
1516.80305024
1006.4578546
493.034178949
109.678500581
-9.76343079782
8965.92064533
8475.60680636
7984.64503965
7492.91776099
7000.4156219
6507.08876784
6012.86591801
5517.65754
5021.35363513
4523.82061169
4024.89797622
3524.39341189
3022.08067432
2517.69749169
2010.9523537
1501.49557007
988.421897323
471.862044019
97.9335346507
-9.74393385942
8961.02660015
8470.73257091
7979.70565959
7487.8984814
6995.28479194
6501.80633531
6007.38429221
5511.91919037
5015.28770229
4517.33872692
4017.887457
3516.70808288
3013.52704623
2508.0180858
1999.82129096
1488.57025043
973.329719795
453.779388335
87.8339171819
-9.72396842759
8956.83777738
8466.5682182
7975.51318428
7483.65690986
6990.97490676
6497.40285876
6002.85503469
5507.22376211
5010.37548332
4512.145008
4012.32854022
3510.67186433
3006.85715144
2500.48112409
1991.06543529
1478.24996228
962.295331152
439.652828416
79.7737745829
-9.71062355667
8953.35516689
8463.12719991
7972.07342004
7480.20385423
6987.50121746
6493.89766502
5999.30231436
5503.602116
5006.65664223
4508.29210434
4008.29456312
3506.39363398
3002.24080838
2495.35321791
1985.00097858
1470.05278511
956.554841639
430.15219642
74.0406174086
-9.71589086217
8950.56938562
8460.40116408
7969.37577894
7477.53055827
6984.85797882
6491.28786032
5996.72589226
5501.05596344
5004.13500821
4505.78808937
4005.80261956
3503.91264189
2999.77908164
2492.94051002
1982.75769731
1468.40670815
949.723823483
426.232006017
70.5859100008
-9.76618300426
8948.45506024
8458.3639264
7967.39233779
7475.60907687
6983.01805282
6489.54684534
5995.09844989
5499.55558248
5002.77619217
4504.59093779
4004.79949671
3503.15934402
2999.37439412
2493.05345492
1983.64237431
1470.1886145
951.675545287
426.202148705
71.3413719828
-9.9245927107
8946.9688646
8456.97051701
7966.07688923
7474.39229253
6981.9331373
6488.62429966
5994.36601741
5499.04045742
5002.50829705
4504.60961331
4005.16347913
3503.96408092
3000.78125302
2495.34022168
1987.30010812
1476.02823754
961.37213223
439.205286421
76.8141973775
-10.7421347822
8946.05024569
8456.15813246
7965.3650522
7473.8140775
6981.53445542
6488.44752021
5994.44977465
5499.42110247
5003.22497356
4505.71056617
4006.71927361
3506.0824693
3003.64006916
2499.25299092
1992.88400025
1484.47048577
975.10539697
462.079020418
89.0857932091
-14.9299877367
8945.62397726
8455.84798213
7965.1752595
7473.78973035
6981.73364295
6488.92239598
5995.24568308
5500.58209203
5004.79050362
4507.7293992
4009.25803949
3509.23716694
3007.54544647
2504.12742029
1999.19936228
1493.23593581
988.558374738
487.195356651
112.420341685
-15.5634183257
8945.60025694
8455.94598534
7965.40939996
7474.21722024
6982.4217344
6489.93248888
5996.6305706
5502.38582686
5007.04484811
4510.47461072
4012.55831245
3513.16445399
3012.14855813
2509.39818532
2005.14262618
1499.90920621
996.431213571
499.048069886
121.865998109
-27.1858221783
8945.87742977
8456.34569113
7965.95606649
7474.97819428
6983.47587132
6491.34821192
5998.45976975
5504.66706207
5009.79096624
4513.72020554
4016.38654337
3517.65498891
3017.28475206
2514.93056924
2010.46547893
1503.54684443
995.944303279
490.656082696
90.9634300397
-57.9405720706
8946.35174941
8456.93646978
7966.6974118
7475.94865167
6984.76051043
6493.02029751
6000.57086048
5507.2439955
5012.78243117
4517.17093752
4020.4589804
3522.5122988
3022.95126904
2521.14483462
2016.35513783
1506.43211375
987.830166918
460.243660021
-91.5829944698
-218.794795633
8946.91813119
8457.60611798
7967.51511947
7477.00121217
6986.13925004
6494.8041647
6002.79226643
5509.88898539
5015.64650165
4520.3893067
4024.3699232
3527.44822864
3029.09486863
2528.67325139
2025.21601727
1514.76282264
982.958126701
400.532693979
-405.404642134
-562.041697369
8947.48542426
8458.25512011
7968.30098133
7478.01566243
6987.47852254
6496.55902116
6004.98038088
5512.4011389
5017.80542986
4522.68356224
4027.44176015
3531.68597095
3034.98364319
2537.68614119
2040.29608551
1541.42750663
1040.31698191
555.26081587
207.608648042
-105.534775349
8947.98200151
8458.80502073
7968.96744942
7478.88776374
6988.65201188
6498.16405275
6007.1504933
5515.1184389
5019.50110638
4523.91830304
4029.55227496
3534.15990196
3037.34467915
2546.55347738
2057.77126985
1568.13889634
1079.70013182
590.569307802
146.987284978
-82.9883645576
8948.36122023
8459.20721304
7969.45749267
7479.54000824
6989.50882583
6499.10653808
6007.3328039
5512.61045694
5012.02090116
4522.60909142
4031.06112891
3535.61669159
3027.82704971
2556.11497229
2073.24440448
1584.63374288
1095.5261332
600.17842929
113.705272661
-210.512971085
8948.60658758
8459.45787006
7969.78215833
7480.05558854
6990.51157779
6501.27197224
6012.1995474
5526.54713267
2984.63332568
2570.37393422
2087.42046244
1593.10750964
1089.67274602
561.437280988
-76.85493265
-710.276980368
8948.70669768
8459.55034063
7969.89378985
7480.1744333
6990.5415439
6501.02848043
6011.7795556
5523.99119869
3037.47707848
2584.48266628
2100.88176634
1602.12698014
1080.11838151
476.045159925
-486.800987027
-1926.88666161
8948.6768027
8459.52099282
7969.86571222
7480.14846718
6990.5184359
6501.00835423
6011.76217289
5523.97462812
3037.46777936
2584.47294886
2100.87143449
1602.11683953
1080.11004044
476.039941467
-486.803251853
-1926.88934098
8948.5192898
8459.37204997
7969.69982527
7479.97907465
6990.44295905
6501.21273665
6012.14753788
5526.49913077
2984.60672385
2570.34524105
2087.38977095
1593.0772955
1089.64776135
561.421891565
-76.8586459565
-710.281835727
8948.22179448
8459.06983103
7969.32523275
7479.41642112
6989.39703445
6499.00794129
6007.24692014
5512.53206245
5011.94142117
4522.53577571
4030.995585
3535.55957686
3027.7815298
2556.07168547
2073.20156177
1584.59434901
1095.49563927
600.161770524
113.705431201
-210.514147857
8947.80138237
8458.62666825
7968.79468361
7478.72445354
6988.50177503
6498.0292712
6007.03149079
5515.01385704
5019.40770457
4523.83634029
4029.48069239
3534.09722517
3037.28916615
2546.50141956
2057.72211161
1568.09582872
1079.66804264
590.553080021
146.988082863
-82.9888796736
8947.26878969
8458.04099178
7968.09286408
7477.81764552
6987.29470056
6496.39268723
6004.83323858
5512.27323228
5017.69536604
4522.59002915
4027.36245005
3531.6179168
3034.92390103
2537.63208896
2040.24728746
1541.38669862
1040.28746173
555.245765409
207.606016948
-105.536812986
8946.67184188
8457.36251031
7967.2776978
7476.77408888
6985.9268827
6494.61074856
6002.62054898
5509.74013551
5015.52021127
4520.28432521
4024.28392864
3527.37792029
3029.03649742
2528.6235646
2025.17335634
1514.72858381
982.934217933
400.521610065
-405.400461538
-562.04177282
8946.08349791
8456.67086769
7966.43766695
7475.69862942
6984.52463395
6492.80419572
6000.37817795
5507.07696959
5012.64170788
4517.05616567
4020.36865896
3522.44344045
3022.89947868
2521.10523048
2016.32366949
1506.40773686
987.813130605
460.236425116
-91.5748712817
-218.793409668
8945.59575337
8456.06641628
7965.68192443
7474.71310369
6983.22376177
6491.11407381
5998.24994631
5504.48515767
5009.63841396
4513.59794928
4016.29428187
3517.59047457
3017.2429448
2514.90456824
2010.44824427
1503.53419923
995.9344339
490.650132685
90.9620290589
-57.9400293776
8945.31099395
8455.65946444
7965.12848681
7473.94503913
6982.16306546
6489.69180916
5996.41230761
5502.19307889
5006.88347623
4510.34705905
4012.46543395
3513.1053954
3012.1176634
2509.38650227
2005.14006271
1499.90839929
996.428732998
499.045331268
121.866847341
-27.1846119164
8945.33406556
8455.56123604
7964.89474459
7473.51884019
6981.47570475
6488.68149284
5995.02680371
5500.38867783
5004.6276974
4507.59986668
4009.16403635
3509.17890994
3007.51745967
2504.12042398
1999.20275209
1493.24081348
988.560286429
487.194236975
112.419553578
-15.5632148778
8945.76509758
8455.87647514
7965.09005287
7473.54897782
6981.28273339
6488.21256523
5994.23498013
5499.23087526
5003.06311162
4505.58079263
4006.62316342
3506.02204845
3003.61046984
2499.24575142
1992.88866413
1484.47748745
975.1092807
462.078830025
89.0849000177
-14.9299579519
8946.69290072
8456.69797026
7965.81083048
7474.13587291
6981.68970818
6488.39726663
5994.15868285
5498.85585815
5002.34968356
4504.48020036
4005.06551582
3503.89950957
3000.74643515
2495.3280233
1987.30140809
1476.03351826
961.375600849
439.205063099
76.8134639199
-10.742130524
8948.19165267
8458.10356788
7967.13785767
7475.3634723
6982.78457892
6489.32884634
5994.89906373
5499.37748642
5002.62194153
4504.46315614
4004.70012597
3503.09052055
2999.33323667
2493.03416537
1983.63738654
1470.1892752
951.676187864
426.200274282
71.3408187221
-9.92459024595
8950.32052746
8460.15490371
7969.13463573
7477.29731145
6984.63573587
6491.07985115
5996.53507142
5500.88476955
5003.98556759
4505.66260353
4005.70275392
3503.84032533
2999.73192945
2492.91385528
1982.74555653
1468.4015944
949.720463813
426.225533888
70.58575431
-9.76618572769
8953.12479102
8462.89888033
7971.84928131
7479.98629887
6987.29297258
6493.7016076
5999.12118965
5503.43837312
5006.51255553
4508.16959788
4008.19504676
3506.31874848
3002.1883489
2495.31968542
1984.98178075
1470.041971
956.549894328
430.149986228
74.0404203668
-9.71589941302
8956.62572618
8466.35775495
7975.30606734
7483.45519381
6990.78096963
6497.21925679
6002.68428088
5507.06814859
5010.23707648
4512.02567115
4012.22967637
3510.59501845
3006.80059394
2500.44206923
1991.04011323
1478.23453736
962.287390728
439.650294492
79.7735730616
-9.71063214386
8960.83230704
8470.53949563
7979.51526816
7487.71252634
6995.10533838
6501.6356386
6007.22461429
5511.77262172
5015.15613307
4517.22386112
4017.79054428
3516.63030957
3013.46738483
2507.97456224
1999.79112096
1488.55067375
973.318822826
453.775603445
87.8337159481
-9.72397853385
8965.74336634
8475.43045366
7984.47091642
7492.74735171
7000.25071511
6506.9313369
6012.71796217
5517.52093116
5021.23006711
4523.71160019
4024.80460777
3524.31663537
3022.01981649
2517.651174
2010.91880335
1501.47285772
988.408590769
471.857047083
97.9333384624
-9.74394586434
8971.36892515
8480.97606263
7990.15797859
7498.52931288
7006.18254545
6513.06700794
6019.11810599
5524.25722114
5028.38931361
4531.40070114
4033.15709198
3533.50143702
3032.25284016
2529.20783265
2024.14065644
1516.77833901
1006.44283888
493.028190854
109.67829969
-9.76344454027
8977.60814597
8487.27147635
7996.47880164
7505.0026077
7012.85039229
6519.98741704
6026.36092161
5531.90512976
5036.5413117
4540.17687581
4042.70474309
3544.00299654
3043.93597954
2542.35750142
2039.10933961
1534.013465
1026.61765846
516.555600117
122.75040465
-9.76740144774
8984.45436635
8494.15766973
8003.44121439
7512.12670759
7020.19787195
6527.62597151
6034.36861836
5540.37295843
5045.57664751
4549.90791789
4053.28604296
3555.62232865
3056.82307216
2556.79520059
2055.44323792
1552.67775552
1048.26603692
541.722344356
136.894177227
-9.72266171275
8991.8525055
8501.59499911
8010.9796692
7519.84126553
7028.15760223
6535.9057722
6043.05278666
5549.55806905
5055.37489569
4560.45110357
4064.73032386
3568.15386344
3070.66491694
2572.21607091
2072.76293039
1572.27451201
1070.69920656
567.728127224
151.62680475
-9.57995431526
8999.73567757
8509.52226268
8019.02289841
7528.07407224
7036.65244649
6544.74157249
6052.31744873
5559.35096592
5065.8097911
4571.65953493
4076.86547666
3581.39491905
3085.22195646
2588.3359907
2090.73117011
1592.40503014
1093.44434404
593.60738701
165.681575488
-9.14451873506
9008.03577101
8517.87137201
8027.49675913
7536.74721205
7045.59929025
6554.04284442
6062.0623023
5569.63903946
5076.75361587
4583.38725406
4089.52383859
3595.15244113
3100.27212622
2604.90079318
2109.06206154
1612.76465695
1116.16406658
619.652208637
182.666178432
-6.89708140139
9016.68159571
8526.57020803
8036.32519924
7545.78036842
7054.91242931
6563.71691177
6072.18582869
5580.30986194
5088.08079747
4595.49317456
4102.54638636
3609.24719765
3115.61431694
2621.68739248
2127.51389932
1633.1184201
1138.69299253
644.772719386
200.232876337
-3.36218880564
9025.60018017
8535.54463177
8045.43116847
7555.09260685
7064.50589361
6573.67146652
6082.5879244
5591.25394746
5099.67080932
4607.84406499
4115.78562854
3623.51616173
3131.06925123
2638.50033879
2145.8747914
1653.22906613
1160.75273741
669.029758405
218.080988461
1.15932523935
9034.7180083
8544.71996675
8054.73767673
7564.60363298
7074.29500147
6583.81633432
6093.17176229
5602.36662508
5111.40996398
4620.31616227
4129.10689976
3637.81332265
3146.47969771
2655.17197866
2163.96744843
1672.9087756
1182.16332119
692.328215546
235.966417939
6.42516627903
9043.9626876
8554.0227274
8064.16930913
7574.23523801
7084.1978496
6594.06505479
6103.84549959
5613.54989131
5123.19340693
4632.79722153
4142.39027092
3652.01114699
3161.71117042
2671.56235961
2181.64856175
1692.01398626
1202.79783703
714.574149874
253.665998438
12.2417129504
9053.2635068
8563.38126199
8073.65287139
7583.91199145
7094.13604329
6604.33559244
6114.52285242
5624.71270525
5134.92498235
4645.18584319
4155.52930103
3665.99882152
3176.64980603
2687.55682187
2198.80615901
1710.44061241
1222.57462223
735.756814
271.051002422
18.4562842573
9062.5524466
8572.72675849
8083.11833371
7593.562119
7104.0355143
6614.55110429
6125.12381661
5635.77164394
5146.51777543
4657.39180364
4168.43099928
3679.68160492
3191.20075116
2703.06286549
2215.35346522
1728.10984177
1241.42393435
755.87068945
287.979695765
24.9343950537
9071.76481846
8581.99388531
8092.49944552
7603.11807807
7113.82703334
6624.64036715
6135.57497531
5646.65104231
5157.89401046
4669.33562193
4181.01494052
3692.97936162
3205.2859878
2718.00728708
2231.22586063
1744.97307379
1259.31881267
774.868040207
304.405548202
31.571788284
9080.8397182
8591.1212452
8101.73416756
7612.51684937
7123.4464191
6634.53788131
6145.80949853
5657.28279915
5168.9846386
4680.94780895
4193.21217722
3705.82468065
3218.84159332
2732.33232745
2246.37575673
1760.99889553
1276.24861596
792.758743813
320.25232141
38.2741939935
9089.72031574
8600.05157145
8110.76458759
7621.70009763
7132.83463126
6644.18395492
6155.76698919
5667.60614598
5179.72875697
4692.16814478
4204.96335114
3718.16122463
3231.81532675
2745.99226484
2260.76671536
1776.16406513
1292.21102933
809.579069306
335.528314669
44.9820411598
9098.35367664
8608.73162988
8119.53754933
7630.61435544
7141.93797592
6653.52458793
6165.39349023
5677.56718065
5190.07317788
4702.94410266
4216.21901818
3729.9417763
3244.16481259
2758.95052019
2274.36996688
1790.44808234
1307.19757094
825.299330012
350.408029851
51.7095422771
9106.69139072
8617.11317601
8128.00429064
7639.21035434
7150.70740324
6662.51106265
6174.6405643
5687.11826481
5199.97119157
4713.2312837
4226.93583164
3741.12758768
3255.85529751
2771.17803616
2287.16271287
1803.83424572
1321.20018756
839.925236949
364.334380255
58.1870504779
9114.68938637
8625.15146008
8136.12073906
7647.44511356
7159.10002542
6671.10081371
6183.46637317
5696.21857497
5209.38362059
4722.99234246
4237.07993289
3751.6873692
3266.86043591
2782.65407828
2299.13032076
1816.3129682
1334.20700055
853.439156725
377.222764454
64.3209857881
9122.3085309
8632.80748583
8143.84782884
7655.27934501
7167.07699078
6679.25565056
6191.83369044
5704.83223708
5218.27642875
4732.19551981
4246.62301745
3761.59705317
3277.16036859
2793.36410818
2310.2647009
1827.8834785
1346.22219422
865.862366627
389.146468611
70.085498512
9129.51290115
8640.04567304
8151.15002367
7662.67789471
7174.60373199
6686.94185685
6199.70994613
5712.92822404
5226.62056918
4740.8145563
4255.54133215
3770.83697714
3286.74072869
2803.29940608
2320.56406817
1838.55273088
1357.2633461
877.234094486
400.148704367
75.4682048642
9136.27051446
8646.83391307
8157.99554001
7669.60947905
7181.64968338
6694.12983136
6207.06682509
5720.47987741
5234.3915334
4748.82711876
4263.81658776
3779.39247774
3295.59147383
2812.45576003
2330.03129031
1848.33244796
1367.35346439
887.594359646
410.252933455
80.4590164983
9142.55276348
8653.14365195
8164.35617364
7676.04645821
7188.18798372
6700.79375192
6213.87983682
5727.46440515
5241.56822552
4756.2156444
4271.43363168
3787.25260886
3303.70621386
2820.83234864
2338.67218581
1857.23654888
1376.51626679
896.97829364
419.474793477
85.0513823285
9148.33432101
8658.94968506
8170.20709419
7681.96459055
7194.19520158
6706.91123987
6220.12793565
5733.86226954
5248.13377507
4762.96503242
4278.38079179
3794.40942572
3311.08131612
2828.43065571
2346.49430381
1865.27972592
1384.77469095
905.417608832
427.823440199
89.2367538673
9153.59297875
8664.22995105
8175.52662501
7687.34279394
7199.65105906
6712.46305184
6225.79316389
5739.65725498
5254.07379604
4769.06331406
4284.64926965
3800.85727948
3317.71510014
2835.25361447
2353.50590085
1872.47643548
1392.15048842
912.943327322
435.303968485
93.0043192698
9158.30943435
8668.96532247
8180.29602989
7692.16291565
7204.53818022
6717.43280651
6230.86038756
5744.83588097
5259.37639539
4774.50142188
4290.23209369
3806.59225057
3323.60719355
2841.30489823
2359.71517337
1878.83983963
1398.66217281
919.577428025
441.926828637
96.3536369441
9162.46704277
8673.13938701
8184.4992979
7696.40950351
7208.84183995
6721.80670851
6235.3169868
5749.38679941
5264.03216665
4779.2712207
4295.12383972
3811.61168704
3328.75804612
2846.58843076
2365.12990726
1884.38196377
1404.32643423
925.341554257
447.696555066
99.2816349684
9166.05144921
8676.73814095
8188.12283709
7700.06947897
7212.54960284
6725.57314312
6239.15238028
5753.30070623
5268.03324457
4783.36694307
4299.32043218
3815.91376625
3333.16843752
2851.10792989
2369.75703454
1889.11326047
1409.15770607
930.252892741
452.620891111
101.787823399
9169.05016915
8679.74987958
8191.15541221
7703.13205087
7215.65120094
6728.72251373
6242.35783069
5756.56994648
5271.37323271
4786.78353582
4302.81869614
3819.4972145
3336.83925835
2854.86667126
2373.60247033
1893.04268024
1413.1692317
934.331493073
456.702087224
103.865657475
9171.45305046
8682.16705915
8193.59026335
7705.59075818
7218.14048134
6731.24913722
6244.92830505
5759.19031845
5274.04875493
4789.51907357
4305.61779347
3822.36280472
3339.77293305
2857.8688226
2376.67216057
1896.17797881
1416.37044993
937.587470292
459.941820882
105.517749635
9173.25065391
8683.98567044
8195.42401797
7707.44178326
7220.01344282
6733.14915688
6246.86031484
5761.15878507
5276.05778882
4791.57199872
4307.71734396
3824.51111096
3341.97115593
2860.11720674
2378.97002608
1898.52392778
1418.76415186
940.021560054
462.350756574
106.754948947
9174.41014039
8685.16763585
8196.61361812
7708.63898101
7221.22288744
6734.37514856
6248.1065917
5762.42861441
5277.35396247
4792.89705711
4309.07324066
3825.89936595
3343.39280472
2861.57275263
2380.45934914
1900.04872201
1420.3299865
941.649608146
464.28366877
108.139181036
9174.83679632
8685.59789022
8197.03102325
7709.04909226
7221.63633946
6734.79741625
6248.54080812
5762.87697014
5277.81844784
4793.37918524
4309.5744691
3826.42084403
3343.93563713
2862.13787832
2381.04502544
1900.65554915
1420.99701845
942.264962695
463.942988443
106.844908066
)
;

boundaryField
{
    back
    {
        type            calculated;
        value           nonuniform List<scalar> 
1984
(
9174.80941685
8685.5705639
8197.00379248
7709.02196732
7221.60929754
6734.77040393
6248.51376476
5762.85004287
5277.79180533
4793.35328688
4309.54980204
3826.39777064
3343.91453011
2862.11910572
2381.02891539
1900.64238666
1420.98703085
942.258297049
463.939736303
106.8439674
9174.3829212
8685.14047843
8196.58656873
7708.61205263
7221.19605435
6734.34835066
6248.07975231
5762.40176291
5277.32738169
4792.87108283
4309.04844806
3825.87609662
3343.37143706
2861.55366442
2380.44290457
1900.03522326
1420.31969324
941.642707878
464.280277697
108.138189841
9173.22392756
8683.95900502
8195.39746139
7707.41534728
7219.98709708
6733.12283157
6246.8339201
5761.13231889
5276.0314001
4791.5461706
4307.69260841
3824.48783958
3341.94972661
2860.09800855
2378.953432
1898.5102612
1418.75369052
940.014528277
462.347302945
106.753941499
9171.42714777
8682.1412094
8193.56451164
7705.56511168
7218.11490179
6731.22354997
6244.90261311
5759.1644332
5274.02294071
4789.49358291
4305.5932533
3822.33970447
3339.75163857
2857.84971514
2376.65562292
1896.16433511
1416.35999253
937.580437853
459.93837866
105.516747459
9169.02541747
8679.72516989
8191.13077944
7703.1074917
7215.62666579
6728.69791876
6242.33308074
5756.54496449
5271.34810754
4786.75874501
4302.79455798
3819.47449736
3336.81830435
2854.847865
2373.58619126
1893.02925874
1413.15895096
934.324596627
456.698730947
103.864682996
9166.02819542