/*--------------------------------*- C++ -*----------------------------------*\
| =========                 |                                                 |
| \\      /  F ield         | OpenFOAM: The Open Source CFD Toolbox           |
|  \\    /   O peration     | Version:  v2012                                 |
|   \\  /    A nd           | Website:  www.openfoam.com                      |
|    \\/     M anipulation  |                                                 |
\*---------------------------------------------------------------------------*/
FoamFile
{
    version     2.0;
    format      ascii;
    class       volScalarField;
    location    "2.7";
    object      p_rgh;
}
// * * * * * * * * * * * * * * * * * * * * * * * * * * * * * * * * * * * * * //

dimensions      [1 -1 -2 0 0 0 0];


internalField   nonuniform List<scalar> 
166
(
8737.64804896
8741.42726403
8745.77870725
8750.76366612
8756.41423704
8762.80207114
8769.98677006
8778.10092102
8787.31514887
8796.6685472
7756.63393131
1518.16840929
-0.0724890933559
8725.5837259
8728.19951044
8731.30719019
8734.92403655
8739.08361781
8743.81966179
8749.16575254
8755.16196667
8761.8474325
8769.27726714
8777.47949076
8785.91626755
7641.41426085
1379.1320876
-0.064682550887
8712.85969337
8713.28571754
8716.92005336
8718.98084076
8721.48066294
8724.4396409
8727.87758167
8731.81564982
8736.2759349
8741.27842739
8746.84072953
8752.97140162
8759.66242758
8766.84786369
8774.2202844
7490.17150744
1217.70623756
-0.0480985250915
8706.0977659
8706.49251941
8707.26815144
8708.42300334
8709.97307636
8711.92674322
8714.2937522
8717.08865388
8720.3253472
8724.01730022
8728.17663847
8732.81156757
8737.92276084
8743.49868756
8749.50619206
8755.88806234
8762.59623211
7333.8147918
1065.86432122
-0.0371372261346
8698.95857765
8699.33332751
8700.06121133
8701.15734687
8702.61610685
8704.4565816
8706.6757681
8709.29112347
8712.31140942
8715.74270659
8719.58983893
8723.85141842
8728.51769945
8733.5636266
8738.94725955
8744.60768664
8750.5043816
7178.88308741
914.366841161
-0.0223091753194
8691.4588844
8691.80896825
8692.48475688
8693.49874204
8694.87143245
8696.60353172
8698.65806234
8701.08409638
8703.87942323
8707.04438177
8710.57847878
8714.47382893
8718.71505644
8723.27040903
8728.09832668
8733.12007517
8738.21720873
7016.57020423
790.272134673
-0.0158817087682
8683.62138294
8683.94568934
8684.57085816
8685.50693357
8686.76119746
8688.32679428
8690.2529512
8692.50228619
8695.07197605
8697.97057049
8701.19770925
8704.74008086
8708.58454392
8712.69992728
8717.05383184
8721.57855985
8726.13524871
6862.16528378
687.850215256
-0.0217566834044
8675.46983261
8675.76744213
8676.34041236
8677.19763772
8678.34529619
8679.78567522
8681.52969265
8683.56880549
8685.91307679
8688.55835769
8691.49694316
8694.70221009
8698.18271388
8701.90083776
8705.85930852
8710.0263088
8714.31334465
6715.10931082
600.859183591
-0.0226760542666
8667.02916789
8667.29905622
8667.8179131
8668.59389066
8669.63292934
8670.93798038
8672.51240208
8674.35603026
8676.469471
8678.84601783
8681.48243075
8684.39159806
8687.557065
8690.89746573
8694.50514126
8698.39363822
8702.5984445
6567.85330418
527.116244095
0.0639270459068
)
;

boundaryField
{
    back
    {
        type            fixedFluxPressure;
        gradient        uniform 0;
        value           nonuniform List<scalar> 
166
(
8737.64804896
8741.42726403
8745.77870725
8750.76366612
8756.41423704
8762.80207114
8769.98677006
8778.10092102
8787.31514887
8796.6685472
7756.63393131
1518.16840929
-0.0724890933559
8725.5837259
8728.19951044
8731.30719019
8734.92403655
8739.08361781
8743.81966179
8749.16575254
8755.16196667
8761.8474325
8769.27726714
8777.47949076
8785.91626755
7641.41426085
1379.1320876
-0.064682550887
8712.85969337
8713.28571754
8716.92005336
8718.98084076
8721.48066294
8724.4396409
8727.87758167
8731.81564982
8736.2759349
8741.27842739
8746.84072953
8752.97140162
8759.66242758
8766.84786369
8774.2202844
7490.17150744
1217.70623756
-0.0480985250915
8706.0977659
8706.49251941
8707.26815144
8708.42300334
8709.97307636
8711.92674322
8714.2937522
8717.08865388
8720.3253472
8724.01730022
8728.17663847
8732.81156757
8737.92276084
8743.49868756
8749.50619206
8755.88806234
8762.59623211
7333.8147918
1065.86432122
-0.0371372261346
8698.95857765
8699.33332751
8700.06121133
8701.15734687
8702.61610685
8704.4565816
8706.6757681
8709.29112347
8712.31140942
8715.74270659
8719.58983893
8723.85141842
8728.51769945
8733.5636266
8738.94725955
8744.60768664
8750.5043816
7178.88308741
914.366841161
-0.0223091753194
8691.4588844
8691.80896825
8692.48475688
8693.49874204
8694.87143245
8696.60353172
8698.65806234
8701.08409638
8703.87942323
8707.04438177
8710.57847878
8714.47382893
8718.71505644
8723.27040903
8728.09832668
8733.12007517
8738.21720873
7016.57020423
790.272134673
-0.0158817087682
8683.62138294
8683.94568934
8684.57085816
8685.50693357
8686.76119746
8688.32679428
8690.2529512
8692.50228619
8695.07197605
8697.97057049
8701.19770925
8704.74008086
8708.58454392
8712.69992728
8717.05383184
8721.57855985
8726.13524871
6862.16528378
687.850215256
-0.0217566834044
8675.46983261
8675.76744213
8676.34041236
8677.19763772
8678.34529619
8679.78567522
8681.52969265
8683.56880549
8685.91307679
8688.55835769
8691.49694316
8694.70221009
8698.18271388
8701.90083776
8705.85930852
8710.0263088
8714.31334465
6715.10931082
600.859183591
-0.0226760542666
8667.02916789
8667.29905622
8667.8179131
8668.59389066
8669.63292934
8670.93798038
8672.51240208
8674.35603026
8676.469471
8678.84601783
8681.48243075
8684.39159806
8687.557065
8690.89746573
8694.50514126
8698.39363822
8702.5984445
6567.85330418
527.116244095
0.0639270459068
)
;
    }
    sides
    {
        type            fixedFluxPressure;
        gradient        nonuniform List<scalar> 0();
        value           nonuniform List<scalar> 0();
    }
    bottom
    {
        type            fixedFluxPressure;
        gradient        uniform 0;
        value           nonuniform List<scalar> 7(8712.85969337 8706.0977659 8698.95857765 8691.4588844 8683.62138294 8675.46983261 8667.02916789);
    }
    front
    {
        type            fixedFluxPressure;
        gradient        uniform 0;
        value           nonuniform List<scalar> 
166
(
8737.64804896
8741.42726403
8745.77870725
8750.76366612
8756.41423704
8762.80207114
8769.98677006
8778.10092102
8787.31514887
8796.6685472
7756.63393131
1518.16840929
-0.0724890933559
8725.5837259
8728.19951044
8731.30719019
8734.92403655
8739.08361781
8743.81966179
8749.16575254
8755.16196667
8761.8474325
8769.27726714
8777.47949076
8785.91626755
7641.41426085
1379.1320876
-0.064682550887
8712.85969337
8713.28571754
8716.92005336
8718.98084076
8721.48066294
8724.4396409
8727.87758167
8731.81564982
8736.2759349
8741.27842739
8746.84072953
8752.97140162
8759.66242758
8766.84786369
8774.2202844
7490.17150744
1217.70623756
-0.0480985250915
8706.0977659
8706.49251941
8707.26815144
8708.42300334
8709.97307636
8711.92674322
8714.2937522
8717.08865388
8720.3253472
8724.01730022
8728.17663847
8732.81156757
8737.92276084
8743.49868756
8749.50619206
8755.88806234
8762.59623211
7333.8147918
1065.86432122
-0.0371372261346
8698.95857765
8699.33332751
8700.06121133
8701.15734687
8702.61610685
8704.4565816
8706.6757681
8709.29112347
8712.31140942
8715.74270659
8719.58983893
8723.85141842
8728.51769945
8733.5636266
8738.94725955
8744.60768664
8750.5043816
7178.88308741
914.366841161
-0.0223091753194
8691.4588844
8691.80896825
8692.48475688
8693.49874204
8694.87143245
8696.60353172
8698.65806234
8701.08409638
8703.87942323
8707.04438177
8710.57847878
8714.47382893
8718.71505644
8723.27040903
8728.09832668
8733.12007517
8738.21720873
7016.57020423
790.272134673
-0.0158817087682
8683.62138294
8683.94568934
8684.57085816
8685.50693357
8686.76119746
8688.32679428
8690.2529512
8692.50228619
8695.07197605
8697.97057049
8701.19770925
8704.74008086
8708.58454392
8712.69992728
8717.05383184
8721.57855985
8726.13524871
6862.16528378
687.850215256
-0.0217566834044
8675.46983261
8675.76744213
8676.34041236
8677.19763772
8678.34529619
8679.78567522
8681.52969265
8683.56880549
8685.91307679
8688.55835769
8691.49694316
8694.70221009
8698.18271388
8701.90083776
8705.85930852
8710.0263088
8714.31334465
6715.10931082
600.859183591
-0.0226760542666
8667.02916789
8667.29905622
8667.8179131
8668.59389066
8669.63292934
8670.93798038
8672.51240208
8674.35603026
8676.469471
8678.84601783
8681.48243075
8684.39159806
8687.557065
8690.89746573
8694.50514126
8698.39363822
8702.5984445
6567.85330418
527.116244095
0.0639270459068
)
;
    }
    atmosphere
    {
        type            totalPressure;
        rho             rho;
        psi             none;
        gamma           1;
        p0              uniform 0;
        value           nonuniform List<scalar> 9(-0.00122957173876 -0.00137193080026 -0.00093527148814 -0.00039539565212 -8.49856221243e-05 -7.09949754739e-05 -0.000440197038455 -0.00482339106847 0);
    }
    floatingObject
    {
        type            fixedFluxPressure;
        gradient        nonuniform List<scalar> 0();
        value           nonuniform List<scalar> 0();
    }
    procBoundary0to1
    {
        type            processor;
        value           nonuniform List<scalar> 10(8756.95974025 8762.8160374 8769.48123457 8777.04897274 8785.62230307 8795.31029528 8805.60209526 7789.96962314 1640.97559633 -0.0558026963343);
    }
    procBoundary0to2
    {
        type            processor;
        value           nonuniform List<scalar> 
14
(
8743.45787074
8747.32277421
8751.80892233
8731.73628359
8734.43669191
8734.43669191
8719.22489622
8719.6648308
8723.44599991
8723.44599991
8714.08770728
8714.08770728
8715.2958405
8715.2958405
)
;
    }
    procBoundary0to4
    {
        type            processor;
        value           nonuniform List<scalar> 8(8658.32611436 8658.5673074 8659.03003026 8659.72195205 8660.64912944 8661.8146591 8663.22136973 8664.87051226);
    }
    procBoundary0to5
    {
        type            processor;
        value           nonuniform List<scalar> 
12
(
8666.76166081
8668.89352643
8671.25808209
8673.84759541
8676.62922528
8679.68126948
8682.94072494
8686.4793309
8690.50437895
6406.68745939
485.012428157
0.151656392064
)
;
    }
}


// ************************************************************************* //
