/*--------------------------------*- C++ -*----------------------------------*\
| =========                 |                                                 |
| \\      /  F ield         | OpenFOAM: The Open Source CFD Toolbox           |
|  \\    /   O peration     | Version:  v2012                                 |
|   \\  /    A nd           | Website:  www.openfoam.com                      |
|    \\/     M anipulation  |                                                 |
\*---------------------------------------------------------------------------*/
FoamFile
{
    version     2.0;
    format      ascii;
    class       volScalarField;
    location    "4.5";
    object      ddt0(k);
}
// * * * * * * * * * * * * * * * * * * * * * * * * * * * * * * * * * * * * * //

dimensions      [0 2 -3 0 0 0 0];


internalField   nonuniform List<scalar> 
167
(
-0.000887355115796
-0.000901943662008
-0.000933398077882
-0.00100892601467
-0.00125476781718
-0.00187160547109
0.000165021683954
0.0321992040047
0.086863374026
-0.000901219582423
-0.000936945926919
-0.00102608537548
-0.0013248257958
-0.00219246593829
-0.00221566053396
0.015812619686
0.163087262005
-0.000901622091655
-0.000943150337381
-0.00104836733536
-0.00139309594016
-0.00242209000126
-0.00355452570197
0.0149022156334
0.142106312556
-0.000881954933789
-0.000903523126644
-0.000953923629405
-0.0010842565818
-0.00148604149717
-0.00262157035328
-0.00419462161653
0.0248251534943
0.163960371304
-0.000881219703606
-0.000906041468625
-0.00096618022688
-0.00112556972773
-0.00159551330367
-0.00285022128686
-0.0051472581931
0.0105915133889
0.402675592039
-0.000880830522082
-0.000908472930979
-0.000976344002178
-0.00116013470461
-0.00169354424967
-0.00305968909872
-0.00581230113767
-0.00732209065265
0.0654996008667
-0.000868620536032
-0.000880846279546
-0.000910881714619
-0.00098466058621
-0.00118715839176
-0.0017808162162
-0.00327064489207
-0.00614992947078
-0.0179612400364
-0.125337188602
-0.000862841282227
-0.000868037797444
-0.000881302865974
-0.000913748466725
-0.000993171132955
-0.00121346397805
-0.00187436222638
-0.00353338995843
-0.00634484648342
-0.0135705996765
-0.135346578863
-0.000862140998725
-0.000867771613818
-0.000882262275641
-0.000917626051223
-0.00100454629498
-0.00124878464373
-0.00198988753421
-0.00383384960525
-0.00657811282311
-0.00303627619396
0.054607873938
-0.000867683283516
-0.000883578649916
-0.000922267690582
-0.00101821345062
-0.00129038862603
-0.00211371943241
-0.00413050050305
-0.00679251271714
0.00169716947068
-0.261486290872
-0.00086761091805
-0.00088484173808
-0.000926848489587
-0.0010315964206
-0.00132901570728
-0.00221825993299
-0.0043665060083
-0.00748188324482
-0.0045352364073
-0.0651525725944
-0.000866748023429
-0.000885210339422
-0.000930364529855
-0.00104292460698
-0.00135867986759
-0.00228810703409
-0.00451080842398
-0.00762595963305
-0.0106606466697
-0.24156878913
-0.000863310250102
-0.000882826195923
-0.000930622436622
-0.00104939623272
-0.00137652564761
-0.00232820306643
-0.00462844603803
-0.00762294199694
-0.0121373320733
-0.209887223083
-0.000853630354637
-0.000873357900208
-0.000922502896739
-0.00104477788029
-0.00137918654491
-0.00235675163409
-0.00478639476473
-0.00811822382049
-0.00715538957627
-0.00173680292795
-0.00082217114288
-0.000828923593089
-0.000847415422672
-0.000895294787391
-0.00101574450567
-0.00134880054431
-0.00234064743484
-0.0048449321133
-0.00885777519366
-0.00261768092784
0.00381189624652
-0.000763544317252
-0.000768495800014
-0.000784080841138
-0.000826305626273
-0.000934729546258
-0.0012441968075
-0.00220858354103
-0.00467679417256
-0.00868502984981
-0.00153436705358
0.0377343067436
-0.000598282096236
-0.000599694152202
-0.000608264626177
-0.00063505706124
-0.000706558655306
-0.000917786387798
-0.00165262746656
-0.00381203181574
-0.00756037819797
-0.00634155817438
-0.00831173219792
)
;

boundaryField
{
    back
    {
        type            calculated;
        value           nonuniform List<scalar> 
167
(
-0.000887355115796
-0.000901943662008
-0.000933398077882
-0.00100892601467
-0.00125476781718
-0.00187160547109
0.000165021683954
0.0321992040047
0.086863374026
-0.000901219582423
-0.000936945926919
-0.00102608537548
-0.0013248257958
-0.00219246593829
-0.00221566053396
0.015812619686
0.163087262005
-0.000901622091655
-0.000943150337381
-0.00104836733536
-0.00139309594016
-0.00242209000126
-0.00355452570197
0.0149022156334
0.142106312556
-0.000881954933789
-0.000903523126644
-0.000953923629405
-0.0010842565818
-0.00148604149717
-0.00262157035328
-0.00419462161653
0.0248251534943
0.163960371304
-0.000881219703606
-0.000906041468624
-0.00096618022688
-0.00112556972773
-0.00159551330367
-0.00285022128686
-0.0051472581931
0.0105915133889
0.402675592039
-0.000880830522082
-0.000908472930979
-0.000976344002178
-0.00116013470461
-0.00169354424967
-0.00305968909872
-0.00581230113767
-0.00732209065265
0.0654996008667
-0.000868620536032
-0.000880846279545
-0.000910881714619
-0.00098466058621
-0.00118715839176
-0.0017808162162
-0.00327064489207
-0.00614992947078
-0.0179612400364
-0.125337188602
-0.000862841282227
-0.000868037797444
-0.000881302865974
-0.000913748466725
-0.000993171132955
-0.00121346397805
-0.00187436222638
-0.00353338995843
-0.00634484648342
-0.0135705996765
-0.135346578863
-0.000862140998725
-0.000867771613818
-0.000882262275641
-0.000917626051223
-0.00100454629498
-0.00124878464373
-0.00198988753421
-0.00383384960525
-0.00657811282311
-0.00303627619396
0.054607873938
-0.000867683283516
-0.000883578649916
-0.000922267690582
-0.00101821345062
-0.00129038862603
-0.00211371943241
-0.00413050050305
-0.00679251271714
0.00169716947068
-0.261486290872
-0.00086761091805
-0.00088484173808
-0.000926848489587
-0.0010315964206
-0.00132901570728
-0.00221825993299
-0.0043665060083
-0.00748188324482
-0.0045352364073
-0.0651525725944
-0.000866748023429
-0.000885210339422
-0.000930364529855
-0.00104292460698
-0.00135867986759
-0.00228810703409
-0.00451080842398
-0.00762595963306
-0.0106606466697
-0.24156878913
-0.000863310250102
-0.000882826195923
-0.000930622436622
-0.00104939623272
-0.00137652564761
-0.00232820306643
-0.00462844603803
-0.00762294199694
-0.0121373320733
-0.209887223083
-0.000853630354637
-0.000873357900208
-0.000922502896739
-0.00104477788029
-0.00137918654491
-0.00235675163409
-0.00478639476473
-0.00811822382049
-0.00715538957627
-0.00173680292795
-0.00082217114288
-0.000828923593089
-0.000847415422672
-0.000895294787391
-0.00101574450567
-0.00134880054431
-0.00234064743484
-0.0048449321133
-0.00885777519366
-0.00261768092784
0.00381189624652
-0.000763544317252
-0.000768495800014
-0.000784080841138
-0.000826305626273
-0.000934729546258
-0.0012441968075
-0.00220858354103
-0.00467679417256
-0.00868502984981
-0.00153436705358
0.0377343067436
-0.000598282096236
-0.000599694152202
-0.000608264626177
-0.00063505706124
-0.000706558655306
-0.000917786387798
-0.00165262746656
-0.00381203181574
-0.00756037819797
-0.00634155817437
-0.00831173219792
)
;
    }
    sides
    {
        type            calculated;
        value           nonuniform List<scalar> 
11
(
-0.000598282096236
-0.000599694152202
-0.000608264626177
-0.00063505706124
-0.000706558655306
-0.000917786387798
-0.00165262746656
-0.00381203181574
-0.00756037819797
-0.00634155817437
-0.00831173219792
)
;
    }
    bottom
    {
        type            calculated;
        value           nonuniform List<scalar> 0();
    }
    front
    {
        type            calculated;
        value           nonuniform List<scalar> 
167
(
-0.000887355115796
-0.000901943662008
-0.000933398077882
-0.00100892601467
-0.00125476781718
-0.00187160547109
0.000165021683954
0.0321992040047
0.086863374026
-0.000901219582423
-0.000936945926919
-0.00102608537548
-0.0013248257958
-0.00219246593829
-0.00221566053396
0.015812619686
0.163087262005
-0.000901622091655
-0.000943150337381
-0.00104836733536
-0.00139309594016
-0.00242209000126
-0.00355452570197
0.0149022156334
0.142106312556
-0.000881954933789
-0.000903523126644
-0.000953923629405
-0.0010842565818
-0.00148604149717
-0.00262157035328
-0.00419462161653
0.0248251534943
0.163960371304
-0.000881219703606
-0.000906041468624
-0.00096618022688
-0.00112556972773
-0.00159551330367
-0.00285022128686
-0.0051472581931
0.0105915133889
0.402675592039
-0.000880830522082
-0.000908472930979
-0.000976344002178
-0.00116013470461
-0.00169354424967
-0.00305968909872
-0.00581230113767
-0.00732209065265
0.0654996008667
-0.000868620536032
-0.000880846279545
-0.000910881714619
-0.00098466058621
-0.00118715839176
-0.0017808162162
-0.00327064489207
-0.00614992947078
-0.0179612400364
-0.125337188602
-0.000862841282227
-0.000868037797444
-0.000881302865974
-0.000913748466725
-0.000993171132955
-0.00121346397805
-0.00187436222638
-0.00353338995843
-0.00634484648342
-0.0135705996765
-0.135346578863
-0.000862140998725
-0.000867771613818
-0.000882262275641
-0.000917626051223
-0.00100454629498
-0.00124878464373
-0.00198988753421
-0.00383384960525
-0.00657811282311
-0.00303627619396
0.054607873938
-0.000867683283516
-0.000883578649916
-0.000922267690582
-0.00101821345062
-0.00129038862603
-0.00211371943241
-0.00413050050305
-0.00679251271714
0.00169716947068
-0.261486290872
-0.00086761091805
-0.00088484173808
-0.000926848489587
-0.0010315964206
-0.00132901570728
-0.00221825993299
-0.0043665060083
-0.00748188324482
-0.0045352364073
-0.0651525725944
-0.000866748023429
-0.000885210339422
-0.000930364529855
-0.00104292460698
-0.00135867986759
-0.00228810703409
-0.00451080842398
-0.00762595963306
-0.0106606466697
-0.24156878913
-0.000863310250102
-0.000882826195923
-0.000930622436622
-0.00104939623272
-0.00137652564761
-0.00232820306643
-0.00462844603803
-0.00762294199694
-0.0121373320733
-0.209887223083
-0.000853630354637
-0.000873357900208
-0.000922502896739
-0.00104477788029
-0.00137918654491
-0.00235675163409
-0.00478639476473
-0.00811822382049
-0.00715538957627
-0.00173680292795
-0.00082217114288
-0.000828923593089
-0.000847415422672
-0.000895294787391
-0.00101574450567
-0.00134880054431
-0.00234064743484
-0.0048449321133
-0.00885777519366
-0.00261768092784
0.00381189624652
-0.000763544317252
-0.000768495800014
-0.000784080841138
-0.000826305626273
-0.000934729546258
-0.0012441968075
-0.00220858354103
-0.00467679417256
-0.00868502984981
-0.00153436705358
0.0377343067436
-0.000598282096236
-0.000599694152202
-0.000608264626177
-0.00063505706124
-0.000706558655306
-0.000917786387798
-0.00165262746656
-0.00381203181574
-0.00756037819797
-0.00634155817437
-0.00831173219792
)
;
    }
    atmosphere
    {
        type            calculated;
        value           nonuniform List<scalar> 
17
(
-0.19016841974
0.780200913647
0.843894840606
1.00478326989
-1.83635977327
0.0644929949842
-0.586618771914
0.0411731115057
-1.00403226708
-1.53676736219
0.13457906145
-1.94288731463
-3.23924363107
-1.13468830648
0.6180986906
0.726070576552
-0.00831301794595
)
;
    }
    floatingObject
    {
        type            calculated;
        value           nonuniform List<scalar> 0();
    }
    procBoundary11to9
    {
        type            processor;
        value           nonuniform List<scalar> 9(-0.000889454115771 -0.000900148939822 -0.000917833195463 -0.000945359487533 -0.001039474603 -0.00109129471259 0.004912774097 0.0346571053801 0.0150385022282);
    }
    procBoundary11to10
    {
        type            processor;
        value           nonuniform List<scalar> 
23
(
-0.000880949836061
-0.000884937603373
-0.000884937603373
-0.000883108135234
-0.000883108135234
-0.000873076066031
-0.000871223150388
-0.00086973039043
-0.00086973039043
-0.000864020472372
-0.000864020472372
-0.000860987432813
-0.000860038741464
-0.000861578250197
-0.000861578250197
-0.000861084933399
-0.000859744102695
-0.000856212984096
-0.000846504822451
-0.000846504822451
-0.00082050763954
-0.000762830572322
-0.00059930419944
)
;
    }
}


// ************************************************************************* //
