/*--------------------------------*- C++ -*----------------------------------*\
| =========                 |                                                 |
| \\      /  F ield         | OpenFOAM: The Open Source CFD Toolbox           |
|  \\    /   O peration     | Version:  v2012                                 |
|   \\  /    A nd           | Website:  www.openfoam.com                      |
|    \\/     M anipulation  |                                                 |
\*---------------------------------------------------------------------------*/
FoamFile
{
    version     2.0;
    format      ascii;
    class       volScalarField;
    location    "4.5";
    object      nut;
}
// * * * * * * * * * * * * * * * * * * * * * * * * * * * * * * * * * * * * * //

dimensions      [0 2 -1 0 0 0 0];


internalField   nonuniform List<scalar> 
167
(
0.000545825743618
0.000551120968883
0.000563265719962
0.000593926861466
0.000669092675175
0.000821419405784
0.00111653509163
0.00185479082561
0.00308723112584
0.000550637977624
0.000562720921841
0.000592855464358
0.000666734555892
0.000816237043339
0.00108576732961
0.00171221757492
0.0031059612456
0.000550148075478
0.000562224909846
0.000592072117984
0.000665279495587
0.000814447699246
0.0010773812885
0.00167364865458
0.0030829515467
0.000544176502031
0.000549714824819
0.000561958048482
0.000591936155431
0.000664964169903
0.000813862751631
0.00107434468392
0.0016895677022
0.00310849700008
0.000543626605762
0.000549328087455
0.00056188617191
0.000592341311776
0.000665400804577
0.000812583379209
0.00106365648441
0.00159357570428
0.00330730247868
0.000543071322759
0.000548933036233
0.000561785617604
0.000592666729169
0.000665508374216
0.00081015147157
0.00105453617873
0.00149226687038
0.00298350488081
0.000539430293681
0.000542507750513
0.000548491239445
0.000561509717049
0.000592508990297
0.000664762742654
0.000807027920333
0.0010526317411
0.00149017514345
0.00258809487435
0.000536927729565
0.00053878559254
0.000541938209336
0.00054801565326
0.000561101830121
0.000592013409848
0.000663640043938
0.000803706470413
0.00104929058155
0.00152812242024
0.00255444682354
0.000536230709423
0.000538145101457
0.000541378047096
0.000547558109603
0.000560747635899
0.000591739005578
0.000663312221082
0.000802447486723
0.00105004311614
0.00159208659113
0.00243574143879
0.000537506632241
0.000540831043709
0.000547149181711
0.00056056488065
0.000591971997466
0.00066416549832
0.000803614188527
0.00105580905268
0.00163267136926
0.00246984057155
0.000536847498484
0.000540269835882
0.000546756011672
0.000560483083746
0.000592466339231
0.000665449161798
0.00080550398714
0.00105981977732
0.00164090124197
0.00258065895792
0.00053606167261
0.000539586006766
0.00054625370162
0.000560302851167
0.000592745129191
0.000666069483504
0.000805840877909
0.0010595530846
0.00162686587484
0.00258281774096
0.00053484401067
0.000538461749934
0.000545298441262
0.000559617945511
0.000592295037775
0.000665409149583
0.000803677833896
0.00104938137314
0.00160490220767
0.00308531711563
0.000532360173265
0.000536032209924
0.000542967275702
0.000557429981183
0.000590186175967
0.00066331765544
0.000801324384831
0.00104068167835
0.00159381868376
0.00302125014838
0.000524121222598
0.000526324196547
0.000529966037316
0.000536829478701
0.000551125403241
0.000583576347702
0.000656664991883
0.000795732477085
0.0010352496225
0.0015834026755
0.00287477203845
0.000508190419148
0.000510338479293
0.000513815658987
0.000520293223725
0.000533739116195
0.000564604005284
0.000635834834306
0.000773625030167
0.00101130303528
0.00154851119462
0.00253850277274
0.000341939219214
0.000343494929372
0.00034582866186
0.000349903262025
0.000357972034999
0.00037626547867
0.000421182075303
0.000514805928863
0.000672278672568
0.00101578966949
0.00163955032658
)
;

boundaryField
{
    back
    {
        type            nutkWallFunction;
        blending        stepwise;
        Cmu             0.09;
        kappa           0.41;
        E               9.8;
        value           nonuniform List<scalar> 
167
(
5.73040755998e-05
5.78076859719e-05
5.89575780096e-05
6.18410341743e-05
6.88929534742e-05
8.29908258174e-05
0.000108138649126
0.000166181628337
0.000336169450628
5.7762031544e-05
5.89102078773e-05
6.17609481565e-05
6.87323057906e-05
8.26954954622e-05
0.000106492091557
0.00015630169164
0.000327176643273
5.77164274342e-05
5.88680482305e-05
6.17025222901e-05
6.86371066514e-05
8.26392842439e-05
0.000106224858943
0.000153113158426
0.000327150778962
5.71459624255e-05
5.76770788615e-05
5.88503660931e-05
6.17128461596e-05
6.86602710425e-05
8.26764537759e-05
0.000106146488989
0.000151866072621
0.000327887242478
5.70939138722e-05
5.76425947651e-05
5.88519289775e-05
6.17770923545e-05
6.87625301949e-05
8.26678338275e-05
0.000105594090976
0.000146352442356
0.000315829901888
5.70416123542e-05
5.76072768164e-05
5.88494581968e-05
6.18298658102e-05
6.88288343982e-05
8.25463164865e-05
0.000105094467311
0.000142720852367
0.000278792062609
5.66930539713e-05
5.69886879119e-05
5.75675975929e-05
5.88294857183e-05
6.18333673303e-05
6.88118643789e-05
8.23610631173e-05
0.000105049747189
0.000145498016242
0.000275486643648
5.645496402e-05
5.66320453573e-05
5.69356686927e-05
5.75251399748e-05
5.87975141597e-05
6.1805723344e-05
6.87666118783e-05
8.21915360513e-05
0.000104821716527
0.00014821614602
0.000280442671436
5.63891360782e-05
5.65719039732e-05
5.6883933758e-05
5.74851638739e-05
5.8772725161e-05
6.1805047156e-05
6.88091137674e-05
8.22355893332e-05
0.000104993789853
0.000152213745138
0.000286895078101
5.65121498148e-05
5.68337394899e-05
5.74503711018e-05
5.87656714088e-05
6.18557281908e-05
6.89643934425e-05
8.24939786282e-05
0.000105631377349
0.000156059075478
0.000290851879918
5.64504574402e-05
5.67822508995e-05
5.74171109581e-05
5.87679227081e-05
6.19284385191e-05
6.91457974119e-05
8.27806539154e-05
0.000106229425887
0.000157135020962
0.00029502016343
5.63764140443e-05
5.67187434379e-05
5.73730072043e-05
5.87596260959e-05
6.19749886883e-05
6.92450538448e-05
8.28807080093e-05
0.000106280720908
0.000157176780956
0.000303096160768
5.62602002479e-05
5.66121783131e-05
5.72844083231e-05
5.87010389778e-05
6.19462165078e-05
6.92099757409e-05
8.27449862592e-05
0.000105408277861
0.000154741688685
0.000325604061751
5.60210723544e-05
5.63785705918e-05
5.70615103642e-05
5.84949897719e-05
6.17542465797e-05
6.90375010436e-05
8.26096179063e-05
0.000104814349422
0.00015259697206
0.000331202175362
5.52272391776e-05
5.54384285698e-05
5.57928256148e-05
5.64694151798e-05
5.78887873047e-05
6.11249610475e-05
6.84245386715e-05
8.21400400444e-05
0.000104561638128
0.000151096688277
0.000327724019061
5.36894575842e-05
5.38948773674e-05
5.42331093188e-05
5.48725047353e-05
5.62109116331e-05
5.93012213843e-05
6.64542599576e-05
8.01010581409e-05
0.00010241554496
0.000148363285849
0.00031591474177
4.86222272595e-05
4.88200870319e-05
4.91225178686e-05
4.96603575736e-05
5.07382454224e-05
5.32046758197e-05
5.93077321846e-05
7.19147029247e-05
9.20887883566e-05
0.000132383579713
0.00027206386101
)
;
    }
    sides
    {
        type            nutkWallFunction;
        blending        stepwise;
        Cmu             0.09;
        kappa           0.41;
        E               9.8;
        value           nonuniform List<scalar> 
11
(
2.58070688485e-05
2.59129209623e-05
2.60747113014e-05
2.63624204345e-05
2.69389554184e-05
2.82578724267e-05
3.15197147383e-05
3.82507902728e-05
4.90065898879e-05
7.04526434286e-05
0.000141790951829
)
;
    }
    bottom
    {
        type            nutkWallFunction;
        blending        stepwise;
        Cmu             0.09;
        kappa           0.41;
        E               9.8;
        value           nonuniform List<scalar> 0();
    }
    front
    {
        type            nutkWallFunction;
        blending        stepwise;
        Cmu             0.09;
        kappa           0.41;
        E               9.8;
        value           nonuniform List<scalar> 
167
(
5.73040755998e-05
5.78076859719e-05
5.89575780096e-05
6.18410341743e-05
6.88929534742e-05
8.29908258174e-05
0.000108138649126
0.000166181628337
0.000336169450628
5.7762031544e-05
5.89102078773e-05
6.17609481565e-05
6.87323057906e-05
8.26954954622e-05
0.000106492091557
0.00015630169164
0.000327176643273
5.77164274342e-05
5.88680482305e-05
6.17025222901e-05
6.86371066514e-05
8.26392842439e-05
0.000106224858943
0.000153113158426
0.000327150778962
5.71459624255e-05
5.76770788615e-05
5.88503660931e-05
6.17128461596e-05
6.86602710425e-05
8.26764537759e-05
0.000106146488989
0.000151866072621
0.000327887242478
5.70939138722e-05
5.76425947651e-05
5.88519289775e-05
6.17770923545e-05
6.87625301949e-05
8.26678338275e-05
0.000105594090976
0.000146352442356
0.000315829901888
5.70416123542e-05
5.76072768164e-05
5.88494581968e-05
6.18298658102e-05
6.88288343982e-05
8.25463164865e-05
0.000105094467311
0.000142720852367
0.000278792062609
5.66930539713e-05
5.69886879119e-05
5.75675975929e-05
5.88294857183e-05
6.18333673303e-05
6.88118643789e-05
8.23610631173e-05
0.000105049747189
0.000145498016242
0.000275486643648
5.645496402e-05
5.66320453573e-05
5.69356686927e-05
5.75251399748e-05
5.87975141597e-05
6.1805723344e-05
6.87666118783e-05
8.21915360513e-05
0.000104821716527
0.00014821614602
0.000280442671436
5.63891360782e-05
5.65719039732e-05
5.6883933758e-05
5.74851638739e-05
5.8772725161e-05
6.1805047156e-05
6.88091137674e-05
8.22355893332e-05
0.000104993789853
0.000152213745138
0.000286895078101
5.65121498148e-05
5.68337394899e-05
5.74503711018e-05
5.87656714088e-05
6.18557281908e-05
6.89643934425e-05
8.24939786282e-05
0.000105631377349
0.000156059075478
0.000290851879918
5.64504574402e-05
5.67822508995e-05
5.74171109581e-05
5.87679227081e-05
6.19284385191e-05
6.91457974119e-05
8.27806539154e-05
0.000106229425887
0.000157135020962
0.00029502016343
5.63764140443e-05
5.67187434379e-05
5.73730072043e-05
5.87596260959e-05
6.19749886883e-05
6.92450538448e-05
8.28807080093e-05
0.000106280720908
0.000157176780956
0.000303096160768
5.62602002479e-05
5.66121783131e-05
5.72844083231e-05
5.87010389778e-05
6.19462165078e-05
6.92099757409e-05
8.27449862592e-05
0.000105408277861
0.000154741688685
0.000325604061751
5.60210723544e-05
5.63785705918e-05
5.70615103642e-05
5.84949897719e-05
6.17542465797e-05
6.90375010436e-05
8.26096179063e-05
0.000104814349422
0.00015259697206
0.000331202175362
5.52272391776e-05
5.54384285698e-05
5.57928256148e-05
5.64694151798e-05
5.78887873047e-05
6.11249610475e-05
6.84245386715e-05
8.21400400444e-05
0.000104561638128
0.000151096688277
0.000327724019061
5.36894575842e-05
5.38948773674e-05
5.42331093188e-05
5.48725047353e-05
5.62109116331e-05
5.93012213843e-05
6.64542599576e-05
8.01010581409e-05
0.00010241554496
0.000148363285849
0.00031591474177
4.86222272595e-05
4.88200870319e-05
4.91225178686e-05
4.96603575736e-05
5.07382454224e-05
5.32046758197e-05
5.93077321846e-05
7.19147029247e-05
9.20887883566e-05
0.000132383579713
0.00027206386101
)
;
    }
    atmosphere
    {
        type            calculated;
        value           nonuniform List<scalar> 
17
(
0.009
0.009
0.009
0.009
0.009
0.009
0.009
0.009
0.00243574143879
0.00246984057155
0.00258065895792
0.00258281774096
0.009
0.009
0.009
0.00253850277274
0.00163955032658
)
;
    }
    floatingObject
    {
        type            nutkWallFunction;
        blending        stepwise;
        Cmu             0.09;
        kappa           0.41;
        E               9.8;
        value           nonuniform List<scalar> 0();
    }
    procBoundary11to9
    {
        type            processor;
        value           nonuniform List<scalar> 9(0.000546332233951 0.000551580347109 0.000563825695343 0.000595185501553 0.000672953331136 0.000834028410533 0.00117500997325 0.0019773627519 0.00307381419141);
    }
    procBoundary11to10
    {
        type            processor;
        value           nonuniform List<scalar> 
23
(
0.000543193045026
0.00054528922269
0.00054528922269
0.000544733697253
0.000544733697253
0.000541366682985
0.000540729439311
0.000540083249828
0.000540083249828
0.000537634285654
0.000537634285654
0.000535656663528
0.000534913700653
0.00053553280458
0.00053553280458
0.000534813103079
0.00053396414166
0.000532694187462
0.000530170509098
0.000530170509098
0.00052256570358
0.000506629168487
0.000340716536349
)
;
    }
}


// ************************************************************************* //
