/*--------------------------------*- C++ -*----------------------------------*\
| =========                 |                                                 |
| \\      /  F ield         | OpenFOAM: The Open Source CFD Toolbox           |
|  \\    /   O peration     | Version:  v2012                                 |
|   \\  /    A nd           | Website:  www.openfoam.com                      |
|    \\/     M anipulation  |                                                 |
\*---------------------------------------------------------------------------*/
FoamFile
{
    version     2.0;
    format      ascii;
    class       volScalarField;
    location    "4.5";
    object      p;
}
// * * * * * * * * * * * * * * * * * * * * * * * * * * * * * * * * * * * * * //

dimensions      [1 -1 -2 0 0 0 0];


internalField   nonuniform List<scalar> 
167
(
3074.63769181
2587.68382234
2101.11598235
1614.9761489
1129.63652889
644.480159134
218.507655244
10.5566157877
-9.61341710905
2598.62382815
2113.13863721
1628.33053577
1144.3969318
661.374221629
232.866293982
15.152739478
-9.62276571298
2608.94846613
2124.43903565
1640.80381792
1158.23243461
677.004383781
245.532341207
19.6570107754
-9.64716887578
3103.04530529
2618.49365273
2134.81804618
1652.18290757
1170.77306176
690.77980501
255.801413653
23.3808937176
-9.70684317031
3111.12401582
2627.11952028
2144.10388206
1662.28711572
1181.91821703
703.141724085
265.442702833
26.8535243574
-9.856902984
3118.34587712
2634.70902516
2152.13133086
1670.89086123
1191.3996912
714.141920661
275.39139544
31.2425867685
-10.2997040894
3608.99447531
3124.66880146
2641.18819705
2158.75636664
1677.6984506
1198.63237748
722.71354117
282.984615514
33.0488125148
-12.2727598425
4099.37024264
3614.40712898
3130.10593821
2646.56490202
2163.93725872
1682.47157227
1202.69330017
725.578445544
281.254659598
27.3539905557
-18.3645219406
4104.09417301
3619.12838689
3134.74021391
2650.97380086
2167.88286951
1685.51799521
1203.98041025
723.211846034
270.930436133
14.5962493517
-28.2533023994
3623.23658378
3138.70763435
2654.65316777
2171.03027544
1687.70234497
1204.38310151
720.167171732
261.868482307
4.56703461696
-36.4486014061
3626.81697411
3142.14852467
2657.84518087
2173.81249758
1689.84532949
1205.59028997
720.271286561
262.230060576
7.36839263496
-32.5760274865
3629.92897963
3145.16183171
2660.70575819
2176.46078224
1692.24196927
1207.79322439
722.786246779
267.624615032
17.192803644
-20.6476078976
3632.59752234
3147.78719749
2663.28762626
2179.01477842
1694.82278319
1210.50944706
725.922594403
271.887180129
23.6493198807
-12.6811564582
3634.79919456
3150.0076327
2665.56512673
2181.41924107
1697.4647511
1213.48693518
729.190565842
274.518877467
25.6220962622
-10.4255063834
4121.61518894
3636.49484339
3151.77196149
2667.46218222
2183.56811798
1700.0639022
1216.79766441
733.467938737
278.762446167
27.306778703
-9.94695002952
4122.73963569
3637.65910658
3153.01787608
2668.8673757
2185.28066212
1702.36759488
1220.23465833
739.043016863
287.245103351
31.4955326346
-9.35348180407
4123.30878824
3638.2616976
3153.68465467
2669.65354032
2186.29499547
1703.84292268
1222.73055608
744.129124569
299.998106261
45.8862580498
-7.6520232419
)
;

boundaryField
{
    back
    {
        type            calculated;
        value           nonuniform List<scalar> 
167
(
3074.63769181
2587.68382234
2101.11598235
1614.9761489
1129.63652889
644.480159134
218.507655244
10.5566157877
-9.61341710905
2598.62382815
2113.13863721
1628.33053577
1144.3969318
661.374221629
232.866293982
15.152739478
-9.62276571298
2608.94846613
2124.43903565
1640.80381792
1158.23243461
677.004383781
245.532341207
19.6570107754
-9.64716887578
3103.04530529
2618.49365273
2134.81804618
1652.18290757
1170.77306176
690.77980501
255.801413653
23.3808937176
-9.70684317031
3111.12401582
2627.11952028
2144.10388206
1662.28711572
1181.91821703
703.141724085
265.442702833
26.8535243574
-9.856902984
3118.34587712
2634.70902516
2152.13133086
1670.89086123
1191.3996912
714.141920661
275.39139544
31.2425867685
-10.2997040894
3608.99447531
3124.66880146
2641.18819705
2158.75636664
1677.6984506
1198.63237748
722.71354117
282.984615514
33.0488125148
-12.2727598425
4099.37024264
3614.40712898
3130.10593821
2646.56490202
2163.93725872
1682.47157227
1202.69330017
725.578445544
281.254659598
27.3539905557
-18.3645219406
4104.09417301
3619.12838689
3134.74021391
2650.97380086
2167.88286951
1685.51799521
1203.98041025
723.211846034
270.930436133
14.5962493517
-28.2533023994
3623.23658378
3138.70763435
2654.65316777
2171.03027544
1687.70234497
1204.38310151
720.167171732
261.868482307
4.56703461696
-36.4486014061
3626.81697411
3142.14852467
2657.84518087
2173.81249758
1689.84532949
1205.59028997
720.271286561
262.230060576
7.36839263496
-32.5760274865
3629.92897963
3145.16183171
2660.70575819
2176.46078224
1692.24196927
1207.79322439
722.786246779
267.624615032
17.192803644
-20.6476078976
3632.59752234
3147.78719749
2663.28762626
2179.01477842
1694.82278319
1210.50944706
725.922594403
271.887180129
23.6493198807
-12.6811564582
3634.79919456
3150.0076327
2665.56512673
2181.41924107
1697.4647511
1213.48693518
729.190565842
274.518877467
25.6220962622
-10.4255063834
4121.61518894
3636.49484339
3151.77196149
2667.46218222
2183.56811798
1700.0639022
1216.79766441
733.467938737
278.762446167
27.306778703
-9.94695002952
4122.73963569
3637.65910658
3153.01787608
2668.8673757
2185.28066212
1702.36759488
1220.23465833
739.043016863
287.245103351
31.4955326346
-9.35348180407
4123.30878824
3638.2616976
3153.68465467
2669.65354032
2186.29499547
1703.84292268
1222.73055608
744.129124569
299.998106261
45.8862580498
-7.6520232419
)
;
    }
    sides
    {
        type            calculated;
        value           nonuniform List<scalar> 
11
(
4123.30878824
3638.2616976
3153.68465467
2669.65354032
2186.29499547
1703.84292268
1222.73055608
744.129124569
299.998106261
45.8862580498
-7.6520232419
)
;
    }
    bottom
    {
        type            calculated;
        value           nonuniform List<scalar> 0();
    }
    front
    {
        type            calculated;
        value           nonuniform List<scalar> 
167
(
3074.63769181
2587.68382234
2101.11598235
1614.9761489
1129.63652889
644.480159134
218.507655244
10.5566157877
-9.61341710905
2598.62382815
2113.13863721
1628.33053577
1144.3969318
661.374221629
232.866293982
15.152739478
-9.62276571298
2608.94846613
2124.43903565
1640.80381792
1158.23243461
677.004383781
245.532341207
19.6570107754
-9.64716887578
3103.04530529
2618.49365273
2134.81804618
1652.18290757
1170.77306176
690.77980501
255.801413653
23.3808937176
-9.70684317031
3111.12401582
2627.11952028
2144.10388206
1662.28711572
1181.91821703
703.141724085
265.442702833
26.8535243574
-9.856902984
3118.34587712
2634.70902516
2152.13133086
1670.89086123
1191.3996912
714.141920661
275.39139544
31.2425867685
-10.2997040894
3608.99447531
3124.66880146
2641.18819705
2158.75636664
1677.6984506
1198.63237748
722.71354117
282.984615514
33.0488125148
-12.2727598425
4099.37024264
3614.40712898
3130.10593821
2646.56490202
2163.93725872
1682.47157227
1202.69330017
725.578445544
281.254659598
27.3539905557
-18.3645219406
4104.09417301
3619.12838689
3134.74021391
2650.97380086
2167.88286951
1685.51799521
1203.98041025
723.211846034
270.930436133
14.5962493517
-28.2533023994
3623.23658378
3138.70763435
2654.65316777
2171.03027544
1687.70234497
1204.38310151
720.167171732
261.868482307
4.56703461696
-36.4486014061
3626.81697411
3142.14852467
2657.84518087
2173.81249758
1689.84532949
1205.59028997
720.271286561
262.230060576
7.36839263496
-32.5760274865
3629.92897963
3145.16183171
2660.70575819
2176.46078224
1692.24196927
1207.79322439
722.786246779
267.624615032
17.192803644
-20.6476078976
3632.59752234
3147.78719749
2663.28762626
2179.01477842
1694.82278319
1210.50944706
725.922594403
271.887180129
23.6493198807
-12.6811564582
3634.79919456
3150.0076327
2665.56512673
2181.41924107
1697.4647511
1213.48693518
729.190565842
274.518877467
25.6220962622
-10.4255063834
4121.61518894
3636.49484339
3151.77196149
2667.46218222
2183.56811798
1700.0639022
1216.79766441
733.467938737
278.762446167
27.306778703
-9.94695002952
4122.73963569
3637.65910658
3153.01787608
2668.8673757
2185.28066212
1702.36759488
1220.23465833
739.043016863
287.245103351
31.4955326346
-9.35348180407
4123.30878824
3638.2616976
3153.68465467
2669.65354032
2186.29499547
1703.84292268
1222.73055608
744.129124569
299.998106261
45.8862580498
-7.6520232419
)
;
    }
    atmosphere
    {
        type            calculated;
        value           nonuniform List<scalar> 
17
(
-9.81121651593
-9.81035508689
-9.81042818278
-9.81093297375
-9.8101030921
-9.80999997518
-11.0100803585
-17.7658064498
-31.6569344044
-43.9723326273
-39.3417890899
-21.1956911547
-10.7352678344
-9.81044613368
-9.81035005418
-9.84136995335
-9.81
)
;
    }
    floatingObject
    {
        type            calculated;
        value           nonuniform List<scalar> 0();
    }
    procBoundary11to9
    {
        type            processor;
        value           nonuniform List<scalar> 9(3064.22418645 2576.31622434 2088.6070508 1601.11238951 1113.99823447 627.238310774 203.665457483 6.02653584529 -9.60388081815);
    }
    procBoundary11to10
    {
        type            processor;
        value           nonuniform List<scalar> 
23
(
3561.92360767
3084.67679458
3084.67679458
3094.18967637
3094.18967637
3588.32538981
3595.94419941
3602.84491833
3602.84491833
4094.03952208
4094.03952208
4584.93812234
4589.61261159
4108.25111642
4108.25111642
4111.88891901
4115.04286159
4117.72233556
4119.92051063
4119.92051063
4607.04684952
4608.15440958
4608.7127658
)
;
    }
}


// ************************************************************************* //
