/*--------------------------------*- C++ -*----------------------------------*\
| =========                 |                                                 |
| \\      /  F ield         | OpenFOAM: The Open Source CFD Toolbox           |
|  \\    /   O peration     | Version:  v2012                                 |
|   \\  /    A nd           | Website:  www.openfoam.com                      |
|    \\/     M anipulation  |                                                 |
\*---------------------------------------------------------------------------*/
FoamFile
{
    version     2.0;
    format      ascii;
    class       surfaceScalarField;
    location    "4.5";
    object      phi;
}
// * * * * * * * * * * * * * * * * * * * * * * * * * * * * * * * * * * * * * //

dimensions      [0 3 -1 0 0 0 0];
oriented        oriented;


internalField   nonuniform List<scalar> 
304
(
6.16701034621e-06
2.63066763358e-06
0.000248710679706
-1.78381972388e-06
0.000266224904728
-6.25938691926e-06
0.000287146161722
-7.57026811233e-06
0.000310795595727
-4.98999746341e-06
0.0003293014129
-1.30557243307e-05
0.00041321025116
-0.000132926863038
0.000361154437469
0.000422427150882
1.85019682515e-05
0.00025072345312
1.57879200802e-05
0.000268958225461
1.28442850278e-05
0.000290107082656
1.17181399478e-05
0.000311934414892
1.18204573087e-05
0.000329204947478
1.46339624471e-05
0.000410398127799
-3.86832550022e-05
0.000414472785471
0.000548988774093
3.54544543631e-05
0.000251038819559
3.43029849686e-05
0.0002701318268
3.23875494836e-05
0.000292041159841
2.95762918207e-05
0.000314758458516
2.41579832845e-05
0.000334628665895
2.64133374629e-05
0.000408143892571
-3.32181107549e-05
0.000474108404547
0.000702924613599
5.19106444617e-05
0.000231946535111
5.33739169033e-05
0.000249602524616
5.3659603899e-05
0.000269869814635
5.24245556709e-05
0.000293294483289
4.81680101972e-05
0.000319025848924
3.65873538936e-05
0.000346212890956
3.01147866816e-05
0.000414616813728
-7.42200103168e-05
0.000578445239297
0.000939463464467
6.91346774725e-05
0.000227589602288
7.26146417374e-05
0.000246150643204
7.47629466198e-05
0.000267743848928
7.50988325633e-05
0.000292972926902
7.2889024437e-05
0.000321241337536
6.79091462837e-05
0.000351192550269
6.59328057665e-05
0.000416592234172
2.0067985337e-05
0.000624307706312
0.00137443854697
8.73228512376e-05
0.000220839754526
9.34062820061e-05
0.000240091950056
9.83173563405e-05
0.000262849062738
0.000101438990573
0.000289857095065
0.000102459343321
0.000320217744561
9.92424210104e-05
0.000354403496341
8.90701124528e-05
0.000426761995072
0.000111347112414
0.000602015936887
0.00254382105947
9.67896428729e-05
0.00019505973203
0.000106274396913
0.000211378831354
0.000115582284458
0.000230800901527
0.000124271293701
0.000254165592986
0.00013182626437
0.000282295124373
0.000137572901104
0.000314456118346
0.000138218132724
0.000353745463766
0.00014901575676
0.000415960198293
0.000261795024175
0.000489209994085
0.00370999600655
0.00010116378207
0.000169877413511
0.000113027621489
0.000183215455877
0.000125399933707
0.000199022269781
0.000138253282523
0.000217953477607
0.000151665445961
0.000240745078183
0.000165320780581
0.000268617981189
0.00017939306877
0.000300356515198
0.000193375631029
0.000339743917861
0.000227193443096
0.000382137341237
0.000320225718532
0.00039608211455
0.0049656644306
0.000114491301355
0.000128752797679
0.000168968228563
0.00014402268365
0.000183759566422
0.000160557705084
0.000201412537451
0.000178598497396
0.000222682147298
0.000198465396679
0.000248715926207
0.000221002379705
0.000277782564569
0.000249108256959
0.000311615255069
0.00029427173339
0.000336969520894
0.000304079129651
0.000386093470886
0.00296652734223
0.00014348000424
0.000152507532564
0.000161383412934
0.000165855332172
0.00018109780927
0.000181682526241
0.000203181301044
0.000200566600476
0.000228395785609
0.000223458380769
0.000258503796552
0.000247633629367
0.000297302890129
0.000272793128772
0.000344774192253
0.000289495191111
0.00037095282827
0.000359699968175
-0.000787544045139
0.000156776270153
0.000134118058886
0.000176924171672
0.000145701738438
0.000199269428153
0.000159317283546
0.000224437803196
0.000175363656382
0.000253277492804
0.000194576155287
0.000287751763958
0.000213121836822
0.00033011908765
0.000230406582779
0.000374992857644
0.000244619393137
0.000432140060699
0.000302340770743
-0.00437277695759
0.000168372813868
0.000114130127642
0.000190353926912
0.000123715608884
0.0002146572197
0.000134997314217
0.000242052777762
0.000147940234079
0.000273016393473
0.00016357980171
0.00030903281251
0.000177078426133
0.000348359122149
0.000191068171892
0.000371204910811
0.000221772261668
0.000302785684314
0.000370607950005
-0.00443283987143
0.000178262697656
9.28477941399e-05
0.000201460986756
0.000100519062928
0.000227199509814
0.000109253110576
0.000255927533997
0.000119199368877
0.00028889038042
0.000130601306278
0.000326983164629
0.000138974035632
0.000369401436852
0.000148646300765
0.00040341034935
0.000187763282639
0.000315585807655
0.000458392371237
-0.00118645998732
0.000186552409792
7.06203907566e-05
0.000210799052548
7.62853169127e-05
0.000237461042863
8.26015556133e-05
0.000267112408002
8.95546992354e-05
0.000300942122319
9.67760473658e-05
0.00034120177438
9.87189120444e-05
0.000389947116568
9.99051974503e-05
0.000442750122296
0.000134961512774
0.000428333495685
0.000472836997556
0.00015361510612
0.00017088969238
4.43290206256e-05
0.000193905893179
4.76257965341e-05
0.000218914790252
5.13028367094e-05
0.000246207590319
5.53359370203e-05
0.000276235949612
5.95512428814e-05
0.000310202351129
6.28308127885e-05
0.000349276114267
5.96615059223e-05
0.000394138627672
5.50515805402e-05
0.000445181269311
8.3921207497e-05
0.000442674588999
0.000475341763778
0.000601671130159
0.00017703247992
2.23820601034e-05
0.000200700575386
2.39881007324e-05
0.000226237521302
2.58018829075e-05
0.00025390600256
2.77046375077e-05
0.000283884362793
2.96072166959e-05
0.000316886891722
2.98569977248e-05
0.000352687028706
2.38818087078e-05
0.000390099585837
1.76487848012e-05
0.000448935109887
2.50883395459e-05
0.000562707523227
0.000361543452146
0.000469637093983
0.000181089978221
0.000205096430402
0.000230918317844
0.000258642289846
0.00028826633917
0.000318136303727
0.0003420258264
0.000359676610203
0.000384764068569
0.00074654426152
)
;

boundaryField
{
    back
    {
        type            calculated;
        value           uniform 0;
    }
    sides
    {
        type            calculated;
        value           uniform 0;
    }
    bottom
    {
        type            calculated;
        value           nonuniform List<scalar> 0();
    }
    front
    {
        type            calculated;
        value           uniform 0;
    }
    atmosphere
    {
        type            calculated;
        value           nonuniform List<scalar> 
17
(
-0.000235557089093
-0.000165242219629
-0.000187155268134
-0.000310760378342
-0.000414908391468
-0.00105804770229
-0.00090443275593
-0.000935425872193
0.00230343017613
0.0041253327953
0.00401769020888
0.000362942250505
-0.00293086152387
-0.00091177248157
-5.37953588074e-06
0.000694922704755
0.00121578031509
)
;
    }
    floatingObject
    {
        type            calculated;
        value           nonuniform List<scalar> 0();
    }
    procBoundary11to9
    {
        type            processor;
        value           nonuniform List<scalar> 9(-0.000231327599624 -0.000245151287636 -0.000261787104795 -0.000282646891129 -0.000309466579966 -0.000331872211703 -0.000405142473034 -0.000241281138538 -0.000319792128732);
    }
    procBoundary11to10
    {
        type            processor;
        value           nonuniform List<scalar> 
23
(
-8.63762412528e-06
0.000233821342752
-2.0483567016e-05
-3.57347242424e-05
-0.000234262768238
-4.95438711932e-05
-6.47295232668e-05
-8.05268113038e-05
-0.000204532520956
-8.72648151463e-05
-0.000181282262223
-8.9731450592e-05
-0.000101068913659
0.000156467749458
-0.000127006452873
-0.000138380596728
-0.000148380538937
-0.000156971512052
-0.000164310008257
-6.56202802349e-05
-0.000149583328779
-0.000155062528638
-0.000158689828647
)
;
    }
}


// ************************************************************************* //
