/*--------------------------------*- C++ -*----------------------------------*\
| =========                 |                                                 |
| \\      /  F ield         | OpenFOAM: The Open Source CFD Toolbox           |
|  \\    /   O peration     | Version:  v2012                                 |
|   \\  /    A nd           | Website:  www.openfoam.com                      |
|    \\/     M anipulation  |                                                 |
\*---------------------------------------------------------------------------*/
FoamFile
{
    version     2.0;
    format      ascii;
    class       surfaceVectorField;
    location    "5.5";
    object      ddtCorrDdt0(Uf);
}
// * * * * * * * * * * * * * * * * * * * * * * * * * * * * * * * * * * * * * //

dimensions      [0 1 -2 0 0 0 0];


internalField   nonuniform List<vector> 
300
(
(-0.108454886329 -0.00362780690411 2.442899798e-24)
(-0.106609959895 -0.00215311092962 1.49651428667e-23)
(-0.108874179951 -0.0077341491241 9.22257669605e-24)
(-0.106456962023 -0.00614934344841 -2.05002718194e-23)
(-0.109766917301 -0.0117552359149 5.04767348239e-24)
(-0.10725701222 -0.0101166874811 4.0192533821e-24)
(-0.110938073118 -0.0158779185426 3.7337228427e-24)
(-0.108232604441 -0.0143539392707 2.65511697132e-24)
(-0.112412904783 -0.0201602247469 7.51273871427e-24)
(-0.10946209369 -0.0187116850441 1.54080710288e-24)
(-0.114212303016 -0.0246585016575 4.82112307716e-24)
(-0.110989064403 -0.0232537899094 4.54574339914e-24)
(-0.116338057579 -0.0294145747194 1.08629110542e-24)
(-0.112824194886 -0.0280277260192 -1.18872947758e-24)
(-0.114958365026 -0.0330854110078 -1.51489887535e-24)
(-0.104428306877 -0.00422957764569 -7.97802875065e-24)
(-0.102387754042 -0.00222341562546 4.42625408743e-23)
(-0.104728305034 -0.00839062179431 -2.57035951333e-23)
(-0.102303239443 -0.00654539818055 -8.05873512909e-23)
(-0.105548161039 -0.0126918844252 1.62669687103e-24)
(-0.102961209229 -0.0108707882137 -1.38381984504e-23)
(-0.106576884462 -0.0171188640372 4.62201231508e-25)
(-0.103807840846 -0.015373430528 -5.5734444481e-24)
(-0.1078624625 -0.0217101040761 -1.42618821225e-24)
(-0.104869308336 -0.0200146154794 -6.20296581913e-24)
(-0.109428155972 -0.0265067822831 -1.46410915559e-24)
(-0.10618750093 -0.0248395652494 -5.43486291908e-24)
(-0.111271463424 -0.0315570573109 -3.78991945835e-24)
(-0.107767664962 -0.029891298526 -3.42477444019e-24)
(-0.109600380051 -0.0352162465873 -1.85935820775e-24)
(-0.100100832346 -0.00447502966504 -2.83467816659e-23)
(-0.0979226125031 -0.00232570286065 2.30394278097e-23)
(-0.100362783699 -0.00894271323508 -6.87219546079e-23)
(-0.0978443760627 -0.00690994053855 -8.15479986307e-23)
(-0.101056060204 -0.0135057977672 -2.10383397695e-23)
(-0.0984043364682 -0.0115057787772 -3.65113778957e-23)
(-0.101934879498 -0.0181965765998 -1.22386114987e-23)
(-0.0991193113387 -0.0162482040902 -2.89165166954e-23)
(-0.103031060294 -0.0230513474384 -1.0211640526e-23)
(-0.100012288925 -0.0211305189703 -1.49522950577e-23)
(-0.104366917679 -0.0281100413847 -7.39552820368e-24)
(-0.101122772757 -0.0261952253526 -1.10956648041e-23)
(-0.105940178099 -0.0334146738923 -1.49421318959e-24)
(-0.102455329836 -0.031482956944 -2.16780335166e-24)
(-0.107744440918 -0.0390110687968 -7.17997518831e-24)
(-0.104002792237 -0.0370357397727 -6.539517677e-25)
(-0.109788179378 -0.0449481801143 -9.1100951762e-24)
(-0.105760677199 -0.0429008542389 -1.70619774439e-23)
(-0.10773721364 -0.0491367701711 -1.39350926883e-23)
(-0.0955115321374 -0.00470106028889 -3.01617891551e-23)
(-0.093230687826 -0.00241004473821 -2.93612011269e-23)
(-0.0957325495119 -0.00940979394528 -4.93374219184e-23)
(-0.0931419521636 -0.00722545223565 -2.07835074111e-22)
(-0.0963175793681 -0.0141976081876 -4.43895548216e-23)
(-0.093619086469 -0.0120330254713 -5.20929906479e-23)
(-0.0970476573977 -0.0191102873351 -3.16302002544e-23)
(-0.094204362313 -0.016978397336 -3.92696526249e-23)
(-0.0979566389037 -0.0241839420387 -1.58363193359e-23)
(-0.0949312145629 -0.022061392055 -2.14025948636e-23)
(-0.0990666749216 -0.0294577020803 -5.86793995212e-24)
(-0.0958376218607 -0.0273223181177 -1.85475610338e-23)
(-0.100377798048 -0.0349711894985 -1.32754192977e-24)
(-0.096929511048 -0.0328025808679 -4.05437717715e-24)
(-0.101883444648 -0.0407709724511 -1.05359540233e-23)
(-0.0982008486216 -0.0385469396239 1.65270145257e-23)
(-0.103578879522 -0.0469064672732 -2.1886974956e-23)
(-0.0996456016161 -0.0446026428057 -1.95098787621e-23)
(-0.10124866512 -0.0510211048075 -2.40687564053e-23)
(-0.0907190719489 -0.00487940681559 -2.07034486083e-22)
(-0.0883551761931 -0.00247832164208 -3.68916532842e-23)
(-0.0908829921567 -0.00978898068366 -2.1059064284e-22)
(-0.0882312863359 -0.00747831242601 -2.09701627896e-22)
(-0.0913669578482 -0.0147686740719 -4.69730884512e-23)
(-0.0886332682091 -0.012455908399 -4.82129294519e-23)
(-0.0919530450495 -0.0198606413967 -2.9042047234e-23)
(-0.0891006423423 -0.0175659134091 -3.59226361173e-23)
(-0.0926781504568 -0.0251114696577 -2.41138365615e-23)
(-0.0896631351937 -0.0228094802626 -1.59247479524e-23)
(-0.0935670541899 -0.0305593803611 -1.67339982588e-23)
(-0.0903688360423 -0.028227034378 -2.15753380548e-23)
(-0.0946198682218 -0.0362459292833 1.38001792783e-23)
(-0.0912226178451 -0.0338607380606 -9.88876284334e-24)
(-0.0958299217708 -0.0422251723751 7.55308978694e-24)
(-0.0922149621295 -0.0397572173711 1.19645587226e-23)
(-0.0971890087053 -0.0485514335052 -2.16916602114e-23)
(-0.0933400039528 -0.0459675710885 -1.40180356003e-23)
(-0.0945996303722 -0.0525371367727 -1.56175482453e-23)
(-0.0857480704696 -0.00502598659896 -3.95587950976e-23)
(-0.0833230203473 -0.00252658564606 -8.35713098514e-25)
(-0.0858542168482 -0.0100827110539 -4.73239145076e-23)
(-0.083161191661 -0.00767063604382 -9.65661934752e-23)
(-0.0862403480297 -0.0152074262493 -3.7162477118e-23)
(-0.0834889894791 -0.0127793941573 -2.3435672884e-23)
(-0.0866864943051 -0.0204460739185 -2.28053368356e-23)
(-0.0838363405365 -0.0180141504703 -2.02312651378e-23)
(-0.0872321269846 -0.0258370687627 -1.33862494457e-23)
(-0.0842412040886 -0.0233790487722 -1.17965650801e-23)
(-0.0879041938718 -0.0314209917221 -1.47301026393e-23)
(-0.0847514503199 -0.0289153903827 -2.83162933546e-23)
(-0.0887015697124 -0.0372401742252 -1.17243833991e-23)
(-0.0853727741571 -0.0346640132914 -2.04558378256e-23)
(-0.0896165199284 -0.0433465440279 -9.60656666463e-24)
(-0.0860956766809 -0.0406706099694 -2.36742388852e-23)
(-0.0906444175995 -0.0497900409056 -7.9439236342e-24)
(-0.0869163127906 -0.0469857913545 -1.79023842059e-23)
(-0.087827730323 -0.0536550426496 -7.50119426722e-24)
(-0.0806353468668 -0.005135287756 -5.78431114761e-23)
(-0.0781673751183 -0.00255674004118 3.88120070645e-23)
(-0.0806842054146 -0.0103012891253 -7.26779518516e-23)
(-0.0779657891391 -0.00780559655769 -1.21786377451e-22)
(-0.0809734849116 -0.0155344124228 -6.50446090384e-24)
(-0.0782195342792 -0.0130078239553 1.95556605215e-24)
(-0.0812823648747 -0.0208779402458 -9.2224933823e-24)
(-0.0784505011533 -0.0183275949577 -8.25558150127e-24)
(-0.0816542915596 -0.0263704250355 -2.6726608989e-23)
(-0.0787021017228 -0.0237769007016 -1.49380867049e-23)
(-0.0821160442767 -0.03205169458 -3.40420285409e-23)
(-0.0790230077755 -0.0293947344135 -2.79246944089e-23)
(-0.0826664311345 -0.0379638117762 -3.24056933117e-23)
(-0.0794193537078 -0.0352211938654 -2.95808620206e-23)
(-0.0832984784552 -0.044156255033 -3.19700564264e-23)
(-0.0798842894541 -0.0413026560215 -2.61766709512e-23)
(-0.0840047584755 -0.0506796748626 -1.74596548389e-23)
(-0.0804123901217 -0.0476888292324 -3.70786890146e-23)
(-0.080990094544 -0.0544233389094 -3.26080904294e-23)
(-0.0754137722675 -0.00521649077693 -2.51312589104e-23)
(-0.0729139932973 -0.0025692034752 7.91500806514e-23)
(-0.0754088830594 -0.0104479435103 -4.71528595472e-23)
(-0.0726873727842 -0.00788457409216 -2.00522324367e-22)
(-0.0756026977855 -0.0157488636122 2.04445454721e-25)
(-0.0728646778527 -0.0131437305749 1.19240443791e-23)
(-0.0757779640483 -0.021159099742 -1.39711748239e-23)
(-0.0729811977918 -0.0185108212459 -1.10783923509e-24)
(-0.0759806726537 -0.0267157162149 -1.61361721249e-23)
(-0.0730839038466 -0.0240074791784 -8.050459928e-24)
(-0.0762376771554 -0.032458645301 -2.34635278887e-23)
(-0.07322067062 -0.0296704257016 -1.74005496094e-23)
(-0.0765488267878 -0.0384298499411 -2.33518396601e-23)
(-0.0733981508842 -0.0355400866137 -2.15318329254e-23)
(-0.0769082816506 -0.0446813281944 -3.12853035394e-23)
(-0.0736097873291 -0.0416652254541 -2.21706715842e-23)
(-0.077307076865 -0.0512629414003 -5.22271246052e-23)
(-0.0738508540467 -0.0480985421185 -5.66344990018e-23)
(-0.0741094023113 -0.0548787427246 -3.58329531159e-23)
(-0.0701210710425 -0.00525331583259 -9.62409848057e-23)
(-0.0676075678392 -0.00256272792821 7.35622182592e-23)
(-0.0700666055717 -0.0105188956572 -1.41445420441e-22)
(-0.0673587506523 -0.0079084146623 -1.61001961395e-22)
(-0.0701669969215 -0.0158516786816 1.06117596893e-23)
(-0.0674627101611 -0.0131879070282 1.2148997647e-23)
(-0.0702120376518 -0.0212921320173 4.81287566082e-24)
(-0.067468034196 -0.0185664339134 1.16326015202e-23)
(-0.0702490943987 -0.0268772535045 -9.31483741249e-24)
(-0.0674259915512 -0.0240736317794 8.43454625208e-25)
(-0.0703056191429 -0.0326476381731 -1.54688546461e-23)
(-0.06738273401 -0.0297458121661 -1.32462519487e-23)
(-0.0703823100768 -0.03864370763 -2.03506648495e-23)
(-0.0673472444354 -0.0356251863334 -1.93841190405e-23)
(-0.0704725006997 -0.0449256709187 -4.75198670465e-23)
(-0.0673032970942 -0.0417619262065 -4.34332968285e-24)
(-0.070570478099 -0.051543821431 -4.02403275126e-23)
(-0.0672526258508 -0.048210145569 -4.50502580019e-23)
(-0.0671966361829 -0.0550108520865 -1.2449617933e-23)
(-0.0647975805581 -0.00525142793764 8.80124166945e-24)
(-0.0622902168918 -0.00253867107315 1.13625282538e-22)
(-0.0646954169748 -0.0105164008869 -7.40754330733e-24)
(-0.0620193783233 -0.00787853562569 3.52158484938e-23)
(-0.0647053137294 -0.0158462631144 1.31698394779e-23)
(-0.0620539980826 -0.0131429240987 3.16386630027e-23)
(-0.0646243440059 -0.0212806356684 7.66318048454e-24)
(-0.0619534677117 -0.0184978261764 2.37723988343e-23)
(-0.0645007362186 -0.0268584667793 -3.08795991105e-24)
(-0.0617705520499 -0.0239797996294 -3.64076048473e-24)
(-0.0643615306663 -0.032617608071 -1.71615163432e-23)
(-0.0615539487379 -0.0296259440588 -3.33565193959e-24)
(-0.0642048782146 -0.0386108689801 -3.37678387384e-24)
(-0.0612991641906 -0.0354782069869 -1.20879214386e-23)
(-0.0640215609845 -0.0448874791042 -1.87372063822e-24)
(-0.0610025294335 -0.0415873740012 1.28397993787e-23)
(-0.0638097385799 -0.0515007963214 -1.72595484224e-23)
(-0.0606553044287 -0.0480092526598 1.42349214806e-24)
(-0.0602611837339 -0.0547974809843 -6.62733417723e-24)
(-0.0594844010093 -0.00521476991577 1.40039889362e-22)
(-0.0570029769885 -0.00249957341454 1.4630483702e-22)
(-0.0593371661872 -0.0104435140396 7.42620548039e-23)
(-0.0567122952921 -0.00779843553082 1.55680171868e-23)
(-0.0592602502894 -0.0157367872123 4.22412223591e-23)
(-0.0566802323705 -0.0130130542924 8.04881539233e-23)
(-0.0590587612878 -0.0211298808824 1.2468457865e-23)
(-0.056480902738 -0.0183110928829 3.29284563569e-23)
(-0.0587808974207 -0.0266637576268 -3.88845251327e-24)
(-0.0561620978913 -0.0237335968637 -1.36673421183e-23)
(-0.0584492630177 -0.0323800778473 1.73794296498e-24)
(-0.055772633463 -0.0293151863753 -2.05696341526e-23)
(-0.0580569697527 -0.0383220355786 4.12866181393e-24)
(-0.0553070566258 -0.0350970393068 -7.827256647e-24)
(-0.057591734168 -0.0445495326365 1.6137012165e-23)
(-0.0547514880351 -0.0411311217831 -1.53743394483e-23)
(-0.0570461482674 -0.0511198099906 1.20557063932e-23)
(-0.0540904957278 -0.0474759065851 1.49434467615e-24)
(-0.0533120525136 -0.0542026758752 -2.02907568923e-23)
(-0.054223236427 -0.00514595000954 2.18329648443e-23)
(-0.0517861420434 -0.00244517611779 1.05288567232e-22)
(-0.054034836202 -0.0103053375875 2.17941163062e-23)
(-0.0514794130592 -0.00767254631564 -2.73433072933e-23)
(-0.0538768119578 -0.0155281055729 7.11753879211e-23)
(-0.0513842062581 -0.0128056892608 1.14171203019e-22)
(-0.0535612320337 -0.0208492265476 6.79265637359e-24)
(-0.0510895199345 -0.0180138198678 4.72358786753e-23)
(-0.0531343777862 -0.0263019690815 -3.03485237576e-23)
(-0.0506453054377 -0.0233410126389 -2.20751805182e-23)
(-0.052613239475 -0.0319284502737 -3.01348337646e-23)
(-0.0500916046302 -0.0288170526853 -2.66702525828e-23)
(-0.0519848576902 -0.0377743499071 -2.73302579092e-23)
(-0.0494189659667 -0.0344816505212 -1.63019067847e-23)
(-0.0512274403033 -0.043898280657 -3.00170069371e-23)
(-0.0486032261553 -0.0403844468278 -1.86774019591e-23)
(-0.0503164576733 -0.0503664187581 -3.08521186093e-23)
(-0.0476100648552 -0.046583972284 -4.04731288686e-23)
(-0.0464086552842 -0.0531610464082 -3.86315684823e-23)
(-0.0490529449622 -0.00504748115045 5.61122950943e-23)
(-0.0466776801062 -0.00237790633911 9.53662129548e-23)
(-0.0488276006936 -0.0101089347041 6.50337794197e-23)
(-0.0463575381718 -0.00750585828198 -1.01634659367e-23)
(-0.0485941513971 -0.0152307905236 9.02316937733e-23)
(-0.0462039380657 -0.0125281343569 1.1827927411e-22)
(-0.0481723092938 -0.0204430299432 1.83680417834e-23)
(-0.045822802349 -0.0176146645533 5.38753131874e-23)
(-0.0476045304366 -0.0257770278366 -1.83969093434e-23)
(-0.0452628517069 -0.0228108816819 -2.78989130819e-23)
(-0.0469027903578 -0.031270968551 -1.28373256029e-23)
(-0.0445567594222 -0.0281414434734 -2.45694384524e-23)
(-0.0460456776862 -0.0369677317692 -7.64905083456e-24)
(-0.0436890810566 -0.0336403836051 -3.1895052327e-23)
(-0.0449972303595 -0.042921412333 -2.91335238906e-23)
(-0.0426224144421 -0.0393508776135 -2.00538336154e-23)
(-0.0437100943431 -0.0491896356225 -4.82525787416e-23)
(-0.0413069166037 -0.0453216848953 -7.24411476976e-23)
(-0.039683985625 -0.0516264205679 -3.83299377001e-23)
(-0.0440085462387 -0.00492420087417 2.90904519237e-23)
(-0.0417089501511 -0.0023012109005 -3.59526226962e-23)
(-0.043749989859 -0.00985996899274 4.30820287539e-23)
(-0.0413801260209 -0.00730358349845 -6.55391178417e-23)
(-0.0434474126102 -0.014851910746 8.19228935243e-23)
(-0.0411729234468 -0.0121879352544 7.72633192364e-23)
(-0.0429293932981 -0.0199238992954 7.60835832202e-24)
(-0.0407149896747 -0.0171243297688 1.77181383922e-23)
(-0.0422344530082 -0.0251029293889 -3.40714421909e-23)
(-0.040052002672 -0.022157415936 -4.10881838075e-23)
(-0.041368001577 -0.0304208150456 -4.36271651765e-23)
(-0.0392111472586 -0.0273045296376 -4.34893100329e-23)
(-0.0402989317361 -0.0359155237102 -4.42998351078e-23)
(-0.0381692609543 -0.032590919049 -7.08635227565e-23)
(-0.0389795306053 -0.0416263303204 -6.33614574224e-23)
(-0.0368750739215 -0.0380504438882 -1.05169330494e-22)
(-0.0373445615619 -0.0475883799907 -6.25185066561e-23)
(-0.0352802636419 -0.0437132295497 -1.75036740725e-22)
(-0.0332852958213 -0.0496406938783 -1.65397498852e-22)
(-0.0391215060746 -0.00477986022708 -1.30582192462e-22)
(-0.0369086514979 -0.00221524060069 -1.48062028962e-22)
(-0.0388336141604 -0.00956616289281 -3.13578273592e-23)
(-0.0365753511883 -0.00707018091165 -9.69541916021e-23)
(-0.0384683178355 -0.0144019298718 1.30585641043e-23)
(-0.0363184988003 -0.0117922755313 9.12341336442e-24)
(-0.0378658824709 -0.0193043201203 -3.09784037373e-23)
(-0.0357920329408 -0.0165537012819 -3.17430566996e-23)
(-0.0370594039612 -0.0242950842398 -5.05060516495e-23)
(-0.0350422192703 -0.0213948073418 -6.7594572226e-23)
(-0.036044948741 -0.0293991883936 -7.0725667613e-23)
(-0.034084019606 -0.0263214471346 -1.00944717023e-22)
(-0.0347917853108 -0.0346413666108 -1.31733018143e-22)
(-0.0328833153717 -0.0313586234889 -2.50271662444e-22)
(-0.0332430759708 -0.0400436468815 -2.16844613797e-22)
(-0.0314220609203 -0.0365192201789 -5.42647900434e-22)
(-0.0313195228952 -0.0456283877915 -2.77915732921e-22)
(-0.0295909691201 -0.0418096549433 -8.14140054418e-22)
(-0.0273178703294 -0.0472762271054 -9.69723735918e-22)
(-0.0344163639506 -0.00461565388978 -1.14434028103e-22)
(-0.0322976070252 -0.00211974883041 -5.50559549615e-23)
(-0.0341013445343 -0.00923047365113 -5.64729508785e-23)
(-0.0319621154813 -0.00680699210676 -7.08550765272e-23)
(-0.0336784236671 -0.0138875399611 -3.56782074395e-23)
(-0.0316552611297 -0.0113452238159 -5.15925534723e-24)
(-0.032999670446 -0.0185971241482 -6.83592251883e-23)
(-0.0310683410584 -0.015909416315 -4.29985147818e-23)
(-0.0320955208444 -0.0233683372952 -1.180332376e-22)
(-0.0302340954061 -0.0205348946098 -1.37315410471e-22)
(-0.0309653104851 -0.0282174299794 -2.80490711854e-22)
(-0.0291803961831 -0.0252227963647 -4.25816628067e-22)
(-0.0295745613809 -0.0331859221774 -6.61186544734e-22)
(-0.0278796841042 -0.0299880299109 -1.1987440028e-21)
(-0.0278614320229 -0.0382225151592 -1.13994334105e-21)
(-0.0257290888781 -0.0433725872915 -1.50594805741e-21)
(-0.0299072070262 -0.0044295010222 -1.1477003386e-23)
(-0.02956521471 -0.00885346593109 -1.9541380996e-23)
(-0.0290848244347 -0.0133117448879 -1.24795626896e-23)
(-0.028335992813 -0.0177999342679 -1.11954700065e-22)
(-0.0273529604153 -0.0223425610791 -4.45098800939e-22)
(-0.0256402284562 -0.0195962912876 -4.14691045629e-22)
(-0.0261414475565 -0.0269488050654 -1.34406991901e-21)
)
;

boundaryField
{
    back
    {
        type            calculated;
        value           uniform (0 0 0);
    }
    sides
    {
        type            calculated;
        value           nonuniform List<vector> 0();
    }
    bottom
    {
        type            calculated;
        value           uniform (0 0 0);
    }
    front
    {
        type            calculated;
        value           uniform (0 0 0);
    }
    atmosphere
    {
        type            calculated;
        value           nonuniform List<vector> 0();
    }
    floatingObject
    {
        type            calculated;
        value           nonuniform List<vector> 0();
    }
    procBoundary4to0
    {
        type            processor;
        value           nonuniform List<vector> 8((-0.110236166373 -0.00199268101712 -6.72075188624e-24) (-0.110561733706 -0.00563600487328 -2.44097520499e-23) (-0.111279011379 -0.00928903657202 2.48582640331e-24) (-0.112360341898 -0.0131932010067 -6.744138286e-24) (-0.113753880616 -0.0172227381734 2.66200971979e-24) (-0.115500355947 -0.0214424268552 5.70042950584e-24) (-0.117593986935 -0.0259021299842 5.08093754804e-24) (-0.120039935173 -0.030653987946 3.83370604456e-24));
    }
    procBoundary4to3
    {
        type            processor;
        value           nonuniform List<vector> 
13
(
(-0.0263033308742 -0.0348188366199 -2.58998437282e-21)
(-0.0243521750739 -0.0396874822688 -3.96783818778e-21)
(-0.0218748164827 -0.0446064906857 -4.84601941186e-21)
(-0.0278858196574 -0.00201495909111 -5.46098033828e-23)
(-0.0275496494567 -0.00651322673169 -3.11445457972e-23)
(-0.0271899112709 -0.0108456997485 2.69959415535e-23)
(-0.0265367188359 -0.0151958342685 -5.92200213061e-23)
(-0.0245237091569 -0.0240418145957 -1.72316995344e-21)
(-0.0246660503981 -0.0316007239986 -3.12754183088e-21)
(-0.0231565085669 -0.0285275460555 -5.08744143375e-21)
(-0.0238769505435 -0.0169428294711 -3.6195636687e-22)
(-0.0228218346419 -0.0212494074502 -1.69276219813e-21)
(-0.0212436125583 -0.0185890089235 -1.28655042732e-21)
)
;
    }
    procBoundary4to5
    {
        type            processor;
        value           nonuniform List<vector> 
18
(
(-0.118791064662 -0.0344861769799 2.42624574704e-24)
(-0.113390318116 -0.0369119416046 -6.45524904834e-24)
(-0.111680204167 -0.0408688423148 -1.17758660289e-23)
(-0.114032150474 -0.0469023213558 -1.29477602445e-23)
(-0.112081605088 -0.0512864045053 -5.53298669834e-24)
(-0.105475153623 -0.0534374007906 -8.79371161613e-24)
(-0.0986971757935 -0.0552479515991 -1.17853047966e-23)
(-0.0917763024999 -0.0566139284576 -9.43684870348e-24)
(-0.0847702858602 -0.0575740076633 -1.40173856125e-23)
(-0.0777320811377 -0.0582041436115 -1.58570891769e-24)
(-0.0706804134554 -0.0585166732749 -3.62037102015e-23)
(-0.063589314248 -0.0584872734499 -2.36517065861e-23)
(-0.0564301668566 -0.0580991822645 -5.05557888662e-23)
(-0.0492333523037 -0.0572682068956 -5.51106569582e-23)
(-0.0421332017267 -0.0558752401682 2.48666307961e-23)
(-0.0353190270587 -0.0539044072546 -6.00998869028e-23)
(-0.0289229596871 -0.0514974870903 -3.30622375587e-22)
(-0.0230483185933 -0.048678497922 -1.82813851594e-21)
)
;
    }
}


// ************************************************************************* //
