/*--------------------------------*- C++ -*----------------------------------*\
| =========                 |                                                 |
| \\      /  F ield         | OpenFOAM: The Open Source CFD Toolbox           |
|  \\    /   O peration     | Version:  v2012                                 |
|   \\  /    A nd           | Website:  www.openfoam.com                      |
|    \\/     M anipulation  |                                                 |
\*---------------------------------------------------------------------------*/
FoamFile
{
    version     2.0;
    format      ascii;
    class       volVectorField;
    location    "5.5";
    object      ddtCorrDdt0(U);
}
// * * * * * * * * * * * * * * * * * * * * * * * * * * * * * * * * * * * * * //

dimensions      [0 1 -2 0 0 0 0];


internalField   nonuniform List<vector> 
164
(
(-0.108414181234 -0.00214018338659 -2.73590705317e-24)
(-0.108495591424 -0.00594456218157 7.62170664918e-24)
(-0.109252768478 -0.00970696982854 1.08234467429e-23)
(-0.110281066124 -0.0138079319582 -7.28099778145e-25)
(-0.111595080111 -0.018013531277 8.19554546354e-24)
(-0.113230729455 -0.0224040526322 6.82993196501e-24)
(-0.115193876577 -0.0270299088842 2.81231418931e-24)
(-0.117482238582 -0.0319440267264 -6.39731978463e-25)
(-0.104492501669 -0.00216603847266 3.26661927866e-23)
(-0.104364112084 -0.00635412471524 -4.86222502879e-23)
(-0.105092497983 -0.0105264051336 -2.78493997872e-24)
(-0.106003824095 -0.0148999465831 6.03833372079e-24)
(-0.107149944829 -0.0194098388111 -5.11393125778e-24)
(-0.108574980172 -0.0241035271866 2.26155483328e-24)
(-0.110281331773 -0.0290255431541 -5.18977314446e-24)
(-0.112261595074 -0.0342267952892 -2.39006577224e-24)
(-0.100142036841 -0.00228079277827 5.5858888962e-23)
(-0.10005962785 -0.00673667164587 -1.12552452294e-22)
(-0.100665939547 -0.0112151712939 -2.48914569221e-23)
(-0.101446180861 -0.015846914473 -1.7185222617e-23)
(-0.102423578136 -0.0206193921478 -7.29200038049e-24)
(-0.103638542452 -0.0255756033123 -1.31312806714e-23)
(-0.105095292905 -0.0307570538979 -1.65977573591e-24)
(-0.106785063292 -0.0362056978854 -1.32865064326e-24)
(-0.108703818543 -0.041971307274 -1.30312997334e-23)
(-0.110872540214 -0.048113344266 -5.18889061904e-24)
(-0.0955504470594 -0.00237061294303 -9.78003334258e-24)
(-0.0954726172154 -0.00708320943123 -5.05435449676e-23)
(-0.0959924818085 -0.0117963862606 -4.81312988693e-23)
(-0.0966426769276 -0.0166494937073 -4.06478107739e-23)
(-0.0974526378677 -0.0216416457927 -2.26125897349e-23)
(-0.0984606399397 -0.0268148473928 -9.06004893682e-24)
(-0.0996727099035 -0.03220885999 -2.67583096741e-24)
(-0.101082886193 -0.0378657816601 2.07471078638e-26)
(-0.102684003103 -0.0438304012038 -2.10926551545e-23)
(-0.104473755942 -0.0501601960762 -2.26812947576e-23)
(-0.0907754429171 -0.00244947653338 -4.89423689113e-23)
(-0.0906627009806 -0.00736769504008 -3.65126603254e-22)
(-0.0911032833329 -0.012269664682 -5.60546824266e-23)
(-0.0916306323636 -0.0173073009648 -3.78914944759e-23)
(-0.0922754577355 -0.0224811383172 -2.01925999922e-23)
(-0.0930808431782 -0.0278297888426 -2.80350731307e-23)
(-0.0940532652016 -0.0333963017457 -5.4329233869e-24)
(-0.095186471242 -0.0392280975878 3.30332819436e-23)
(-0.0964733722996 -0.0453748844076 -1.79271023697e-23)
(-0.097904645111 -0.0518820135388 -2.5456218053e-23)
(-0.0858239206867 -0.00250716675078 -2.48409376572e-23)
(-0.0856722202525 -0.00758892981194 -5.4276652538e-23)
(-0.086036213444 -0.0126421521161 -4.03711764772e-23)
(-0.0864444826154 -0.0178245258535 -3.39537777588e-23)
(-0.0869285059949 -0.0231378222081 -1.16568959125e-23)
(-0.0875357479744 -0.0286242799135 -1.51156029788e-23)
(-0.0882726397692 -0.0343251743754 -1.43446022998e-23)
(-0.0891304996556 -0.0402863371545 -9.10416449836e-24)
(-0.0901025402013 -0.0465602577693 -1.01089688309e-23)
(-0.0911862949978 -0.0531922600067 -5.77887843749e-24)
(-0.0807311865956 -0.00254600454135 2.31695114601e-23)
(-0.080539507138 -0.00775234227569 -1.38855734412e-22)
(-0.0808289036912 -0.0129166361985 -6.50016929084e-24)
(-0.0811180661321 -0.0182037750872 -6.50875251684e-24)
(-0.0814466636174 -0.0236202753363 -1.19362342478e-23)
(-0.0818619195018 -0.029206500852 -4.15169837303e-23)
(-0.0823701690516 -0.0350028522075 -2.65670733515e-23)
(-0.0829626932175 -0.0410548827844 -3.8244313272e-23)
(-0.083634263693 -0.0474113249398 -2.56957995808e-23)
(-0.084375253258 -0.0541178252926 -9.22351009696e-24)
(-0.0755257506892 -0.00256747554102 5.44545026688e-23)
(-0.0753017938457 -0.00785885083968 -1.0471702049e-22)
(-0.075515972273 -0.0130990117121 1.04113013951e-23)
(-0.075689423298 -0.0184514148282 -1.00024104857e-23)
(-0.0758665047986 -0.0239335260669 -1.79399391621e-23)
(-0.0760948405088 -0.029582967975 -1.43324050876e-23)
(-0.0763805138021 -0.0354395355234 -3.25946506898e-23)
(-0.0767171397734 -0.0415504292587 -1.41090286304e-23)
(-0.0770994235278 -0.0479663335251 -4.84615784485e-23)
(-0.0775147302022 -0.0547288525263 -5.59926707618e-23)
(-0.0702453293747 -0.00257093140938 1.03845658634e-22)
(-0.0699968127102 -0.00791029734465 -2.96327628245e-22)
(-0.0701363984331 -0.0131884494378 1.34367873631e-23)
(-0.0701975954098 -0.0185702276636 7.78673201552e-24)
(-0.0702264798939 -0.0240814322899 1.83901930612e-24)
(-0.0702717089036 -0.0297578834283 -2.04686941311e-23)
(-0.0703395293821 -0.0356406377039 -1.04690151611e-23)
(-0.0704250907715 -0.0417800216494 -3.0232314538e-23)
(-0.0705199106278 -0.0482307507119 -6.48074195551e-23)
(-0.0706210455702 -0.0550286329229 -1.567323547e-23)
(-0.0649334598341 -0.00255452444703 4.32787778845e-23)
(-0.0646617012821 -0.00790653197995 -2.56762945456e-23)
(-0.0647291326676 -0.0131873646187 1.0861207931e-23)
(-0.0646814947912 -0.0185626401633 1.54784710248e-23)
(-0.0645671932207 -0.0240658312689 -1.52110055709e-25)
(-0.0644342792164 -0.029733740904 -6.02380976638e-24)
(-0.0642887821163 -0.0356097349629 -2.82992229199e-23)
(-0.0641209743129 -0.0417438307637 2.15456551723e-23)
(-0.063922147656 -0.0481895404261 -2.52930964487e-23)
(-0.0636973295038 -0.05499307125 -9.22600039604e-24)
(-0.0596308043117 -0.00252281769926 1.83971787191e-22)
(-0.0593379977069 -0.00785053927144 9.61079915333e-23)
(-0.0593363346675 -0.0130984835787 5.24161180745e-23)
(-0.0591841659112 -0.0184330121896 3.20663266438e-23)
(-0.0589333566644 -0.0238937679899 -7.12941091374e-24)
(-0.058628438177 -0.0295181472136 -6.47494112798e-25)
(-0.0582700878584 -0.0353466790109 4.12338004275e-24)
(-0.057843851647 -0.0414309172387 4.13394358511e-24)
(-0.057339616689 -0.0478289648935 2.81400807448e-23)
(-0.0567526798457 -0.0546018907185 -4.02866795843e-24)
(-0.0543784698327 -0.00247632912982 1.08637886848e-22)
(-0.0540680030214 -0.0077463317902 -6.49719571598e-23)
(-0.0540016693827 -0.0129276250062 1.08560189772e-22)
(-0.0537519545329 -0.0181891735762 3.379058607e-23)
(-0.0533705095345 -0.0235734257375 -2.02052733228e-23)
(-0.0528982460378 -0.029112225537 -4.04917741924e-23)
(-0.0523282329121 -0.0348473996027 -1.97778933368e-23)
(-0.0516414824683 -0.0408313263276 -3.48826224817e-23)
(-0.0508133981383 -0.0471228482768 -2.51513913925e-23)
(-0.0498195172084 -0.053803461032 -3.65528458261e-23)
(-0.0492147116147 -0.00241402310575 1.01939247615e-22)
(-0.0488911783098 -0.00759876084108 1.02853425732e-23)
(-0.0487640230774 -0.0126837535153 1.19782216266e-22)
(-0.0484242797168 -0.0178384661594 6.06811712805e-23)
(-0.0479203388708 -0.0231085995403 -2.39450877137e-23)
(-0.0472887220024 -0.0285218798337 -1.28487309731e-23)
(-0.0465168587133 -0.0341159014396 -1.28259202326e-23)
(-0.0455744966591 -0.039937567328 -2.47218143649e-24)
(-0.0444199640599 -0.0460450962913 -5.57948663448e-23)
(-0.0430002246263 -0.0525186317845 -4.07102911385e-23)
(-0.0441755190201 -0.00234178957247 8.87931782941e-23)
(-0.0438415734573 -0.00741295572287 -3.06122744466e-23)
(-0.0436584062606 -0.0123725151985 1.16776331954e-22)
(-0.0432364189597 -0.0173908629472 4.70694550942e-23)
(-0.0426223676364 -0.0225131638236 -3.18527384502e-23)
(-0.0418465383801 -0.0277610071131 -3.62901459317e-23)
(-0.0408894647739 -0.0331648657705 -5.09641844213e-23)
(-0.0397083986982 -0.0387641878989 -3.76354857944e-23)
(-0.0382506625123 -0.0445982734992 -8.90874290505e-23)
(-0.0364384606115 -0.0507342093513 -3.59495842616e-23)
(-0.0392917164836 -0.00226063222852 -1.60698423687e-22)
(-0.0389512956655 -0.00719421127403 -1.00465961237e-22)
(-0.0387159326553 -0.0120033553103 3.77503065183e-23)
(-0.0382207030156 -0.0168577965903 -1.16331783097e-23)
(-0.0375110619261 -0.0218016680483 -5.03236291649e-23)
(-0.0366077459962 -0.0268480521621 -5.06884741342e-23)
(-0.0354821514858 -0.0320169723275 -9.07628610917e-23)
(-0.0341014191357 -0.0373366998774 -1.72703175194e-22)
(-0.0323847328058 -0.0428281856001 -2.609860524e-22)
(-0.0302543129847 -0.0485471784053 -2.94845413443e-22)
(-0.0345888508625 -0.00216984897285 -1.35425634238e-22)
(-0.0342438770387 -0.00694615054928 -9.34424219675e-23)
(-0.0339588120299 -0.0115811957523 -1.95034797894e-23)
(-0.0333980353043 -0.0162496059734 -5.18529350895e-23)
(-0.0326013055876 -0.0209879466353 -8.48655152871e-23)
(-0.0315897361012 -0.0257948421071 -1.51200959912e-22)
(-0.0303408848691 -0.0307002746503 -4.09780463795e-22)
(-0.0288082378928 -0.0357017404804 -9.12592625673e-22)
(-0.0269146261529 -0.0407911242864 -1.36729405644e-21)
(-0.0245435516033 -0.0460052758056 -1.64460205839e-21)
(-0.0300814972967 -0.00206964868796 2.5313724315e-23)
(-0.0297329167558 -0.00666783366423 -4.8267731087e-23)
(-0.0293975126642 -0.0111092518795 9.18496909499e-24)
(-0.0287721362051 -0.0155692266566 -3.41440944742e-23)
(-0.027899849421 -0.0200818425843 -1.89765305656e-22)
(-0.0268060714096 -0.0246507506224 -7.00432296222e-22)
(-0.0254768237034 -0.0292757851714 -1.9877075418e-21)
(-0.0234048524719 -0.0191107399908 -6.39616785602e-22)
)
;

boundaryField
{
    back
    {
        type            calculated;
        value           uniform (0 0 0);
    }
    sides
    {
        type            calculated;
        value           nonuniform List<vector> 0();
    }
    bottom
    {
        type            calculated;
        value           uniform (0 0 0);
    }
    front
    {
        type            calculated;
        value           uniform (0 0 0);
    }
    atmosphere
    {
        type            calculated;
        value           nonuniform List<vector> 0();
    }
    floatingObject
    {
        type            calculated;
        value           nonuniform List<vector> 0();
    }
    procBoundary4to0
    {
        type            processor;
        value           nonuniform List<vector> 8((-0.11203478285 -0.00184517864764 -1.07055967193e-23) (-0.112283186554 -0.00532744756498 -5.6441210749e-23) (-0.113081558702 -0.00887110331551 -5.8517939363e-24) (-0.114232725943 -0.0125784700553 -1.27601767939e-23) (-0.11572045671 -0.0164319450697 -2.87152602395e-24) (-0.117570713337 -0.0204808010782 4.57092704666e-24) (-0.119799078888 -0.0247743510842 7.34956090677e-24) (-0.122405097947 -0.0293639491656 8.30714406758e-24));
    }
    procBoundary4to3
    {
        type            processor;
        value           nonuniform List<vector> 
13
(
(-0.0238552770928 -0.0339359327593 -4.26737611996e-21)
(-0.0218891266304 -0.0385838402511 -6.56838231913e-21)
(-0.0193946506212 -0.0432077055658 -8.04743676533e-21)
(-0.0257812910844 -0.00196026949426 -1.34533331081e-22)
(-0.0254301384296 -0.00635861979914 -1.40213605075e-23)
(-0.0250400126696 -0.0105821476175 4.4806914012e-23)
(-0.0243490486151 -0.0148224418804 -8.42959481381e-23)
(-0.0222388168119 -0.023432878569 -2.74590761067e-21)
(-0.0238552770928 -0.0339359327593 -4.26737611996e-21)
(-0.02086432014 -0.0277793069396 -8.1871753257e-21)
(-0.0243490486151 -0.0148224418804 -8.42959481381e-23)
(-0.0222388168119 -0.023432878569 -2.74590761067e-21)
(-0.0191230533362 -0.0180672778561 -1.93348406904e-21)
)
;
    }
    procBoundary4to5
    {
        type            processor;
        value           nonuniform List<vector> 
18
(
(-0.120099890741 -0.0372047984772 5.49222347254e-24)
(-0.114519041157 -0.0397663773556 -1.05204323244e-23)
(-0.114519041157 -0.0397663773556 -1.05204323244e-23)
(-0.117068528076 -0.0456912984456 -2.070662987e-23)
(-0.113290669963 -0.0546667769234 -5.87708277763e-24)
(-0.106476551303 -0.0569221970666 5.09387152532e-24)
(-0.099489706476 -0.0588021404021 1.88560845985e-24)
(-0.0923663100021 -0.0602343597032 -1.30948189695e-23)
(-0.0851653184624 -0.0612270321572 -1.88112611281e-23)
(-0.0779494320733 -0.061870670649 5.28212529265e-23)
(-0.0707397813405 -0.0621862419068 -5.67341849329e-23)
(-0.0634812989922 -0.0621997209503 -3.80774127762e-23)
(-0.0561076538675 -0.0618456405241 -9.7082909774e-23)
(-0.0486471873989 -0.0609984887469 -7.36684680902e-23)
(-0.0412661788271 -0.0594737347701 9.04435527307e-23)
(-0.0341995935058 -0.0572750830129 -8.42501895439e-23)
(-0.0275916063894 -0.0545713789705 -3.66399337731e-22)
(-0.0215530855833 -0.0514119566292 -2.01167497348e-21)
)
;
    }
}


// ************************************************************************* //
