/*--------------------------------*- C++ -*----------------------------------*\
| =========                 |                                                 |
| \\      /  F ield         | OpenFOAM: The Open Source CFD Toolbox           |
|  \\    /   O peration     | Version:  v2012                                 |
|   \\  /    A nd           | Website:  www.openfoam.com                      |
|    \\/     M anipulation  |                                                 |
\*---------------------------------------------------------------------------*/
FoamFile
{
    version     2.0;
    format      ascii;
    class       volScalarField;
    location    "5.9";
    object      p_rgh;
}
// * * * * * * * * * * * * * * * * * * * * * * * * * * * * * * * * * * * * * //

dimensions      [1 -1 -2 0 0 0 0];


internalField   nonuniform List<scalar> 
166
(
8627.69777627
8627.51696569
8627.15739477
8626.61446398
8625.88090817
8624.94766116
8623.80439191
8622.43972648
8620.8348305
8618.97117699
8616.81733405
8614.41239311
8611.74510783
8608.77530416
8605.49962703
8601.97472922
8595.31315302
5041.61465989
-0.0318170484841
-0.0241753154003
8621.88352233
8621.67702064
8621.26477918
8620.641806
8619.80033209
8618.73072718
8617.42223979
8615.86081344
8614.03338138
8611.92212447
8609.50725473
8606.77613264
8603.68680523
8600.25872492
8596.60848117
8592.52211951
8581.64263487
4863.67102114
-0.0530839391272
-0.00886179215139
8616.27405588
8616.0434047
8615.5828188
8614.88650875
8613.94605039
8612.75102995
8611.28858166
8609.54321684
8607.50450587
8605.15502341
8602.47192944
8599.40966583
8596.01605885
8592.21564344
8587.99032944
8583.33024271
8565.95116984
4685.59815753
-0.0259865792651
0.00216896955965
8610.89300015
8610.64015143
8610.13643883
8609.37429492
8608.34465518
8607.03595757
8605.43353911
8603.51935187
8601.27091514
8598.68428438
8595.73288541
8592.38894049
8588.64564863
8584.43873196
8579.73358873
8574.46655114
8547.53589881
4506.86180519
0.00319815501223
0.00834913783593
8605.76294766
8605.48851828
8604.94819738
8604.12874367
8603.02098708
8601.61205959
8599.88677096
8597.8243044
8595.40020916
8592.60198968
8589.40594401
8585.77758312
8581.67556528
8577.09323543
8571.9596647
8566.121209
8527.01025802
4335.64298557
0.00769293783966
0.0072984220526
8600.90008321
8600.61183642
8600.03898988
8599.17086564
8597.99746843
8596.50208601
8594.67392793
8592.48794363
8589.92197888
8586.94119407
8583.5235751
8579.64765039
8575.21969477
8570.27618253
8564.78932489
8558.53332355
8505.98319462
4181.60224167
0.00920397168945
0.0057982816648
8596.32268562
8596.02474363
8595.42525774
8594.51755278
8593.29029305
8591.72835214
8589.81365625
8587.52497286
8584.83369933
8581.70835544
8578.1086777
8573.98882043
8569.30004349
8564.05148815
8558.24512795
8551.82033943
8485.95246294
4042.46253186
0.00966750531573
0.00474331036623
8592.04504951
8591.73930092
8591.12115232
8590.18382612
8588.9172865
8587.30449062
8585.32616442
8582.9569169
8580.16824995
8576.92094784
8573.17554122
8568.86976778
8563.96862175
8558.421568
8552.18997206
8545.75184915
8469.24526623
3909.54154747
0.0107826577921
0.00475990062447
8588.07680594
8587.76600119
8587.13577981
8584.42276823
8581.08508899
8578.06267451
)
;

boundaryField
{
    back
    {
        type            fixedFluxPressure;
        gradient        uniform 0;
        value           nonuniform List<scalar> 
166
(
8627.69777627
8627.51696569
8627.15739477
8626.61446398
8625.88090817
8624.94766116
8623.80439191
8622.43972648
8620.8348305
8618.97117699
8616.81733405
8614.41239311
8611.74510783
8608.77530416
8605.49962703
8601.97472922
8595.31315302
5041.61465989
-0.0318170484841
-0.0241753154003
8621.88352233
8621.67702064
8621.26477918
8620.641806
8619.80033209
8618.73072718
8617.42223979
8615.86081344
8614.03338138
8611.92212447
8609.50725473
8606.77613264
8603.68680523
8600.25872492
8596.60848117
8592.52211951
8581.64263487
4863.67102114
-0.0530839391272
-0.00886179215139
8616.27405588
8616.0434047
8615.5828188
8614.88650875
8613.94605039
8612.75102995
8611.28858166
8609.54321684
8607.50450587
8605.15502341
8602.47192944
8599.40966583
8596.01605885
8592.21564344
8587.99032944
8583.33024271
8565.95116984
4685.59815753
-0.0259865792651
0.00216896955965
8610.89300015
8610.64015143
8610.13643883
8609.37429492
8608.34465518
8607.03595757
8605.43353911
8603.51935187
8601.27091514
8598.68428438
8595.73288541
8592.38894049
8588.64564863
8584.43873196
8579.73358873
8574.46655114
8547.53589881
4506.86180519
0.00319815501223
0.00834913783593
8605.76294766
8605.48851828
8604.94819738
8604.12874367
8603.02098708
8601.61205959
8599.88677096
8597.8243044
8595.40020916
8592.60198968
8589.40594401
8585.77758312
8581.67556528
8577.09323543
8571.9596647
8566.121209
8527.01025802
4335.64298557
0.00769293783966
0.0072984220526
8600.90008321
8600.61183642
8600.03898988
8599.17086564
8597.99746843
8596.50208601
8594.67392793
8592.48794363
8589.92197888
8586.94119407
8583.5235751
8579.64765039
8575.21969477
8570.27618253
8564.78932489
8558.53332355
8505.98319462
4181.60224167
0.00920397168945
0.0057982816648
8596.32268562
8596.02474363
8595.42525774
8594.51755278
8593.29029305
8591.72835214
8589.81365625
8587.52497286
8584.83369933
8581.70835544
8578.1086777
8573.98882043
8569.30004349
8564.05148815
8558.24512795
8551.82033943
8485.95246294
4042.46253186
0.00966750531573
0.00474331036623
8592.04504951
8591.73930092
8591.12115232
8590.18382612
8588.9172865
8587.30449062
8585.32616442
8582.9569169
8580.16824995
8576.92094784
8573.17554122
8568.86976778
8563.96862175
8558.421568
8552.18997206
8545.75184915
8469.24526623
3909.54154747
0.0107826577921
0.00475990062447
8588.07680594
8587.76600119
8587.13577981
8584.42276823
8581.08508899
8578.06267451
)
;
    }
    sides
    {
        type            fixedFluxPressure;
        gradient        nonuniform List<scalar> 0();
        value           nonuniform List<scalar> 0();
    }
    bottom
    {
        type            fixedFluxPressure;
        gradient        uniform 0;
        value           nonuniform List<scalar> 
12
(
8627.69777627
8621.88352233
8616.27405588
8610.89300015
8605.76294766
8600.90008321
8596.32268562
8592.04504951
8588.07680594
8584.42276823
8581.08508899
8578.06267451
)
;
    }
    front
    {
        type            fixedFluxPressure;
        gradient        uniform 0;
        value           nonuniform List<scalar> 
166
(
8627.69777627
8627.51696569
8627.15739477
8626.61446398
8625.88090817
8624.94766116
8623.80439191
8622.43972648
8620.8348305
8618.97117699
8616.81733405
8614.41239311
8611.74510783
8608.77530416
8605.49962703
8601.97472922
8595.31315302
5041.61465989
-0.0318170484841
-0.0241753154003
8621.88352233
8621.67702064
8621.26477918
8620.641806
8619.80033209
8618.73072718
8617.42223979
8615.86081344
8614.03338138
8611.92212447
8609.50725473
8606.77613264
8603.68680523
8600.25872492
8596.60848117
8592.52211951
8581.64263487
4863.67102114
-0.0530839391272
-0.00886179215139
8616.27405588
8616.0434047
8615.5828188
8614.88650875
8613.94605039
8612.75102995
8611.28858166
8609.54321684
8607.50450587
8605.15502341
8602.47192944
8599.40966583
8596.01605885
8592.21564344
8587.99032944
8583.33024271
8565.95116984
4685.59815753
-0.0259865792651
0.00216896955965
8610.89300015
8610.64015143
8610.13643883
8609.37429492
8608.34465518
8607.03595757
8605.43353911
8603.51935187
8601.27091514
8598.68428438
8595.73288541
8592.38894049
8588.64564863
8584.43873196
8579.73358873
8574.46655114
8547.53589881
4506.86180519
0.00319815501223
0.00834913783593
8605.76294766
8605.48851828
8604.94819738
8604.12874367
8603.02098708
8601.61205959
8599.88677096
8597.8243044
8595.40020916
8592.60198968
8589.40594401
8585.77758312
8581.67556528
8577.09323543
8571.9596647
8566.121209
8527.01025802
4335.64298557
0.00769293783966
0.0072984220526
8600.90008321
8600.61183642
8600.03898988
8599.17086564
8597.99746843
8596.50208601
8594.67392793
8592.48794363
8589.92197888
8586.94119407
8583.5235751
8579.64765039
8575.21969477
8570.27618253
8564.78932489
8558.53332355
8505.98319462
4181.60224167
0.00920397168945
0.0057982816648
8596.32268562
8596.02474363
8595.42525774
8594.51755278
8593.29029305
8591.72835214
8589.81365625
8587.52497286
8584.83369933
8581.70835544
8578.1086777
8573.98882043
8569.30004349
8564.05148815
8558.24512795
8551.82033943
8485.95246294
4042.46253186
0.00966750531573
0.00474331036623
8592.04504951
8591.73930092
8591.12115232
8590.18382612
8588.9172865
8587.30449062
8585.32616442
8582.9569169
8580.16824995
8576.92094784
8573.17554122
8568.86976778
8563.96862175
8558.421568
8552.18997206
8545.75184915
8469.24526623
3909.54154747
0.0107826577921
0.00475990062447
8588.07680594
8587.76600119
8587.13577981
8584.42276823
8581.08508899
8578.06267451
)
;
    }
    atmosphere
    {
        type            totalPressure;
        rho             rho;
        psi             none;
        gamma           1;
        p0              uniform 0;
        value           nonuniform List<scalar> 8(0 -3.12171131081e-05 -0.000133516084361 -9.85361124826e-05 -2.12088692402e-05 -1.32317826723e-06 -8.25191076822e-07 -7.02079484019e-07);
    }
    floatingObject
    {
        type            fixedFluxPressure;
        gradient        nonuniform List<scalar> 0();
        value           nonuniform List<scalar> 0();
    }
    procBoundary9to6
    {
        type            processor;
        value           nonuniform List<scalar> 4(8607.54181048 5225.87264015 0.138630335548 0.000346561458964);
    }
    procBoundary9to7
    {
        type            processor;
        value           nonuniform List<scalar> 
16
(
8633.68981326
8633.53683219
8633.23376285
8632.77631942
8632.15788316
8631.37026022
8630.40395898
8629.24955526
8627.88936951
8626.30873641
8624.49685122
8622.43621273
8620.1358934
8617.59786058
8614.84316978
8611.67551088
)
;
    }
    procBoundary9to10
    {
        type            processor;
        value           nonuniform List<scalar> 
15
(
8586.18064822
8584.88874153
8583.24386878
8581.22417588
8578.80439318
8575.95092713
8572.62862977
8568.77542253
8584.1106964
8586.18064822
8583.47631809
8584.1106964
8580.7759741
8577.75832473
8575.34898324
)
;
    }
    procBoundary9to11
    {
        type            processor;
        value           nonuniform List<scalar> 9(8564.34360362 8559.25534328 8553.41357062 8546.69835488 8539.05533496 8457.58405862 3790.73582769 0.0180244469678 0.00507762236444);
    }
}


// ************************************************************************* //
