/*--------------------------------*- C++ -*----------------------------------*\
| =========                 |                                                 |
| \\      /  F ield         | OpenFOAM: The Open Source CFD Toolbox           |
|  \\    /   O peration     | Version:  v2012                                 |
|   \\  /    A nd           | Website:  www.openfoam.com                      |
|    \\/     M anipulation  |                                                 |
\*---------------------------------------------------------------------------*/
FoamFile
{
    version     2.0;
    format      ascii;
    class       volScalarField;
    location    "1.7";
    object      alpha.water;
}
// * * * * * * * * * * * * * * * * * * * * * * * * * * * * * * * * * * * * * //

dimensions      [0 0 0 0 0 0 0];


internalField   nonuniform List<scalar> 
164
(
1.00000057359
1.00000058694
1.00000068321
1.00000076626
1.00000076124
1.00000044618
1
0.999999999854
0.999999724079
0.677553639608
0.0149440103607
-4.96442846938e-25
1.00000050013
1.00000052597
1.00000064527
1.00000075998
1.00000079849
1.00000051649
1
1
0.99999976402
0.687783695638
0.0168358996485
-4.65077223436e-27
1.0000005792
1.00000065659
1.00000070856
1.00000047525
1
1.0000000001
0.999999824564
0.702378861347
0.0207953793285
-7.5965566459e-25
1.0000004961
1.00000055186
1.00000061301
1.00000043492
1
1.00000000008
0.999999887878
0.723143938666
0.0279999960572
-1.44889293124e-89
1.00000041841
1.00000048495
1.00000055781
1.00000042754
1
1.00000000006
0.999999937418
0.750655096598
0.0387041277452
-4.19696719634e-11
1.00000036405
1.00000046209
1.00000054762
1.00000045442
1
1.00000000004
0.999999967917
0.782625506102
0.0516560124678
-1.17219094631e-22
1.00000035949
1.00000048479
1.00000057901
1.00000051526
1
1.00000000002
0.999999987286
0.819242351891
0.064587192813
-4.00233999127e-23
1.00000042488
1.00000055328
1.00000064536
1.0000006125
1
1.00000000001
0.999999997066
0.862013656819
0.0766380716649
-1.10544448339e-38
1.00000056346
1.00000066282
1.00000073551
1.00000071488
1.0000002962
1
0.9999999971
0.943618712832
0.0792740351725
-6.93831497024e-21
1.00000075533
1.00000080044
1.00000083527
1.00000080486
1.0000005598
1
0.999999998431
0.991451338968
0.0906428632324
-5.62699913025e-18
1.00000095907
1.00000094383
1.00000092733
1.00000086417
1.00000003481
1
0.999999995382
0.987816341105
0.428142244667
0.00480870678279
1.0000011219
1.00000106309
1.00000099324
1.00000091072
1.0000005725
1
0.999999991293
0.964615349303
0.196357522833
0
1.00000119531
1.00000112621
1.00000101264
1.00000090596
1.00000070303
1.00000000817
1
0.99999999071
0.228154993417
0
1.00000113906
1.00000109707
1.00000096797
1.00000081916
1.00000061119
1.00000031812
0.999999879615
0.999999951646
0.273719266107
0
1.00000088302
1.00000099588
1.00000083468
1.000000684
1.00000035606
1.00000008511
0.999999999996
0.999999978731
0.796346707832
0.0708263193186
1.00000075866
1.00000088821
1.00000079321
1.00000048454
1.0000001608
0.99999987328
0.999999978731
0.993919469686
0.301443339143
0
)
;

boundaryField
{
    back
    {
        type            zeroGradient;
    }
    sides
    {
        type            zeroGradient;
    }
    bottom
    {
        type            zeroGradient;
    }
    front
    {
        type            zeroGradient;
    }
    atmosphere
    {
        type            inletOutlet;
        inletValue      uniform 0;
        value           nonuniform List<scalar> 
16
(
0
0
0
0
0
0
0
0
0
0
0.00480870678279
0
0
0
0.0708263193186
0
)
;
    }
    floatingObject
    {
        type            zeroGradient;
    }
    procBoundary5to0
    {
        type            processor;
        value           nonuniform List<scalar> 
12
(
1.00000042887
1.00000050096
1.0000005829
1.00000064252
1.00000061353
1.00000031305
1.00000000001
0.999999999803
0.999999717753
0.668873568017
0.0140850099955
-1.73632418927e-20
)
;
    }
    procBoundary5to3
    {
        type            processor;
        value           nonuniform List<scalar> 10(1.00000064098 1.00000078608 1.00000063954 1.00000034025 0.999999790113 0.999999223126 0.999999775547 0.999999766959 0.295198672824 0);
    }
    procBoundary5to4
    {
        type            processor;
        value           nonuniform List<scalar> 
18
(
1.00000042525
1.0000003069
1.00000041083
1.00000049246
1.00000049246
1.00000038936
1.00000028716
1.0000002144
1.00000019607
1.00000024064
1.00000034345
1.00000048559
1.00000063511
1.00000075246
1.00000079868
1.0000007228
1.00000064909
1.00000043615
)
;
    }
}


// ************************************************************************* //
