/*--------------------------------*- C++ -*----------------------------------*\
| =========                 |                                                 |
| \\      /  F ield         | OpenFOAM: The Open Source CFD Toolbox           |
|  \\    /   O peration     | Version:  v2012                                 |
|   \\  /    A nd           | Website:  www.openfoam.com                      |
|    \\/     M anipulation  |                                                 |
\*---------------------------------------------------------------------------*/
FoamFile
{
    version     2.0;
    format      ascii;
    class       surfaceScalarField;
    location    "1.8";
    object      alphaPhi0.water;
}
// * * * * * * * * * * * * * * * * * * * * * * * * * * * * * * * * * * * * * //

dimensions      [0 3 -1 0 0 0 0];
oriented        oriented;


internalField   nonuniform List<scalar> 
3840
(
2.10033419094e-05
-2.1003327917e-05
3.77621730322e-05
-1.67588125129e-05
5.42641261916e-05
-1.65019269934e-05
7.15632546487e-05
-1.72990905747e-05
8.97783584103e-05
-1.82150497964e-05
0.000108917552915
-1.91390809815e-05
0.00012906678586
-2.01490502469e-05
0.000150353537039
-2.12865258598e-05
0.000172925588078
-2.25717216833e-05
0.000196938537206
-2.40127382855e-05
0.000222542101097
-2.56033913151e-05
0.000249916808161
-2.73745506694e-05
0.000279505280115
-2.95882977025e-05
0.000311754959685
-3.22494295261e-05
0.000343549942833
-3.17949521685e-05
0.000363936108765
-2.03861259992e-05
0.000230733626889
-1.80194136182e-05
1.07440413158e-06
-2.27933374368e-05
9.23708655684e-07
-8.17618252518e-07
-4.8313192633e-07
1.63061694382e-05
-3.73094818863e-05
3.27784077651e-05
-3.32310303691e-05
4.93015263124e-05
-3.30250160319e-05
6.59929661874e-05
-3.39904877979e-05
8.31347114015e-05
-3.53567345635e-05
0.000101012521694
-3.70167751445e-05
0.000119812639996
-3.89489763864e-05
0.000139708256226
-4.11818964005e-05
0.000160873217307
-4.37363104858e-05
0.000183484938805
-4.66241982655e-05
0.000207729241925
-4.98475002376e-05
0.000233769955
-5.34151003672e-05
0.000261620837219
-5.74389478829e-05
0.000291160320565
-6.17887162985e-05
0.000325115715052
-6.57503151352e-05
0.000368469313128
-6.37397470471e-05
0.000239195305071
-5.68440834148e-05
1.39387290911e-06
-2.85397781006e-05
7.70737899363e-07
-1.01294423134e-06
-6.83031883016e-07
1.51267859525e-05
-5.24362547212e-05
3.09329333315e-05
-4.90371597099e-05
4.67232956174e-05
-4.88153509956e-05
6.27556235756e-05
-5.00227745885e-05
7.9285419199e-05
-5.18864706143e-05
9.64938510683e-05
-5.42250932751e-05
0.000114577275646
-5.70322373066e-05
0.000133723287164
-6.03276391817e-05
0.000154123487136
-6.41360986424e-05
0.000175976559193
-6.84769902469e-05
0.000199497016709
-7.33677196429e-05
0.000224932307752
-7.88502159587e-05
0.000252521148456
-8.50275455892e-05
0.000282664929002
-9.19323169061e-05
0.000316644692713
-9.97300475958e-05
0.000357052959805
-0.000104148074984
0.000234860346064
-9.41536514879e-05
1.24745186327e-06
-4.26062000721e-05
7.14445376318e-07
-1.15628185139e-06
-6.8909900862e-07
1.48699835107e-05
-6.7306229587e-05
2.99104083725e-05
-6.40775714148e-05
4.50526335416e-05
-6.39575537712e-05
6.04829314355e-05
-6.54530361655e-05
7.64098127561e-05
-6.78132971533e-05
9.30189096097e-05
-7.0834102191e-05
0.000110489377981
-7.45025419476e-05
0.000129004054299
-7.88420815412e-05
0.000148750623521
-8.38821920006e-05
0.000169926401623
-8.96523053851e-05
0.000192743064049
-9.61841040567e-05
0.000217430130358
-0.000103537093727
0.000244226977746
-0.000111824131853
0.000273441775898
-0.00012114695614
0.000305610010282
-0.000131898247354
0.000342487944984
-0.000141026091272
0.000228868673529
-0.000131104049714
1.14143661012e-06
-5.8137669341e-05
5.90927868809e-07
-1.13511870825e-06
-6.23202394889e-07
1.46067737668e-05
-8.19130001106e-05
2.88849227554e-05
-7.83557131176e-05
4.33231002451e-05
-7.83957148205e-05
5.80868848581e-05
-8.02167903215e-05
7.33025282081e-05
-8.30288913543e-05
8.9225417664e-05
-8.67569154015e-05
0.000105995377681
-9.1272377258e-05
0.000123783750587
-9.66302362585e-05
0.000142775546157
-0.000102873658703
0.000163167161616
-0.000110043471592
0.00018516580782
-0.000118182244996
0.000208994356024
-0.00012736541121
0.000234892311168
-0.000137721827955
0.000263219065641
-0.00014947356255
0.000294434237444
-0.000163113381267
0.000329322604601
-0.000175914424668
0.000223934206697
-0.000165963542371
8.78281253398e-07
-7.43386170303e-05
4.61557542877e-07
-1.11067360621e-06
-5.25715701439e-07
1.40716539943e-05
-9.59846566713e-05
2.75895187643e-05
-9.187357689e-05
4.12212588371e-05
-9.20274448583e-05
5.51755065046e-05
-9.41710137709e-05
6.96701509478e-05
-9.75234924618e-05
8.47221438742e-05
-0.000101808838839
0.000100638061877
-0.000107188187232
0.000117535409141
-0.000113527387705
0.000135596860922
-0.00012093481434
0.000155020105291
-0.000129466432353
0.000176016151987
-0.000139177850181
0.000198821825474
-0.000150170839389
0.000223734352449
-0.000162634077125
0.000250838638679
-0.000176577708235
0.000281124047435
-0.000193398750833
0.000314230225059
-0.000209020564592
0.000218718661078
-0.000199501995975
6.52382525316e-07
-9.09130536723e-05
3.05163350804e-07
-1.03670879828e-06
-4.10352132693e-07
1.33066284428e-05
-0.000109291293681
2.60313375402e-05
-0.000104598291503
3.87620651793e-05
-0.00010475816919
5.17922865164e-05
-0.000107201217744
6.53116400166e-05
-0.000111042809187
7.94655219273e-05
-0.00011596265834
9.43335812642e-05
-0.000122056148157
0.000110161594601
-0.000129355226178
0.000127099383168
-0.000137872330602
0.000145346163016
-0.000147712955595
0.000165115192754
-0.000158946470503
0.000186642316262
-0.000171697724327
0.000210201313535
-0.000186192772687
0.000236174763733
-0.000202551016774
0.000265174189538
-0.000222398141749
0.000296725167959
-0.000240571504478
0.000212360445708
-0.00023220040934
4.46718952769e-07
-0.000107781473532
2.11268128019e-07
-9.30278604084e-07
-2.96210560585e-07
1.24150816159e-05
-0.000121706389983
2.41748004778e-05
-0.000116358022556
3.59195380621e-05
-0.000116502910545
4.79274628278e-05
-0.000119209132672
6.0382270571e-05
-0.000123497588442
7.34194758843e-05
-0.000128999809996
8.70980898596e-05
-0.000135734675622
0.000101691558662
-0.000143948536136
0.00011730875725
-0.000153489324457
0.000134162556808
-0.000164566505093
0.000152467463655
-0.000177250990544
0.000172482125608
-0.000191712179732
0.0001944538321
-0.000208164050915
0.000218842939978
-0.000226939987382
0.000246080750839
-0.000249635911839
0.000276234610792
-0.000270725329586
0.000203937799731
-0.000264196665818
-4.39080973016e-08
-0.000125138873725
8.78268154575e-08
-7.66113740692e-07
-1.65576934497e-07
1.13845263007e-05
-0.000133090937229
2.21096750049e-05
-0.000127083190377
3.26897631618e-05
-0.000127083009979
4.36209529299e-05
-0.000130140321036
5.49175290076e-05
-0.000134794145672
6.6736501936e-05
-0.000140818741506
7.9096878553e-05
-0.000148094980394
9.22190603397e-05
-0.000157070586451
0.000106289925367
-0.000167560009568
0.000121533770668
-0.000179810138624
0.00013811180604
-0.000193828657111
0.000156289569437
-0.000209889697529
0.000176379443438
-0.000228253745449
0.000198816428991
-0.000249376710175
0.00022403399039
-0.000274853424577
0.000252335211958
-0.000299026520797
0.000192701311946
-0.000295428059056
-4.06726030745e-07
-0.00014276257869
-5.7636508871e-08
-5.8156475396e-07
-4.24982189144e-08
1.02479165831e-05
-0.000143338881219
1.98029436394e-05
-0.000136638243812
2.92851075906e-05
-0.000136565193375
3.8895690627e-05
-0.000139750912143
4.88502211117e-05
-0.000144748669028
5.92253135404e-05
-0.000151193806629
7.0218189822e-05
-0.000159087804191
8.18063228581e-05
-0.00016865861465
9.42563723335e-05
-0.000180009924689
0.000107582121822
-0.000193135717884
0.000122155246498
-0.000208401472761
0.00013820837055
-0.000225942426092
0.000156065347275
-0.000246110593327
0.000176121771701
-0.000269433003483
0.000198885713908
-0.000297617513833
0.000224767584815
-0.00032490835881
0.00017791721032
-0.000325570262616
-6.15021099998e-08
-0.000160340903212
-7.37643335594e-08
-4.13445408489e-07
-1.1192087333e-08
9.03431421848e-06
-0.0001523732295
1.73410660683e-05
-0.000144945029664
2.55247055264e-05
-0.000144748861143
3.38476267106e-05
-0.000148073852188
4.24146975265e-05
-0.000153315746045
5.1319288562e-05
-0.000160098387903
6.06810342752e-05
-0.000168449519217
7.04815559048e-05
-0.000178459066897
8.09987762859e-05
-0.000190527049709
9.23992971078e-05
-0.000204536120689
0.000104762493079
-0.000220764357046
0.000118332734058
-0.000239512507586
0.000133570900736
-0.000261348631928
0.000150776611231
-0.000286638588352
0.000170629729778
-0.000317470767805
0.00019375640139
-0.000348034991862
0.000159496330706
-0.00035456331464
2.00562608204e-07
-0.000177621491179
-1.84950956256e-08
-2.27350953989e-07
-2.21770939224e-09
7.74393763685e-06
-0.000160117207846
1.47668829454e-05
-0.000151968016675
2.16262765044e-05
-0.00015160829232
2.85308083454e-05
-0.000154978414482
3.56226858363e-05
-0.000160407644617
4.29599346971e-05
-0.000167435645245
5.06293086616e-05
-0.000176118886391
5.85715478891e-05
-0.000186401269955
6.70876891317e-05
-0.000199043145234
7.61627173055e-05
-0.00021361108242
8.60504009772e-05
-0.000230651856092
9.70194112623e-05
-0.000250481278409
0.00010906468897
-0.000273393784055
0.000122854222326
-0.000300427997459
0.000139279662598
-0.000333896399036
0.00015888483723
-0.000367640124881
0.000136581274231
-0.000381944097969
8.99615933988e-08
-0.000194006761872
-3.15351640478e-09
-1.02500163882e-07
-6.87115693759e-11
6.42375413839e-06
-0.000166541008828
1.21026938046e-05
-0.000157647005212
1.75544390422e-05
-0.000157060084104
2.30267574121e-05
-0.000160450774672
2.85865265155e-05
-0.000165967448806
3.42709206091e-05
-0.00017312006583
4.01144662799e-05
-0.000181962447861
4.62850371196e-05
-0.000192571843675
5.25070900033e-05
-0.00020526520948
5.91383043881e-05
-0.000220242289449
6.63252893649e-05
-0.000237838801218
7.40835482113e-05
-0.000258239541444
8.28679265516e-05
-0.000282177995782
9.30428197611e-05
-0.000310602828086
0.000105100996234
-0.000345954631608
0.000120251247079
-0.000382790342514
0.000108753565717
-0.000406899254476
5.4335666003e-08
-0.000208988937478
-6.46737695639e-10
-4.36569962343e-08
-1.58083751053e-11
5.0767439096e-06
-0.000171617804574
9.35433723028e-06
-0.000161924653167
1.34683772012e-05
-0.000161174177832
1.74561502101e-05
-0.000164438598483
2.14334667822e-05
-0.00016994481269
2.54274151091e-05
-0.000177114060859
2.94309232279e-05
-0.000185966006728
3.34940765035e-05
-0.000196635034778
3.75388771022e-05
-0.00020931004094
4.17366355553e-05
-0.000224440101584
4.5910767894e-05
-0.000242012971179
5.03693787301e-05
-0.000262698181852
5.53103079748e-05
-0.000287119003226
6.1017472378e-05
-0.000316310059873
6.80373689446e-05
-0.000352974559444
7.81737318628e-05
-0.000392926680399
7.56983919271e-05
-0.000427363475184
6.19748196913e-07
-0.000221714535743
1.62516442101e-11
-1.52763312262e-07
6.12313777584e-14
3.6836419969e-06
-0.000175301504316
6.69557514413e-06
-0.000164936647244
9.31407125787e-06
-0.000163792732862
1.18649972252e-05
-0.000166989582823
1.42949144792e-05
-0.000172374803614
1.65752185796e-05
-0.000179394442128
1.87314950601e-05
-0.000188122348078
2.07270536805e-05
-0.000198630663065
2.24612542121e-05
-0.000211044303307
2.39308548129e-05
-0.000225909762151
2.51748400967e-05
-0.000243257037715
2.61477946049e-05
-0.000263671137198
2.68515276405e-05
-0.000287822685741
2.76452011654e-05
-0.000317103442748
2.90326235458e-05
-0.000354361950121
3.33037049669e-05
-0.000397197739389
3.69481438489e-05
-0.000440693588263
9.60387938944e-07
-0.000230442086422
-1.23072055343e-13
8.53047126916e-09
-6.04558761518e-14
2.34037927225e-06
-0.000177641957482
4.00614225718e-06
-0.000166602483195
5.18502848116e-06
-0.000164971686938
6.32222255558e-06
-0.000168126867224
7.22608643536e-06
-0.000173278755914
7.88461820598e-06
-0.00018005305953
8.20042315145e-06
-0.000188438232411
8.14887337556e-06
-0.000198579222814
7.67895697944e-06
-0.000210574444154
6.48641654766e-06
-0.000224717252271
4.64194264798e-06
-0.000241412610423
1.90041725273e-06
-0.000260929529368
-1.84960459671e-06
-0.000284072383273
-6.67159224162e-06
-0.000312281378859
-1.25563581122e-05
-0.000348477130203
-1.49391165147e-05
-0.000394814953497
-1.25112070601e-05
-0.00044242228473
7.36413003873e-08
-0.000235596460206
-1.14062821898e-12
-6.13629167711e-11
-3.20434624039e-13
1.00259603851e-06
-0.000178644643341
1.51254545663e-06
-0.000167112519628
1.20683478554e-06
-0.000164666076277
9.37458127385e-07
-0.000167857594743
3.81218968547e-07
-0.000172722615928
-5.28602670487e-07
-0.000179143363881
-1.90824941316e-06
-0.000187058660806
-3.88229787873e-06
-0.000196605240003
-6.52807965291e-06
-0.0002079287087
-1.01364298138e-05
-0.000221108950794
-1.49229141085e-05
-0.000236626186539
-2.11692331192e-05
-0.000254683225425
-2.94733609986e-05
-0.000275768215546
-4.04462317299e-05
-0.000301308431884
-5.50696401183e-05
-0.000333853586941
-7.26697617219e-05
-0.000377214796535
-7.92345903182e-05
-0.000430306203384
-7.50368896714e-13
-0.000248229864707
-3.11235686158e-12
-5.59951638371e-11
5.22037282334e-13
-2.2436100226e-07
-0.000178420394121
-1.15707892212e-06
-0.000166179921486
-2.38134945063e-06
-0.000163441936754
-4.09897035913e-06
-0.00016614007167
-6.07709961071e-06
-0.000170744612547
-8.50274116819e-06
-0.000176717817897
-1.14685928807e-05
-0.000184092848334
-1.51849000981e-05
-0.000192888928647
-1.98411368603e-05
-0.000203272456728
-2.55788280101e-05
-0.000215371225865
-3.29872314365e-05
-0.000229217728105
-4.22447323659e-05
-0.000245425734697
-5.41909409466e-05
-0.000263822057757
-6.98691614013e-05
-0.000285630174604
-9.11363612665e-05
-0.000312586320793
-0.000119484227362
-0.000348866867966
-0.000136330949667
-0.000404765112482
-1.6114374103e-08
-0.000264710707641
-1.54627009385e-08
1.26921460935e-10
-3.36173097198e-22
-1.27610586649e-06
-0.000177144410201
-3.4891370966e-06
-0.00016396702595
-5.88315764251e-06
-0.00016104807554
-8.76985383404e-06
-0.000163253485106
-1.206566202e-05
-0.000167448923697
-1.58880851113e-05
-0.000172895414718
-2.03199148959e-05
-0.000179661024279
-2.55749069892e-05
-0.000187633920228
-3.19291402616e-05
-0.000196918181618
-3.96368481181e-05
-0.000207663449526
-4.89587501234e-05
-0.000219895733151
-6.05863176668e-05
-0.000233798062438
-7.48747011944e-05
-0.000249533595709
-9.28407140543e-05
-0.000267664132292
-0.000115586470046
-0.000289840548249
-0.000143886872197
-0.000320566533888
-0.000162919587425
-0.000376491166361
-4.26389258501e-07
-0.000259076307225
3.33793304873e-22
6.25001677453e-08
-2.38422875086e-24
-2.38538009901e-06
-0.000174759090653
-5.60222983822e-06
-0.000160750248369
-9.18363377214e-06
-0.000157466796174
-1.32030775448e-05
-0.000159234140792
-1.76279114369e-05
-0.00016302412208
-2.25630360922e-05
-0.000167960308141
-2.82946457973e-05
-0.000173929413185
-3.49073460551e-05
-0.000181021190212
-4.26783874845e-05
-0.000189147076778
-5.18718674205e-05
-0.00019846987297
-6.28583659909e-05
-0.000208909107178
-7.61284118397e-05
-0.000220527868035
-9.21761538414e-05
-0.000233485729649
-0.000111769227456
-0.00024807095615
-0.00013520603639
-0.000266403716685
-0.000163838047404
-0.000291934834944
-0.000188797949785
-0.000342139780243
1.17593731242e-06
-0.000237307762584
2.79464301674e-24
-6.71871853844e-08
4.88101260387e-25
-3.39120136316e-06
-0.000171367944223
-7.5378485878e-06
-0.000156603661651
-1.21379637972e-05
-0.000152866733471
-1.72126624728e-05
-0.000154159488903
-2.26083010248e-05
-0.000157628515056
-2.86079689938e-05
-0.000161960656545
-3.5369728216e-05
-0.000167167645515
-4.30172299155e-05
-0.000173373646313
-5.20508420538e-05
-0.000180113383253
-6.23360308418e-05
-0.000188184563355
-7.44957235625e-05
-0.000196749257376
-8.89438208115e-05
-0.000206079585648
-0.000106297971696
-0.00021613137977
-0.000126869824222
-0.000227498965207
-0.000151707320505
-0.000241566684308
-0.000182368491087
-0.000261273864312
-0.000213614667261
-0.000301388465645
-1.36177352007e-06
-0.00020722617112
7.34040896825e-24
9.54824495573e-09
1.07001137731e-23
-4.32309383215e-06
-0.000167044907755
-9.40098367789e-06
-0.000151525831563
-1.48358723939e-05
-0.000147431897206
-2.05999862709e-05
-0.000148395422913
-2.69491474752e-05
-0.000151279389881
-3.38222510601e-05
-0.000155087571334
-4.16016385021e-05
-0.000159388248566
-5.01778871343e-05
-0.000164797350603
-5.97306245452e-05
-0.000170560554685
-7.09338435175e-05
-0.000176981207456
-8.39108532469e-05
-0.000183772068558
-9.89616609586e-05
-0.000191028565189
-0.000117030069004
-0.000198062733224
-0.000138259305513
-0.000206269541967
-0.000163816783198
-0.000216009733682
-0.000196199403354
-0.000228891017493
-0.000231481887738
-0.000256611325369
-2.90284482249e-06
-0.000172505267598
4.9645006247e-22
2.86704891625e-08
6.27864784524e-22
-5.10050367339e-06
-0.000161944475068
-1.09388225173e-05
-0.000145687584242
-1.71539126532e-05
-0.000141216874913
-2.37475845076e-05
-0.000141801815951
-3.08166560652e-05
-0.000144210373732
-3.84741902058e-05
-0.000147430074174
-4.66644215771e-05
-0.00015119802331
-5.59318217937e-05
-0.000155529912697
-6.61850964765e-05
-0.000160307186948
-7.78629601769e-05
-0.000165303188922
-9.11060939771e-05
-0.00017052872074
-0.000106532184748
-0.000175602212284
-0.000124320527678
-0.000180274079863
-0.000145587835458
-0.000185002003738
-0.000171282432975
-0.000190315037788
-0.000203384854953
-0.000196788465892
-0.000240122968251
-0.000210626047977
-3.46229560261e-06
-0.000136148346545
4.88299158076e-20
2.41943117732e-08
5.49290690687e-20
-5.79609501995e-06
-0.000156148465425
-1.23647218691e-05
-0.000139119047872
-1.91773354036e-05
-0.000134404354124
-2.63979164225e-05
-0.000134581328336
-3.40576980463e-05
-0.00013655067801
-4.22339275462e-05
-0.000139253910467
-5.10006394959e-05
-0.000142431340371
-6.07280295643e-05
-0.000145802490531
-7.12816926367e-05
-0.000149753417264
-8.29982487032e-05
-0.000153586436824
-9.62164092026e-05
-0.0001573102807
-0.000111221325776
-0.000160596954048
-0.000128551790395
-0.000162943233632
-0.000148742087938
-0.000164811279298
-0.00017300282937
-0.000166054204939
-0.000203514728304
-0.000166276501621
-0.000238816668838
-0.000167054310593
-3.63622092744e-06
-0.000101211786871
6.22068674821e-18
1.20392224182e-08
6.46358333668e-18
-6.45629853632e-06
-0.000149692265852
-1.34013433708e-05
-0.00013217411304
-2.08541594154e-05
-0.000126951655908
-2.86339284954e-05
-0.000126801681152
-3.67896130265e-05
-0.000128395110575
-4.54140793634e-05
-0.000130629542059
-5.46244195069e-05
-0.000133221051108
-6.43864041912e-05
-0.000136040495062
-7.50910365091e-05
-0.000139048693213
-8.67277778243e-05
-0.000141949480514
-9.95279532384e-05
-0.000144509801688
-0.000113760405401
-0.000146364133943
-0.000129670637294
-0.000147032594794
-0.000148066336912
-0.000146415142096
-0.000169538905598
-0.000144581602254
-0.000195999681453
-0.00013981567225
-0.000226657300415
-0.000130024551224
-4.14781113888e-06
-7.07696401667e-05
-5.67069030988e-13
2.03846688737e-08
-5.58110187806e-13
-6.94145971305e-06
-0.000142750933555
-1.44303318213e-05
-0.000124685390541
-2.22847279076e-05
-0.000119097422871
-3.04787111585e-05
-0.00011860786809
-3.90139026485e-05
-0.000119860084194
-4.79640673102e-05
-0.000121679514527
-5.74037266293e-05
-0.000123781474733
-6.73712189814e-05
-0.00012607299834
-7.79713751129e-05
-0.000128448402471
-8.92730665071e-05
-0.00013064749718
-0.00010137530106
-0.000132407150524
-0.000114389880552
-0.000133349049503
-0.000128477241417
-0.000132944678194
-0.000144034151642
-0.000130857670852
-0.000161700241124
-0.000126915463421
-0.000181877773888
-0.000119638027244
-0.000205028512604
-0.000103132893241
-1.53758761671e-06
-4.89737371165e-05
-2.71090581792e-11
7.35325934605e-08
-2.76671675914e-11
-7.31054299902e-06
-0.000135440484922
-1.5145118018e-05
-0.000116850930854
-2.34202949208e-05
-0.00011082237189
-3.19545484199e-05
-0.000110073744739
-4.08009546453e-05
-0.00011101380472
-4.99970864349e-05
-0.000112483493388
-5.96300355425e-05
-0.000114148602435
-6.96732225791e-05
-0.000116029836505
-8.01074338423e-05
-0.000118014132032
-9.0968290804e-05
-0.000119786475579
-0.00010223689431
-0.000121138323283
-0.000113853642292
-0.000121732042697
-0.000125804184061
-0.000120993839995
-0.000137640612536
-0.000119020924036
-0.000150447852706
-0.000114108168191
-0.000163741856775
-0.000106343985964
-0.000180025815873
-8.60332358441e-05
4.52952948493e-06
-4.07406929752e-05
-2.78887494936e-09
-6.14080101675e-07
-2.22860363027e-09
-7.67333154311e-06
-0.000127767271217
-1.5838031741e-05
-0.000108686371723
-2.43832140272e-05
-0.000102277342096
-3.32001787704e-05
-0.000101256936211
-4.23100620153e-05
-0.00010190407335
-5.17424414545e-05
-0.000103051244447
-6.14560595095e-05
-0.000104435082226
-7.14927191899e-05
-0.000105993217634
-8.18426038073e-05
-0.000107664159382
-9.23454179702e-05
-0.000109283446906
-0.000102805189554
-0.000110678302323
-0.000112997102048
-0.000111539919384
-0.00012254561059
-0.000111445089907
-0.000131493292526
-0.000110072985057
-0.000139173797816
-0.000106427590202
-0.000145958122163
-9.95596243318e-05
-0.00015431294049
-7.7678690354e-05
-2.70246097783e-05
-3.94204312462e-05
2.22409145357e-09
-5.35842971606e-06
-4.51219372679e-12
-8.08209852209e-06
-0.000119685323226
-1.6394249705e-05
-0.000100374397759
-2.51629986201e-05
-9.3508780571e-05
-3.4182283817e-05
-9.22378386847e-05
-4.34938078148e-05
-9.25927267369e-05
-5.309769256e-05
-9.34475106113e-05
-6.29958987616e-05
-9.45369908309e-05
-7.31473791599e-05
-9.58417937859e-05
-8.34521637512e-05
-9.73593261697e-05
-9.3719805497e-05
-9.90156777261e-05
-0.000103650092104
-0.000100747801579
-0.000112760474863
-0.000102429358473
-0.000120513751506
-0.000103691610823
-0.00012632847864
-0.000104258039678
-0.000129289767753
-0.00010346620157
-0.000130092749458
-9.87565999888e-05
-0.000131522123406
-7.62494590986e-05
-3.42261825045e-05
-3.17333349293e-05
-3.23821484085e-10
-9.83134955173e-06
-3.28324678616e-10
-8.10234007332e-06
-0.000111583168012
-1.68398869951e-05
-9.16370606947e-05
-2.56910292817e-05
-8.46578558515e-05
-3.48887849735e-05
-8.30402973971e-05
-4.43768889424e-05
-8.31048210633e-05
-5.41660618942e-05
-8.36585075522e-05
-6.42650644572e-05
-8.44381290219e-05
-7.46363862277e-05
-8.54705355357e-05
-8.50789155443e-05
-8.69167626893e-05
-9.53934602615e-05
-8.87010194593e-05
-0.000105272904053
-9.08681636232e-05
-0.000113913801279
-9.37882994061e-05
-0.000120520394083
-9.70848346689e-05
-0.000124030942862
-0.000100747278758
-0.000123246082099
-0.000104250947643
-0.000117434765369
-0.000104567798078
-0.000112972044684
-8.07121746076e-05
-3.67831179664e-05
-1.51368094429e-05
-4.26355815902e-10
-1.33697761394e-05
-7.54695534317e-10
-8.40692719683e-06
-0.000103176450798
-1.69969153841e-05
-8.30473092307e-05
-2.608804089e-05
-7.55669750546e-05
-3.53861798331e-05
-7.37423977219e-05
-4.50088378504e-05
-7.3482379186e-05
-5.50014578385e-05
-7.36660829336e-05
-6.53302405578e-05
-7.41094924923e-05
-7.59434163351e-05
-7.48574334131e-05
-8.68105661303e-05
-7.60495770113e-05
-9.76104076887e-05
-7.79010611635e-05
-0.000108092151417
-8.0386224247e-05
-0.000117180523919
-8.46997631614e-05
-0.000123909968832
-9.03552049745e-05
-0.00012662406268
-9.80329566134e-05
-0.000123443660104
-0.000107431218205
-0.000111414971766
-0.000116596364095
-9.63784530745e-05
-9.57486371715e-05
-3.80447566863e-05
8.96279044833e-06
-5.0495554518e-08
-1.22341258499e-05
-5.08441566729e-10
-8.45712575559e-06
-9.47195627173e-05
-1.71970393456e-05
-7.43076620429e-05
-2.6197452701e-05
-6.65668330933e-05
-3.55423501889e-05
-6.43977602239e-05
-4.52538230754e-05
-6.37711535695e-05
-5.54463209097e-05
-6.34737871194e-05
-6.60740014156e-05
-6.34819562212e-05
-7.71458749497e-05
-6.37856125815e-05
-8.87203433732e-05
-6.44750632454e-05
-0.000100493493548
-6.61277690915e-05
-0.000111872890685
-6.90066009226e-05
-0.000122598407003
-7.39740607645e-05
-0.000131174795378
-8.17786079525e-05
-0.000135104064674
-9.41034138166e-05
-0.000131065523809
-0.000111469600432
-0.000111629174823
-0.00013603258713
-8.06251105758e-05
-0.000126752591463
-3.56437789152e-05
3.44400289114e-05
-4.21109562905e-09
-5.72193171233e-06
-4.71953719592e-09
-8.49460665687e-06
-8.62252279551e-05
-1.70875852337e-05
-6.57149838499e-05
-2.60897951538e-05
-5.75649254233e-05
-3.54043384194e-05
-5.50835069021e-05
-4.5172822664e-05
-5.40029278224e-05
-5.54148513239e-05
-5.32319603393e-05
-6.62742294748e-05
-5.26227109641e-05
-7.78132219619e-05
-5.2246660921e-05
-9.03888655585e-05
-5.18993414021e-05
-0.000103375369433
-5.31410760795e-05
-0.000116918545495
-5.54631349089e-05
-0.000130428600469
-6.04637756156e-05
-0.000143422666458
-6.87842887072e-05
-0.000151514002476
-8.60117261124e-05
-0.000151041550304
-0.00011194188154
-0.000128779692436
-0.00015829421603
-9.38953544715e-05
-0.000161636678692
-3.10605743418e-05
3.04058689054e-05
-4.10276076792e-08
3.34160245501e-06
-4.57471448751e-08
-8.39769356452e-06
-7.78278241168e-05
-1.69068074443e-05
-5.72061871271e-05
-2.56045332388e-05
-4.88675215577e-05
-3.47651475871e-05
-4.59231929594e-05
-4.44507681298e-05
-4.43175549916e-05
-5.48158427659e-05
-4.28670620934e-05
-6.59562667022e-05
-4.14824082743e-05
-7.81201142144e-05
-4.00828511044e-05
-9.11370994983e-05
-3.88822209638e-05
-0.000105781657932
-3.84962629723e-05
-0.000122344581371
-3.88998264896e-05
-0.000141004941288
-4.18031208589e-05
-0.000160935609577
-4.8853303019e-05
-0.000184035216542
-6.29116495097e-05
-0.000210610581565
-8.53665587111e-05
-0.000231735685078
-0.00013716912455
-0.000242259929848
-0.000151112065343
-5.55790044358e-05
-6.5548104052e-05
-2.41508251424e-07
-1.52893648943e-05
-7.9358192991e-08
-8.20463565079e-06
-6.96235072889e-05
-1.63779171411e-05
-4.90332488238e-05
-2.48456420392e-05
-4.04001302067e-05
-3.36931837387e-05
-3.70759581851e-05
-4.3164705792e-05
-3.4846274312e-05
-5.32385133494e-05
-3.27934834642e-05
-6.44350961425e-05
-3.02859474103e-05
-7.69182782244e-05
-2.75996788382e-05
-9.09566839106e-05
-2.48436209073e-05
-0.000107170940853
-2.22816747894e-05
-0.000125647355013
-2.0422909368e-05
-0.000147291909036
-2.01581898371e-05
-0.000173067144716
-2.30776700181e-05
-0.000200401709219
-3.5576503386e-05
-0.000233672441925
-5.20965977986e-05
-0.000267451086725
-0.000103390444769
-0.000323872621883
-9.4689280761e-05
-0.000147236956119
-2.01323403036e-05
-1.3241074135e-06
-3.93070106363e-05
-3.50609920236e-07
-7.98183516657e-06
-6.1641981204e-05
-1.57220978738e-05
-4.1293347889e-05
-2.36422211853e-05
-3.2480364348e-05
-3.19711947555e-05
-2.87473041407e-05
-4.11637967902e-05
-2.56539617128e-05
-5.08956487834e-05
-2.30618431023e-05
-6.16694379312e-05
-1.95122953332e-05
-7.40725871077e-05
-1.51965058461e-05
-8.84301974802e-05
-1.04857542878e-05
-0.000105643966543
-5.06749335264e-06
-0.000127079333779
1.01308930746e-06
-0.00015524628854
8.0092368401e-06
-0.000195294556621
1.69711473203e-05
-0.000261009094052
3.01401343382e-05
-0.000368784998793
5.5679387951e-05
-0.000570196985386
9.80215390227e-05
-0.00084799007876
0.000183108696918
-0.000512460681476
0.000221673821367
-1.34822515901e-05
-2.26642595481e-05
9.14968156249e-10
-7.41784994674e-06
-5.4224487114e-05
-1.47776836626e-05
-3.39339044432e-05
-2.21121602246e-05
-2.5146256672e-05
-2.99185069583e-05
-2.09412646841e-05
-3.80152891615e-05
-1.75574833525e-05
-4.72445309621e-05
-1.38328484023e-05
-5.74793304422e-05
-9.27762693062e-06
-6.90889952319e-05
-3.58678367147e-06
-8.28538653819e-05
3.27943181227e-06
-9.94107988032e-05
1.14899295543e-05
-0.000119875631711
2.14786813317e-05
-0.000145790332142
3.39245076234e-05
-0.000178313951632
4.94953713336e-05
-0.000222977271538
7.48043347257e-05
-0.000276764908536
0.000109466875503
-0.000345795952366
0.000167052992252
-0.000387375367642
0.000224689218223
-0.000185633921214
0.000211301534198
5.25950111927e-08
-1.40057353785e-05
5.35099791052e-08
-7.05519102072e-06
-4.71696773439e-05
-1.34866683322e-05
-2.75028032737e-05
-2.01367873982e-05
-1.8496529294e-05
-2.70231060463e-05
-1.40553207803e-05
-3.44661838606e-05
-1.01147398082e-05
-4.25284159864e-05
-5.77086777035e-06
-5.16238062578e-05
-1.82355157185e-07
-6.20674024813e-05
6.85690193387e-06
-7.43368180532e-05
1.55492282275e-05
-8.91775777515e-05
2.63312661498e-05
-0.000107062080448
3.93640777348e-05
-0.000128453212744
5.53163192323e-05
-0.000152606088037
7.36489603787e-05
-0.00017577744836
9.7976448174e-05
-0.000192122368122
0.000125812819466
-0.000167529341368
0.000142460212511
-0.000118133217858
0.000175291560971
2.08516503023e-05
7.53458722608e-05
-4.44924777299e-08
0.000173386521203
9.01750137533e-09
-6.46475731719e-06
-4.0705303785e-05
-1.2199647605e-05
-2.17683386962e-05
-1.77826755696e-05
-1.29139216707e-05
-2.37232731895e-05
-8.11511787443e-06
-2.99282225365e-05
-3.91011700271e-06
-3.67586898176e-05
1.05937305757e-06
-4.43788211073e-05
7.43768891995e-06
-5.31270005215e-05
1.56052254389e-05
-6.35173279656e-05
2.59400678049e-05
-7.59410257737e-05
3.87557306488e-05
-9.09129617825e-05
5.43371975148e-05
-0.000108566226907
7.29705749118e-05
-0.00012970813256
9.47919099313e-05
-0.000148382395813
0.000116651799281
-0.000166534686043
0.000143966211919
-0.000168297855627
0.000144223160299
-0.00013664322062
0.000143639600318
-6.02807221521e-05
3.01773849175e-05
-4.98201446871e-09
0.000297050240636
4.03548690662e-09
-5.81119369217e-06
-3.489461135e-05
-1.06524890673e-05
-1.6927549041e-05
-1.53231488046e-05
-8.24376716096e-06
-1.99669105006e-05
-3.47185937518e-06
-2.4886200199e-05
1.00882588625e-06
-3.01617209865e-05
6.33462463794e-06
-3.59817599914e-05
1.32576060934e-05
-4.26232207768e-05
2.22470167083e-05
-5.05096758903e-05
3.38272626465e-05
-6.01927595771e-05
4.84399524294e-05
-7.22686878856e-05
6.6414853624e-05
-8.73618946585e-05
8.80652239522e-05
-0.00010655102473
0.000113982645557
-0.00013357577108
0.000143678109228
-0.000168608867018
0.000179000848141
-0.00025932277879
0.000234937942751
-0.000379528339529
0.000263846380654
-0.000595277262782
0.000245930329752
0.000425839665647
-0.000347105437232
-1.39992919661e-13