/*--------------------------------*- C++ -*----------------------------------*\
| =========                 |                                                 |
| \\      /  F ield         | OpenFOAM: The Open Source CFD Toolbox           |
|  \\    /   O peration     | Version:  v2012                                 |
|   \\  /    A nd           | Website:  www.openfoam.com                      |
|    \\/     M anipulation  |                                                 |
\*---------------------------------------------------------------------------*/
FoamFile
{
    version     2.0;
    format      ascii;
    class       volScalarField;
    location    "1.8";
    object      p_rgh;
}
// * * * * * * * * * * * * * * * * * * * * * * * * * * * * * * * * * * * * * //

dimensions      [1 -1 -2 0 0 0 0];


internalField   nonuniform List<scalar> 
1984
(
8494.15309357
8493.52852212
8492.22286377
8490.22935535
8487.54229095
8484.13996838
8479.98687199
8475.04246624
8469.25620663
8462.56731184
8454.90349653
8446.18021149
8436.30212316
8425.18423642
8412.76244499
8399.06756666
7774.94701381
1777.23533217
0.779292097189
0.296012266789
8494.74632554
8494.12812616
8492.83417611
8490.8533632
8488.18615871
8484.81042118
8480.69146037
8475.78975595
8470.05521141
8463.42866882
8455.83777759
8447.19551183
8437.39552997
8426.31403181
8413.79701184
8399.64241713
7691.26924632
1819.37666982
0.537355456071
0.123465491475
8495.99572223
8495.38562433
8494.1135258
8492.16510049
8489.54256373
8486.22486954
8482.17942536
8477.36820674
8471.74459007
8465.2499349
8457.81569591
8449.35560284
8439.76438036
8428.92383086
8416.68843822
8402.93421926
7729.75468777
1863.22674846
0.47696513965
0.0453506655116
8497.88428307
8497.2916862
8496.05092512
8494.1507715
8491.59533505
8488.36474165
8484.42869435
8479.75315336
8474.29318147
8467.99751453
8460.80018058
8452.62196374
8443.36502789
8432.92337993
8421.1562088
8407.95517253
7768.84900819
1922.80177858
0.440006002511
0.0115449912661
8500.38442164
8499.81124374
8498.61109404
8496.7731203
8494.30411233
8491.18630592
8487.39239982
8482.89201329
8477.64692598
8471.6088849
8464.72215166
8456.91659416
8448.104406
8438.19575679
8427.06073253
8414.62718611
7826.12888717
2009.79245536
0.403369368986
-0.00156755274539
8503.47742891
8502.92655151
8501.77475348
8500.01161829
8497.64613249
8494.66292031
8491.03921603
8486.74915279
8481.76079286
8476.03499027
8469.52259677
8462.16726344
8453.89485392
8444.63408663
8434.27200318
8422.77411974
7892.51679894
2118.46385979
0.373345187857
-0.0167477193133
8507.14094239
8506.61513891
8505.51806648
8503.84016383
8501.59208218
8498.76161814
8495.33069194
8491.27950868
8486.58313184
8481.21163725
8475.12663691
8468.28540209
8460.6293976
8452.1089511
8442.62495067
8432.18508482
7965.05234171
2248.40277528
0.328360685914
-0.0219208248243
8511.34942146
8510.85053084
8509.81321668
8508.2281043
8506.10790982
8503.44369765
8500.22260996
8496.43163283
8492.0535544
8487.06804926
8481.44923754
8475.16942301
8468.18686813
8460.47255335
8451.94351951
8442.65555474
8041.78042164
2397.59312872
0.169663929701
-0.02735397446
8516.07456901
8515.60395038
8514.62939775
8513.14191041
8511.15616794
8508.66690614
8505.6668591
8502.14939143
8498.10571384
8493.52594083
8488.39707253
8482.70786728
8476.4349206
8469.56937356
8462.05007971
8453.97024411
8120.65213412
2565.16401528
-0.0339632333422
-0.0427904758057
8521.28654894
8520.84455008
8519.93479449
8518.54613217
8516.69784107
8514.38725161
8511.61254198
8508.37354018
8504.66990161
8500.50263236
8495.87190689
8490.78293104
8485.23285494
8479.23308594
8472.74917843
8465.90337926
8198.98622642
2749.50299504
-0.0422902667192
-0.00576648921644
8526.95506309
8526.54096462
8525.69547764
8524.40550663
8522.69344761
8520.55988625
8518.00795253
8515.0437582
8511.67507447
8507.91350117
8503.77284983
8499.27353115
8494.43495811
8489.29017261
8483.83801327
8478.21559469
8273.37216114
2948.65512512
0.0397406772156
-0.0256362610725
8533.04933633
8532.66225234
8531.87862434
8530.68379773
8529.1036428
8527.14059793
8524.80236593
8522.10082161
8519.05195008
8515.67640828
8511.99989155
8508.06006209
8503.8961989
8499.56524299
8495.10667338
8490.66489773
8341.35385479
3161.52097135
0.0632641699918
-0.020837815528
8539.53959089
8539.17686865
8538.45164122
8537.34680127
8535.89076922
8534.08739596
8531.94834169
8529.49044609
8526.73602384
8523.71356404
8520.45987005
8517.02725897
8513.47387824
8509.88263705
8506.33067968
8502.98733488
8399.44353251
3385.26707595
0.0510803643461
-0.0124709212355
8546.39771567
8546.05602703
8545.38587714
8544.36213565
8543.01966024
8541.36198254
8539.4031618
8537.16329753
8534.66911768
8531.95602785
8529.06940499
8526.07096626
8523.03667567
8520.06826494
8517.28536788
8514.87284908
8442.45009205
3615.3766742
0.57129911391
-0.0059758480776
8553.59893184
8553.27545677
8552.65493384
8551.7002113
8550.45875229
8548.93054796
8547.12984862
8545.07756679
8542.8034907
8540.34748427
8537.75960732
8535.10731623
8532.47438117
8529.97905233
8527.75752298
8525.99197059
8463.38440351
3842.03986469
2.93193070016
-0.00129159877664
8561.12026688
8560.81118787
8560.24266842
8559.32810199
8558.17997126
8556.76562022
8555.09852279
8553.20116498
8551.10374734
8548.84554963
8546.48332163
8544.08015547
8541.71522394
8539.53272539
8537.65449837
8536.19007594
8465.93976201
4050.10507069
-0.000249548790787
0.0035412376874
8568.93761532
8568.63878883
8568.1569875
8567.19255206
8566.16090272
8564.84719792
8563.28943958
8561.51328021
8559.54555188
8557.42587806
8555.20458934
8552.94627992
8550.73633929
8548.69824723
8546.95870363
8545.60798519
8491.82898752
4204.11567808
-0.029835472903
0.0177051483634
8577.02560315
8576.69068415
8576.2461396
8575.42115579
8574.412209
8573.16696455
8571.69104759
8570.002033
8568.12271536
8566.08485786
8563.93030632
8561.71889178
8559.52699859
8557.46057777
8555.63666075
8554.16862612
8519.29842018
4337.60319837
-0.0381436477733
0.0107953594645
8585.34779905
8585.04158068
8584.60170114
8583.85688907
8582.89681374
8581.70883159
8580.2969183
8578.67003852
8576.84260393
8574.83642338
8572.68298443
8570.42577316
8568.12829699
8565.87541903
8563.77056184
8561.97499797
8541.87329246
4463.99436501
-0.0213789966114
0.00606525185554
8593.91359632
8593.63438765
8593.20651548
8592.51624935
8591.60538734
8590.47016567
8589.11005746
8587.52696906
8585.72545633
8583.7145158
8581.50964458
8579.13518462
8576.62961573
8574.0506022
8571.47526167
8569.03374447
8553.75624401
4562.17483678
-0.018041336142
0.0162931104889
8602.70929958
8602.45118666
8602.04215275
8601.39652807
8600.53481371
8599.45090507
8598.13862241
8596.59118164
8594.8017772
8592.76616677
8590.47869425
8587.93901977
8585.15371037
8582.14211596
8578.92742962
8575.56355433
8561.70096283
4634.42604064
-0.0074731902385
0.0248772137812
8611.7181969
8611.47798427
8611.09410121
8610.4931036
8609.68295304
8608.65412897
8607.39339908
8605.88591406
8604.11236714
8602.05032766
8599.67452404
8596.95508918
8593.85975658
8590.35759071
8586.40071717
8581.91664294
8567.89780683
4686.97487166
-0.0063392705512
0.0277808328024
8620.92259701
8620.70164045
8620.34804895
8619.79654889
8619.0463667
8618.08342504
8616.8884268
8615.43665695
8613.69744268
8611.63162292
8609.19151612
8606.31655245
8602.93453448
8598.95436748
8594.24659248
8588.58554639
8573.85515094
4733.61397952
-0.00362340748446
0.0277524634358
8630.30343984
8630.10404005
8629.78834916
8629.29551719
8628.61865222
8627.73942539
8626.63263225
8625.26550049
8623.59665201
8621.5721313
8619.12300712
8616.16077877
8612.57345805
8608.21521868
8602.86966958
8596.15267167
8580.89503819
4794.22050448
0.00121350651735
0.0245124633247
8639.83900985
8639.66785064
8639.39591439
8638.97470416
8638.38903319
8637.61737937
8636.63008446
8635.38821999
8633.84114754
8631.92345204
8629.54990119
8626.60921014
8622.95806201
8618.40806696
8612.6720833
8605.25213685
8590.42217492
4889.46368566
-0.00601428532685
0.0143939280408
8649.50620948
8649.36534052
8649.14925022
8648.8138829
8648.34048855
8647.70531972
8646.87563991
8645.80838238
8644.44743661
8642.71912558
8640.529022
8637.75174805
8634.22624658
8629.74309945
8623.99137236
8616.43935223
8603.67516991
5044.02507732
-0.0311410754207
-0.00341135825592
8659.27328246
8659.16907965
8659.01910044
8658.78592011
8658.44828425
8657.98148508
8657.35166854
8656.5143427
8655.41165697
8653.96684765
8652.08274007
8649.63067162
8646.44694371
8642.32644927
8636.98397534
8629.9308987
8619.83159507
5270.53126871
0.00555143205776
-0.0208537901264
8669.10580007
8669.04277984
8668.97092105
8668.8572143
8668.67997943
8668.41502716
8668.02946516
8667.48002602
8666.71046937
8665.64674782
8664.19525123
8662.23440686
8659.60921533
8656.1324351
8651.57627183
8645.52581962
8637.20140588
5578.78939162
0.401772867833
0.00637651808991
8678.96238479
8678.94660807
8678.96391891
8678.98688363
8678.9944299
8678.96413907
8678.86607717
8678.66090562
8678.29753585
8677.70951591
8676.81272715
8675.49944262
8673.63236362
8671.04997805
8667.5697315
8662.84983677
8656.28552209
5875.79304473
86.3080466888
0.00997233925726
8688.80049282
8688.83455148
8688.95186518
8689.12726487
8689.34167452
8689.57602447
8689.80493235
8689.99555777
8690.10472322
8690.07762256
8689.84461083
8689.31794595
8688.38492884
8686.91490078
8684.75318738
8681.63661161
8677.02413169
6202.0212466
183.791042995
-0.000300943300882
8698.56786363
8698.65810132
8698.88291597
8699.22359968
8699.66354345
8700.18783991
8700.77733936
8701.40700561
8702.04467528
8702.64891924
8703.169723
8703.54639231
8703.70073188
8703.52923
8702.90135988
8701.63507033
8699.22058523
6547.15598053
286.551786407
-0.016321136702
8708.21290996
8708.36116457
8708.70002095
8709.21586332
8709.89516699
8710.72882111
8711.70417961
8712.80586827
8714.01374543
8715.30072494
8716.64070459
8718.00547811
8719.36358508
8720.65312665
8721.76230801
8722.5740557
8722.84003559
6934.33820217
390.734337686
-0.0379647462182
8717.67787999
8717.88574013
8718.34269882
8719.03962977
8719.96712385
8721.12146574
8722.49794404
8724.09191608
8725.89551255
8727.89550414
8730.08620505
8732.47313398
8735.10266325
8737.99678639
8741.01882085
8744.16880577
8747.39680196
7376.42689128
501.823536944
-0.0531220678025
8726.90403145
8727.17213789
8727.74779844
8728.62787977
8729.80626846
8731.28501064
8733.06874109
8735.16172425
8737.57015721
8740.29243702
8743.3249972
8746.68973098
8750.56470761
8755.27807109
8760.60405305
8766.80526201
8775.31986137
8076.65395
626.364908218
-0.00588625754697
8735.83224926
8736.15995662
8736.85225389
8737.91214309
8739.33777353
8741.13647532
8743.32423464
8745.9092654
8748.92758433
8752.36986696
8756.20147129
8760.343477
8765.10717152
8771.4922397
8778.1744889
8784.39485297
8790.82925237
8313.69364689
681.954256634
-0.0329022358608
8744.40382764
8744.78964855
8745.59285017
8746.82555452
8748.48946319
8750.59661854
8753.1743136
8756.21976934
8759.87828881
8764.11187523
8769.05469024
8774.91989377
8781.60371273
8788.32426068
8796.37913127
8803.74442648
8804.9617561
7461.37206579
1046.24475187
-0.335394203619
8752.56313653
8753.00440532
8753.91150066
8755.30574832
8757.18876575
8759.59386343
8762.57206854
8766.14880083
8770.25443171
8775.05356196
8780.62223271
8787.00891377
8794.13579657
8801.6008968
8809.5096973
8817.76655521
8825.89358168
8204.15728197
1464.38177825
-0.886630239315
8760.25936946
8760.75301679
8761.7536597
8763.29694765
8765.38197012
8768.11303685
8771.3908869
8775.29604709
8779.86534392
8785.17781153
8791.30573325
8798.30532303
8806.23219528
8815.09143682
8825.2640199
8837.8556243
8852.98464604
8878.10184295
1816.90013999
-2.66790519766
8767.44750632
8767.98800704
8769.07040425
8770.78264062
8773.1152051
8775.99489289
8779.52998658
8783.75401786
8788.70937742
8794.45690722
8801.07136181
8808.63613774
8817.29722966
8827.32130993
8839.09197696
8854.22166193
8872.0689689
8885.33423247
2093.16947246
-6.07721719821
8774.08292989
8774.66893384
8775.81091
8777.67713868
8780.11921122
8783.19788725
8786.96639161
8791.46616218
8796.74049009
8802.84311452
8809.84086001
8817.82369674
8826.94310165
8837.57071832
8850.18864916
8866.76495161
8888.86600201
8926.11593079
6227.33531874
338.545828758
8780.12953472
8780.77347
8782.05632529
8783.93058008
8786.4716107
8789.7033655
8793.66335553
8798.39332024
8803.92850664
8810.30717146
8817.5748114
8825.78379346
8834.96296242
8845.31799519
8856.59772973
8869.40855184
8881.19370767
8675.6262807
1900.29289995
-6.17597795078
8785.53926349
8786.21605453
8787.51252631
8789.49277999
8792.1264625
8795.47723982
8799.587426
8804.5082968
8810.25723349
8816.8570227
8824.32168398
8832.65342559
8841.75263572
8851.71309673
8861.67541128
8872.72184014
8882.08537775
8867.53334129
1900.00835161
-2.92110520155
8790.29859563
8791.00555832
8792.30805886
8794.37484297
8797.06285783
8800.48990121
8804.70233062
8809.79457792
8815.72731311
8822.52467149
8830.16972839
8838.61881535
8847.70986143
8857.87406833
8866.06856083
8877.28702296
8885.0487214
8710.17715339
1975.36846051
-1.72476800405
8794.4007727
8795.12617379
8796.39267498
8798.58776685
8801.25818291
8804.72097847
8809.00309099
8814.20095212
8820.3222405
8827.33463216
8835.20413108
8843.87598295
8853.2111839
8862.8998708
8872.18797877
8882.34255458
8890.03076298
8735.75541174
2041.72439574
-2.03572153534
8797.85155158
8798.57472406
8799.71200606
8802.11079902
8804.70599621
8808.1388488
8812.43023724
8817.7248396
8824.05798591
8831.29264644
8839.43623277
8848.44798209
8858.24582225
8868.05842013
8877.80839475
8887.84627899
8896.96232649
8907.42015226
2136.08266765
-4.73605005321
8800.67781232
8801.41587266
8802.4388254
8804.80211046
8807.30614574
8810.64067424
8814.82818445
8820.05389392
8826.63377333
8834.21818007
8842.74230839
8852.2353218
8863.0116715
8873.00195208
8883.00145478
8893.52066022
8903.60447558
8921.38534466
2469.97759583
-14.4227661898
8802.84606975
8803.52697518
8804.60933386
8806.89824412
8809.12552655
8812.30044215
8815.8365627
8821.02581925
8828.62117713
8836.3044593
8845.05204198
8854.80493319
8867.74529704
8877.4089206
8887.36973995
8898.82016534
8908.19733139
8942.40965875
7904.30124299
1036.28356936
8804.43566743
8805.05672425
8806.12249619
8808.07233886
8810.0656629
8813.20754324
8817.00166025
8821.50866871
8829.17787792
8837.46778088
8846.90917445
8856.10760233
8873.30440416
8881.10013655
8890.66569149
8902.17052682
8909.96923084
8788.56560764
3030.29692134
-22.3139775313
8805.46497805
8806.02656468
8806.97687739
8808.58171542
8810.22979871
8812.58178924
8814.11949653
8816.84125062
8881.67327368
8885.66595636
8892.8750411
8902.32034871
8905.3121392
8904.22126171
1979.00982405
-27.875053957
8805.97702117
8806.50572955
8807.43551902
8808.91784444
8810.63588969
8812.6645445
8814.55908121
8816.13598009
8885.35815003
8888.11570197
8895.12637028
8909.36110405
8915.50959168
8944.98282651
7966.9632547
1186.73463976
8805.97873865
8806.50741246
8807.4370998
8808.9190606
8810.6366473
8812.66478472
8814.55904874
8816.13547117
8885.35957164
8888.11643112
8895.13174511
8909.36956543
8915.51862986
8944.98287731
7967.04786976
1186.79374619
8805.46993613
8806.03140334
8806.98146392
8808.58516938
8810.23183202
8812.58226495
8814.1184463
8816.83968341
8881.6753271
8885.67285701
8892.88734586
8902.3380519
8905.32288464
8904.21948502
1979.02333849
-27.8764633324
8804.44351495
8805.06432118
8806.12919603
8808.0776878
8810.06906516
8813.2080849
8816.99948572
8821.50305091
8829.16711617
8837.45278429
8846.89149613
8856.09485931
8873.29604772
8881.09583303
8890.66572411
8902.18163536
8909.96563889
8788.57925578
3030.14225785
-22.3156822742
8802.85594706
8803.53650135
8804.61799631
8806.90494916
8809.13033095
8812.30251773
8815.83553016
8821.02052544
8828.6113766
8836.29049485
8845.03595622
8854.79050687
8867.73332741
8877.3987704
8887.35980979
8898.81972345
8908.20139611
8942.40877044
7904.36721598
1036.32713625
8800.68941087
8801.42739919
8802.44851056
8804.8093072
8807.31188072
8810.64376086
8814.82720785
8820.04870674
8826.62428647
8834.20502842
8842.72674583
8852.21846072
8862.99420907
8872.98502821
8882.98443368
8893.51329867
8903.60226785
8921.38625724
2470.00157834
-14.4229612901
8797.86411193
8798.58686866
8799.72216044
8802.11911173
8804.71265537
8808.14208346
8812.42935149
8817.71989878
8824.04892026
8831.27984921
8839.42025982
8848.42883476
8858.22356124
8868.03577196
8877.78439941
8887.83567476
8896.95839543
8907.42219832
2136.09806937
-4.73599078629
8794.41371775
8795.13875005
8796.40395782
8798.5985636
8801.26638257
8804.72583754
8809.00305905
8814.19681222
8820.31374905
8827.32193274
8835.18740297
8843.85498065
8853.18643675
8862.87435094
8872.16081968
8882.33235225
8890.02682249
8735.76136283
2041.7550269
-2.03566672959
8790.31196683
8791.01873111
8792.32012674
8794.3859526
8797.0711891
8800.49650997
8804.70403708
8809.79112685
8815.71940155
8822.51209877
8830.1528098
8838.5974221
8847.68518569
8857.84869193
8866.04429981
8877.28060612
8885.04532544
8710.18588975
1975.39870935
-1.72478094062
8785.55217947
8786.2286545
8787.52449836
8789.50308825
8792.13550209
8795.48241806
8799.58851119
8804.50579976
8810.25086951
8816.84683048
8824.30762313
8832.63550905
8841.73261871
8851.69428238
8861.65777833
8872.71863342
8882.08118757
8867.53234268
1900.02890129
-2.92116071848
8780.14142408
8780.78496408
8782.06688944
8783.93997523
8786.47850392
8789.70764527
8793.66423373
8798.39061116
8803.92174285
8810.29697636
8817.56199162
8825.76667283
8834.94412464
8845.3012004
8856.58090164
8869.40022411
8881.1880618
8675.64000248
1900.31197305
-6.17620896563
8774.09348412
8774.67916124
8775.8202974
8777.68468722
8780.12444858
8783.20049422
8786.96631666
8791.4631462
8796.73432742
8802.83345828
8809.82919535
8817.80858931
8826.92781695
8837.55666738
8850.17488864
8866.75724961
8888.85935142
8926.11251794
6227.37798986
338.579512008
8767.45659127
8767.99683667
8769.07851419
8770.78894799
8773.11942929
8775.99650901
8779.52934804
8783.75036767
8788.70282879
8794.4475847
8801.05949977
8808.62274393
8817.28407461
8827.30969107
8839.07990466
8854.21391033
8872.0633409
8885.33973946
2093.1656625
-6.07743752763
8760.26682576
8760.76023108
8761.76033704
8763.30261439
8765.38553083
8768.11448906
8771.38955121
8775.29190151
8779.85842694
8785.16837996
8791.29457583
8798.29351446
8806.2209693
8815.08182218
8825.25410254
8837.84892877
8852.97941638
8878.09928241
1816.88564364
-2.66791914558
8752.5689849
8753.01010374
8753.91692237
8755.31057315
8757.19236486
8759.5948315
8762.5699098
8766.14365945
8770.24680311
8775.04426458
8780.61146617
8786.99831689
8794.12647418
8801.592846
8809.50165078
8817.76009569
8825.88839979
8204.15068476
1464.35922841
-0.886600858541
8744.40812427
8744.79378457
8745.59685124
8746.82907118
8748.49216761
8750.59767648
8753.17238856
8756.21552632
8759.87027247
8764.10115247
8769.04239851
8774.90776422
8781.59506854
8788.31755341
8796.37216375
8803.73883437
8804.95631487
7461.3290826
1046.2046232
-0.335270664105
8735.83512945
8736.16263828
8736.85446253
8737.91390914
8739.33912284
8741.13644694
8743.32237445
8745.90527692
8748.92138567
8752.36172259
8756.19164764
8760.33134488
8765.09559884
8771.48372853
8778.16917846
8784.39050582
8790.82610636
8313.69002553
681.944401372
-0.0328877894862
8726.90556596
8727.17348043
8727.74879515
8728.62828791
8729.80585873
8731.28396895
8733.06680532
8735.15779067
8737.5644947
8740.28520226
8743.31662184
8746.68074133
8750.55630279
8755.26860443
8760.59891143
8766.80143091
8775.31696699
8076.65706615
626.368775289
-0.00589380956204
8717.67827097
8717.88598743
8718.34265549
8719.03913551
8719.96588271
8721.11964929
8722.49539569
8724.08795988
8725.8901388
8727.88890195
8730.07880338
8732.46530196
8735.09536701
8737.99061373
8741.01415631
8744.16551175
8747.39421537
7376.43970064
501.828207943
-0.0531243232348
8708.2123689
8708.36050816
8708.6991129
8709.21454177
8709.89343356
8710.72670832
8711.7010626
8712.80185638
8714.00859162
8715.29460156
8716.63402577
8717.99870673
8719.35740596
8720.64814288
8721.7582799
8722.57087217
8722.83749142
6934.35465164
390.737599927
-0.0379654403163
8698.56664221
8698.65684304
8698.88151026
8699.22196729
8699.66158814
8700.18542105
8700.77426947
8701.40302024
8702.0397621
8702.64324084
8703.16373045
8703.54070952
8703.69579346
8703.52562163
8702.89842512
8701.63275913
8699.21851551
6547.17301643
286.551912642
-0.0163222035406
8688.79873016
8688.83278841
8688.9500316
8689.12527283
8689.33942091
8689.57328301
8689.80195246
8689.99178617
8690.10013725
8690.07247036
8689.83943444
8689.31340683
8688.38127452
8686.91264147
8684.75172002
8681.63557204
8677.02301201
6202.03705307
183.786601249
-0.000300667950961
8678.9601533
8678.94439243
8678.9616865
8678.98457978
8678.99187564
8678.9611811
8678.8629103
8678.65754389
8678.29338642
8677.70508641
8676.80861345
8675.49611278
8673.63005031
8671.04910321
8667.57001546
8662.85022264
8656.2855352
5875.80866796
86.2951044194
0.00997077816198
8669.10320686
8669.04020219
8668.96835197
8668.85458033
8668.67712237
8668.41201167
8668.02640378
8667.47709735
8666.70690802
8665.64339332
8664.19241418
8662.23233482
8659.60808699
8656.1324993
8651.57727397
8645.52696387
8637.20199522
5578.79452003
0.401748391199
0.00637235925668
8659.2704633
8659.1662734
8659.01629904
8658.78311031
8658.44558795
8657.97889348
8657.34914973
8656.51179772
8655.40890103
8653.96468862
8652.08106942
8649.62968896
8646.44680281
8642.32726969
8636.98542035
8629.93238618
8619.83269225
5270.53592729
0.00554927641216
-0.0208515844263
8649.50334602
8649.36247982
8649.14641401
8648.81114886
8648.3379424
8647.70293648
8646.87340774
8645.80629308
8644.44551538
8642.71803875
8640.52865168
8637.75221186
8634.22753972
8629.74501427
8623.99304342
8616.44083637
8603.67660195
5044.03026853
-0.0311348485428
-0.00340864318609
8639.83633624
8639.66522086
8639.39338608
8638.97236644
8638.3869436
8637.61560852
8636.62861467
8635.38715139
8633.84062071
8631.92356017
8629.55066476
8626.61065064
8622.96006651
8618.41028608
8612.67424543
8605.25400681
8590.43342911
4889.47087508
-0.00600399072008
0.0143988393164
8630.30119753
8630.10183423
8629.78623536
8629.29360912
8628.61704288
8627.73821084
8626.6319224
8625.26541671
8623.59734432
8621.57363763
8619.12530759
8616.16372505
8612.57669939
8608.21823549
8602.87178888
8596.1542606
8580.89641097
4794.22430986
0.00122699135088
0.0245177400895
8620.92093582
8620.70002471
8620.34653085
8619.7952833
8619.04546727
8618.08304009
8616.88869393
8615.43772324
8613.69943804
8611.63459506
8609.19538882
8606.32103381
8602.9390943
8598.95816877
8594.24911467
8588.587229
8573.85662072
4733.61372183
-0.003609519852
0.0277582406254
8611.71725691
8611.47709612
8611.09329322
8610.49259873
8609.68287829
8608.65468629
8607.39473344
8605.88817823
8604.11570792
8602.05481133
8599.68002951
8596.96116021
8593.86561902
8590.36192126
8586.40381266
8581.91860768
8567.90099353
4686.97004899
-0.00632803049993
0.0277861027586
8602.7092345
8602.45117182
8602.04219671
8601.39689792
8600.53563927
8599.45250275
8598.14113472
8596.59474762
8594.80656641
8592.77228809
8590.48601246
8587.94687365
8585.16101496
8582.14732541
8578.93135007
8575.56588333
8561.7037487
4634.41477489
-0.00746657499093
0.0248808783608
8593.91457847
8593.63542002
8593.20754955
8592.51758045
8591.60717142
8590.47287551
8589.11386719
8587.53197526
8585.73184865
8583.72248006
8581.51903617
8579.14516369
8576.63856797
8574.05693869
8571.48020571
8569.03667034
8553.75769889
4562.15793856
-0.018040269178
0.0162951160078
8585.34999355
8585.04378896
8584.60400606
8583.8594471
8582.8993924
8581.71254754
8580.301973
8578.67640456
8576.85059406
8574.84621921
8572.69482702
8570.43802252
8568.13865003
8565.88296167
8563.776458
8561.9787178
8541.87361436
4463.97120507
-0.0213766637073
0.00606668829836
8577.02902382
8576.69418517
8576.24964096
8575.4249576
8574.41624075
8573.17123043
8571.69687256
8570.00941013
8568.13200056
8566.09663396
8563.94402574
8561.73356581
8559.53897885
8557.47079421
8555.64326793
8554.17349793
8519.2975336
4337.57649451
-0.0381391433505
0.0107955096708
8568.94234345
8568.64360211
8568.16202065
8567.19751954
8566.16644838
8564.85351285
8563.29681793
8561.52123854
8559.55653662
8557.43917876
8555.22161582
8552.96444232
8550.75260272
8548.71151914
8546.96633079
8545.61284152
8491.8465544
4204.08193318
-0.0298305076646
0.0177039422664
8561.12648251
8560.81748354
8560.24899109
8559.33462326
8558.1868251
8556.77304424
8555.10689294
8553.21065928
8551.11515643
8548.85984146
8546.50004616
8544.09863755
8541.73131958
8539.5458654
8537.66181891
8536.19423411
8465.93550591
4050.07433738
-0.000248944474479
0.00353958583403
8553.60681029
8553.28338891
8552.66275038
8551.70830157
8550.46734109
8548.93974574
8547.1396964
8545.08871615
8542.81674045
8540.36321546
8537.77755104
8535.12557611
8532.48951073
8529.99137505
8527.76483896
8525.99590228
8463.37389149
3842.01547429
2.9318974008
-0.00129306789803
8546.407089
8546.06543863
8545.3952005
8544.37169307
8543.02967088
8541.37265159
8539.414709
8537.17621124
8534.68422025
8531.97339157
8529.08893238
8526.08975781
8523.05073808
8520.07880909
8517.292358
8514.87669199
8442.44150861
3615.35433896
0.571191360379
-0.0059761499437
8539.55026014
8539.18743487
8538.46226595
8537.35764023
8535.90201995
8534.09927198
8531.9611415
8529.50489554
8526.75295434
8523.73262192
8520.48005131
8517.04583893
8513.48860407
8509.89375833
8506.33871699
8502.99122905
8399.43495299
3385.24613521
0.0510778783934
-0.0124722526922
8533.06097066
8532.67388074
8531.89033169
8530.69570423
8529.11591906
8527.15346139
8524.81620378
8522.11657075
8519.07052558
8515.69591195
8512.02106316
8508.07805452
8503.91069311
8499.57677848
8495.11328562
8490.66866498
8341.34542688
3161.50125087
0.0632639353893
-0.0208411734467
8526.96757967
8526.55349529
8525.70807759
8524.41827388
8522.70651945
8520.57347906
8518.02254076
8515.06046369
8511.69363928
8507.93388093
8503.79341638
8499.29075415
8494.44871469
8489.30122881
8483.84563752
8478.21918246
8273.36252289
2948.63717319
0.039740896798
-0.0256384540256
8521.29984771
8520.8578576
8519.9481427
8518.55958209
8516.71149291
8514.4012986
8511.62747738
8508.39005309
8504.68812123
8500.5224459
8495.8901974
8490.79830578
8485.2456953
8479.24363207
8472.75592022
8465.90679121
8198.97661525
2749.48697524
-0.0422893077499
-0.00576946674887
8516.0885711
8515.61794516
8514.64338241
8513.15590184
8511.17021698
8508.68113394
8505.68162991
8502.16500121
8498.12281035
8493.54308057
8488.41392843
8482.72157675
8476.44674917
8469.57913632
8462.05494314
8453.97349665
8120.6431501
2565.14913452
-0.0339617434325
-0.0427915935863
8511.36406721
8510.86514489
8509.82775516
8508.24253396
8506.1222181
8503.45790579
8500.23689362
8496.44636398
8492.06878452
8487.08387083
8481.46426503
8475.18143515
8468.19761629
8460.48121047
8451.94807098
8442.65861477
8041.77138155
2397.57940781
0.169663610391
-0.0273533564869
8507.15618008
8506.63031653
8505.53309672
8503.85496176
8501.60657552
8498.77572769
8495.34440993
8491.29310265
8486.59658428
8481.22478726
8475.13964969
8468.29588019
8460.63887971
8452.11652033
8442.62921814
8432.18799235
7965.04310579
2248.39044665
0.328358047479
-0.021919669507
8503.49320487
8502.94223963
8501.79022427
8500.02673812
8497.66077349
8494.67693751
8491.0524997
8486.76193562
8481.77311507
8476.0467173
8469.53406905
8462.17650343
8453.90326696
8444.64081497
8434.27605551
8422.77691311
7892.50763513
2118.45221824
0.373341487098
-0.0167470960664
8500.40067186
8499.82738149
8498.62695339
8496.7885274
8494.31888623
8491.20025389
8487.40544165
8482.90435958
8477.65850574
8471.62041145
8464.73292084
8456.92498727
8448.11206756
8438.20174556
8427.06457643
8414.62985514
7826.12006174
2009.78139794
0.403365086328
-0.00156707996581
8497.90092748
8497.30819712
8496.06711502
8494.16642984
8491.61024084
8488.37869262
8484.44173832
8479.76516536
8474.30487865
8468.00855919
8460.80950212
8452.62985157
8443.37208871
8432.92891226
8421.15983593
8407.95771444
7768.84035068
1922.79153681
0.440000187451
0.0115451768542
8496.0126675
8495.40241701
8494.12996205
8492.18095418
8489.55758693
8486.23889946
8482.19241725
8477.38057412
8471.75619367
8465.26052465
8457.82480736
8449.36323334
8439.77096615
8428.92898406
8416.69204352
8402.93675584
7729.74630063
1863.21694635
0.476961515018
0.0453492844189
8494.76343282
8494.14507542
8492.85075328
8490.86932311
8488.20123743
8484.82444614
8480.70456005
8475.80184219
8470.06653826
8463.439275
8455.84667362
8447.20294475
8437.40188743
8426.31892894
8413.80051434
8399.64486118
7691.26192274
1819.36749658
0.537357383228
0.123464654366
8494.17012915
8493.54530611
8492.23914972
8490.24489602
8487.55682673
8484.15336618
8479.99924049
8475.0534363
8469.26644218
8462.57648966
8454.91127327
8446.18685876
8436.30790479
8425.18886493
8412.76554895
8399.06977281
7774.93974229
1777.22697691
0.779296682337
0.296015183586
)
;

boundaryField
{
    back
    {
        type            fixedFluxPressure;
        gradient        uniform 0;
        value           nonuniform List<scalar> 
1984
(
8494.15309357
8493.52852212
8492.22286377
8490.22935535
8487.54229095
8484.13996838
8479.98687199
8475.04246624
8469.25620663
8462.56731184
8454.90349653
8446.18021149
8436.30212316
8425.18423642
8412.76244499
8399.06756666
7774.94701381
1777.23533217
0.779292097189
0.296012266789
8494.74632554
8494.12812616
8492.83417611
8490.8533632
8488.18615871
8484.81042118
8480.69146037
8475.78975595
8470.05521141
8463.42866882
8455.83777759
8447.19551183
8437.39552997
8426.31403181
8413.79701184
8399.64241713
7691.26924632
1819.37666982
0.537355456071
0.123465491475
8495.99572223
8495.38562433
8494.1135258
8492.16510049
8489.54256373
8486.22486954
8482.17942536
8477.36820674
8471.74459007
8465.2499349
8457.81569591
8449.35560284
8439.76438036
8428.92383086
8416.68843822
8402.93421926
7729.75468777
1863.22674846
0.47696513965
0.0453506655116
8497.88428307
8497.2916862
8496.05092512
8494.1507715
8491.59533505
8488.36474165
8484.42869435
8479.75315336
8474.29318147
8467.99751453
8460.80018058
8452.62196374
8443.36502789
8432.92337993
8421.1562088