/*--------------------------------*- C++ -*----------------------------------*\
| =========                 |                                                 |
| \\      /  F ield         | OpenFOAM: The Open Source CFD Toolbox           |
|  \\    /   O peration     | Version:  v2012                                 |
|   \\  /    A nd           | Website:  www.openfoam.com                      |
|    \\/     M anipulation  |                                                 |
\*---------------------------------------------------------------------------*/
FoamFile
{
    version     2.0;
    format      ascii;
    class       volVectorField;
    location    "1.8";
    object      U_0;
}
// * * * * * * * * * * * * * * * * * * * * * * * * * * * * * * * * * * * * * //

dimensions      [0 1 -1 0 0 0 0];


internalField   nonuniform List<vector> 
1984
(
(-0.00202682136226 0.00198551052174 4.57912706069e-22)
(-0.00125857797452 0.00596187531017 1.68527912849e-21)
(-0.00122478264658 0.00856104349224 5.30279304372e-23)
(-0.00134632798518 0.0119172893357 -3.59148519694e-22)
(-0.00146457701624 0.0152653512603 -9.00845815597e-22)
(-0.0015691055911 0.0187941032781 -6.21742660439e-22)
(-0.00167477783689 0.0225081263059 -6.51458913725e-22)
(-0.0017879179172 0.0264231699076 1.52680110714e-21)
(-0.00191147316099 0.0305667133021 1.77693220549e-21)
(-0.00204793418363 0.0349684156838 1.90606241722e-21)
(-0.00220169617085 0.039639145221 7.7035002051e-23)
(-0.00239993907089 0.044601686565 3.48443738389e-22)
(-0.00276060745917 0.0499227679362 1.45804834791e-22)
(-0.00342533515162 0.0562163222904 1.80013302244e-22)
(-0.00359663757004 0.0597320165423 -5.0878924829e-22)
(-0.000900810431457 0.07356602065 -3.35016814701e-21)
(0.00206177303727 0.0517495974125 -9.14256416523e-21)
(-0.010231499078 0.074335944335 -1.74776408921e-20)
(-0.0723385275708 0.114657644975 -1.66459997042e-20)
(-0.0696094550064 0.261284301442 -9.64007490372e-21)
(-0.00592044006373 0.00116978234214 4.20806021686e-22)
(-0.00500659813886 0.00491916933814 1.24372004363e-21)
(-0.00493579481624 0.00758058065134 7.34987079886e-23)
(-0.00510998728869 0.0108690154608 -9.85090056749e-22)
(-0.00534377196558 0.014040831127 -3.18813605359e-21)
(-0.00559548146827 0.0173298327222 -1.91776915857e-21)
(-0.00587541907092 0.0207778735137 -2.26505811795e-21)
(-0.00619289633781 0.0244157984426 -6.68245368229e-22)
(-0.00655263967588 0.0282767789394 7.87577555561e-22)
(-0.00695595294223 0.0323962663261 -1.57107817629e-21)
(-0.0074000342181 0.0367963392022 -7.38902321149e-22)
(-0.00788434627544 0.0414991719363 -1.05104294496e-21)
(-0.00844288975639 0.046546609373 -6.10846925083e-22)
(-0.00903282282533 0.0524217246686 2.55349036296e-22)
(-0.00914475910229 0.0556425282182 -2.37565895815e-21)
(-0.00756665468114 0.0700416842409 -1.08937937929e-20)
(-0.00915908152428 0.0554807988364 -8.98347413086e-21)
(-0.0282353483533 0.0790098282757 -1.18613676075e-20)
(-0.0665893122084 0.0868921385628 -1.22818828914e-20)
(-0.158538298192 0.157750742179 -9.18227481504e-21)
(-0.00838085800175 0.00102414002308 1.21063597588e-21)
(-0.00763600438919 0.00461023908116 4.47740006825e-21)
(-0.00757518907799 0.00713823557584 9.37198675784e-22)
(-0.00777003218568 0.0103115033408 -2.55207907315e-22)
(-0.00808586137328 0.0133476395807 -9.17280203306e-22)
(-0.00846889394612 0.0165114725479 -2.59166339157e-22)
(-0.00891826551504 0.0198255800227 -4.42513832463e-22)
(-0.00943925652196 0.0233215153211 4.14329312708e-22)
(-0.0100363516413 0.0270355201322 3.63318223706e-22)
(-0.010712108362 0.0310073691964 -6.55550347881e-22)
(-0.0114665504347 0.0352677181806 -2.0662461232e-22)
(-0.012299075001 0.0398436434573 2.20620179594e-22)
(-0.0132211711557 0.0447955537794 1.93076908747e-22)
(-0.0142191399436 0.0506858733331 -2.71150989842e-22)
(-0.0151787640849 0.0540847291162 1.0527094933e-22)
(-0.0152832936354 0.068113388905 -1.94921479046e-20)
(-0.0138995185355 0.054076777398 -9.64709215379e-21)
(-0.0286211674021 0.07677706404 -2.21833649991e-20)
(-0.0863343399935 0.0907849940177 -1.92188227296e-20)
(-0.21390929607 0.130043754998 -6.86710696669e-21)
(-0.0113310616116 0.00104071983918 1.33891368317e-21)
(-0.0106643405642 0.00449807910604 2.89296371764e-21)
(-0.0106436574827 0.00686353235982 8.8149853628e-22)
(-0.0108893300774 0.00992893337716 1.19049050305e-22)
(-0.0112745645537 0.0128562088576 -1.19723344412e-22)
(-0.011773649081 0.0159068352429 9.10820297036e-23)
(-0.0123799435874 0.0191068975174 9.30398591771e-23)
(-0.0130941262761 0.0224866235849 2.71272025083e-23)
(-0.0139196992044 0.0260816997239 7.24506308008e-24)
(-0.0148597640135 0.0299314244601 4.96662305361e-23)
(-0.0159175399885 0.0340655611818 -3.2799783993e-23)
(-0.0171011090579 0.0385065590646 3.62645276096e-23)
(-0.0184274422272 0.0433076277225 -7.22410595971e-23)
(-0.0199151036027 0.0490264867188 3.06276409124e-22)
(-0.0216295371154 0.0523115416318 2.64063461436e-22)
(-0.0229605337886 0.0656452008577 3.70990762871e-21)
(-0.0231337849239 0.0517062520173 -2.76572083799e-21)
(-0.0460484320701 0.0737660642738 -5.81433932394e-21)
(-0.102717743152 0.086224223306 -5.8375483844e-21)
(-0.236029122769 0.114971596702 -2.96581431564e-21)
(-0.0140852611865 0.00105351813869 1.93537236665e-22)
(-0.0133944559061 0.00438265090016 3.81233315037e-21)
(-0.0133915626628 0.00659646400503 1.41820204801e-21)
(-0.013700209311 0.00953734866746 2.54097727516e-22)
(-0.0141887833058 0.0123343139364 2.90162123279e-23)
(-0.0148129005205 0.0152535563291 6.77069142148e-23)
(-0.0155811936045 0.0183239925839 6.51607032667e-23)
(-0.0164913332132 0.021571701693 -1.0133593388e-23)
(-0.0175475358436 0.0250305144973 -1.20082111645e-23)
(-0.0187543747983 0.0287397152669 4.71894495837e-23)
(-0.0201164911393 0.0327294668778 -1.79518556101e-23)
(-0.0216441837585 0.037021460251 -2.73884249958e-24)
(-0.0233570375256 0.0416602749611 2.11539533936e-22)
(-0.0252890370923 0.047232266698 -2.90130314007e-22)
(-0.0275073568579 0.0504512180568 -3.10561270813e-22)
(-0.0294957123125 0.063348113851 -1.83400578375e-21)
(-0.0297090297813 0.0500171313101 -6.26167626525e-21)
(-0.0571767016521 0.070702499772 -5.91205329572e-21)
(-0.109768808061 0.0822034429722 -4.28322786818e-21)
(-0.250332466796 0.100362417515 -2.283591154e-21)
(-0.0167821507732 0.0010212014649 1.74364020379e-22)
(-0.0160138274142 0.00421203413055 2.86888629329e-21)
(-0.0160129950101 0.00627537489783 1.1875526141e-21)
(-0.0163879166347 0.00906235321988 2.37656858399e-22)
(-0.0169799926547 0.011713360922 4.00513577465e-23)
(-0.0177366281951 0.014484151774 1.44032322783e-23)
(-0.0186588908751 0.0173928653006 1.33985582223e-23)
(-0.0197593943339 0.0204782019471 -1.04542450579e-23)
(-0.0210409437144 0.0237693970384 -1.47405537724e-23)
(-0.0225099388573 0.0273048540882 -2.80192678211e-24)
(-0.0241728586667 0.0311167016421 -1.95299326071e-23)
(-0.0260433723051 0.035228776935 -4.02753929965e-23)
(-0.0281487846311 0.0396743254168 2.62228778259e-22)
(-0.0305112173333 0.0450843692026 -3.12786698302e-22)
(-0.0332954686968 0.0482021119009 -8.91212868961e-22)
(-0.0358738824307 0.0606575089217 -5.32450592249e-21)
(-0.0363620470239 0.0481579965095 -8.83544229846e-21)
(-0.0678729874132 0.0674375693382 -5.97365826112e-21)
(-0.11541668116 0.0769339067247 -4.71130358391e-21)
(-0.255026669548 0.0864781178621 -1.79282052132e-21)
(-0.0193569205044 0.000953561217643 2.21212268136e-22)
(-0.018470056874 0.00399091894358 1.37691657767e-21)
(-0.0184765138483 0.00590089571433 2.76139747215e-22)
(-0.0189100658597 0.00850954865401 8.21979063359e-23)
(-0.0195948174799 0.0109769284172 3.06926557938e-23)
(-0.0204797128074 0.0135724302393 -1.07037120319e-23)
(-0.0215547305556 0.0162993209357 -1.54929078206e-24)
(-0.0228402446714 0.0191868537447 -1.12401394057e-24)
(-0.0243399791788 0.0222751519156 -2.70995768483e-23)
(-0.0260649206986 0.025599454406 2.33670524987e-23)
(-0.0280239829775 0.0291930800572 -1.50461564318e-23)
(-0.0302353564992 0.0330801755561 -1.11742970356e-23)
(-0.0327353430755 0.0373076815527 2.18074009376e-22)
(-0.0355373431113 0.0424853142051 -7.05070902745e-22)
(-0.0389153389185 0.0454849628283 -2.6061403261e-21)
(-0.0419867377978 0.0574421341805 -2.24762603122e-20)
(-0.0427099356987 0.0459993273774 -1.22760278368e-20)
(-0.0771659617406 0.0638424226071 -1.82067194829e-21)
(-0.118269646821 0.0716316246875 -1.34457627678e-21)
(-0.252689345675 0.0725966544141 -1.27889439342e-21)
(-0.0217727385713 0.000875552391429 4.33622074379e-22)
(-0.0207476180722 0.00372432532805 3.26715160225e-21)
(-0.0207626722267 0.00545784898421 1.15867450296e-21)
(-0.0212514033111 0.00787616836029 1.95967187614e-22)
(-0.0220260405488 0.0101385475378 1.97096155127e-23)
(-0.0230221441368 0.0125282386857 4.95081309093e-24)
(-0.0242514605174 0.0150382814554 -6.75292867591e-24)
(-0.0257067018666 0.0176994003785 4.30928160073e-24)
(-0.0274125359872 0.0205504405256 -1.57381108542e-23)
(-0.0293847544266 0.0236244235352 -1.26030817392e-23)
(-0.0316316376563 0.0269577664159 -3.92614337193e-23)
(-0.0341786487869 0.0305734747597 -8.04048322045e-23)
(-0.0370639861748 0.0345284338557 9.16340810079e-23)
(-0.0403324144094 0.0393931659733 -1.33204859554e-21)
(-0.0442824409197 0.0422759293076 -2.01501547408e-21)
(-0.0478712233407 0.0535949679508 -1.9514537883e-20)
(-0.0488159775535 0.0433852234372 -1.95378918731e-20)
(-0.0850640007756 0.0597252926554 -2.01818864449e-20)
(-0.118689410662 0.0666259646166 -2.03121605241e-20)
(-0.24081040949 0.0554209915524 -6.42878359113e-21)
(-0.0240062402705 0.00078396629931 6.32330185277e-22)
(-0.0228457475843 0.00341985699398 2.42881477406e-21)
(-0.0228454264671 0.00495894321529 8.22893226697e-22)
(-0.0233953658804 0.00716738171172 1.72256677159e-22)
(-0.0242498506046 0.00920091341123 1.19095098283e-23)
(-0.025352002077 0.0113525588421 -1.78684730966e-23)
(-0.0267108763384 0.0136228184129 1.82597889109e-23)
(-0.0283215926577 0.0160347719548 -1.2233918521e-23)
(-0.0302207662751 0.0186062473043 4.46522141098e-24)
(-0.0324297412432 0.021387963969 8.85496015553e-24)
(-0.0349508582713 0.0244160428535 -1.33246762321e-23)
(-0.0378230579597 0.0277130453879 -6.08808267353e-23)
(-0.0410875425687 0.0313336250237 -1.13406854067e-22)
(-0.0448217004059 0.0358122026462 -1.91139855128e-22)
(-0.0493249925635 0.0385356032274 -7.89956421737e-22)
(-0.0534940258616 0.0490329319193 -9.5392415041e-22)
(-0.0547095725135 0.0402537001964 -8.09420539482e-21)
(-0.0916079465119 0.0549771530845 -9.86395389339e-21)
(-0.117158643831 0.0612297527024 -9.74096329487e-21)
(-0.218581156809 0.0403529075232 2.22872343705e-22)
(-0.0260325109073 0.000679135825118 6.20276668514e-22)
(-0.0247344917164 0.00309101424414 3.20078006885e-21)
(-0.0247127413907 0.00440762502283 1.19247013676e-21)
(-0.025310635022 0.00638039844324 1.99643534509e-22)
(-0.0262359070748 0.00817485307857 2.09772800488e-23)
(-0.0274311912678 0.0100727951922 9.36831152962e-24)
(-0.0288970100773 0.0120773428734 -4.86549203229e-24)
(-0.0306552643824 0.0141996104716 -1.7921219774e-25)
(-0.032734212966 0.0164522599572 -4.83157812205e-24)
(-0.0351480645512 0.0189029360308 1.92530250632e-23)
(-0.0379276769237 0.0215828933883 -1.00362256252e-23)
(-0.0411078177165 0.0245066646802 -2.99732769159e-23)
(-0.0447441760672 0.027726583114 7.89669247126e-23)
(-0.0489322674849 0.0317470501605 -3.07774063555e-22)
(-0.0539801926596 0.0342470692767 -9.78887908314e-22)
(-0.0587573939683 0.0437019320269 -2.64560523611e-21)
(-0.0603691197762 0.0365278967786 -1.17319219465e-20)
(-0.0967900270699 0.0494953005361 -1.16243478812e-20)
(-0.114027109418 0.0550205811598 -1.2579337913e-20)
(-0.186718405024 0.0227604010332 -4.40725511237e-21)
(-0.0278331123525 0.000564875509877 -4.73679585396e-22)
(-0.0263912885602 0.00273377489392 8.55401707024e-23)
(-0.0263508105099 0.00381913677206 -8.67877100753e-23)
(-0.0269763504554 0.00553966390681 4.95132798026e-23)
(-0.027960967208 0.00707125766041 -1.58115141732e-23)
(-0.0292330609671 0.0086969733723 3.40719627424e-24)
(-0.0307976514401 0.0104073015096 -1.53848786468e-24)
(-0.0326811784388 0.0122071976958 6.71339853822e-25)
(-0.0349150453793 0.0141231378628 1.12571767776e-23)
(-0.0375088607615 0.0162035827972 1.64187686038e-23)
(-0.0405140363808 0.0184753106362 -1.84540323328e-23)
(-0.0439702185562 0.0209676184317 -5.54055086695e-23)
(-0.0479623768173 0.0237190942898 -1.98663198022e-22)
(-0.0525875613141 0.027206375452 2.32978490908e-22)
(-0.0581622213539 0.0294127279275 -1.38669437875e-21)
(-0.0635768210589 0.0376217440189 4.74917113615e-21)
(-0.065812464129 0.0322288185988 -8.62727456194e-21)
(-0.100643164628 0.0433459704058 -1.69267812792e-20)
(-0.108837558773 0.0478730585023 -1.71204882461e-20)
(-0.138580577164 0.000956369147383 -9.30303602757e-21)
(-0.0293939017777 0.000446701370326 -8.84758421245e-22)
(-0.0278037224832 0.00235706476309 1.29793191511e-21)
(-0.0277386255267 0.00319575996246 2.6691858409e-22)
(-0.0283827806603 0.00465218983965 2.41207673501e-23)
(-0.029412338504 0.00590666619933 -2.28570892347e-23)
(-0.0307453947363 0.00724115840983 -9.61423221889e-24)
(-0.0323910341148 0.00863755233698 4.11398667293e-24)
(-0.034380299137 0.0100922210763 -3.33724260946e-24)
(-0.036723928204 0.0116350505916 2.33324360528e-23)
(-0.0394690655801 0.013313135407 3.24468735564e-23)
(-0.0426636445731 0.0151403547477 -2.35832217689e-23)
(-0.0463616634593 0.0171293902309 -6.56938616018e-23)
(-0.0506515938209 0.0193291160334 1.47293547163e-22)
(-0.0556545624938 0.0222033229743 3.26807532495e-22)
(-0.0617785874383 0.0240458135867 -1.11922031941e-23)
(-0.067863522148 0.0307531865011 -1.00333658587e-21)
(-0.0709982823437 0.0272098361099 -1.15354669404e-20)
(-0.103206871244 0.0364661484025 -1.08364778481e-20)
(-0.101699496894 0.0413374594364 -1.16556397791e-20)
(-0.0795748985426 -0.00548923550211 3.04527607416e-21)
(-0.0307106192087 0.00032577112018 -5.38863268363e-22)
(-0.0289672884408 0.00196381334692 2.86993729593e-21)
(-0.0288790810226 0.00255010279101 1.05950799837e-21)
(-0.0295183546286 0.00373394812543 1.43198407082e-22)
(-0.0305750466826 0.00469484401843 8.45088159862e-24)
(-0.0319480287524 0.00572329095481 2.0588418855e-24)
(-0.0336467945133 0.00678071075709 -2.98145656217e-24)
(-0.0357016378188 0.00788414482988 1.13248992117e-23)
(-0.0381223948082 0.00904463581121 3.34470344782e-23)
(-0.0409755272576 0.010273042647 4.61047616814e-24)
(-0.0443225842384 0.0116008900792 -2.88638002441e-23)
(-0.0482074964077 0.0130484820789 -3.15278064036e-23)
(-0.0527350306523 0.0146553560908 1.6794721976e-22)
(-0.0580589077949 0.0167586428092 -4.31605784877e-24)
(-0.0646846417094 0.0181246947556 -9.53478840503e-22)
(-0.0714178750918 0.0231290328909 -1.11108832387e-20)
(-0.0758933748056 0.0213921214634 -1.98650823617e-20)
(-0.104390372503 0.0288252085801 -1.400391084e-20)
(-0.0953279988739 0.0323474762264 -1.51530336491e-20)
(-0.0396359801583 -0.000143936569337 -2.51106607685e-21)
(-0.0317668727465 0.000209496753976 -1.09780907874e-21)
(-0.0298914174129 0.00155621250456 1.16278195379e-21)
(-0.0297369974231 0.0018915468001 4.86148205352e-22)
(-0.0303748824081 0.00280996176583 1.42650999006e-22)
(-0.0314418468879 0.00346093753633 -5.19773715792e-24)
(-0.0328281691502 0.00417397120261 4.12735287946e-24)
(-0.0345482852638 0.004891863104 5.74065759425e-24)
(-0.0366243710077 0.00562565177213 -3.42352106223e-23)
(-0.0390970412115 0.00637064839451 -7.02794783688e-24)
(-0.0420138348006 0.00712184117406 -2.10088696746e-24)
(-0.0454338561637 0.00792640948096 -3.60110917974e-23)
(-0.049434019727 0.00878297986907 -3.66226341457e-23)
(-0.0541369205259 0.0097104714436 -1.31729418627e-22)
(-0.0597276553415 0.0109515189878 8.46551109103e-23)
(-0.0667412964428 0.0117358231337 -1.78343772394e-21)
(-0.074130632202 0.0147704949835 7.92584500939e-22)
(-0.0803614465963 0.0147576291915 -5.4252910076e-21)
(-0.10425352459 0.0203493306368 -1.33614169734e-20)
(-0.0934905602022 0.0214051618935 -1.3058504275e-20)
(-0.0170417716747 0.00661889313383 -3.06201945116e-21)
(-0.0325399799441 6.72448517553e-05 -5.53994475111e-22)
(-0.0305245794577 0.0011575292926 1.24383764905e-21)
(-0.0302972643539 0.00124986572346 -2.04709105914e-22)
(-0.0309363918235 0.00186815845407 -4.54358726391e-23)
(-0.0320015993836 0.00222231921753 -4.20235867964e-23)
(-0.0333830366093 0.00262061428078 -1.58499205328e-23)
(-0.0350932490248 0.00299163581397 -5.01972776484e-24)
(-0.0371643894705 0.00334336648776 -2.19237936692e-23)
(-0.0396401299681 0.00366444517824 -1.19275300834e-23)
(-0.0425524650391 0.00394556905563 5.09835001078e-24)
(-0.045969728384 0.00419795062944 -2.28350104487e-23)
(-0.0500045237317 0.00440823613086 2.84366730292e-24)
(-0.0547666156037 0.00459497868215 1.24938198874e-22)
(-0.0605030608856 0.00487748695274 4.12018849102e-22)
(-0.0677923786669 0.00493190093824 -1.5149148816e-22)
(-0.0759153677582 0.00589706721638 -1.04025720258e-21)
(-0.0840707788288 0.00716003248169 -1.25076795037e-20)
(-0.102492331674 0.0105988382776 -1.39967612091e-20)
(-0.0871747850202 0.00732101364059 -1.46143414673e-20)
(-0.00581443853023 -0.0168692900527 1.38861572615e-21)
(-0.0330442103066 -5.70592683723e-05 -1.43139355319e-21)
(-0.0308761692304 0.000761443850457 -8.93569154773e-22)
(-0.0305779626854 0.000598276346816 -5.95555789661e-22)
(-0.0312193480485 0.000928558967717 -1.61225035395e-22)
(-0.0322512685912 0.000991128706002 -5.37512450936e-23)
(-0.033607630317 0.00108453164752 -3.25050832733e-24)
(-0.0352812379612 0.00111706786663 2.26309300224e-24)
(-0.0373035178014 0.00108699383478 -8.22952681071e-25)
(-0.0397184815731 0.000991661213148 1.24384426367e-23)
(-0.0425660931602 0.000800999373571 2.10072977741e-23)
(-0.0459134980145 0.000490573370931 -1.13908871531e-23)
(-0.0498641770409 4.58846011219e-05 -9.16519911428e-24)
(-0.0545444290023 -0.000560542828591 6.95683889433e-24)
(-0.0602475629039 -0.00132037755375 8.26165225228e-24)
(-0.0675794184025 -0.0022509628807 -5.45665168765e-22)
(-0.0766193591964 -0.00345273317949 -1.08103410617e-21)
(-0.08626418039 -0.00197300466193 -3.17686603019e-21)
(-0.0995354384961 -0.00216381955978 -7.8647510774e-21)
(-0.0772761614917 -0.00363267792223 -7.89329405015e-21)
(0.00629561232824 -0.0104483448749 -2.73951735417e-21)
(-0.0332960927745 -0.000188726529405 -1.81072353316e-21)
(-0.0310132801283 0.000387118482915 -8.42111645918e-22)
(-0.0305950230529 -3.89032793398e-05 -4.43798554709e-22)
(-0.0312216787416 7.8498250603e-07 -1.55944351347e-22)
(-0.0322057887598 -0.000193256729662 -6.56626730986e-23)
(-0.0335073229528 -0.000408409912522 6.62520196641e-24)
(-0.0351178546791 -0.000698571336623 9.24797037097e-24)
(-0.0370545448993 -0.00108636454034 4.52445724368e-24)
(-0.0393567084384 -0.00158977652541 -7.01745734946e-25)
(-0.0420783443274 -0.0022398901163 9.42870222182e-24)
(-0.0452577406351 -0.00308317688308 4.84471440042e-24)
(-0.0489980826254 -0.00416648338474 -1.85729921708e-23)
(-0.0534225626894 -0.00556626410759 9.57362572305e-23)
(-0.0587931951851 -0.00736979662869 1.68485410663e-22)
(-0.0657284165839 -0.00973190929983 -1.02537397523e-23)
(-0.0750131248609 -0.0135181584139 -1.67259027552e-21)
(-0.0855150746601 -0.0137151062632 -1.4004823154e-21)
(-0.0990381505801 -0.0190758457261 -4.80544211619e-21)
(-0.0791144773705 -0.0189471609125 -5.14248622957e-21)
(0.00471322437319 0.0209747310116 -4.9037641088e-21)
(-0.0333452044075 -0.00034189116189 -1.34689557019e-21)
(-0.0308984244661 2.78788531181e-05 -1.29898741898e-22)
(-0.0304175748373 -0.000622662159138 -2.03081228852e-22)
(-0.0309598153918 -0.000893141557529 -1.06124327778e-22)
(-0.0318833974709 -0.00132527517195 -1.82154633899e-23)
(-0.0331045164992 -0.00182738645533 -4.4914128601e-24)
(-0.0346192284843 -0.00242475641296 -3.08487051539e-24)
(-0.036440254554 -0.00314414327125 9.02755017792e-24)
(-0.0385911351714 -0.00402268047441 7.14519179268e-24)
(-0.0411168949048 -0.00509009659892 1.00775043386e-23)
(-0.044059874571 -0.00641275228791 -7.44170142564e-24)
(-0.0474719703655 -0.0080655394664 -5.33408896687e-23)
(-0.0514644011916 -0.0101384297411 1.43905284178e-22)
(-0.0562057172903 -0.012782396899 1.88284616168e-22)
(-0.0622140875657 -0.0163196265542 -8.16201562133e-22)
(-0.0703458800921 -0.0218717928543 -3.67085535128e-21)
(-0.081879339879 -0.0239457617006 -1.39138376576e-20)
(-0.104742084344 -0.0310141393487 -5.9835605671e-21)
(-0.0968597284376 -0.0310226005676 -4.58447200142e-21)
(-0.0784799156648 0.0240158606684 2.75668116551e-22)
(-0.0331223549437 -0.000444275740968 -2.98782837436e-22)
(-0.0305095496383 -0.000316808482217 1.00861136082e-21)
(-0.0299772974717 -0.00117887324661 1.47886078397e-22)
(-0.0304336195066 -0.00169374933484 5.26669930971e-23)
(-0.0312934974048 -0.00237280136401 -2.64550228895e-24)
(-0.032427882853 -0.00314453894079 -1.27871699295e-23)
(-0.0338176962544 -0.00402758495081 -1.6453654958e-23)
(-0.0354868331269 -0.00504899182957 -1.19381643315e-23)
(-0.0374502101043 -0.00625614078308 1.55974471918e-25)
(-0.0397348377923 -0.00769758578737 -5.77737001259e-24)
(-0.0423762209592 -0.00942111980369 -1.66861402116e-23)
(-0.0453985849675 -0.0115203976125 -2.39123581434e-24)
(-0.048870933655 -0.014090210914 4.89473347433e-23)
(-0.05291576842 -0.0172429329143 -1.42978540327e-22)
(-0.0579304605921 -0.0212716633025 -1.10973079118e-21)
(-0.0646712695988 -0.0269384662624 -6.65911739473e-21)
(-0.0763392043055 -0.0293155808111 -1.60027156949e-20)
(-0.105378683468 -0.0344363369192 -7.87581463304e-21)
(-0.102393393942 -0.038018527531 -8.39603367105e-21)
(-0.0720629270034 -0.0500791538222 -1.13759644389e-21)
(-0.0326418610922 -0.000561462334775 5.35515250827e-23)
(-0.0298917086149 -0.000645000266934 2.02580572188e-21)
(-0.0292720259319 -0.00169030771103 8.62094178298e-23)
(-0.0296616454122 -0.0024547821283 2.46877845264e-23)
(-0.0304529155872 -0.00335622181139 -4.78576634978e-24)
(-0.0314878627359 -0.00435093167596 -2.38382568737e-24)
(-0.0327460364617 -0.00547662462046 -8.45988707661e-24)
(-0.0342418838795 -0.00676695730859 -9.77076875384e-24)
(-0.0359844499064 -0.00825884669404 -2.064371327e-23)
(-0.0380044276415 -0.010003206687 -1.42797832527e-23)
(-0.0403006935902 -0.0120589544967 -2.82363867069e-23)
(-0.0429072224944 -0.0145130676659 -1.07392853574e-23)
(-0.0458503425022 -0.0174597448692 2.98490941729e-23)
(-0.0492632057682 -0.020996296957 -3.38143254218e-22)
(-0.0534863371254 -0.0253373360563 -2.66178832512e-21)
(-0.0593085674629 -0.031025681569 -1.46367987056e-20)
(-0.0702568921195 -0.0345850878764 -1.68659897792e-20)
(-0.0964077857442 -0.0390914399855 -1.08862846107e-20)
(-0.0908745909294 -0.0457651172666 -1.11365175366e-20)
(-0.066707744816 -0.0769466781365 -4.01075286124e-22)
(-0.0320027208307 -0.000657375553926 -6.52036009781e-22)
(-0.0290918834448 -0.000946585682071 7.44789446373e-23)
(-0.0284107303355 -0.00215707925282 -2.36295521903e-22)
(-0.0287241948228 -0.0031372895982 -7.09562902502e-23)
(-0.0294068953278 -0.00423922296945 -3.87005442467e-23)
(-0.0303182792839 -0.00543763438908 -1.96604795066e-23)
(-0.0314311177154 -0.00677397178555 -6.3257700708e-24)
(-0.0327531980055 -0.00827729831186 -1.43080919749e-23)
(-0.0342814657385 -0.0100069799847 -1.45754577467e-23)
(-0.0359985493844 -0.0120004157048 -1.42851540406e-23)
(-0.037936329952 -0.0143052626286 -1.91898912665e-23)
(-0.0401028648247 -0.0170244423669 -6.24472808304e-24)
(-0.042506237637 -0.020256014335 8.55688404576e-24)
(-0.0452693209734 -0.0240663354172 -2.28053313871e-22)
(-0.0487255561244 -0.0287241337842 -1.66099275599e-21)
(-0.0535893760447 -0.0347512339813 -8.19737322869e-21)
(-0.0630161763287 -0.0399049288247 -1.09490590347e-20)
(-0.0851722696171 -0.044523581317 -9.71840554626e-21)
(-0.0798741219698 -0.0522781381962 -9.75113619007e-21)
(-0.0563335450202 -0.0896687871327 -1.70307313679e-21)
(-0.0311740817242 -0.000737552880912 -1.17913805383e-21)
(-0.0281094819525 -0.00123558535296 -3.94145654839e-22)
(-0.0273434626831 -0.00259690440788 -3.1571047183e-22)
(-0.0275752929356 -0.00373158776102 -1.14550286699e-22)
(-0.0281670956036 -0.0049940416598 -4.47317727204e-23)
(-0.0289653463333 -0.00637574755101 -1.51802657564e-23)
(-0.0299375563306 -0.00790463653522 -4.73476301319e-24)
(-0.0310570767795 -0.00960692351712 -6.27714986132e-24)
(-0.0323461790095 -0.0114907706179 1.47463692302e-23)
(-0.0337703847475 -0.0136435547136 -6.15256856623e-24)
(-0.0353521842179 -0.0161437792842 -1.26205233614e-24)
(-0.0370736187668 -0.0190391217953 -1.46351718828e-23)
(-0.038950118092 -0.0224440117971 7.0021287783e-24)
(-0.0410284459161 -0.0264345384763 -1.40580994054e-22)
(-0.0436763549467 -0.0313017421777 -3.54052393068e-22)
(-0.0474123139656 -0.0377078393042 -4.43539703992e-21)
(-0.0547147969993 -0.0444558765593 -5.72745637188e-21)
(-0.0718677934222 -0.0491110747997 -8.32191871688e-21)
(-0.0676346755214 -0.0569117180932 -7.38294426387e-21)
(-0.0438786036476 -0.0961578933045 -1.22823050563e-21)
(-0.0301691915046 -0.00079884003419 -1.2629613916e-21)
(-0.0269574621806 -0.00147529266444 -4.76639058829e-24)
(-0.0260987500727 -0.00296271420466 2.40423743712e-22)
(-0.0262442064035 -0.00426087183921 -4.25522269568e-23)
(-0.0267565217933 -0.00567685979105 -1.76585733521e-23)
(-0.0274420868863 -0.00720780912666 2.51617365344e-24)
(-0.0282641508505 -0.00885638803479 5.68939664138e-24)
(-0.0291891610093 -0.0106736664947 -2.18476157869e-24)
(-0.0302356610384 -0.0127062177149 -4.04790863301e-25)
(-0.0313935885835 -0.0149904418916 7.59138489503e-25)
(-0.032619380601 -0.017588504965 8.52493125509e-24)
(-0.0338975630484 -0.0205805777957 1.64553644069e-23)
(-0.035224742021 -0.0240377970696 1.45357830906e-23)
(-0.0366349574773 -0.0280513003102 -3.14517463502e-22)
(-0.0384013876103 -0.0329972439986 -2.17213533576e-21)
(-0.040831600969 -0.039631026503 -3.88273967246e-21)
(-0.0456019026484 -0.0475105236949 -1.7002897289e-21)
(-0.0576471589964 -0.0524427690588 -3.82405506316e-21)
(-0.0548109145533 -0.0593704645769 -4.47866802182e-21)
(-0.0321895477481 -0.0991391320639 -2.15249514264e-22)
(-0.029037509468 -0.00084638942894 -9.53150850365e-22)
(-0.0256999168585 -0.00169659497738 -1.22242301692e-22)
(-0.0247424678821 -0.00328880921679 1.23175740121e-22)
(-0.0248046819745 -0.0047077192387 7.96670505496e-23)
(-0.0252199732043 -0.00624174530199 3.65278422203e-24)
(-0.0257869896559 -0.00788150263997 -6.88479023823e-24)
(-0.0264572046579 -0.00964002332834 -8.35909347009e-24)
(-0.0272303311491 -0.0115634968815 -3.53330742844e-24)
(-0.0280561182337 -0.013678491755 -1.74447012452e-23)
(-0.0289344768495 -0.0160087282414 1.56614560186e-24)
(-0.029821945769 -0.0186258823996 5.55892167244e-24)
(-0.0306863950806 -0.0216041105375 -2.10221028089e-23)
(-0.0314787065555 -0.0250206684408 8.1108765159e-23)
(-0.0322331711316 -0.028907396474 1.97175962151e-22)
(-0.0331059069553 -0.0336159247765 3.87422160657e-22)
(-0.0341360582928 -0.0402752731597 -4.78640505232e-21)
(-0.0361919025461 -0.048677522508 -4.63489585486e-21)
(-0.0433700033892 -0.0542907524761 5.18964047577e-22)
(-0.0415758426901 -0.0589696961166 5.06338373547e-22)
(-0.0208604795499 -0.0981214963931 6.6573292589e-21)
(-0.0277671842899 -0.000894151097649 -7.71645564655e-22)
(-0.0243003486657 -0.00187853712099 4.13438784593e-22)
(-0.0232628674849 -0.00353474268461 7.64431665057e-23)
(-0.0232487638436 -0.00507242066052 6.92184478676e-23)
(-0.0235782298214 -0.00670845825101 5.25979684476e-24)
(-0.0240394193214 -0.00843939468412 -1.086569954e-23)
(-0.024580933096 -0.0102842861246 -1.76894693258e-23)
(-0.025187657575 -0.0122549244307 -2.05884371443e-23)
(-0.0258177844911 -0.0143916244768 -1.87380845116e-23)
(-0.0264549905509 -0.0167359758871 -2.65079371406e-23)
(-0.0270576013518 -0.019316431747 1.31773585716e-23)
(-0.0275619673972 -0.0221977753255 -3.1054924838e-23)
(-0.0278982909892 -0.0254386570377 1.70568806163e-22)
(-0.028048246446 -0.029015106628 5.04202856151e-22)
(-0.0281028407711 -0.0332381818994 1.99643326752e-22)
(-0.0278475348718 -0.0395451246988 -3.53175874099e-21)
(-0.0272449196952 -0.0476130869044 -4.97708268675e-22)
(-0.0297963021371 -0.0545111793138 -6.70210270369e-21)
(-0.0302158840623 -0.0557330944008 -7.48586189511e-21)
(-0.0110979937553 -0.085771941711 4.00728874974e-21)
(-0.0263627484356 -0.000910965256363 -4.78489977641e-22)
(-0.0227830509221 -0.00203928031166 1.18773736062e-23)
(-0.0216867502788 -0.00375548245787 -4.79282017494e-23)
(-0.0216026899317 -0.00536694220268 7.43101045757e-23)
(-0.0218533032625 -0.00707858223121 -4.59186300236e-24)
(-0.0222162296009 -0.00887385114863 -1.46235878867e-23)
(-0.0226359097856 -0.0107689038405 -1.35611263791e-23)
(-0.02309199194 -0.0127793541929 -1.85850642019e-23)
(-0.023571313063 -0.0149242048836 -2.65894134299e-23)
(-0.0240201433223 -0.0172261899913 -2.37032935744e-23)
(-0.0243915866309 -0.0197070425138 -1.48665817015e-23)
(-0.024613250494 -0.0224062445856 -7.42305935717e-24)
(-0.0245865610482 -0.0253759752978 1.38179514724e-22)
(-0.0242644326168 -0.0285021910596 1.76573779481e-22)
(-0.0236294561263 -0.0319984126866 5.26875555968e-22)
(-0.0222723946271 -0.0374039432918 -3.29981804993e-21)
(-0.0195313478998 -0.0444589986619 -6.84518427367e-21)
(-0.0180597521061 -0.0525673328597 -8.82298781493e-21)
(-0.0268795735364 -0.0491785025097 -8.03246442365e-21)
(-0.00643158058574 -0.0500295510796 -3.10600188736e-21)
(-0.0249232537773 -0.000899850481407 -3.98866523276e-22)
(-0.0212210290285 -0.00215983043735 1.24224773965e-22)
(-0.0200404773347 -0.00390972870676 -2.44722424633e-22)
(-0.0198923301216 -0.0055891171647 -4.7283473386e-23)
(-0.0200737502392 -0.00736386701095 -3.83355627914e-23)
(-0.0203539129402 -0.00920597417432 -1.6958505972e-23)
(-0.0206788860227 -0.0111361638125 -1.05691072273e-23)
(-0.0210214851996 -0.0131662312311 -5.12396320342e-24)
(-0.0213600259226 -0.0152957651569 -1.46745576292e-23)
(-0.0216641918446 -0.0175315588854 -2.05452741231e-23)
(-0.0218769781344 -0.0198813918399 -4.36497355295e-25)
(-0.0219198979159 -0.0223524490799 -3.28930192413e-23)
(-0.0216753674905 -0.0249689842032 1.79395493681e-22)
(-0.0210348193896 -0.0275205542111 4.8386657151e-22)
(-0.0200263982521 -0.0300564522671 -3.96407432e-22)
(-0.0180507422755 -0.0340964319636 1.329094653e-22)
(-0.014016704831 -0.0399673605431 1.21875810089e-21)