/*--------------------------------*- C++ -*----------------------------------*\
| =========                 |                                                 |
| \\      /  F ield         | OpenFOAM: The Open Source CFD Toolbox           |
|  \\    /   O peration     | Version:  v2012                                 |
|   \\  /    A nd           | Website:  www.openfoam.com                      |
|    \\/     M anipulation  |                                                 |
\*---------------------------------------------------------------------------*/
FoamFile
{
    version     2.0;
    format      ascii;
    class       surfaceVectorField;
    location    "1.8";
    object      Uf;
}
// * * * * * * * * * * * * * * * * * * * * * * * * * * * * * * * * * * * * * //

dimensions      [0 1 -1 0 0 0 0];


internalField   nonuniform List<vector> 
3840
(
(-0.001749298061 0.00420055916852 1.07173392523e-21)
(-0.00420061243205 0.00168304018375 4.44572631737e-22)
(-0.00135558431099 0.00755222707609 8.72340545739e-22)
(-0.00335172376379 0.00571395492558 1.46958247595e-21)
(-0.0014001723239 0.0108525316492 -1.49489750885e-22)
(-0.0033003536683 0.00854865821225 7.20515512453e-23)
(-0.00152261403077 0.0143122870524 -6.34836229632e-22)
(-0.00345979075253 0.0120632991979 -6.68932507608e-22)
(-0.00163833930158 0.01795525831 -7.69522837713e-22)
(-0.00364298766266 0.0155266618876 -2.0276211004e-21)
(-0.00174896686962 0.021783096023 -6.44933063876e-22)
(-0.00382780149084 0.0191448204842 -1.27192813095e-21)
(-0.00186521168917 0.0258130052764 4.1920196595e-22)
(-0.00402980990553 0.0229454176801 -1.4509323411e-21)
(-0.00199188455827 0.0300704771837 1.63240043388e-21)
(-0.00425732993529 0.0269537034977 4.16402070032e-22)
(-0.00213183563504 0.03458510785 1.82716645542e-21)
(-0.00451440704105 0.0312027194262 1.27101468986e-21)
(-0.00228843876579 0.0393879261557 9.8849112945e-22)
(-0.00480264927625 0.0357280277782 1.80157836227e-22)
(-0.00247659584331 0.0445089361109 2.13342585208e-22)
(-0.00512082065647 0.040549866237 -3.2583500327e-22)
(-0.00276572965458 0.049984248238 2.40287478032e-22)
(-0.00547511129115 0.0456948389849 -3.48428787908e-22)
(-0.00328062836321 0.0559023924918 1.39379465551e-22)
(-0.00591795337464 0.0512184450697 -2.24729412037e-22)
(-0.00368470298371 0.0623528624824 -1.90388485096e-22)
(-0.00645030683706 0.0576623967581 1.91987164263e-22)
(-0.00241162778982 0.0687126664603 -1.94270430212e-21)
(-0.00635969035384 0.0615291714924 -1.47656174519e-21)
(0.000214423652323 0.072791314848 -6.27004412663e-21)
(-0.00407859364205 0.076004322917 -7.24043715963e-21)
(-0.00499143971749 0.0767443781797 -1.2927768204e-20)
(-0.0039530506346 0.0584790338163 -9.11671708712e-21)
(-0.0475847774484 0.099214028191 -1.41202219453e-20)
(-0.0224699430841 0.0812178681481 -1.39072811524e-20)
(-0.0912482348833 0.173708868993 -1.07649024479e-20)
(-0.0744958852238 0.104374662835 -9.28781820263e-21)
(-0.174757105673 0.247112240422 -1.06397939387e-20)
(-0.00573940000762 0.00326113294342 8.4242118245e-22)
(-0.00746180338229 0.00120892181251 8.27717497733e-22)
(-0.00525670802462 0.0065554926298 6.69293481451e-22)
(-0.00664614129467 0.00504116121652 2.84901418504e-21)
(-0.00531161584503 0.00986004278806 -4.47391205478e-22)
(-0.00660495249719 0.00783805579168 5.15961725775e-22)
(-0.00552293150067 0.0131982737475 -2.06171737837e-21)
(-0.00679805451069 0.0112597163204 -6.13292188133e-22)
(-0.00577675914868 0.0166265870345 -2.53002639364e-21)
(-0.00707131264694 0.0145664170993 -2.03020500975e-21)
(-0.00605717837555 0.020202158341 -2.07792740818e-21)
(-0.00740333475801 0.0180011326191 -1.09008090414e-21)
(-0.00637415603752 0.0239622527037 -1.45373223702e-21)
(-0.00778979849066 0.021600562339 -1.34252550572e-21)
(-0.00673512849298 0.027941504477 5.50163260122e-23)
(-0.00823643384362 0.0253977733263 -1.2974328268e-22)
(-0.00714360313309 0.0321747388719 -3.7599392934e-22)
(-0.008747376161 0.0294301683245 5.72010191172e-22)
(-0.00759931395038 0.0366973321047 -1.13416829649e-21)
(-0.00932503682907 0.0337383779869 -1.08772409344e-21)
(-0.00810082679587 0.0415464969632 -8.87606376386e-22)
(-0.00996977681789 0.0383527000453 -4.7665798867e-22)
(-0.00866425955753 0.046755003556 -8.13445677977e-22)
(-0.0106834073078 0.0433030195499 -4.09016021393e-22)
(-0.00928223718154 0.0523255906505 -1.72121713325e-22)
(-0.0114883436225 0.0486446949326 -2.02669935974e-22)
(-0.00967567934422 0.0582339903114 -1.09418609583e-21)
(-0.0123585462558 0.0548957590659 -6.17594007732e-23)
(-0.00898322212589 0.0650257971125 -6.77429460269e-21)
(-0.0131513859186 0.0587424664492 -1.0629925045e-21)
(-0.00905024337208 0.073697539874 -1.00871101201e-20)
(-0.0127502845117 0.0733820450738 -1.51632460877e-20)
(-0.0192321413211 0.0821903602556 -1.00962300355e-20)
(-0.0124458630692 0.0597402957515 -9.79915229982e-21)
(-0.0528211138285 0.0873450106558 -9.07487740972e-21)
(-0.0276248851183 0.0824944042592 -1.63671306055e-20)
(-0.146783001947 0.110667140391 -9.16270969341e-21)
(-0.097819008392 0.0930091876698 -1.25331700446e-20)
(-0.258701592878 0.159651486994 -9.20538754292e-21)
(-0.00848257747001 0.00302525789965 2.83431050032e-21)
(-0.0104871205702 0.00114155826506 1.28458567147e-21)
(-0.00809095943163 0.00618640346389 2.69568242936e-21)
(-0.00980734487575 0.00482343966696 3.66488132071e-21)
(-0.00816619647062 0.00934440598003 3.50060743121e-22)
(-0.00976300338229 0.00746944375446 9.22486312801e-22)
(-0.00843498539308 0.0125508173888 -5.81779819511e-22)
(-0.0100044983217 0.0107751463103 -6.26209567528e-23)
(-0.00880306303669 0.015856742043 -5.90259520257e-22)
(-0.0103772488917 0.0139549719632 -5.16708653001e-22)
(-0.0092434218536 0.0192984344499 -3.54679001685e-22)
(-0.0108449907491 0.0172650784253 -9.03393121075e-23)
(-0.00975880256831 0.02291516877 -1.85365513824e-23)
(-0.0114064548716 0.020734472608 -1.79928782373e-22)
(-0.0103548506264 0.0267445011675 3.87250582479e-22)
(-0.0120655853629 0.0243957578148 2.18635823447e-22)
(-0.0110359996615 0.0308247637907 -1.39719972924e-22)
(-0.0128273808668 0.0282874866742 1.90143761358e-22)
(-0.0118045742922 0.0351956466062 -4.30213785613e-22)
(-0.0136956648556 0.0324521187599 -3.02986976966e-22)
(-0.0126614543807 0.0399000185573 1.93236632195e-24)
(-0.0146739222028 0.0369236782261 -1.21061577086e-22)
(-0.0136135378145 0.0449873946131 2.01759720609e-22)
(-0.015770565699 0.041732144852 1.24913251194e-22)
(-0.0146603631094 0.0505054909446 -9.2307623423e-23)
(-0.0170062454599 0.046937714493 5.41052383532e-23)
(-0.0157464429522 0.0565346074476 -3.05658094425e-23)
(-0.0183875039799 0.053093587931 -3.99605484185e-23)
(-0.0164097460485 0.0633309717162 -9.45194398951e-21)
(-0.0199476436945 0.0569398552143 2.74209096489e-22)
(-0.0159499993756 0.0714130289301 -1.48752882674e-20)
(-0.0208322909356 0.0709973326577 -7.83694106344e-21)
(-0.0228729637793 0.0795083034415 -1.60700528698e-20)
(-0.0205411293323 0.0576368900633 -6.60965922656e-21)
(-0.0649171369111 0.092145442649 -1.98254232404e-20)
(-0.0402623051538 0.0796887220429 -1.36236822215e-20)
(-0.191021292755 0.103787698579 -1.25758478941e-20)
(-0.109462144557 0.092741773929 -1.18347187763e-20)
(-0.299264062954 0.130828840688 -5.23062138799e-21)
(-0.0116552482107 0.00297389568099 2.11515649186e-21)
(-0.013461074791 0.00115251041109 7.77815450972e-22)
(-0.0113245342103 0.00598189577364 1.89168520415e-21)
(-0.0128154019486 0.00470080223432 3.3347535002e-21)
(-0.0114487102262 0.00901026929153 5.09804612928e-22)
(-0.0127914246352 0.00718499888103 1.16222496336e-21)
(-0.0117831703721 0.0120962720304 2.4502097567e-24)
(-0.0130905337995 0.0103680683298 1.92704250675e-22)
(-0.0122514570642 0.0152816097484 -1.67884448518e-23)
(-0.0135625999065 0.0134216609138 -4.45263760852e-23)
(-0.0128374950861 0.0186034183945 8.44109072051e-23)
(-0.0141667822262 0.0166022919901 7.66143942482e-23)
(-0.0135393055405 0.0220975483769 5.72435924564e-23)
(-0.0149005032842 0.0199415942408 7.37287304856e-23)
(-0.0143601271626 0.0258005628758 2.15290023253e-23)
(-0.0157684691925 0.0234693443731 1.11359547069e-23)
(-0.0153046849058 0.0297501058906 2.6876757316e-23)
(-0.0167765621325 0.0272226454923 -3.85841178276e-25)
(-0.0163778098597 0.033985519481 6.16523156174e-24)
(-0.0179307391001 0.0312434817333 4.53703917414e-23)
(-0.0175871181815 0.038549107563 1.91930778607e-24)
(-0.0192372523176 0.0355653284666 -2.35847194005e-23)
(-0.018947767004 0.0434867706534 -2.27412310624e-23)
(-0.0207080061745 0.0402150089339 1.52434604283e-23)
(-0.0204784164622 0.048846365264 1.06452313358e-22)
(-0.0223656455484 0.0452441518085 6.44265892973e-23)
(-0.0222325938933 0.0546895354753 2.64814357513e-22)
(-0.024230520387 0.0512185679672 -3.54221045619e-23)
(-0.0239345111389 0.0611233579292 1.88921202257e-21)
(-0.0263813613338 0.0549396997232 -4.1936531006e-23)
(-0.0248552645518 0.0684990396418 4.28687977407e-22)
(-0.0282079219693 0.0684004807984 8.39724175078e-22)
(-0.0363672428614 0.0763932355327 -4.16328857816e-21)
(-0.0284353158505 0.0553723668538 -4.57433784535e-21)
(-0.0815841116818 0.0892241373257 -5.63297775736e-21)
(-0.0530934471549 0.0764636764951 -5.78657846527e-21)
(-0.212280689359 0.0984500995752 -4.48949227022e-21)
(-0.118688810492 0.0887155794438 -5.04503966211e-21)
(-0.319226700622 0.112396485554 -2.84258192474e-21)
(-0.0145777558022 0.00292125128768 1.99741245931e-21)
(-0.0163823824626 0.0011387198311 2.00377315023e-22)
(-0.0142465638098 0.00577679372301 2.60529325941e-21)
(-0.0156709992087 0.00454764917444 3.31157384024e-21)
(-0.0144142742275 0.00866435440838 8.45124601107e-22)
(-0.0156790316682 0.00687412919764 1.31015988199e-21)
(-0.0148363499541 0.0116170498214 1.45727664833e-22)
(-0.0160432618163 0.00991046783948 2.5174638063e-22)
(-0.0154249715829 0.014660133703 4.88764630148e-23)
(-0.0166056983247 0.0128176658431 3.5816005363e-23)
(-0.0161625524981 0.0178446894829 6.59322175286e-23)
(-0.0173513284172 0.0158493598913 4.1120967792e-23)
(-0.0170533136195 0.021198693741 2.76210927362e-23)
(-0.0182544570243 0.0190328477322 3.8946151144e-23)
(-0.0180997688329 0.0247564386229 -1.07788887967e-23)
(-0.0193260850611 0.0224016450198 -9.7096048913e-24)
(-0.0193081460754 0.0285549417148 1.81077932471e-23)
(-0.020574847404 0.0259894254264 -1.30202963434e-23)
(-0.0206853215932 0.0326335358857 1.56204407791e-23)
(-0.0220089116765 0.0298373023634 2.36247696161e-23)
(-0.0222414877195 0.0370335147931 -1.02605667583e-23)
(-0.0236368414712 0.0339794503038 -1.82786583757e-23)
(-0.0239952177123 0.0417993934777 1.02411280788e-22)
(-0.025473661796 0.0384426656779 -2.21772545294e-23)
(-0.0259745930993 0.0469791201768 -7.74478286222e-23)
(-0.0275451821429 0.0432680702101 2.32709842211e-22)
(-0.0282459029635 0.0526445726886 -3.42172993081e-22)
(-0.029895821695 0.0490570501279 -3.76703120945e-22)
(-0.0305799091298 0.0588876320087 -1.09142437849e-21)
(-0.0326243166861 0.0526490511211 -6.2020422264e-22)
(-0.0319030235065 0.0658652082613 -4.16330164768e-21)
(-0.0351854463745 0.0656169516515 -3.67550509098e-21)
(-0.0457268282753 0.0731619890489 -6.19762773246e-21)
(-0.0357320857138 0.0532696453904 -7.83934959999e-21)
(-0.0907571872916 0.0849993928137 -5.19864037001e-21)
(-0.0649310291636 0.0729511104724 -6.01903312615e-21)
(-0.222737831256 0.0914237636843 -3.39812931663e-21)
(-0.125113663621 0.0838160031195 -4.69334301942e-21)
(-0.327189266555 0.0954284637323 -2.10709236698e-21)
(-0.0174089704331 0.00281422467277 1.51453869594e-21)
(-0.0191966602238 0.00108426651039 2.07849350549e-22)
(-0.0170425628931 0.0055177071972 2.01644046281e-21)
(-0.0183745334028 0.00434035947987 2.11382287969e-21)
(-0.0172470716632 0.00824397626886 7.16781661508e-22)
(-0.0184053449073 0.00650662334567 7.41971448555e-22)
(-0.0177578057345 0.0110347584659 1.4183472116e-22)
(-0.0188340758427 0.009368442345 1.63769921698e-22)
(-0.0184695693647 0.0139336348822 2.80605101402e-23)
(-0.0195045897175 0.0121013419788 3.67279320423e-23)
(-0.0193571696623 0.0169440006252 1.41349014074e-23)
(-0.0203616872277 0.0149605406078 2.28480605818e-24)
(-0.0204286653154 0.0201271784467 1.61545351657e-24)
(-0.0214375962409 0.0179603506291 6.12983370164e-24)
(-0.0216934850871 0.0235066997823 -1.19510124381e-23)
(-0.0227054928929 0.0211353843069 -5.28117604913e-24)
(-0.0231584910995 0.0271191135799 -7.50331997447e-24)
(-0.0241870588974 0.0245219635894 -2.12838127813e-23)
(-0.024832867814 0.0310039507391 -1.02743295388e-23)
(-0.0258934897309 0.0281587298364 1.25630649688e-23)
(-0.0267300123341 0.0352034087547 -3.01953461468e-23)
(-0.0278359239684 0.0320808154564 -1.70228996374e-23)
(-0.0288747182955 0.039764664972 1.08121306894e-22)
(-0.0300347017564 0.036315494816 -2.68547811422e-23)
(-0.0312937434575 0.0447472395704 -6.65454501117e-23)
(-0.0325275712023 0.0409040994448 2.40098506917e-22)
(-0.0340971577556 0.050168132028 -6.54734350503e-22)
(-0.0353165654748 0.0464596129871 -5.7737804512e-22)
(-0.0370473807927 0.0562251638415 -3.20428493513e-21)
(-0.0386812439156 0.0498903738553 -1.73201607468e-21)
(-0.0388330098872 0.0628462282355 -7.35155304329e-21)
(-0.0418064565776 0.0623332203242 -1.4233404019e-20)
(-0.0547746194255 0.0697150562869 -7.66075499367e-21)
(-0.0426009007739 0.0508961732498 -1.10728474809e-20)
(-0.0987426604247 0.0800853176238 -5.51373577555e-21)
(-0.0753013911677 0.0691401523795 -4.39596866636e-21)
(-0.226427287334 0.0832497610495 -3.40230606977e-21)
(-0.128278338932 0.0782676273158 -3.60574782015e-21)
(-0.324108402914 0.0790752121144 -1.83730233235e-21)
(-0.0200899962228 0.00266121670516 8.07133534293e-22)
(-0.0218579258425 0.00100649039796 3.38152165434e-22)
(-0.0196702538393 0.00520606461056 8.39353865433e-22)
(-0.0209194290699 0.0040839248259 2.31107569832e-21)
(-0.0199096494909 0.00775212643888 1.88959708745e-22)
(-0.0209514481496 0.00607586871671 7.31762287041e-22)
(-0.0204991755544 0.0103580968817 5.86631325801e-23)
(-0.0214400770704 0.00874394663069 1.43343882444e-22)
(-0.0213255071692 0.013061906514 1.09522279602e-23)
(-0.0222084149001 0.0112721748257 2.65948526327e-23)
(-0.0223588992074 0.0158926391699 -5.72026164761e-24)
(-0.0231924148504 0.0139290449808 -2.09290119819e-24)
(-0.0236060087046 0.0188662303719 -7.66795864056e-25)
(-0.0244111539639 0.0167161813198 -3.71630554457e-24)
(-0.0250806798011 0.0220318643207 -1.46139763923e-23)
(-0.0258710263941 0.019663909861 2.39854491791e-24)
(-0.0267929015454 0.025419519324 -1.21742783804e-24)
(-0.0275745265196 0.0228125684402 -2.20713364364e-23)
(-0.0287557037968 0.0290690234515 5.81449487015e-24)
(-0.0295427530172 0.026197706815 7.25182315978e-24)
(-0.0309864326979 0.033023043877 -1.36823346328e-23)
(-0.0317895902659 0.0298558525784 -2.65375212829e-23)
(-0.0335170497306 0.0373285537317 1.05122418881e-22)
(-0.0343400047116 0.0338131524079 -4.6454937241e-23)
(-0.03637531333 0.0420403770945 -2.70734088091e-22)
(-0.0372392148634 0.0381214633531 1.53950668621e-22)
(-0.0397201333804 0.0472350637703 -1.6546597693e-21)
(-0.0405111052108 0.0433650807 -1.08004401668e-21)
(-0.0432430395969 0.0530348712508 -1.27611351586e-20)
(-0.0444809448605 0.0466211427348 -2.20964547081e-21)
(-0.0454154901508 0.0593449017033 -1.79546984567e-20)
(-0.0481164296801 0.05844092443 -2.123822468e-20)
(-0.0629189799884 0.0658950122879 -7.80806115364e-21)
(-0.0491509960857 0.048114430071 -1.64687473794e-20)
(-0.104504517195 0.0747292216059 -2.48798071096e-21)
(-0.0841356182751 0.0648804863473 -1.13630466588e-20)
(-0.223804722498 0.0756586699643 -2.04074408273e-21)
(-0.129207799927 0.0728365825786 -1.15184554931e-20)
(-0.311777543935 0.0624067527705 -4.28349237829e-21)
(-0.022593772069 0.00248290431023 1.84209432946e-21)
(-0.0243408743787 0.00091627936201 5.44185031826e-22)
(-0.0221110865084 0.00483475030264 2.20348411993e-21)
(-0.0232713185724 0.00378503298936 2.83135453635e-21)
(-0.022383493024 0.00718360895567 6.8614646074e-22)
(-0.0233003452886 0.00558144211786 1.00240246866e-21)
(-0.0230477349938 0.0095851132812 1.11275602496e-22)
(-0.0238416111886 0.0080391364386 1.91089424332e-22)
(-0.0239776335558 0.0120760049822 1.35497234744e-23)
(-0.0246993233759 0.0103393638277 1.70390481132e-23)
(-0.0251474682204 0.0146833915508 -8.89450951545e-26)
(-0.0257997994923 0.0127618689499 -5.82841896489e-24)
(-0.0265611758591 0.0174190805133 -5.50964762605e-25)
(-0.0271468148581 0.0153064534683 7.11996219316e-24)
(-0.0282296371107 0.0203377865087 -5.05881512616e-24)
(-0.0287896435418 0.0179999042714 -3.75949944347e-24)
(-0.0301756346817 0.0234613050466 -1.36020854386e-23)
(-0.0306978757797 0.0208711188117 -5.38693976903e-24)
(-0.0324146061109 0.0268321798389 -2.51001929932e-23)
(-0.0329134072699 0.0239625435529 -1.51801906335e-24)
(-0.0349675696772 0.030493340575 -5.9310123891e-23)
(-0.035450424565 0.0273113508443 -2.63426268507e-23)
(-0.0378715297175 0.0344963311602 2.37331249932e-24)
(-0.0383428003597 0.0309420421976 -7.03946278606e-23)
(-0.0411712536808 0.038890660834 -6.55359259971e-22)
(-0.0416333714733 0.0349095808319 -1.57134681283e-23)
(-0.045052664744 0.043768452781 -1.6350297182e-21)
(-0.0453887517342 0.0397615733938 -7.9430788803e-22)
(-0.0491414938507 0.0492159041674 -1.06867349922e-20)
(-0.049928287318 0.0428178840509 -1.32133098446e-21)
(-0.0517001779445 0.0552464715952 -1.97522736027e-20)
(-0.0541469364981 0.0538521554471 -1.0006056491e-20)
(-0.0702000934722 0.0615161438923 -2.00237328845e-20)
(-0.0554206509784 0.0448150552436 -1.40013298237e-20)
(-0.108468240951 0.0690176112764 -2.03935214409e-20)
(-0.0916370262429 0.0600234856291 -1.49079988059e-20)
(-0.21516625678 0.0676856241993 -1.37612037887e-20)
(-0.127875687434 0.0671741914583 -1.51808848077e-20)
(-0.288453602677 0.0447699449261 -3.37494777766e-21)
(-0.0249071787042 0.00227679000757 1.53344523872e-21)
(-0.0266177039609 0.000812427658672 6.31349946072e-22)
(-0.0243508319364 0.00442171757181 1.63027288508e-21)
(-0.0254162856578 0.00345440396505 2.78980996155e-21)
(-0.024646679843 0.00653764074819 5.07345432251e-22)
(-0.0254163043855 0.00503205094001 1.0125609636e-21)
(-0.0253824115952 0.00872379100606 9.68528699489e-23)
(-0.0260277907294 0.00725642224783 1.92362157792e-22)
(-0.026406942791 0.0109830276768 -2.33909432609e-24)
(-0.0269585787265 0.00931098722683 1.7475451808e-23)
(-0.0276966526612 0.013346757445 1.38048832343e-24)
(-0.0281635318259 0.011474820725 -3.95121136554e-24)
(-0.0292555366902 0.0158187872049 3.9114275123e-24)
(-0.0296188233468 0.0137518550983 7.96261711085e-24)
(-0.031101637693 0.0184432207322 -4.08762408635e-24)
(-0.0314140013939 0.0161588404585 -6.49342643135e-24)
(-0.0332663134883 0.0212574531179 6.69712660621e-24)
(-0.0335119580609 0.0187113955088 3.30587885661e-26)
(-0.0357652138226 0.0243063140562 -2.76045292078e-24)
(-0.0359620722484 0.0214679367276 1.42396866784e-23)
(-0.0386234806605 0.0276220708535 -3.74271308203e-23)
(-0.0387658858351 0.0244623441806 -1.21333906728e-23)
(-0.0418865894839 0.0312576478811 -8.84814084882e-23)
(-0.04197819613 0.0277141387641 -4.52148658735e-23)
(-0.0456177922144 0.0352756208403 -1.54662096188e-22)
(-0.0456511789203 0.0312752906664 -2.17457962634e-23)
(-0.0500191025191 0.0397629439735 -4.80609154294e-22)
(-0.0498759315137 0.0356602122788 -2.73275064984e-22)
(-0.05468696367 0.0448063091964 -6.40652483256e-22)
(-0.0549715418494 0.0384615684012 -8.75770893237e-22)
(-0.0576832515614 0.0504662890898 -4.25511271203e-21)
(-0.0598068531221 0.0485055178653 -1.54197431998e-21)
(-0.0766553849545 0.0564610345526 -8.88559574512e-21)
(-0.0614153773552 0.0409285747907 -9.88657167582e-21)
(-0.110727759529 0.0625668564782 -9.69536217273e-21)
(-0.0977427401271 0.0544621602989 -1.076835652e-20)
(-0.199688985842 0.0593260793721 -4.79462879672e-21)
(-0.124634683724 0.0604664120293 -1.16299792961e-20)
(-0.252745474546 0.0172475555104 -2.35858442038e-21)
(-0.0270026063841 0.00204946447632 1.8877146689e-21)
(-0.028667204074 0.000697203688332 7.35000514294e-23)
(-0.0263680455338 0.00396036257053 2.17209804006e-21)
(-0.0273272202488 0.0030971940054 1.6238923666e-21)
(-0.0266771252544 0.00585669465634 6.97577689139e-22)
(-0.0273126708751 0.00443762320905 5.52615355822e-22)
(-0.0274722534574 0.00777871603799 1.12984739651e-22)
(-0.0279498418683 0.0064075720046 1.2726240677e-22)
(-0.0285790620219 0.00976953483487 1.58633347686e-23)
(-0.0289494191375 0.00819928307466 3.24055041284e-24)
(-0.029969313886 0.0118444788191 2.63091742189e-24)
(-0.0302384838241 0.0100872087406 6.75677617501e-24)
(-0.031655844033 0.0140429985527 -2.44223683279e-24)
(-0.0318173300255 0.0120695640941 -3.03302315553e-24)
(-0.0336657166466 0.0163606100371 -2.37274355643e-24)
(-0.0337315507898 0.0141537444881 1.99019774111e-25)
(-0.0360229864333 0.018850664244 7.57561886073e-24)
(-0.0360018843236 0.0163589182064 3.50255893443e-24)
(-0.0387538344454 0.0215158890192 4.86674892634e-24)
(-0.0386271260301 0.0187416332106 1.86761330956e-23)
(-0.0418955326182 0.0244306418298 -1.9921125726e-23)
(-0.0416803779681 0.0213302244471 -1.41128131402e-23)
(-0.0454991365367 0.0276412801636 2.15207463513e-23)
(-0.0451886679941 0.0241463373185 -4.31100244578e-23)
(-0.0496450749877 0.031212668861 -1.40358765059e-22)
(-0.0492224105507 0.0272333648139 -6.72308874354e-23)
(-0.0545476751199 0.0352238765344 -6.68436803927e-22)
(-0.0538869989339 0.0310758063609 -6.00210858045e-23)
(-0.0597953896778 0.0397765031091 -1.77709272997e-21)
(-0.0595240572094 0.033554401217 -1.21806545482e-21)
(-0.0633013672606 0.0449523250009 -7.17343328377e-21)
(-0.0649826100114 0.0423935705043 1.04888707072e-21)
(-0.0822535484164 0.0506397192644 -1.17693324507e-20)
(-0.0671027513814 0.0364370299937 -1.02353783341e-20)
(-0.110299506933 0.0553656897147 -1.27029736433e-20)
(-0.10246858899 0.0481973940639 -1.44801505269e-20)
(-0.168819277258 0.0464164632597 -9.19393491972e-21)
(-0.115685111594 0.0542166267292 -1.53428463994e-20)
(-0.176953900866 -0.00665994911033 -6.54027789586e-21)
(-0.0288595414333 0.00180673981232 -1.90322250875e-22)
(-0.030473976991 0.000575337699201 -6.73977739131e-22)
(-0.028144419205 0.00346797687639 4.40968235787e-24)
(-0.0289884923979 0.00271636531657 6.97004267996e-22)
(-0.0284573339603 0.00510459688732 -1.76999265465e-23)
(-0.0289493253688 0.00380755382024 9.69579665815e-23)
(-0.0292952597929 0.00676907743413 1.75182175323e-23)
(-0.0296143541022 0.00550906012461 4.07236543704e-23)
(-0.0304691483125 0.00848239522033 -5.86600818071e-24)
(-0.0306627625477 0.00701927864832 -1.88848745357e-23)
(-0.0319458268701 0.0102632298255 1.0928355976e-24)
(-0.0320193328225 0.00861292975405 -2.92946344026e-24)
(-0.0337424915415 0.0121355149659 -3.91766548627e-25)
(-0.0336896107454 0.0102770287245 1.24487048452e-24)
(-0.0358898400983 0.0140955949744 6.07432226498e-24)
(-0.0356915829248 0.0120113900462 -1.6677197595e-24)
(-0.038411230303 0.0161990713829 1.46030731693e-23)
(-0.0381052536639 0.0138427621577 1.75993673332e-23)
(-0.0413406823837 0.0184792398021 -3.0342897091e-25)
(-0.0409071483727 0.0158167877584 2.58731115708e-23)
(-0.0447280601778 0.0209519828041 -3.73017118719e-23)
(-0.0441528939904 0.0179523368758 -2.08326056368e-23)
(-0.0486414513242 0.0236660637802 -1.31861658245e-22)
(-0.0479025968597 0.0202687897708 -6.16745582143e-23)
(-0.053177297693 0.0267136981946 1.31067918193e-23)
(-0.05226989646 0.0228071575725 -3.05516389353e-23)
(-0.058554626897 0.0301547881169 -6.09649736695e-22)
(-0.0573279523932 0.0260283151256 2.719659702e-22)
(-0.0643794217988 0.0341253012752 1.60791434587e-21)
(-0.0634944597745 0.0281135245298 -7.38577245075e-22)
(-0.0685182416961 0.038750330522 -2.01305797958e-21)
(-0.0696075732952 0.0355143974451 1.75235555515e-21)
(-0.0870271250248 0.0441565046191 -1.29461964102e-20)
(-0.0725089045828 0.031284035276 -1.01840137234e-20)
(-0.107496912254 0.0475682537115 -1.7120023283e-20)
(-0.105880219913 0.0412268651389 -1.40512575923e-20)
(-0.126166647716 0.0374210027011 -1.26891893756e-20)
(-0.105537527828 0.0479552040147 -1.44683779661e-20)
(-0.107353199664 -0.00833904567105 -2.09149325708e-21)
(-0.0304648001713 0.00154865940792 2.13348779739e-22)
(-0.0320226688693 0.000450331549104 -7.01276249349e-22)
(-0.0296635948377 0.00295312850893 7.89552552219e-22)
(-0.0303929971366 0.00231809997997 2.06334138906e-21)
(-0.0299722920389 0.00432489041509 1.55381547498e-22)
(-0.0303211236737 0.00314992741164 6.70566795761e-22)
(-0.0308403108175 0.00570568323887 4.32056230247e-24)
(-0.030995182011 0.00457334835511 8.97742785798e-23)
(-0.0320649548857 0.00712395256128 -1.59483297952e-23)
(-0.0320810624464 0.00578733811653 -6.75753050974e-24)
(-0.0336096336499 0.0085913097288 -2.77742855334e-24)
(-0.0334867107153 0.00707066419873 -3.65329181689e-24)
(-0.0354955053404 0.0101251130818 -3.10827263546e-26)
(-0.0352234176049 0.00839529711874 6.45985409487e-25)
(-0.0377453630777 0.0117135291603 9.85732530871e-24)
(-0.0372799631348 0.00976645155289 3.83644029949e-24)
(-0.0403906384692 0.0134167823115 2.88694057346e-23)
(-0.039808417546 0.0112026187694 2.85951396043e-23)
(-0.0434818673434 0.0152318475145 5.34393490489e-24)
(-0.0427220872814 0.0127301552496 1.94754628167e-23)
(-0.0470741392902 0.0172094954213 -4.52054519792e-23)
(-0.0461303438188 0.0143692414156 -2.60173790358e-23)
(-0.0512442146148 0.0194033358979 3.96354610949e-23)
(-0.0500962970103 0.0161334252586 -4.95011699743e-23)
(-0.0561034653455 0.0218124140073 2.28307539445e-22)
(-0.0546788332282 0.0180627841835 1.53614330066e-22)
(-0.0619261863533 0.0245703003734 1.4303846182e-22)
(-0.0600857055729 0.0205456610063 1.2372386417e-22)
(-0.0683434438739 0.027855327436 -5.94136035798e-22)
(-0.066779377174 0.0221470536809 -4.66270681864e-22)
(-0.0732657637607 0.0317759421243 -6.41860018871e-21)
(-0.0735281211491 0.027876478679 -6.06435043083e-21)
(-0.0909728351141 0.0368470813591 -1.12890749055e-20)
(-0.077580022731 0.0253630708097 -1.56822262538e-20)
(-0.104429815782 0.0388482374819 -1.13996122754e-20)
(-0.107881269379 0.0334809705056 -1.25386574776e-20)
(-0.0907961780882 0.0313447418493 -3.87068184762e-21)
(-0.0980337648833 0.0389688088514 -1.37323898762e-20)
(-0.0584706966319 -0.000502472811871 8.44060666083e-22)
(-0.0318144188505 0.00128461741039 1.14871635997e-21)
(-0.0333073201084 0.000326497698173 -8.06163770265e-22)
(-0.0309249935493 0.00242027652205 1.9443556326e-21)
(-0.031528694291 0.0019053976972 1.98894752123e-21)
(-0.0312179146811 0.00351049760499 6.04959526843e-22)
(-0.0314113845972 0.00247632250644 7.71482198279e-22)
(-0.0320948416158 0.0046048360756 7.86961857676e-23)
(-0.0320895599457 0.00362151658806 1.48249787197e-22)
(-0.0333497442318 0.00571667285648 5.53750746858e-24)
(-0.0331929347548 0.00452402206952 2.34284186397e-24)
(-0.0349365527988 0.00685344971921 -2.29877854062e-25)
(-0.0346235135138 0.00548605236561 2.9425677888e-24)
(-0.036875897404 0.0080220799744 4.51350843533e-24)
(-0.036392056732 0.00645989220193 1.44619337272e-24)
(-0.0391895651497 0.00925615727259 2.25742545951e-23)
(-0.038514012423 0.00745727924443 -1.128172623e-23)
(-0.041917666087 0.0105005887436 1.92011966864e-23)
(-0.0410527698566 0.00847924019042 1.23716522483e-23)
(-0.0451261968767 0.0118268926563 -1.1885851124e-23)
(-0.0440482758455 0.00952607153016 8.96950147432e-25)
(-0.0488717817351 0.0132644076904 -3.03130970309e-23)
(-0.047567679008 0.010632789611 -3.24384735825e-23)
(-0.0532340266328 0.0148161269903 6.44776989965e-23)
(-0.0516478823661 0.0118045314899 -3.45079763013e-23)
(-0.05834865769 0.0165730570868 4.90306547902e-23)
(-0.0564356248971 0.0130652200358 1.2083388955e-23)
(-0.0645516053299 0.0186080588168 -4.85585279514e-22)
(-0.0621205744903 0.0146910844115 2.7648320279e-24)
(-0.0715036997618 0.0210196752513 -5.9364850769e-21)
(-0.0691908827674 0.0157040316303 -1.33858631302e-21)
(-0.0774160590692 0.0240495421202 -1.53279764959e-20)
(-0.0765579192166 0.0195284497767 -5.06588208986e-21)
(-0.0940221444372 0.028673434188 -1.69318088258e-20)
(-0.0822038932256 0.0186536306353 -1.25313299919e-20)
(-0.102525565158 0.0292779092816 -1.48714350783e-20)
(-0.108485662147 0.0249262653438 -1.37933312061e-20)
(-0.0687284217204 0.0263315100621 -9.01764736245e-21)
(-0.095087153727 0.0275656595501 -1.43997153307e-20)
(-0.0285638568225 0.00598816110799 -2.93082804189e-21)
(-0.0329049849903 0.00101520930052 3.4067390991e-23)
(-0.0343225661303 0.000192578357817 -8.18412611422e-22)
(-0.0319163325464 0.00187058763677 8.16074086905e-22)
(-0.0323841142232 0.00149095804749 1.17707290898e-21)
(-0.0321736947669 0.00269325372391 3.14772458633e-22)
(-0.0322340946209 0.00180638600185 1.39379388721e-22)
(-0.0330518444106 0.00349066994349 7.18964432929e-23)
(-0.0328870198472 0.0026610984387 5.13361343082e-23)
(-0.0343145826869 0.00428600428541 -2.52097815811e-25)
(-0.0339883081478 0.00325127600818 -2.11773097133e-23)
(-0.0359134100555 0.00508468181684 4.61863901558e-24)
(-0.0354222190157 0.00388904847657 -6.02525136046e-24)
(-0.0378669877736 0.00588529720071 -1.43490412926e-23)
(-0.037192681792 0.0045098712625 -6.2504533554e-27)
(-0.0402076342961 0.00669788668683 -2.14843285767e-23)
(-0.0393265716796 0.0051205790594 -2.77303626185e-23)
(-0.0429806716664 0.0075068669778 -5.93259429065e-24)
(-0.0418616624903 0.00571081959365 -1.01687633468e-23)
(-0.0462412135218 0.00834648443902 -1.96556723111e-23)
(-0.0448877616117 0.00627023869611 8.19622950468e-25)
(-0.0500600925608 0.00918144719654 -3.66333528529e-23)
(-0.0484024497503 0.00682265371337 -2.89874698857e-23)
(-0.0545406075455 0.0100732656504 -8.69022863428e-23)
(-0.0525395421614 0.00735581033822 -1.74331596202e-23)
(-0.0598420915435 0.0110615443898 -3.41824338073e-23)
(-0.0574237376216 0.00788143415117 -6.33460467589e-24)
(-0.0663278882009 0.0122030746865 -8.50236201483e-22)
(-0.0632619396613 0.00856633582271 2.30547643458e-22)
(-0.0737476144399 0.0136071540076 -4.67983325985e-22)
(-0.0705948238235 0.00887563914535 -9.62486571714e-22)
(-0.0808326777185 0.0156345125452 -2.26923558588e-21)
(-0.078585183824 0.0106340723747 -1.39088712272e-22)
(-0.0960853102741 0.0195896312331 -9.39285237217e-21)
(-0.0861589794092 0.0111217765908 -8.85520001192e-21)
(-0.102327294922 0.0187762913616 -1.33216114585e-20)
(-0.107672269331 0.0153477384733 -1.36736116486e-20)
(-0.0584712057661 0.019999079201 -8.31289601015e-21)