/*--------------------------------*- C++ -*----------------------------------*\
| =========                 |                                                 |
| \\      /  F ield         | OpenFOAM: The Open Source CFD Toolbox           |
|  \\    /   O peration     | Version:  v2012                                 |
|   \\  /    A nd           | Website:  www.openfoam.com                      |
|    \\/     M anipulation  |                                                 |
\*---------------------------------------------------------------------------*/
FoamFile
{
    version     2.0;
    format      ascii;
    class       surfaceVectorField;
    location    "5.2";
    object      ddtCorrDdt0(Uf);
}
// * * * * * * * * * * * * * * * * * * * * * * * * * * * * * * * * * * * * * //

dimensions      [0 1 -2 0 0 0 0];


internalField   nonuniform List<vector> 
300
(
(-0.00651265271045 0.00300260773685 2.75392827432e-21)
(-0.00814361261196 0.00170985931209 7.69955501813e-22)
(-0.00620596603773 0.00605473070484 8.07047304751e-21)
(-0.00803219229592 0.00459334208665 3.38443080372e-21)
(-0.00555205100944 0.00923768316775 1.57244513153e-20)
(-0.00767920056327 0.00781867390659 8.86785162558e-21)
(-0.00427247187612 0.0127032092771 3.1340464383e-21)
(-0.00708824049701 0.0112599020214 1.47218937421e-20)
(-0.0017528061213 0.0167918056451 -1.15459303344e-19)
(-0.00608853398414 0.015135930333 -1.18733177621e-20)
(0.00232218532275 0.0219292187306 -7.06516432977e-19)
(-0.00407335291944 0.0199548985913 -1.8028848276e-19)
(0.00857072796186 0.0299511122934 -1.64513892236e-18)
(-0.00119324139065 0.0267357439467 -8.05913099726e-19)
(0.00717428537472 0.041952638611 -2.85524972223e-18)
(0.00311996183688 0.0369326823748 -1.38139877876e-18)
(-0.00123366641869 0.0469103407431 -1.85693268039e-18)
(-0.00489544689943 0.0462760334961 -2.31970725015e-18)
(-0.00750486561578 0.0550191694274 1.0359780415e-18)
(-0.00799305379603 0.0549879730213 -4.32708638442e-19)
(-0.0171033188316 0.0697116329461 1.56280210892e-18)
(-0.0144478931662 0.0617352999974 1.17150139602e-18)
(-0.0529059472107 0.0935605503416 3.36117262495e-18)
(-0.0233932044739 0.0823786665317 2.85681627612e-19)
(-0.0682112431425 0.0964494908769 3.46408759368e-18)
(-0.0628266595098 0.090069705744 2.99473475067e-18)
(-0.0426572989257 0.0815826659576 1.28293167433e-18)
(-0.00966794368418 0.00312372701084 1.40045803121e-21)
(-0.0112996296038 0.00176620935338 2.72522755614e-22)
(-0.00950750396776 0.00634580886515 4.1818093818e-21)
(-0.0112914432295 0.00474477644806 1.62968413094e-21)
(-0.00918980418007 0.00972916109151 7.86529405241e-21)
(-0.0111020430143 0.00810702191935 4.19953261842e-21)
(-0.00868864496508 0.013470973977 -2.85470458309e-22)
(-0.0108687888191 0.0117441328767 6.87158502147e-21)
(-0.0079391609995 0.0178772364811 -7.67024971782e-20)
(-0.0105282739448 0.0158270869082 -6.25108975464e-21)
(-0.00690439932809 0.023694625051 -2.79685149509e-19)
(-0.00991192089834 0.0208121822163 -9.61547433421e-20)
(-0.00573132194954 0.0318411695234 -5.42172956134e-19)
(-0.009338119542 0.0273816828759 -2.8936648697e-19)
(-0.00726425776493 0.043812936629 -8.45856306679e-19)
(-0.00881543554548 0.0365672768028 -4.97294290781e-19)
(-0.0105662706784 0.0516734901439 -8.95483208194e-19)
(-0.0126725001668 0.0454016222935 -7.89698152703e-19)
(-0.0152878571524 0.0608525392691 -2.97185283925e-19)
(-0.0170305029377 0.0542570027344 -3.59699650653e-19)
(-0.0239454179837 0.0714142688397 -1.05619085288e-19)
(-0.024779926303 0.0634332314375 2.71590784649e-20)
(-0.0384121682268 0.0839629578175 -8.0756246663e-20)
(-0.0355663313381 0.0736145064301 -4.83754837479e-19)
(-0.0447653678274 0.0756751754658 8.13578831328e-19)
(-0.0540248647331 0.0756743325536 3.2985028796e-20)
(-0.0458253686144 0.0731034733299 1.13947602525e-18)
(-0.0129158459175 0.003179512901 5.01748855335e-22)
(-0.0145135215007 0.00177549288304 3.75293511308e-23)
(-0.0128971781472 0.00647831299168 1.64740736755e-21)
(-0.0146288487107 0.00476576076173 6.28004535221e-22)
(-0.0128260419009 0.00999504771271 3.20582358748e-21)
(-0.0146587748651 0.00815351682111 1.56993185735e-21)
(-0.0127591721949 0.0138912668413 9.05965725141e-22)
(-0.0148030885307 0.0118232645391 2.48844526907e-21)
(-0.0126690316236 0.0183740698168 -2.57033359186e-20)
(-0.0150424508788 0.0159214885758 -2.15225776198e-21)
(-0.012657463785 0.0238509518983 -1.05836080803e-19)
(-0.015406231094 0.0207119737513 -3.44775514553e-20)
(-0.0130639116336 0.030691050223 -2.44487821618e-19)
(-0.0161716568871 0.0264600937352 -1.12061403819e-19)
(-0.0151169919369 0.039394671538 -4.41136136805e-19)
(-0.0174773510592 0.033536718992 -2.2128698705e-19)
(-0.0191098338361 0.0474904184112 -2.53914595162e-19)
(-0.0206810401585 0.0410650306424 -3.64862215204e-19)
(-0.025280687181 0.0559874071625 -3.53552882633e-20)
(-0.025386940786 0.0490686104754 -5.98453965156e-20)
(-0.0344220583887 0.0639470689394 -3.50976673727e-19)
(-0.0325352647959 0.0568074986112 -1.54542160736e-19)
(-0.0454012561395 0.0710822975546 -3.70013562021e-19)
(-0.0423908988299 0.0634681920333 -4.54427879085e-19)
(-0.0497360578067 0.0692845283638 3.58882222716e-19)
(-0.0518094838133 0.065998999843 -3.50783765923e-20)
(-0.0510374391452 0.0678368006848 6.15074441564e-19)
(-0.0161780745456 0.00313995956886 1.63785031017e-22)
(-0.0176899584139 0.00173655981493 -6.83042534889e-23)
(-0.0163297834176 0.00639941079772 5.50529025015e-22)
(-0.0179282027888 0.0046326584469 2.63327208267e-22)
(-0.0165533654167 0.00986321170136 8.52553538938e-22)
(-0.0181629711062 0.00791172661195 4.97546545279e-22)
(-0.0169617996067 0.0136566125034 -5.69778218053e-22)
(-0.0186338987957 0.0114469795781 5.38921730369e-22)
(-0.0175824205949 0.0179473693764 -1.09264732987e-20)
(-0.0193627034546 0.0153344261082 -1.66028421386e-21)
(-0.0185243577263 0.0229345407959 -4.07028744708e-20)
(-0.0204080461434 0.0197389221729 -1.34435371694e-20)
(-0.0200128767704 0.0287270960139 -8.8860569251e-20)
(-0.0219551929296 0.0247776588462 -4.17579502766e-20)
(-0.0225687697177 0.0355064795672 -1.45013065449e-19)
(-0.0242147128219 0.0304966624581 -7.9953742586e-20)
(-0.0265914573664 0.0425087077082 -1.70793016557e-19)
(-0.0276007802703 0.0367123550318 -1.19390603435e-19)
(-0.0322275271948 0.0496503402283 -1.79032268989e-19)
(-0.0324021969696 0.0433590750406 -1.19770883283e-19)
(-0.0397779368648 0.0560349500176 -2.57993366095e-19)
(-0.0387491667275 0.0497151674466 -1.28998094208e-19)
(-0.0481452386654 0.0605176477511 -1.19492693657e-19)
(-0.0466316970895 0.0548430738119 -1.98328804969e-19)
(-0.0533187208391 0.0628424205955 2.21113842255e-19)
(-0.0538310070844 0.0580016241595 5.4487507986e-20)
(-0.0573968863525 0.0624042423366 2.22528917022e-19)
(-0.0193521911909 0.00300500618897 3.12379237614e-23)
(-0.0207318803925 0.00165100803508 -1.12310142706e-22)
(-0.0196576808654 0.00612255448867 2.1034472853e-22)
(-0.021085184919 0.00436166436089 1.59600926785e-22)
(-0.0201240975718 0.00940287403375 1.83914736709e-22)
(-0.0214823524543 0.00742877952797 1.76077905435e-22)
(-0.0208896334597 0.0129616995781 -5.51584265434e-22)
(-0.0222278180099 0.0107194174238 9.51837431021e-23)
(-0.0219913645412 0.0168947502594 -4.17734808456e-21)
(-0.0233219698895 0.0142760798734 -8.94856256873e-22)
(-0.0235443790996 0.021307664957 -1.44986129752e-20)
(-0.0248319546559 0.0181994547464 -4.73797427627e-21)
(-0.0257273507696 0.0262483678117 -3.28511236116e-20)
(-0.0268844624914 0.0225473377187 -1.4371237333e-20)
(-0.0287792492714 0.0317184319727 -5.4331280572e-20)
(-0.0296441826432 0.0273025616845 -2.86090571911e-20)
(-0.0329406496312 0.0374917234144 -6.83684701608e-20)
(-0.0333005394829 0.0324078310334 -4.13506014286e-20)
(-0.0383651386854 0.043269791718 -6.97367085019e-20)
(-0.0380754069433 0.037760631292 -4.51805485228e-20)
(-0.0449993942541 0.0485866567748 -6.93335330821e-20)
(-0.0439368116986 0.0430144304849 -4.26184116778e-20)
(-0.0520449642085 0.0529193978051 -2.43486033262e-20)
(-0.0508031373062 0.0474846115206 -4.36595220628e-20)
(-0.0579244378043 0.0568052030564 5.59025827525e-20)
(-0.057550583462 0.0511992878124 9.86502581874e-21)
(-0.0633254646962 0.0559787647399 5.10414672545e-20)
(-0.0223396479424 0.00278607448011 1.6052860318e-23)
(-0.023553136698 0.00152612090758 -1.21621311407e-22)
(-0.022773949308 0.00566763054292 1.2533410369e-22)
(-0.0240034637694 0.00398026830444 7.78857294432e-23)
(-0.023432540595 0.00868067633794 8.7346911828e-23)
(-0.0245309047675 0.00675839616398 5.69099098444e-23)
(-0.0244792890765 0.0119055534453 -2.48088248337e-22)
(-0.0254833326763 0.00972099235307 1.08496457077e-24)
(-0.0259363107683 0.0154149679534 -1.45548244858e-21)
(-0.0268523897076 0.0128749574977 -3.82550108272e-22)
(-0.0278845832547 0.0192492935678 -4.610598634e-21)
(-0.0286720886307 0.0162892146063 -1.52694436351e-21)
(-0.0304557240637 0.02343518967 -1.01291709125e-20)
(-0.0310556290884 0.0199848194833 -4.39650538e-21)
(-0.0337913603877 0.0279422008481 -1.56283780477e-20)
(-0.0341123233464 0.0239414698316 -8.4991602524e-21)
(-0.0380329995804 0.0326570329319 -1.81626797906e-20)
(-0.0379529987888 0.0281252633033 -1.1404725934e-20)
(-0.0432588868205 0.0373616254099 -1.80622516987e-20)
(-0.0427013281918 0.0324612712755 -1.17143846732e-20)
(-0.0494089859356 0.04185721841 -1.69444006585e-20)
(-0.0483510623603 0.0367499689071 -1.14209807785e-20)
(-0.0560930370175 0.0459411895153 -9.44589291791e-21)
(-0.0548168617664 0.040696469177 -1.09363969819e-20)
(-0.0627525464811 0.0500581229061 5.00391032074e-21)
(-0.0616540652548 0.0443777049686 -2.76908355613e-21)
(-0.0687233157375 0.048750737823 8.54587523646e-21)
(-0.0250639584232 0.0024999503481 -5.97884422822e-23)
(-0.0260845384266 0.00137157415297 -2.12330069397e-22)
(-0.0256006081442 0.00508290617188 9.46153559752e-24)
(-0.0266183775565 0.00351447619981 -3.06856136602e-23)
(-0.0264035177894 0.00776287879784 -2.93520374128e-23)
(-0.0272407966394 0.00594681120922 -4.75480475781e-23)
(-0.0276530413227 0.0105996433364 -1.33376895365e-22)
(-0.0283443354647 0.00852773220397 -3.95133886866e-23)
(-0.0293553092583 0.0136347893269 -4.54012023206e-22)
(-0.0299015829197 0.0112342284374 -1.56918369671e-22)
(-0.0315662540198 0.016899666938 -1.31285110951e-21)
(-0.0319361937392 0.0141210525177 -4.46905796953e-22)
(-0.0343825666386 0.0203874374606 -2.76649471992e-21)
(-0.0345244765036 0.0171916113842 -1.21912768958e-21)
(-0.0379081291363 0.0240785193773 -4.27550813877e-21)
(-0.0377661156723 0.0204244222985 -2.26016606158e-21)
(-0.0422348169688 0.0279070384394 -4.95643081658e-21)
(-0.0417312688537 0.0237965394763 -3.12049959503e-21)
(-0.0474062823835 0.0317568582515 -5.07311375292e-21)
(-0.0465007535305 0.0272659262891 -3.09756288556e-21)
(-0.0533906813225 0.035528767612 -5.41297710182e-21)
(-0.052092404304 0.0307317104045 -3.19427579928e-21)
(-0.0600543917068 0.0391474071461 -4.25958762008e-21)
(-0.0584606875142 0.0340648701469 -3.30501199197e-21)
(-0.067301275338 0.0428859373073 7.72881359595e-22)
(-0.0655354560411 0.0373212531438 -9.04633451966e-22)
(-0.0734098213523 0.0410331363649 6.10280270441e-21)
(-0.0274669638061 0.00216447209576 -1.83227240775e-22)
(-0.0282751700925 0.00119507962607 -2.55521194639e-22)
(-0.028080375465 0.00440053295724 -8.76951968359e-23)
(-0.0288799931034 0.00298551985101 -3.2821304429e-23)
(-0.0289849300774 0.00669862962871 -5.77093988519e-23)
(-0.0295615858616 0.00503176520014 -4.69705672344e-23)
(-0.0303738506914 0.00910464423772 -6.30548629927e-23)
(-0.0307666732186 0.00719648687486 -2.50831933181e-23)
(-0.0322371617793 0.0116459943283 -1.49812143418e-22)
(-0.0324487538727 0.00943095428821 -7.85914986176e-23)
(-0.0346183317665 0.014335534063 -3.5318237702e-22)
(-0.0346174291291 0.0117778629018 -1.30198233808e-22)
(-0.0375909325659 0.0171680360195 -7.12799031242e-22)
(-0.0373332861393 0.0142380999303 -3.10221740787e-22)
(-0.0412345175165 0.020113024489 -1.10515751783e-21)
(-0.0406752467175 0.0167886013419 -5.65756972935e-22)
(-0.0456225395932 0.0231392654128 -1.261631664e-21)
(-0.044719499116 0.0194052649176 -8.01720108251e-22)
(-0.0508028548791 0.0261856027627 -1.21872493192e-21)
(-0.0495247499178 0.0220604746861 -7.82010279803e-22)
(-0.0567829813104 0.0292287795942 -1.08631068943e-21)
(-0.0551545702604 0.0247066937747 -6.79529009389e-22)
(-0.0635646486345 0.0322381823887 4.99421761458e-23)
(-0.0615870724097 0.0273058322168 -2.56603386456e-22)
(-0.071274161069 0.0353526098689 4.42528789285e-21)
(-0.0689371102494 0.0299069941467 1.97357750213e-21)
(-0.0774530005208 0.0328186677367 9.68954599006e-21)
(-0.0295031280663 0.00179645493654 -1.05115258293e-22)
(-0.0300892106268 0.00100346703305 -1.54826492661e-22)
(-0.0301705692503 0.00364842607031 7.90332517247e-24)
(-0.0307479748215 0.00241187255841 1.02883259359e-23)
(-0.0311376699291 0.00553628195841 -1.43443617005e-23)
(-0.0314615992333 0.00404738711231 2.30182764437e-23)
(-0.0326140167804 0.00748891087839 -4.06198289429e-23)
(-0.0327240130472 0.00577452335147 -1.79551295874e-23)
(-0.0345747339739 0.00952303800107 -5.89775890071e-23)
(-0.0344761135066 0.00752584811093 -5.09472362779e-23)
(-0.0370507910643 0.0116411388063 -8.72375975753e-23)
(-0.0367145293912 0.00933390544013 -4.41264239774e-23)
(-0.0401071254775 0.0138344534211 -1.6317968248e-22)
(-0.0394920477244 0.0111953988482 -7.61218944432e-23)
(-0.0438141142507 0.0160779726276 -2.62319563351e-22)
(-0.0428776550045 0.0130855682791 -1.34904936471e-22)
(-0.0482414037544 0.0183341064739 -3.22098724054e-22)
(-0.0469477161104 0.0149708884898 -2.00142148915e-22)
(-0.0534560311518 0.020571519578 -2.4281435727e-22)
(-0.0517647757212 0.0168243004362 -1.80448884495e-22)
(-0.059519605215 0.0227745255079 1.50178293586e-22)
(-0.057420114588 0.0186158163695 -8.08652589108e-23)
(-0.0665109822158 0.0250040176897 1.66703193953e-21)
(-0.0640132634016 0.0203296004467 4.99294317818e-22)
(-0.074639457115 0.0272990611847 7.23783559934e-21)
(-0.0716389974358 0.0220106796504 3.04442069198e-21)
(-0.080657496364 0.0238602788457 1.17749268778e-20)
(-0.0311415892289 0.00140461568529 -3.94229084327e-23)
(-0.0315008655767 0.000802098116846 -4.28838777731e-23)
(-0.0318419786401 0.00285228233079 2.54032772072e-23)
(-0.0321993502199 0.00181241170262 6.58681214958e-23)
(-0.0328377685798 0.00431193128494 1.94075085569e-23)
(-0.0329194575286 0.00302629538718 3.43597441617e-23)
(-0.0343565131184 0.0058011908122 -2.82825369223e-23)
(-0.0342020482545 0.0043078261006 -9.19567550222e-24)
(-0.0363615580011 0.00732680493209 -3.60960712481e-23)
(-0.0359771120952 0.00557506872945 -4.2361374012e-23)
(-0.0388733516825 0.0088846567737 -3.30107208453e-23)
(-0.0382323261619 0.00685193560088 -2.51641638293e-23)
(-0.0419516335351 0.0104571089248 -4.78471484341e-23)
(-0.041012656249 0.00812889381982 -2.43898008321e-23)
(-0.0456643394112 0.0120145204669 -7.27275220349e-23)
(-0.0443866498286 0.00937687441657 -4.09320117526e-23)
(-0.0500818316254 0.0135105945412 -5.84923093567e-23)
(-0.048415213442 0.0105531348543 -5.61034834412e-23)
(-0.055294947559 0.0149215409427 -1.84997861355e-23)
(-0.0531916742606 0.0116120016484 -1.10819994014e-23)
(-0.0614178348406 0.0162260627369 2.68250765321e-22)
(-0.058812050563 0.0125081787078 8.58075559355e-23)
(-0.0685909247661 0.0173969637713 1.87668307028e-21)
(-0.0654334486516 0.0132019186814 6.48194402521e-22)
(-0.0770639260475 0.0185257649348 7.5815119704e-21)
(-0.0732545404857 0.0136904796255 3.13453100741e-21)
(-0.0826461551708 0.0141273489751 1.13577471967e-20)
(-0.0323646935179 0.00100160175593 6.24071521554e-23)
(-0.0330808157657 0.00203681229274 7.48245884504e-23)
(-0.0340771569071 0.00306511817084 5.7565601026e-24)
(-0.0355995562695 0.00409263082067 -2.32745125919e-23)
(-0.0376029655322 0.00511676179101 -3.14294665931e-23)
(-0.0400993779148 0.00612503059047 -1.65432438161e-23)
(-0.0431429873015 0.00709777592787 -1.74746641506e-23)
(-0.0468014245311 0.00798854022212 -2.43079731589e-23)
(-0.0511375468863 0.00876145336131 -8.69317348587e-24)
(-0.0491488947869 0.0062222347798 -2.04548987566e-23)
(-0.0562570733072 0.0093273576914 9.32253426696e-23)
(-0.0537609429018 0.00651053447962 9.82718892402e-24)
(-0.0623054857859 0.00963830051097 4.65751193136e-22)
(-0.0592587215238 0.00651360910987 1.58355054208e-22)
(-0.0694841367055 0.00963249343893 1.90604233965e-21)
(-0.0657157450527 0.00614587202608 7.32345502636e-22)
(-0.0781241636671 0.00930451048355 6.91076623375e-21)
(-0.0734749457909 0.0053086780378 2.93952993228e-21)
(-0.0829964182631 0.00407492232102 9.93007205284e-21)
(-0.0514274820629 0.00414691651337 -1.93453634673e-24)
(-0.0563535932245 0.00390439553959 7.49569004627e-23)
(-0.0621440508933 0.00329999050945 4.24949363709e-22)
(-0.0690656031826 0.00210533501808 1.76583309527e-21)
(-0.0649022861979 -0.000645431208422 5.77249176518e-22)
(-0.077532895304 0.000249991773163 5.95883575137e-21)
(-0.0722911303338 -0.00277589763672 2.27316474577e-21)
(-0.0814484985323 -0.00576854703239 7.38908546645e-21)
(-0.0675001732849 -0.0050461852 1.08458082702e-21)
(-0.0752725314572 -0.00832460440299 3.70341446084e-21)
(-0.0778248063264 -0.0149691749632 3.83336379303e-21)
)
;

boundaryField
{
    back
    {
        type            calculated;
        value           uniform (0 0 0);
    }
    sides
    {
        type            calculated;
        value           nonuniform List<vector> 0();
    }
    bottom
    {
        type            calculated;
        value           uniform (0 0 0);
    }
    front
    {
        type            calculated;
        value           uniform (0 0 0);
    }
    atmosphere
    {
        type            calculated;
        value           nonuniform List<vector> 0();
    }
    floatingObject
    {
        type            calculated;
        value           nonuniform List<vector> 4((0 -2.77337115643e-18 3.46671394553e-19) (0 -2.77337115643e-18 3.46671394553e-19) (0 0 0) (0 -5.54674231285e-18 3.46671394553e-19));
    }
    procBoundary8to3
    {
        type            processor;
        value           nonuniform List<vector> 8((-0.00509103857652 0.00161685816247 1.47767301799e-21) (-0.00492285981321 0.00430376785501 5.72339692177e-21) (-0.00443409978117 0.00719582678955 1.41730959928e-20) (-0.00355952956321 0.0100192060183 2.3586990851e-20) (-0.00194214691643 0.0127115893902 5.95655331188e-21) (0.00110701120613 0.0155672791444 -1.12634273715e-19) (0.00684449427787 0.017760145885 -6.79417233901e-19) (0.0151050539983 0.0217270178072 -8.83960307351e-19));
    }
    procBoundary8to6
    {
        type            processor;
        value           nonuniform List<vector> 
16
(
(-0.0608885661288 0.0584215131729 2.88152018917e-18)
(-0.0568672433955 0.0631532166112 7.81034098716e-19)
(-0.0474933965803 0.083188477509 9.69211920167e-19)
(-0.0423904762886 0.0793852653737 1.3207623058e-18)
(-0.0495860856441 0.0749321151217 9.19709217621e-19)
(-0.0565670995139 0.0694994107103 4.08216526186e-19)
(-0.0633311097777 0.0628644963556 1.06598072501e-19)
(-0.0695873262196 0.0554021679418 2.05124963152e-20)
(-0.0751773628665 0.0473340659016 9.4308451786e-21)
(-0.0799508344917 0.0389918882265 1.19023505643e-20)
(-0.0839876902238 0.0299703632714 1.6862023477e-20)
(-0.0870251950585 0.0198948087237 2.00946846427e-20)
(-0.0886357768325 0.00899118200515 1.55523507285e-20)
(-0.0882599410379 -0.00211360640968 1.69235192037e-20)
(-0.0852412058066 -0.012952459458 7.89027620745e-21)
(-0.0796748984524 -0.0225397498688 4.08928483381e-21)
)
;
    }
    procBoundary8to7
    {
        type            processor;
        value           nonuniform List<vector> 
17
(
(-0.0324998971105 0.000596888825528 2.60882404732e-23)
(-0.0332261041134 0.00120819153398 1.14344005607e-22)
(-0.0339323368329 0.0020025621737 4.21660801971e-23)
(-0.0352037851511 0.00284269372085 -1.01425066903e-23)
(-0.0369613649593 0.00363409250044 -4.20866495848e-23)
(-0.0391862607051 0.00439288744423 -2.72933524603e-23)
(-0.0419149959896 0.00510125672541 -1.25197200989e-23)
(-0.0452138469075 0.00572479480558 -1.35811868279e-23)
(-0.0472288151017 0.00406736263018 -9.72811242557e-24)
(-0.049138385121 0.00202110231034 1.06145515542e-24)
(-0.0536072247666 0.00157382420208 4.71300772593e-24)
(-0.0587759771715 0.000740980769909 7.99816546538e-23)
(-0.0611049899003 -0.0027741129473 2.32281467463e-22)
(-0.0632247015265 -0.00709718193351 4.13662986925e-22)
(-0.0697686736486 -0.0103926699439 1.42377785175e-21)
(-0.071699492276 -0.0162796113562 1.55372718394e-21)
(-0.0728626465737 -0.0229862168091 1.77397999484e-21)
)
;
    }
}


// ************************************************************************* //
