/*--------------------------------*- C++ -*----------------------------------*\
| =========                 |                                                 |
| \\      /  F ield         | OpenFOAM: The Open Source CFD Toolbox           |
|  \\    /   O peration     | Version:  v2012                                 |
|   \\  /    A nd           | Website:  www.openfoam.com                      |
|    \\/     M anipulation  |                                                 |
\*---------------------------------------------------------------------------*/
FoamFile
{
    version     2.0;
    format      ascii;
    class       volScalarField;
    location    "5.2";
    object      k_0;
}
// * * * * * * * * * * * * * * * * * * * * * * * * * * * * * * * * * * * * * //

dimensions      [0 2 -2 0 0 0 0];


internalField   nonuniform List<scalar> 
164
(
0.00127769893088
0.00160411898547
0.00171221348653
0.00175443119904
0.00176758701819
0.00175820810183
0.00171587707961
0.00161940622703
0.00149283040808
0.00149199328028
0.00152359065838
0.00164679194504
0.0020014770844
0.0024215042625
0.00128476217601
0.00161093260178
0.00171960705927
0.00176364716821
0.00178199964924
0.00178660895946
0.00177953467851
0.00176232069532
0.00175875717771
0.00177653450016
0.00180182672354
0.00185113139271
0.00201582340825
0.0022989093222
0.00129240410514
0.00161862695971
0.00172772195903
0.00177283072407
0.00179403977235
0.00180563541517
0.00181277856181
0.00181916548785
0.0018307027442
0.0018495533667
0.00187308842521
0.00191263469644
0.00201432829319
0.00223891443767
0.00130033980137
0.00162688541783
0.00173625232082
0.00178175292005
0.00180395913837
0.00181788911288
0.0018292774585
0.00184089486206
0.00185504728116
0.00187264793072
0.00189454800219
0.00192950592668
0.00200774775819
0.002203050018
0.00130838745649
0.00163542944524
0.0017449943162
0.00179050984144
0.00181278979214
0.001827081089
0.00183923475198
0.00185160743331
0.00186541885895
0.00188142389129
0.0019013585756
0.00193293407732
0.00200133963994
0.00218159446887
0.00131630080037
0.00164400026937
0.0017537295396
0.00179907168063
0.00182102476916
0.00183494161761
0.00184670253747
0.00185856620124
0.00187148720597
0.00188619889431
0.00190469287996
0.00193429585826
0.00199879786948
0.00217165553967
0.00132387145331
0.00165235921094
0.00176226398402
0.00180735223434
0.00182882465798
0.00184214078993
0.0018532035751
0.00186426253966
0.00187624996501
0.0018899864827
0.0019077666314
0.00193732296076
0.00200268907015
0.00217563956623
0.00133098419157
0.00166033631313
0.00177043428623
0.00181524557368
0.00183619995712
0.0018488734538
0.00185921386841
0.00186948324064
0.0018806495213
0.00189368170283
0.00191129696646
0.00194213076745
0.00201146959947
0.00219049961482
0.00133765057848
0.00166785858983
0.00177814811244
0.00182268274975
0.00184312659181
0.00185518298746
0.00186485057933
0.00187441556866
0.00188488221575
0.00189734831638
0.00191491473673
0.00194706955747
0.0020201472353
0.00220389168358
0.00134375515985
0.00167484790761
0.00178533796461
0.0018296054739
0.0018495646916
0.00186105149459
0.00187011308795
0.0018790556876
0.00188890367176
0.00190081261143
0.00191806906614
0.00195057748372
0.00202501228979
0.0022090449224
0.00134935002236
0.00168127461415
0.00179195729043
0.00183597190468
0.00185547971419
0.00186644876856
0.00187497080004
0.00188336336821
0.00189265340626
0.00190400156396
0.00192071006876
0.00195277212682
0.00202696475506
0.00220986070207
0.00189609702097
0.00190691238157
0.00192300410343
0.00195432314196
0.00202784708066
0.00221025215942
0.00195486786963
0.00202610270723
0.00220463732366
0.00218683870901
)
;

boundaryField
{
    back
    {
        type            kqRWallFunction;
        value           nonuniform List<scalar> 
164
(
0.00127769893088
0.00160411898547
0.00171221348653
0.00175443119904
0.00176758701819
0.00175820810183
0.00171587707961
0.00161940622703
0.00149283040808
0.00149199328028
0.00152359065838
0.00164679194504
0.0020014770844
0.0024215042625
0.00128476217601
0.00161093260178
0.00171960705927
0.00176364716821
0.00178199964924
0.00178660895946
0.00177953467851
0.00176232069532
0.00175875717771
0.00177653450016
0.00180182672354
0.00185113139271
0.00201582340825
0.0022989093222
0.00129240410514
0.00161862695971
0.00172772195903
0.00177283072407
0.00179403977235
0.00180563541517
0.00181277856181
0.00181916548785
0.0018307027442
0.0018495533667
0.00187308842521
0.00191263469644
0.00201432829319
0.00223891443767
0.00130033980137
0.00162688541783
0.00173625232082
0.00178175292005
0.00180395913837
0.00181788911288
0.0018292774585
0.00184089486206
0.00185504728116
0.00187264793072
0.00189454800219
0.00192950592668
0.00200774775819
0.002203050018
0.00130838745649
0.00163542944524
0.0017449943162
0.00179050984144
0.00181278979214
0.001827081089
0.00183923475198
0.00185160743331
0.00186541885895
0.00188142389129
0.0019013585756
0.00193293407732
0.00200133963994
0.00218159446887
0.00131630080037
0.00164400026937
0.0017537295396
0.00179907168063
0.00182102476916
0.00183494161761
0.00184670253747
0.00185856620124
0.00187148720597
0.00188619889431
0.00190469287996
0.00193429585826
0.00199879786948
0.00217165553967
0.00132387145331
0.00165235921094
0.00176226398402
0.00180735223434
0.00182882465798
0.00184214078993
0.0018532035751
0.00186426253966
0.00187624996501
0.0018899864827
0.0019077666314
0.00193732296076
0.00200268907015
0.00217563956623
0.00133098419157
0.00166033631313
0.00177043428623
0.00181524557368
0.00183619995712
0.0018488734538
0.00185921386841
0.00186948324064
0.0018806495213
0.00189368170283
0.00191129696646
0.00194213076745
0.00201146959947
0.00219049961482
0.00133765057848
0.00166785858983
0.00177814811244
0.00182268274975
0.00184312659181
0.00185518298746
0.00186485057933
0.00187441556866
0.00188488221575
0.00189734831638
0.00191491473673
0.00194706955747
0.0020201472353
0.00220389168358
0.00134375515985
0.00167484790761
0.00178533796461
0.0018296054739
0.0018495646916
0.00186105149459
0.00187011308795
0.0018790556876
0.00188890367176
0.00190081261143
0.00191806906614
0.00195057748372
0.00202501228979
0.0022090449224
0.00134935002236
0.00168127461415
0.00179195729043
0.00183597190468
0.00185547971419
0.00186644876856
0.00187497080004
0.00188336336821
0.00189265340626
0.00190400156396
0.00192071006876
0.00195277212682
0.00202696475506
0.00220986070207
0.00189609702097
0.00190691238157
0.00192300410343
0.00195432314196
0.00202784708066
0.00221025215942
0.00195486786963
0.00202610270723
0.00220463732366
0.00218683870901
)
;
    }
    sides
    {
        type            kqRWallFunction;
        value           nonuniform List<scalar> 0();
    }
    bottom
    {
        type            kqRWallFunction;
        value           nonuniform List<scalar> 
11
(
0.00127769893088
0.00128476217601
0.00129240410514
0.00130033980137
0.00130838745649
0.00131630080037
0.00132387145331
0.00133098419157
0.00133765057848
0.00134375515985
0.00134935002236
)
;
    }
    front
    {
        type            kqRWallFunction;
        value           nonuniform List<scalar> 
164
(
0.00127769893088
0.00160411898547
0.00171221348653
0.00175443119904
0.00176758701819
0.00175820810183
0.00171587707961
0.00161940622703
0.00149283040808
0.00149199328028
0.00152359065838
0.00164679194504
0.0020014770844
0.0024215042625
0.00128476217601
0.00161093260178
0.00171960705927
0.00176364716821
0.00178199964924
0.00178660895946
0.00177953467851
0.00176232069532
0.00175875717771
0.00177653450016
0.00180182672354
0.00185113139271
0.00201582340825
0.0022989093222
0.00129240410514
0.00161862695971
0.00172772195903
0.00177283072407
0.00179403977235
0.00180563541517
0.00181277856181
0.00181916548785
0.0018307027442
0.0018495533667
0.00187308842521
0.00191263469644
0.00201432829319
0.00223891443767
0.00130033980137
0.00162688541783
0.00173625232082
0.00178175292005
0.00180395913837
0.00181788911288
0.0018292774585
0.00184089486206
0.00185504728116
0.00187264793072
0.00189454800219
0.00192950592668
0.00200774775819
0.002203050018
0.00130838745649
0.00163542944524
0.0017449943162
0.00179050984144
0.00181278979214
0.001827081089
0.00183923475198
0.00185160743331
0.00186541885895
0.00188142389129
0.0019013585756
0.00193293407732
0.00200133963994
0.00218159446887
0.00131630080037
0.00164400026937
0.0017537295396
0.00179907168063
0.00182102476916
0.00183494161761
0.00184670253747
0.00185856620124
0.00187148720597
0.00188619889431
0.00190469287996
0.00193429585826
0.00199879786948
0.00217165553967
0.00132387145331
0.00165235921094
0.00176226398402
0.00180735223434
0.00182882465798
0.00184214078993
0.0018532035751
0.00186426253966
0.00187624996501
0.0018899864827
0.0019077666314
0.00193732296076
0.00200268907015
0.00217563956623
0.00133098419157
0.00166033631313
0.00177043428623
0.00181524557368
0.00183619995712
0.0018488734538
0.00185921386841
0.00186948324064
0.0018806495213
0.00189368170283
0.00191129696646
0.00194213076745
0.00201146959947
0.00219049961482
0.00133765057848
0.00166785858983
0.00177814811244
0.00182268274975
0.00184312659181
0.00185518298746
0.00186485057933
0.00187441556866
0.00188488221575
0.00189734831638
0.00191491473673
0.00194706955747
0.0020201472353
0.00220389168358
0.00134375515985
0.00167484790761
0.00178533796461
0.0018296054739
0.0018495646916
0.00186105149459
0.00187011308795
0.0018790556876
0.00188890367176
0.00190081261143
0.00191806906614
0.00195057748372
0.00202501228979
0.0022090449224
0.00134935002236
0.00168127461415
0.00179195729043
0.00183597190468
0.00185547971419
0.00186644876856
0.00187497080004
0.00188336336821
0.00189265340626
0.00190400156396
0.00192071006876
0.00195277212682
0.00202696475506
0.00220986070207
0.00189609702097
0.00190691238157
0.00192300410343
0.00195432314196
0.00202784708066
0.00221025215942
0.00195486786963
0.00202610270723
0.00220463732366
0.00218683870901
)
;
    }
    atmosphere
    {
        type            inletOutlet;
        inletValue      nonuniform List<scalar> 0();
        value           nonuniform List<scalar> 0();
    }
    floatingObject
    {
        type            kqRWallFunction;
        value           nonuniform List<scalar> 4(0.00149283040808 0.00149199328028 0.00152359065838 0.00164679194504);
    }
    procBoundary8to3
    {
        type            processor;
        value           nonuniform List<scalar> 8(0.00127148801938 0.00159825927958 0.00170586833192 0.00174621326188 0.00175491861302 0.00173520457043 0.00166303282282 0.0014066782346);
    }
    procBoundary8to6
    {
        type            processor;
        value           nonuniform List<scalar> 
16
(
0.00203724229374
0.00267963325049
0.00309973844627
0.00290666141027
0.00280061157249
0.00273714493004
0.00269585934632
0.00266874341079
0.00266296974931
0.00267686581888
0.0026857978496
0.00268136502829
0.00267494093374
0.00267239892407
0.00265902366757
0.00262078074061
)
;
    }
    procBoundary8to7
    {
        type            processor;
        value           nonuniform List<scalar> 
17
(
0.00135438021363
0.00168710099356
0.00179797574868
0.00184175769754
0.001860851507
0.00187135482677
0.00187940012624
0.00188730534576
0.00188730534576
0.00189920202306
0.001909500333
0.00192484610125
0.00192484610125
0.00195386747129
0.0020196646463
0.0020196646463
0.0021587137475
)
;
    }
}


// ************************************************************************* //
