/*--------------------------------*- C++ -*----------------------------------*\
| =========                 |                                                 |
| \\      /  F ield         | OpenFOAM: The Open Source CFD Toolbox           |
|  \\    /   O peration     | Version:  v2012                                 |
|   \\  /    A nd           | Website:  www.openfoam.com                      |
|    \\/     M anipulation  |                                                 |
\*---------------------------------------------------------------------------*/
FoamFile
{
    version     2.0;
    format      ascii;
    class       volScalarField;
    location    "0.9";
    object      epsilon_0;
}
// * * * * * * * * * * * * * * * * * * * * * * * * * * * * * * * * * * * * * //

dimensions      [0 2 -3 0 0 0 0];


internalField   nonuniform List<scalar> 
164
(
0.0288907498519
0.0290960519565
0.0293249609388
0.0295750199682
0.0298441925687
0.0301323112424
0.0304442222468
0.0308109602491
0.0313629790951
0.0326236852441
0.0367071175409
0.0649109940391
0.214199989521
0.025791636656
0.0255237116346
0.0273829630189
0.0280047460517
0.0284428140037
0.0286208531106
0.0288222147741
0.029051955935
0.0293078078662
0.0295857168646
0.0298828586549
0.0301989957379
0.0305380769509
0.0309266142478
0.031466335464
0.0326177604393
0.0365817213308
0.0695949777162
0.225544425262
0.0256040096951
0.0253456050084
0.0272130973678
0.0278517456773
0.0281274926881
0.0283203135079
0.0285163205688
0.0287407402586
0.0289991468017
0.0292862112992
0.0295952503719
0.0299227003289
0.0302688037222
0.0306364431632
0.0310490632318
0.0315838754715
0.0326271189469
0.0363262950002
0.0729596768464
0.238102536827
0.0254053260793
0.0251678832276
0.0270392389354
0.027689423519
0.0279768311543
0.028182563328
0.028395445615
0.0286432790259
0.0289329839986
0.0292539915062
0.029596452671
0.0299570639493
0.0303359791193
0.030732401428
0.0311668912237
0.0317027652333
0.0326068377288
0.035432279479
0.0571734361621
0.196199309818
0.0252023545905
0.0249993057471
0.0268697306819
0.0275244469828
0.0278171777101
0.0280288034435
0.0282459540916
0.0284894933756
0.0287861978688
0.0291236685256
0.029493183156
0.0298948113212
0.0303269831557
0.0307717976172
0.0312374245997
0.0317595491811
0.0325173728092
0.0346534614446
0.0472710118558
0.155562742074
0.0250036760132
0.024849652402
0.0267145856
0.0273653323026
0.0276521333821
0.0278461471641
0.0279887232407
0.0279558720257
0.0280915559654
0.0283280099932
0.0286816571445
0.0291600714575
0.0297778166031
0.0304338775804
0.0310558225452
0.0316541938537
0.032396786986
0.0347692877173
0.055346280082
0.216436812437
0.0248187946172
0.0247274948311
0.0265838829304
0.0272210279416
0.0274813442663
0.0275878782816
0.0273227528371
0.0257730049324
0.0318402755019
0.0311110156605
0.0313575856824
0.0324186863171
0.0267785048092
0.0286961993777
0.030059606335
0.0311231557773
0.0321843984021
0.0354146076977
0.0788713969277
0.240927901114
0.024659245777
0.0246401857738
0.0264883394802
0.0271011010071
0.0272989743562
0.0272096221693
0.0262490773562
0.0282102671135
0.0245455382054
0.0245862267946
0.0264371416839
0.0270425338376
0.0272155569882
0.0270360876114
0.0257807341257
0.0264264877864
0.0245455421983
0.0245862276126
0.0264371385601
0.0270425273283
0.0272155484515
0.0270360807303
0.0257807352741
0.02642649015
0.0246592558119
0.0246401887447
0.0264883332873
0.0271010862819
0.0272989548073
0.0272096032363
0.0262490698987
0.0282102716031
)
;

boundaryField
{
    back
    {
        lowReCorrection 0;
        blending        stepwise;
        n               2;
        type            epsilonWallFunction;
        value           nonuniform List<scalar> 
164
(
0.0288907498519
0.0290960519565
0.0293249609388
0.0295750199682
0.0298441925687
0.0301323112424
0.0304442222468
0.0308109602491
0.0313629790951
0.0326236852441
0.0367071175409
0.0649109940391
0.214199989521
0.025791636656
0.0255237116346
0.0273829630189
0.0280047460517
0.0284428140037
0.0286208531106
0.0288222147741
0.029051955935
0.0293078078662
0.0295857168646
0.0298828586549
0.0301989957379
0.0305380769509
0.0309266142478
0.031466335464
0.0326177604393
0.0365817213308
0.0695949777162
0.225544425262
0.0256040096951
0.0253456050084
0.0272130973678
0.0278517456773
0.0281274926881
0.0283203135079
0.0285163205688
0.0287407402586
0.0289991468017
0.0292862112992
0.0295952503719
0.0299227003289
0.0302688037222
0.0306364431632
0.0310490632318
0.0315838754715
0.0326271189469
0.0363262950002
0.0729596768464
0.238102536827
0.0254053260793
0.0251678832276
0.0270392389354
0.027689423519
0.0279768311543
0.028182563328
0.028395445615
0.0286432790259
0.0289329839986
0.0292539915062
0.029596452671
0.0299570639493
0.0303359791193
0.030732401428
0.0311668912237
0.0317027652333
0.0326068377288
0.035432279479
0.0571734361621
0.196199309818
0.0252023545905
0.0249993057471
0.0268697306819
0.0275244469828
0.0278171777101
0.0280288034435
0.0282459540916
0.0284894933756
0.0287861978688
0.0291236685256
0.029493183156
0.0298948113212
0.0303269831557
0.0307717976172
0.0312374245997
0.0317595491811
0.0325173728092
0.0346534614446
0.0472710118558
0.155562742074
0.0250036760132
0.024849652402
0.0267145856
0.0273653323026
0.0276521333821
0.0278461471641
0.0279887232407
0.0279558720257
0.0280915559654
0.0283280099932
0.0286816571445
0.0291600714575
0.0297778166031
0.0304338775804
0.0310558225452
0.0316541938537
0.032396786986
0.0347692877173
0.055346280082
0.216436812437
0.0248187946172
0.0247274948311
0.0265838829304
0.0272210279416
0.0274813442663
0.0275878782816
0.0273227528371
0.0257730049324
0.0318402755019
0.0311110156605
0.0313575856824
0.0324186863171
0.0267785048092
0.0286961993777
0.030059606335
0.0311231557773
0.0321843984021
0.0354146076977
0.0788713969277
0.240927901114
0.024659245777
0.0246401857738
0.0264883394802
0.0271011010071
0.0272989743562
0.0272096221693
0.0262490773562
0.0282102671135
0.0245455382054
0.0245862267946
0.0264371416839
0.0270425338376
0.0272155569882
0.0270360876114
0.0257807341257
0.0264264877864
0.0245455421983
0.0245862276126
0.0264371385601
0.0270425273283
0.0272155484515
0.0270360807303
0.0257807352741
0.02642649015
0.0246592558119
0.0246401887447
0.0264883332873
0.0271010862819
0.0272989548073
0.0272096032363
0.0262490698987
0.0282102716031
)
;
    }
    sides
    {
        lowReCorrection 0;
        blending        stepwise;
        n               2;
        type            epsilonWallFunction;
        value           nonuniform List<scalar> 0();
    }
    bottom
    {
        lowReCorrection 0;
        blending        stepwise;
        n               2;
        type            epsilonWallFunction;
        value           nonuniform List<scalar> 10(0.025791636656 0.0256040096951 0.0254053260793 0.0252023545905 0.0250036760132 0.0248187946172 0.024659245777 0.0245455382054 0.0245455421983 0.0246592558119);
    }
    front
    {
        lowReCorrection 0;
        blending        stepwise;
        n               2;
        type            epsilonWallFunction;
        value           nonuniform List<scalar> 
164
(
0.0288907498519
0.0290960519565
0.0293249609388
0.0295750199682
0.0298441925687
0.0301323112424
0.0304442222468
0.0308109602491
0.0313629790951
0.0326236852441
0.0367071175409
0.0649109940391
0.214199989521
0.025791636656
0.0255237116346
0.0273829630189
0.0280047460517
0.0284428140037
0.0286208531106
0.0288222147741
0.029051955935
0.0293078078662
0.0295857168646
0.0298828586549
0.0301989957379
0.0305380769509
0.0309266142478
0.031466335464
0.0326177604393
0.0365817213308
0.0695949777162
0.225544425262
0.0256040096951
0.0253456050084
0.0272130973678
0.0278517456773
0.0281274926881
0.0283203135079
0.0285163205688
0.0287407402586
0.0289991468017
0.0292862112992
0.0295952503719
0.0299227003289
0.0302688037222
0.0306364431632
0.0310490632318
0.0315838754715
0.0326271189469
0.0363262950002
0.0729596768464
0.238102536827
0.0254053260793
0.0251678832276
0.0270392389354
0.027689423519
0.0279768311543
0.028182563328
0.028395445615
0.0286432790259
0.0289329839986
0.0292539915062
0.029596452671
0.0299570639493
0.0303359791193
0.030732401428
0.0311668912237
0.0317027652333
0.0326068377288
0.035432279479
0.0571734361621
0.196199309818
0.0252023545905
0.0249993057471
0.0268697306819
0.0275244469828
0.0278171777101
0.0280288034435
0.0282459540916
0.0284894933756
0.0287861978688
0.0291236685256
0.029493183156
0.0298948113212
0.0303269831557
0.0307717976172
0.0312374245997
0.0317595491811
0.0325173728092
0.0346534614446
0.0472710118558
0.155562742074
0.0250036760132
0.024849652402
0.0267145856
0.0273653323026
0.0276521333821
0.0278461471641
0.0279887232407
0.0279558720257
0.0280915559654
0.0283280099932
0.0286816571445
0.0291600714575
0.0297778166031
0.0304338775804
0.0310558225452
0.0316541938537
0.032396786986
0.0347692877173
0.055346280082
0.216436812437
0.0248187946172
0.0247274948311
0.0265838829304
0.0272210279416
0.0274813442663
0.0275878782816
0.0273227528371
0.0257730049324
0.0318402755019
0.0311110156605
0.0313575856824
0.0324186863171
0.0267785048092
0.0286961993777
0.030059606335
0.0311231557773
0.0321843984021
0.0354146076977
0.0788713969277
0.240927901114
0.024659245777
0.0246401857738
0.0264883394802
0.0271011010071
0.0272989743562
0.0272096221693
0.0262490773562
0.0282102671135
0.0245455382054
0.0245862267946
0.0264371416839
0.0270425338376
0.0272155569882
0.0270360876114
0.0257807341257
0.0264264877864
0.0245455421983
0.0245862276126
0.0264371385601
0.0270425273283
0.0272155484515
0.0270360807303
0.0257807352741
0.02642649015
0.0246592558119
0.0246401887447
0.0264883332873
0.0271010862819
0.0272989548073
0.0272096032363
0.0262490698987
0.0282102716031
)
;
    }
    atmosphere
    {
        type            inletOutlet;
        inletValue      uniform 0.1;
        value           nonuniform List<scalar> 7(0.1 0.1 0.1 0.196199309818 0.155562742074 0.1 0.1);
    }
    floatingObject
    {
        lowReCorrection 0;
        blending        stepwise;
        n               2;
        type            epsilonWallFunction;
        value           nonuniform List<scalar> 8(0.0318402755019 0.0311110156605 0.0313575856824 0.0324186863171 0.0282102671135 0.0264264877864 0.02642649015 0.0282102716031);
    }
    procBoundary3to4
    {
        type            processor;
        value           nonuniform List<scalar> 
13
(
0.0289457768112
0.029130041324
0.0293355917355
0.0259634228387
0.0256952936928
0.027542590482
0.0281438545981
0.0285488166091
0.028709777771
0.028709777771
0.0282650488394
0.0282650488394
0.0282650488394
)
;
    }
    procBoundary3to5
    {
        type            processor;
        value           nonuniform List<scalar> 10(0.0295610408223 0.0298049341341 0.03006759212 0.0303555981208 0.0307078225338 0.0312891021831 0.0326910139638 0.0368939034959 0.0573616375465 0.203179399252);
    }
    procBoundary3to6
    {
        type            processor;
        value           nonuniform List<scalar> 8(0.0327319463942 0.0273597905509 0.0291248548267 0.0305116627845 0.0318400692506 0.0346228205033 0.0581815187616 0.227491633569);
    }
    procBoundary3to8
    {
        type            processor;
        value           nonuniform List<scalar> 8(0.0248187993499 0.024727491593 0.0265838667238 0.0272210023005 0.0274813143754 0.0275878545934 0.0273227411332 0.0257730224671);
    }
}


// ************************************************************************* //
