/*--------------------------------*- C++ -*----------------------------------*\
| =========                 |                                                 |
| \\      /  F ield         | OpenFOAM: The Open Source CFD Toolbox           |
|  \\    /   O peration     | Version:  v2012                                 |
|   \\  /    A nd           | Website:  www.openfoam.com                      |
|    \\/     M anipulation  |                                                 |
\*---------------------------------------------------------------------------*/
FoamFile
{
    version     2.0;
    format      ascii;
    class       volScalarField;
    location    "0.9";
    object      k;
}
// * * * * * * * * * * * * * * * * * * * * * * * * * * * * * * * * * * * * * //

dimensions      [0 2 -2 0 0 0 0];


internalField   nonuniform List<scalar> 
164
(
0.0228428137393
0.0229522803437
0.0230738891877
0.0232062156453
0.0233480303496
0.0234990876257
0.0236617051991
0.0238516319241
0.0241346965097
0.0247754478718
0.0269077341954
0.0411883712273
0.0897039070492
0.0174377573899
0.0209954534277
0.0220191220098
0.0223609188768
0.0226010539203
0.0226970301208
0.0228049040438
0.0229274489055
0.0230633911916
0.0232104501423
0.0233669721747
0.0235326763242
0.0237094441091
0.023910783383
0.0241881857352
0.0247773754826
0.0268713529539
0.042758855551
0.0925321507206
0.0173507223907
0.0208951737498
0.0219253548767
0.0222768690048
0.0224287653164
0.0225339219044
0.0226396998714
0.02276001498
0.0228979123097
0.0230504799325
0.0232140270689
0.0233864989453
0.0235678949647
0.0237596068825
0.0239736417067
0.0242490763204
0.0247865931918
0.0267818630345
0.0442098271303
0.0960378717475
0.0172584614523
0.0207949331027
0.0218293188838
0.0221877153672
0.0223461876439
0.0224585091338
0.0225735031212
0.0227064343715
0.022861097315
0.0230317701477
0.0232130337748
0.0234029393265
0.0236014653613
0.0238082282766
0.024033758297
0.0243103395215
0.0247775380828
0.0263091937174
0.0376459790718
0.0859145584559
0.0171640770722
0.0206996762148
0.0217356178967
0.0220970950252
0.0222587015562
0.0223743513527
0.0224916887475
0.0226222301115
0.0227808265191
0.0229605381846
0.023156360844
0.0233679453644
0.0235942985596
0.0238264149797
0.0240684817695
0.0243397361256
0.0247314785746
0.0258504685775
0.0323012579939
0.0707946930986
0.0170715529377
0.0206149810867
0.021649813312
0.0220096848071
0.0221682438759
0.0222743360565
0.022351156867
0.0223326107693
0.0224067456776
0.0225345142254
0.0227238052197
0.0229775060441
0.0233025367876
0.0236456397013
0.023968450052
0.0242777734242
0.0246547234593
0.0258539837506
0.0353357180438
0.0877878380404
0.0169853484009
0.0205457866066
0.0215775303663
0.0219304280777
0.0220746349116
0.0221330350186
0.0219888249585
0.0211446695896
0.0200964203506
0.0197893039084
0.0198953048423
0.0203421422431
0.0216979477802
0.0227241187474
0.0234403442854
0.0239920673528
0.0245386122287
0.0262804271943
0.0457834013676
0.0965639660907
0.0169109075138
0.0204963268386
0.0215247317274
0.021864621936
0.0219748459061
0.0219267127859
0.0214027261329
0.0185297238166
0.016857883018
0.020465769279
0.0214964142762
0.0218323988159
0.0219289471461
0.0218312029314
0.0211428914873
0.0177312679963
0.0168578852261
0.0204657701426
0.021496412638
0.0218323948655
0.021928941752
0.0218311983439
0.0211428918422
0.0177312693068
0.0169109133284
0.0204963300431
0.0215247291617
0.0218646138362
0.0219748342467
0.0219267013703
0.021402721306
0.0185297273128
)
;

boundaryField
{
    back
    {
        type            kqRWallFunction;
        value           nonuniform List<scalar> 
164
(
0.0228428137393
0.0229522803437
0.0230738891877
0.0232062156453
0.0233480303496
0.0234990876257
0.0236617051991
0.0238516319241
0.0241346965097
0.0247754478718
0.0269077341954
0.0411883712273
0.0897039070492
0.0174377573899
0.0209954534277
0.0220191220098
0.0223609188768
0.0226010539203
0.0226970301208
0.0228049040438
0.0229274489055
0.0230633911916
0.0232104501423
0.0233669721747
0.0235326763242
0.0237094441091
0.023910783383
0.0241881857352
0.0247773754826
0.0268713529539
0.042758855551
0.0925321507206
0.0173507223907
0.0208951737498
0.0219253548767
0.0222768690048
0.0224287653164
0.0225339219044
0.0226396998714
0.02276001498
0.0228979123097
0.0230504799325
0.0232140270689
0.0233864989453
0.0235678949647
0.0237596068825
0.0239736417067
0.0242490763204
0.0247865931918
0.0267818630345
0.0442098271303
0.0960378717475
0.0172584614523
0.0207949331027
0.0218293188838
0.0221877153672
0.0223461876439
0.0224585091338
0.0225735031212
0.0227064343715
0.022861097315
0.0230317701477
0.0232130337748
0.0234029393265
0.0236014653613
0.0238082282766
0.024033758297
0.0243103395215
0.0247775380828
0.0263091937174
0.0376459790718
0.0859145584559
0.0171640770722
0.0206996762148
0.0217356178967
0.0220970950252
0.0222587015562
0.0223743513527
0.0224916887475
0.0226222301115
0.0227808265191
0.0229605381846
0.023156360844
0.0233679453644
0.0235942985596
0.0238264149797
0.0240684817695
0.0243397361256
0.0247314785746
0.0258504685775
0.0323012579939
0.0707946930986
0.0170715529377
0.0206149810867
0.021649813312
0.0220096848071
0.0221682438759
0.0222743360565
0.022351156867
0.0223326107693
0.0224067456776
0.0225345142254
0.0227238052197
0.0229775060441
0.0233025367876
0.0236456397013
0.023968450052
0.0242777734242
0.0246547234593
0.0258539837506
0.0353357180438
0.0877878380404
0.0169853484009
0.0205457866066
0.0215775303663
0.0219304280777
0.0220746349116
0.0221330350186
0.0219888249585
0.0211446695896
0.0200964203506
0.0197893039084
0.0198953048423
0.0203421422431
0.0216979477802
0.0227241187474
0.0234403442854
0.0239920673528
0.0245386122287
0.0262804271943
0.0457834013676
0.0965639660907
0.0169109075138
0.0204963268386
0.0215247317274
0.021864621936
0.0219748459061
0.0219267127859
0.0214027261329
0.0185297238166
0.016857883018
0.020465769279
0.0214964142762
0.0218323988159
0.0219289471461
0.0218312029314
0.0211428914873
0.0177312679963
0.0168578852261
0.0204657701426
0.021496412638
0.0218323948655
0.021928941752
0.0218311983439
0.0211428918422
0.0177312693068
0.0169109133284
0.0204963300431
0.0215247291617
0.0218646138362
0.0219748342467
0.0219267013703
0.021402721306
0.0185297273128
)
;
    }
    sides
    {
        type            kqRWallFunction;
        value           nonuniform List<scalar> 0();
    }
    bottom
    {
        type            kqRWallFunction;
        value           nonuniform List<scalar> 10(0.0174377573899 0.0173507223907 0.0172584614523 0.0171640770722 0.0170715529377 0.0169853484009 0.0169109075138 0.016857883018 0.0168578852261 0.0169109133284);
    }
    front
    {
        type            kqRWallFunction;
        value           nonuniform List<scalar> 
164
(
0.0228428137393
0.0229522803437
0.0230738891877
0.0232062156453
0.0233480303496
0.0234990876257
0.0236617051991
0.0238516319241
0.0241346965097
0.0247754478718
0.0269077341954
0.0411883712273
0.0897039070492
0.0174377573899
0.0209954534277
0.0220191220098
0.0223609188768
0.0226010539203
0.0226970301208
0.0228049040438
0.0229274489055
0.0230633911916
0.0232104501423
0.0233669721747
0.0235326763242
0.0237094441091
0.023910783383
0.0241881857352
0.0247773754826
0.0268713529539
0.042758855551
0.0925321507206
0.0173507223907
0.0208951737498
0.0219253548767
0.0222768690048
0.0224287653164
0.0225339219044
0.0226396998714
0.02276001498
0.0228979123097
0.0230504799325
0.0232140270689
0.0233864989453
0.0235678949647
0.0237596068825
0.0239736417067
0.0242490763204
0.0247865931918
0.0267818630345
0.0442098271303
0.0960378717475
0.0172584614523
0.0207949331027
0.0218293188838
0.0221877153672
0.0223461876439
0.0224585091338
0.0225735031212
0.0227064343715
0.022861097315
0.0230317701477
0.0232130337748
0.0234029393265
0.0236014653613
0.0238082282766
0.024033758297
0.0243103395215
0.0247775380828
0.0263091937174
0.0376459790718
0.0859145584559
0.0171640770722
0.0206996762148
0.0217356178967
0.0220970950252
0.0222587015562
0.0223743513527
0.0224916887475
0.0226222301115
0.0227808265191
0.0229605381846
0.023156360844
0.0233679453644
0.0235942985596
0.0238264149797
0.0240684817695
0.0243397361256
0.0247314785746
0.0258504685775
0.0323012579939
0.0707946930986
0.0170715529377
0.0206149810867
0.021649813312
0.0220096848071
0.0221682438759
0.0222743360565
0.022351156867
0.0223326107693
0.0224067456776
0.0225345142254
0.0227238052197
0.0229775060441
0.0233025367876
0.0236456397013
0.023968450052
0.0242777734242
0.0246547234593
0.0258539837506
0.0353357180438
0.0877878380404
0.0169853484009
0.0205457866066
0.0215775303663
0.0219304280777
0.0220746349116
0.0221330350186
0.0219888249585
0.0211446695896
0.0200964203506
0.0197893039084
0.0198953048423
0.0203421422431
0.0216979477802
0.0227241187474
0.0234403442854
0.0239920673528
0.0245386122287
0.0262804271943
0.0457834013676
0.0965639660907
0.0169109075138
0.0204963268386
0.0215247317274
0.021864621936
0.0219748459061
0.0219267127859
0.0214027261329
0.0185297238166
0.016857883018
0.020465769279
0.0214964142762
0.0218323988159
0.0219289471461
0.0218312029314
0.0211428914873
0.0177312679963
0.0168578852261
0.0204657701426
0.021496412638
0.0218323948655
0.021928941752
0.0218311983439
0.0211428918422
0.0177312693068
0.0169109133284
0.0204963300431
0.0215247291617
0.0218646138362
0.0219748342467
0.0219267013703
0.021402721306
0.0185297273128
)
;
    }
    atmosphere
    {
        type            inletOutlet;
        inletValue      uniform 0.1;
        value           nonuniform List<scalar> 7(0.1 0.1 0.1 0.0859145584559 0.0707946930986 0.1 0.1);
    }
    floatingObject
    {
        type            kqRWallFunction;
        value           nonuniform List<scalar> 8(0.0200964203506 0.0197893039084 0.0198953048423 0.0203421422431 0.0185297238166 0.0177312679963 0.0177312693068 0.0185297273128);
    }
    procBoundary3to4
    {
        type            processor;
        value           nonuniform List<scalar> 
13
(
0.0228734530641
0.0229716894478
0.0230808948334
0.0175173897768
0.0210918922524
0.0221071956315
0.0224373513505
0.0226592154986
0.0227459166434
0.0227459166434
0.0225041785067
0.0225041785067
0.0225041785067
)
;
    }
    procBoundary3to5
    {
        type            processor;
        value           nonuniform List<scalar> 10(0.0232002283542 0.0233287919465 0.0234666140446 0.0236169687176 0.0237996385004 0.0240978393202 0.0248048479473 0.0269197482447 0.0366965474956 0.0856946473334);
    }
    procBoundary3to6
    {
        type            processor;
        value           nonuniform List<scalar> 8(0.020458539749 0.0220002907322 0.0229417994938 0.0236671392555 0.024353633594 0.0258438429915 0.0374969697974 0.0933962656256);
    }
    procBoundary3to8
    {
        type            processor;
        value           nonuniform List<scalar> 8(0.0169853520702 0.0205457868224 0.0215775225322 0.0219304136702 0.0220746167971 0.0221330190758 0.0219888162846 0.0211446778531);
    }
}


// ************************************************************************* //
