/*--------------------------------*- C++ -*----------------------------------*\
| =========                 |                                                 |
| \\      /  F ield         | OpenFOAM: The Open Source CFD Toolbox           |
|  \\    /   O peration     | Version:  v2012                                 |
|   \\  /    A nd           | Website:  www.openfoam.com                      |
|    \\/     M anipulation  |                                                 |
\*---------------------------------------------------------------------------*/
FoamFile
{
    version     2.0;
    format      ascii;
    class       volScalarField;
    location    "2.6";
    object      epsilon;
}
// * * * * * * * * * * * * * * * * * * * * * * * * * * * * * * * * * * * * * //

dimensions      [0 2 -3 0 0 0 0];


internalField   nonuniform List<scalar> 
1984
(
0.00228980613528
0.00254330540122
0.00271627905573
0.00278296161906
0.00281562267053
0.0028384306841
0.00285895792424
0.00287936897409
0.00290053593343
0.00292346260206
0.0029514319396
0.00299395568707
0.00307701015948
0.00325753223637
0.00363420199167
0.00436986459115
0.00582404215076
0.0100932317676
0.0339764094854
0.182144845084
0.00255633175323
0.00259664106226
0.00281816945846
0.00290066727269
0.00293641519605
0.0029579736287
0.00297582082288
0.00299303017631
0.00301077688065
0.00303036390001
0.003055876544
0.00309900431896
0.00318900779326
0.00338621355094
0.00378535782497
0.00451676917511
0.00593064776251
0.0105475664922
0.0375936371723
0.159287544153
0.00272990447636
0.00281911296108
0.0030749415498
0.00316960782924
0.00320899683742
0.00323146963818
0.0032495699904
0.00326706142476
0.00328524195392
0.00330580274045
0.00333328075354
0.0033807470965
0.00348018468179
0.00369576120657
0.00412892582433
0.00491276634354
0.00636750087455
0.0109977012849
0.0390538338086
0.163016031035
0.00279725604484
0.00290371373195
0.0031730598625
0.00327215198021
0.00331233075352
0.00333451000848
0.00335217617091
0.00336936400682
0.00338751774833
0.0034082232655
0.00343624940454
0.00348471032635
0.00358552763369
0.00380315036562
0.00423904331206
0.00503050778815
0.00645700520498
0.0107941561073
0.0378339409918
0.161659040545
0.00282958326011
0.00294070835304
0.00321518195977
0.00331549246781
0.00335531842384
0.00337673248326
0.00339366804173
0.00341029485818
0.00342802860994
0.00344850995082
0.00347628614054
0.00352428259158
0.00362364225957
0.00383777283382
0.00426720878887
0.00504993958861
0.0064289027781
0.0103071815049
0.034754975932
0.159559630909
0.00285088919318
0.0029622615564
0.00323860633539
0.0033388957724
0.00337796858904
0.00339846771674
0.00341455103877
0.00343045401088
0.00344759278796
0.00346755272215
0.00349472867378
0.00354160761902
0.00363855688872
0.00384762436674
0.00426863099981
0.00503964339893
0.00638145816711
0.00985147593526
0.0314457411271
0.157898110907
0.00286875246444
0.00297903066914
0.0032561345605
0.00335601556946
0.00339425669023
0.0034138481161
0.00342907603198
0.0034442071619
0.00346066792542
0.00347998120558
0.00350633605322
0.00355182252313
0.00364601415984
0.00384984414848
0.00426229921251
0.00502389427106
0.0063606245224
0.00975410287621
0.0294023745449
0.156089628916
0.00288543279879
0.00299431433148
0.00327189326188
0.00337130696394
0.00340876854173
0.00342752033673
0.00344194522487
0.00345633071447
0.00347210376605
0.00349070120434
0.00351616924866
0.0035601213761
0.00365126987807
0.00384935311536
0.00425296671485
0.0050045577153
0.00634428589796
0.00973462118475
0.0277651800966
0.145533426294
0.00290154647806
0.00300909834623
0.00328709410565
0.00338608149748
0.00342284836158
0.00344085538508
0.00345454580738
0.00346824400101
0.00348334504825
0.00350125551469
0.00352579981092
0.00356812595258
0.0036560746799
0.00384811252928
0.00424213644524
0.00498206595985
0.00632029392285
0.00969700932514
0.0267321645848
0.142374460928
0.00291721012734
0.00302359916773
0.00330203791679
0.00340063830655
0.00343679852473
0.00345415205402
0.00346719681361
0.00348026210482
0.00349475619705
0.00351198012792
0.00353561996612
0.00357629602457
0.00366092553232
0.00384664167295
0.00423062316709
0.00495719750247
0.00627734288039
0.00948125962197
0.023652932136
0.102989326758
0.00293241184737
0.00303782353124
0.00331673846694
0.00341500453453
0.00345062470815
0.00346740504333
0.00347987950937
0.00349238948822
0.00350631533999
0.00352291813516
0.00354565705723
0.00358467102284
0.00366593106722
0.00384513169894
0.00421862928958
0.00493092586637
0.00623329634305
0.00935798826874
0.0237457696729
0.117843991094
0.00294711882214
0.00305174059766
0.00333115101815
0.00342912096742
0.00346426060573
0.00348053667422
0.00349251136894
0.00350452462937
0.00351794552686
0.00353394860628
0.00355584551025
0.00359321671076
0.00367108889689
0.00384365830839
0.00420653627396
0.00490483365924
0.00619855268938
0.00934613439042
0.025843519376
0.146013841114
0.0029612921465
0.00306529758614
0.00334522044528
0.00344292334668
0.00347762815097
0.00349345745886
0.00350498979666
0.00351656435395
0.0035295231283
0.00354498822149
0.003566072314
0.00360187214137
0.00367645449062
0.00384251186091
0.00419477903685
0.00487925019089
0.00617269540985
0.00934317604687
0.024107886593
0.126603217251
0.00297488209323
0.00307845010816
0.0033588741755
0.00345633630956
0.00349065464931
0.00350609103784
0.0035172362027
0.00352841782262
0.0035409719251
0.00355594550763
0.00357628834474
0.00361064383708
0.00368218856448
0.00384231112195
0.00418492596647
0.00485614694607
0.00614531599294
0.00938103302139
0.023763919054
0.101417821288
0.00298784894338
0.00309115970246
0.00337204421778
0.0034692984678
0.00350327272628
0.00351836407965
0.00352916093617
0.00354001788679
0.00355222217504
0.0035667519778
0.00358646442348
0.00361955209941
0.00368854002745
0.00384397011583
0.0041797540145
0.00484193330134
0.00610935503089
0.00916513769094
0.0212260601683
0.101009678052
0.00300019529497
0.0031033584881
0.00338471280002
0.00348176785888
0.00351541068971
0.00353020285472
0.0035407406061
0.00355129766589
0.00356316449798
0.00357735405088
0.00359646227094
0.00362851506665
0.00369549585342
0.00384789842113
0.00418162256997
0.00484848163733
0.0061128418938
0.00892679370051
0.0192218458401
0.102534155707
0.00301192851467
0.00311505504239
0.00339683725282
0.00349367627457
0.0035270732315
0.0035416079329
0.00355189377678
0.00356216332957
0.00357383110786
0.00358767977601
0.0036062971666
0.00363746511978
0.0037027759084
0.00385286849255
0.00418786381498
0.00488018263381
0.00624647833392
0.00926642105887
0.0217734830465
0.136252960094
0.0030229806727
0.00312612989865
0.00340833772393
0.0035050617382
0.00353818406694
0.00355247533896
0.00356260264842
0.00357274301262
0.00358411658494
0.00359764832152
0.00361574705555
0.00364595884327
0.00370933089095
0.0038562356717
0.00419122349852
0.00491954571976
0.00648540550189
0.0100873278159
0.021618771197
0.0905102653043
0.00303324271246
0.00313652471253
0.00341920657307
0.00351578133324
0.0035487200318
0.00356292907599
0.00357288790935
0.00358285304696
0.00359405660364
0.00360736053574
0.00362504972872
0.00365435206506
0.00371560909487
0.00385841458815
0.00419089405851
0.00495044977565
0.00671075597021
0.010909261402
0.0218429219399
0.0679536698132
0.00304272625959
0.00314635405916
0.00342939820909
0.00352588200026
0.00355870223203
0.00357276311564
0.00358262999787
0.00359251022494
0.00360361528996
0.00361676051805
0.00363410800019
0.00366255517388
0.00372170748593
0.00386035441595
0.00418962405668
0.00497116252116
0.00686564694273
0.0115483078137
0.0249395872194
0.0997865196437
0.00305137343747
0.00315551693304
0.00343894821733
0.00353534098377
0.00356802119031
0.00358200245977
0.00359183232541
0.00360168773574
0.00361276145507
0.00362581810428
0.00364289761943
0.00367055679633
0.00372770076415
0.00386247690288
0.00418903630183
0.00498796114947
0.00697697190348
0.01201641483
0.0277486211642
0.129357465345
0.003059087099
0.00316396741463
0.00344775538792
0.00354406973997
0.00357666432242
0.00359062124923
0.0036004661743
0.00361034825565
0.00362144951642
0.00363449228243
0.0036513820556
0.00367832131273
0.00373353416161
0.00386462029395
0.00418868633969
0.00500171062772
0.00706583614171
0.0124981789492
0.0321155319007
0.152348480385
0.0030658144266
0.00317164350857
0.00345579008406
0.00355205405685
0.00358460313151
0.00359857739766
0.0036084863096
0.00361846245012
0.00362965901197
0.00364276207468
0.00365953442955
0.00368581720123
0.00373911533103
0.00386649191869
0.00418761374512
0.00501077418466
0.00713189329955
0.0128584256366
0.0345402760983
0.156051979387
0.00307152071911
0.00317850924998
0.00346300706655
0.00355925437525
0.00359179849371
0.00360583525347
0.00361586189406
0.0036260007879
0.00363736573417
0.00365059624296
0.00366733394209
0.0036930440312
0.00374446550119
0.00386799510983
0.00418520783308
0.00501412725378
0.00717691882294
0.0131877624226
0.0367495540944
0.15580732755
0.00307613835258
0.00318443587457
0.00346929658934
0.00356558637836
0.00359818296251
0.00361234093651
0.00362254795909
0.00363291344094
0.00364452834413
0.00365797633061
0.00367477976003
0.00370001012779
0.00374965386083
0.00386929522412
0.00418205413387
0.00501389171699
0.00720473392006
0.013387717223
0.0378346710079
0.138537432194
0.00307969897971
0.00318931771434
0.00347455608437
0.00357096351359
0.00360368600468
0.00361803177643
0.0036284913719
0.00363915426639
0.00365109873566
0.00366488429863
0.00368186703046
0.00370677467324
0.00375485131626
0.00387092269904
0.00418005744335
0.00501867065662
0.00722119008393
0.0130171171554
0.0332667462005
0.106126837859
0.00308233242448
0.00319311582572
0.00347866159199
0.00357527861318
0.00360822939376
0.00362285568165
0.00363365480531
0.0036447103552
0.003657092621
0.00367133232868
0.00368865569255
0.00371348140828
0.00376041891877
0.00387393614571
0.00418292484717
0.00504488227688
0.00730395927532
0.0124065196694
0.0239859362106
0.0454680835918
0.00308413212328
0.00319584405184
0.00348156149628
0.00357845798886
0.00361174240687
0.00362673733371
0.00363795430402
0.00364948715529
0.00366241503969
0.00367724156029
0.00369510756071
0.00372017594869
0.00376658896281
0.00387905529411
0.00419302219062
0.00510823377676
0.00763877107133
0.0135611726984
0.0248906292348
0.047356099354
0.00308491824629
0.00319727243309
0.00348312174628
0.00358040593004
0.00361414938507
0.00362961578011
0.00364134096398
0.0036534564734
0.00366705943619
0.00368263696579
0.00370125306151
0.00372689785785
0.00377336278131
0.00388567943627
0.0042061991429
0.00518592438226
0.00813406995138
0.0161078725396
0.0366624645602
0.124469630576
0.00308447033197
0.00319722433547
0.00348321757788
0.00358103130494
0.00361537507499
0.00363142620431
0.00364375906163
0.00365655638163
0.00367094601744
0.00368742932529
0.00370702604603
0.00373361660705
0.00378086571638
0.0038948141642
0.00422659971388
0.00527874822721
0.00861935193739
0.0182235861057
0.0451138004623
0.153683599452
0.00308284857135
0.00319574996574
0.00348177267054
0.00358025059079
0.00361533373841
0.00363207679019
0.00364511249602
0.00365868971021
0.00367398579042
0.00369153145605
0.00371233531262
0.00374030871007
0.00378970596502
0.00391060839217
0.00427172063419
0.0054257938997
0.0090506142216
0.0193751933785
0.0465306752935
0.11236846914
0.00307982431383
0.00319265749315
0.00347872737964
0.0035779762064
0.00361393618008
0.00363148621738
0.00364532217807
0.00365977791841
0.00367608452848
0.00369481072637
0.00371701827457
0.00374696100712
0.00380108178785
0.00394069403469
0.00437315018567
0.00571313761842
0.00958311211685
0.0200151134949
0.0465733842205
0.109058406802
0.00307531970066
0.00318790305386
0.00347393444958
0.00357409620183
0.00361107840137
0.00362955826311
0.0036442993492
0.00365973655588
0.00367715535043
0.00369715960954
0.00372097907933
0.00375365869006
0.00381648004097
0.00399316608953
0.00455915810632
0.00620990578647
0.0102809349323
0.0194298199401
0.0409582311284
0.096694305728
0.00306927280661
0.00318131351899
0.0034673128932
0.00356851592864
0.00360667010367
0.00362620747921
0.0036419598658
0.00365846556896
0.00367707907874
0.00369847499342
0.00372410710923
0.00376035915454
0.00383591539134
0.00406458276303
0.00480030114666
0.00680732302445
0.011134115321
0.0191098826986
0.0336705444608
0.058227982868
0.00306165020446
0.00317280077192
0.00345874029215
0.00356113219472
0.00360062520227
0.0036213559951
0.00363823111656
0.00365589344751
0.00367578104441
0.00369863489085
0.00372613011921
0.003766316241
0.00385551947975
0.00413237770258
0.00500194055695
0.00731852897029
0.0124503746397
0.0225458866748
0.040958313194
0.0707085008188
0.00305215528326
0.00316237192295
0.00344819579358
0.0035518828845
0.00359286530789
0.00361493216771
0.00363305979819
0.00365200366213
0.00367324669528
0.00369754861168
0.00372666437775
0.00376920815998
0.00386381619268
0.00415464391367
0.00505889073892
0.00752467540874
0.0133213518367
0.0250417603385
0.0454043512493
0.0810264291233
0.00304046942414
0.00314995724998
0.00343562239307
0.00354069834274
0.0035832998375
0.00360686227281
0.0036263995002
0.00364676557168
0.0036694980852
0.0036952784457
0.00372547026551
0.00376695384663
0.00385182922221
0.00410917790902
0.0049636117223
0.00748921255032
0.0134788168953
0.0245786189336
0.043505531821
0.0804162561391
0.00302680225955
0.00313553082869
0.00342096470628
0.00352750438765
0.00357187572416
0.00359710094119
0.00361822483845
0.00364020215253
0.00366464846682
0.00369223765456
0.00372427882582
0.00376755698371
0.0038549716602
0.00412496051413
0.00504309435095
0.00774667997326
0.0139987904593
0.0253167479104
0.0462947263377
0.123477189252
0.00301090930105
0.00311911352597
0.00340422615553
0.00351228075645
0.00355854343818
0.00358559381391
0.00360847933578
0.00363228474816
0.00365866031577
0.00368831356129
0.00372283528954
0.00377089864561
0.00387560763897
0.00421308327218
0.00531969446749
0.00827616878157
0.0145858796651
0.0264741850346
0.049512584271
0.145071324671
0.00299276075748
0.00310069508602
0.00338542302743
0.00349501514292
0.00354327178129
0.00357230186522
0.00359716634613
0.00362302944148
0.00365155488631
0.00368345733165
0.00372037989375
0.00377178139849
0.0038841112903
0.00423907945744
0.00535040645491
0.00821493949691
0.0146392844397
0.0276732463128
0.0526884365559
0.14853583459
0.00297225332257
0.00308033184967
0.00336460731608
0.00347575877268
0.00352607865102
0.00355724830508
0.00358431894907
0.00361250472829
0.00364346476901
0.00367772446722
0.00371605108853
0.00376319952773
0.00384449728726
0.0040710047717
0.00484564226442
0.00739466066981
0.0144951437955
0.0293221450228
0.0525448149972
0.0966476145174
0.00294976644456
0.00305827199186
0.00334201410857
0.00345462878843
0.00350703896596
0.00354045848546
0.0035699356531
0.00360076578575
0.00363458821735
0.00367193065169
0.00371314009545
0.00376103150276
0.00383312570292
0.00401605345272
0.00467004663071
0.00711732536573
0.0150366896343
0.032857358467
0.0652364526943
0.159277351726
0.00292539639754
0.00303480946464
0.00331793714136
0.00343189312172
0.00348627895024
0.00352195966734
0.00355396264618
0.00358763813086
0.00362464036124
0.00366561466778
0.00371067969607
0.00376126633353
0.00383169288773
0.00400390666138
0.00464881546719
0.0072673536485
0.0163234930869
0.0372701633394
0.0755561582886
0.169959858716
0.00289952222581
0.00301044530909
0.00329289377684
0.00340792702936
0.00346399622158
0.00350159918262
0.00353573861559
0.00357168301159
0.003611319676
0.00365622976975
0.00370595692221
0.00376028367192
0.00383477385472
0.00402917526939
0.00478259114049
0.00781645398956
0.0179046894908
0.0405507427532
0.0816897988708
0.172919042189
0.00287276737905
0.00298590623147
0.00326761194011
0.00338327133212
0.00344024226695
0.00347844504867
0.00351235964477
0.0035470028213
0.00358543479042
0.00363372561975
0.00368799793069
0.00374333638303
0.0038239421537
0.00407417980458
0.00502144334727
0.00860113457172
0.0193646763848
0.042332204495
0.0851779549681
0.174841210059
0.0028460599541
0.00296215832245
0.00324303821872
0.00335849329798
0.0034145383008
0.00344916730279
0.00347458994708
0.0034944361591
0.0035160584076
0.00356652776079
0.00362465303968
0.00367273936917
0.00376914479845
0.0041472958187
0.00539656949383
0.00967817069356
0.0214200929467
0.046128536729
0.0918640653125
0.179611079004
0.00282050505007
0.00294031972306
0.00322026025495
0.00333417165357
0.00338528756515
0.00340518525709
0.00339663685641
0.00335499889126
0.00330227937021
0.00335665906168
0.00342800909152
0.00347936781137
0.00363538005492
0.00425994485698
0.00602451088064
0.0114252401045
0.0247657096585
0.0513775596475
0.0954174636716
0.178419172956
0.00279710819211
0.00292145741413
0.00320035727179
0.00331077643307
0.00334993387661
0.00332868464483
0.00320069008267
0.00292615273012
0.00346668486083
0.00350361145238
0.00370146445668
0.00407503416197
0.00337397384043
0.00421440831833
0.00628335616463
0.0127666252938
0.0292037027748
0.0605245734602
0.107321587146
0.184650978733
0.00277739558985
0.00290661900968
0.00318422240888
0.00328930078672
0.00331478971123
0.00326318560157
0.00306976818771
0.00328663810518
0.00417216020179
0.00436824657853
0.00718180258757
0.0155018076297
0.0353942761075
0.0694195054657
0.116955731278
0.18920999704
0.0027640155323
0.00289837168884
0.0031762794653
0.00327930093779
0.00329677378524
0.00322112398261
0.00296657332132
0.00296753698035
0.00441523517732
0.00540238843802
0.0106639493506
0.0229129486632
0.0431640869814
0.0693005926571
0.105784813119
0.154327844701
0.00276403175218
0.00289837871107
0.00317628353863
0.00327930260633
0.00329677371903
0.00322112083007
0.00296656660899
0.00296752068164
0.00441563933071
0.00540353290017
0.0106671326819
0.022919786736
0.0431739069499
0.0693118603685
0.105798153721
0.154335533305
0.00277742159489
0.00290663601915
0.00318423404648
0.00328930563059
0.00331478807006
0.0032631762345
0.00306975683125
0.00328659099148
0.00417289692896
0.00436990419842
0.0071855089873
0.0155090100536
0.0354058476974
0.0694361207403
0.116984063538
0.189225193849
0.00279714761807
0.00292148472825
0.00320037798673
0.00331078810671
0.00334993750543
0.00332868900699
0.00320069756285
0.00292617025943
0.00346671484169
0.00350366948488
0.00370156928763
0.00407528636765
0.00337447730986
0.00421571658175
0.00628616181504
0.0127711740184
0.0292093601418
0.0605354404985
0.107340755093
0.184662173464
0.00282055023787
0.00294035307307
0.00322028766115
0.00333419043901
0.0033852982454
0.00340518923567
0.00339663199525
0.00335498610047
0.0033022838168
0.00335668758829
0.00342806695132
0.00347952112798
0.00363579779787
0.00426094590631
0.00602660187577
0.0114287536461
0.0247707648897
0.0513844427201
0.0954334600875
0.178432327321
0.00284610346736
0.00296219360823
0.00324307032327
0.0033585184982
0.00341455691878
0.00344918157132
0.00347460223035
0.00349445008721
0.00351608110012
0.00356656654274
0.00362471088152
0.00367284685461
0.00376940766326
0.0041478994852
0.0053978505437
0.00968055620958
0.0214239967946
0.0461330478532
0.091875697309
0.17962297627
0.00287280213216
0.00298594003002
0.00326764641669
0.00338330067927
0.00344026539216
0.00347846609038
0.00351238178165
0.00354702972379
0.00358547088769
0.00363377341276
0.0036880578433
0.00374342148834
0.0038241110814
0.00407454270523
0.00502216327754
0.00860248230724
0.0193667888148
0.042336027842
0.0851864593719
0.174850070524
0.00289955094039
0.00301048261822
0.00329293369815
0.00340795923755
0.00346401470436
0.00350162289572
0.00353576626352
0.00357171651851
0.0036113619032
0.00365628108752
0.0037060163502
0.00376035566219
0.00383489304419
0.00402942093534
0.00478306169698
0.00781733302131
0.0179061304007
0.0405536293032
0.0816977309316
0.172925665634
0.00292544280536
0.00303485670345
0.00331798341178
0.00343192381528
0.00348630005147
0.00352197128159
0.00355398756429
0.00358767431816
0.0036246883755
0.00366567192686
0.00371074641756
0.00376133971072
0.00383179231279
0.00400409237578
0.00464917508536
0.00726810109335
0.0163247352705
0.0372729599883
0.0755640582991
0.169966337218
0.00294982954661
0.00305833243878
0.00334207114561
0.00345467704921
0.00350707346558
0.00354048883079
0.00356996923569
0.00360080639612
0.00363466527087
0.00367202807151
0.00371326419973
0.00376116154075
0.00383327574334
0.0040162740505
0.00467042953578
0.00711817004614
0.0150380132579
0.0328598679308
0.0652446932207
0.159289408446
0.00297232395557
0.003080399943
0.00336467633543
0.00347582015991
0.00352613132388
0.00355729464082
0.00358436697515
0.00361256634167
0.00364354552423
0.00367783576099
0.00371618853323
0.00376332771447
0.00384463404752
0.00407120591234
0.00484597470384
0.00739549266073
0.0144964440657
0.0293240697766
0.0525523719679
0.0966572911881
0.00299283735867
0.00310076814654
0.00338549880567
0.00349508780631
0.00354333970298
0.00357236614358
0.00359723197268
0.00362311043433
0.00365166059484
0.00368357812374
0.00372053905751
0.00377191684533
0.00388426644527
0.00423931578657
0.00535078406706
0.0082157656895
0.0146404891749
0.0276761768167
0.0527050420713
0.148553969334
0.00301099848463
0.00311919446338
0.003404310225
0.00351236448819
0.00355862611317
0.00358567600348
0.00360856437114
0.00363238440181
0.00365878368293
0.00368845066668
0.0037230009132
0.00377104419822
0.00387578285474
0.00421336658331
0.00532015572926
0.00827708271986
0.0145870138608
0.0264753995778
0.0495127526899
0.145067990022
0.00302690221712
0.00313562005222
0.00342105783509
0.00352759927459
0.00357197270895
0.00359720011718
0.00361832883045
0.00364032196514
0.00366479134522
0.00369239330826
0.00372445786857
0.00376771909488
0.003855165166
0.00412526735179
0.0050435837285
0.00774745630672
0.0139996617813
0.0253181455119
0.0462913679375
0.123478345798
0.00304058436628
0.00315005793013
0.00343572818092
0.00354080784037
0.00358341320365
0.00360697894186
0.00362652001892
0.00364690179089
0.00366965991628
0.00369544634734
0.00372566920843
0.00376713216971
0.00385204087809
0.00410949022253
0.00496395241346
0.00748976602886
0.0134796739224
0.0245803677876
0.0435122770508
0.0804449433138
0.00305226269595
0.00316246630092
0.0034482948382
0.00355198516154
0.00359297221598
0.0036150453803
0.00363318315224
0.00365214785948
0.0036734126774
0.00369772330305
0.00372685827526
0.00376938378619
0.00386403367216
0.00415493136651
0.00505924675725
0.00752522483605
0.0133222247032
0.0250437787319
0.0454094391483
0.0810414100273
0.00306174924919
0.00317288985468
0.00345883607564
0.0035612320221
0.00360072971369
0.00362146736132
0.00363835405683
0.00365603815318
0.00367595011735
0.00369881972201
0.00372633494463
0.00376648833682
0.0038556976947
0.00413265204627
0.00500233213183
0.00731928128464
0.0124512629677
0.0225476158244
0.0409652419975
0.0707425080942
0.00306936190054
0.00318139870978
0.00346740809062
0.00356861677683
0.00360677565163
0.00362631939716
0.00364208190755
0.00365860804785
0.00367724748271
0.00369865978283
0.00372431555332
0.00376053852065
0.00383610083077
0.00406480013927
0.00480064288431
0.00680799764539
0.0111353619547
0.0191119009995
0.0336803618085
0.0582945553865
0.00307540427275
0.00318798854918
0.00347403225009
0.00357419914287
0.00361118573103
0.00362967113694
0.00364442035878
0.00365987547458
0.00367731884889
0.003697337892
0.00372118212396
0.00375383299188
0.00381665666459
0.0039933777263
0.00455945392077
0.00621061332256
0.0102822071045
0.0194326735117
0.0409671597614
0.0965749963758
0.00307990599725
0.00319274332964
0.00347882578371
0.00357808046047
0.00361404465739
0.00363159934272
0.00364544171571
0.00365991260805
0.00367624095788
0.00369498127849
0.00371721172621
0.0037471269537
0.00380124498339
0.00394088746591
0.00437339802645
0.00571369938342
0.00958457207175
0.0200206902565
0.0465905831504
0.109117514882
0.0030829329374
0.00319583835593
0.00348187356849
0.0035803565306
0.00361544290321
0.00363218944856
0.00364523024192
0.00365882041127
0.00367413585274
0.00369169540643
0.00371252108437
0.00374047015675
0.00378986190946
0.00391078805851
0.00427193107615
0.0054262767009
0.00905187347451
0.0193792883795
0.0465451275502
0.112413663294
0.00308455939679
0.00319731644945
0.00348331991831
0.00358113786366
0.00361548430219
0.00363153837744
0.00364387557978
0.00365668448456
0.00367109244169
0.00368759002955
0.00370720812562
0.00373377918533
0.00378102273313
0.00389498652178
0.00422679120211
0.00527922462902
0.00862065505184
0.0182278761118
0.0451364858074
0.153871327347
0.00308500917849
0.00319736458444
0.00348322347931
0.00358051204807
0.00361425857947
0.00362972831416
0.00364145774846
0.00365358425758
0.00366720526527
0.00368279885694
0.00370143614815
0.00372706715742
0.00377353256936
0.00388586000618
0.00420639541255
0.00518639953227
0.00813544108598
0.0161121862623
0.0366876366863
0.124797574286
0.00308422155036
0.00319593265502
0.0034816611087
0.00357856380047
0.00361185306353
0.00362685289123
0.00363807462298
0.00364961731965
0.00366256859161
0.00367741835776
0.00369529520526
0.00372035618021
0.0037667719334
0.00387924486493
0.00419321989066
0.00510868080947
0.00764005480806
0.0135653311404
0.0249170230815
0.0477516887873
0.00308241751391
0.00319319856405
0.00347875826069
0.00357538480757
0.00360834337305
0.00362297739666
0.00363378313468
0.00364484573853
0.00365724368869
0.00367150066062
0.00368883382034
0.00371366493696
0.00376060529352
0.0038741298914
0.004183160284
0.00504534839208
0.00730515453987
0.0124097918557
0.0240148282017
0.0473262376459
0.00307977200388
0.00318938547419
0.00347464230627
0.00357106472103
0.0036038007741
0.00361816081594
0.00362863329804
0.00363930931602
0.00365127202328
0.00366507486692
0.00368206820509
0.00370698047636
0.00375505406216
0.00387112567585
0.00418030373548
0.00501913443381
0.00722242035689
0.0130236157736
0.0335006616805
0.122466149633
0.00307621734386
0.00318451132473
0.0034693926795
0.00356569944926
0.00359831052596
0.00361248134803
0.00362270071887
0.00363307267704
0.0036446932017
0.00365815375535
0.00367495933272
0.00370018665173
0.00374982241171
0.00386946078288
0.004182258663
0.00501432560297
0.00720639282102
0.0134019150374
0.0381238380825
0.151735766045
0.00307159741416
0.0031785823195
0.00346310128046
0.00355936673251
0.00359192690204
0.00360597800286
0.00361601670248
0.00362616507929
0.00363753533888
0.00365077410623
0.00366751401712
0.00369322174893
0.00374463888554
0.00386816981063
0.00418542643135
0.00501461549068
0.00717978320044
0.0132230960272
0.0371222044516
0.156040472656
0.0030658932965
0.00317171851986
0.00345588776065
0.0035521719366
0.00358473870439
0.00359872751309
0.00360864674231
0.00361862799456
0.00362982426777
0.00364292443929
0.00365968985449
0.00368596370702
0.00373925391338
0.00386663025424
0.00418779434192
0.00501136288338
0.0071386421067
0.0129553605976
0.035404154841
0.156417770088
0.00305916553344
0.00316404013738
0.00344785290267
0.00354419045521
0.00357680497999
0.00359077713543
0.00360063063978
0.00361051369041
0.00362160800673
0.00363463773444
0.00365151056774
0.00367843260016
0.00373363071337
0.00386470887298
0.00418880304166
0.00500233521477
0.00707685718694
0.0126806255219
0.0338742414013
0.154453671001
0.0030514465002
0.00315558116487
0.0034390409592
0.00353546066826
0.00356816270741
0.00358215991672
0.00359199690172
0.00360184961098
0.0036129102918
0.00362594618092
0.00364300114943
0.00367063656824
0.00372775907609
0.00386251571734
0.00418907343024
0.00498846968762
0.00698990370087
0.0122816278828
0.0314119130943
0.147423579345
0.00304279120597
0.00314640697968
0.00342949576224
0.00352601578407
0.00355884820459
0.00357292285471
0.0035827937559
0.00359266677361
0.00360375121861
0.0036168676768
0.00363418214939
0.00366260008878
0.00372172329287
0.00386033479622
0.00418955485864
0.00497133248273
0.00687660211556
0.0118454862526
0.0302449243065
0.149211267428
0.00303330135576
0.00313657384763
0.00341929720295
0.00351592088358
0.00354890963012
0.00356309791012
0.00357305319289
0.00358300185389
0.00359417637798
0.00360744019954
0.0036250886712
0.00365435045168
0.00371556831785
0.00385831895249
0.00419068955772
0.00495029591962
0.00672052151385
0.0112283930816
0.0283462476342
0.122477469037
0.00302303637516
0.00312618585717
0.00340844357159
0.00350519754157
0.00353836585751
0.00355271187903
0.00356280356007
0.00357289032265
0.00358421576056
0.00359769515896
0.00361573293035
0.00364589610305
0.00370921556622
0.00385603897976
0.00419086469581
0.00491906765849
0.00649317461465
0.0103295477531
0.0252705358734
0.104060961828
0.00301198620362
0.00311511140865
0.0033969369128
0.00349384152419
0.00352724582504
0.00354179623761
0.00355207740706
0.00356234662147
0.00357387892728
0.00358762770195
0.00360611621991
0.00363715625069
0.00370237935497
0.00385235567247
0.00418712810446
0.00487922938762
0.00625312523551
0.00947675073894
0.0236668257991
0.103275221399
0.00300026199576
0.00310343486738
0.00338481367318
0.00348189138629
0.00351557011974
0.00353037642515
0.00354089586964
0.00355141235608
0.00356322306121
0.00357731384984
0.00359630942959
0.00362830795715
0.00369521440346
0.00384751788606
0.00418101553461
0.00484734088403
0.00611299763068
0.00904454700698
0.0225128951865
0.129025362607
0.00298792998594
0.00309124718451
0.00337214143787
0.00346941327241
0.00350340112128
0.0035185011503
0.00352930329344
0.00354011331569
0.00355224621232
0.00356672448631
0.00358632694429
0.00361940828288
0.00368831321804
0.00384363943489
0.00417915749944
0.00484052737472
0.00610152748555
0.00907641436418
0.0201625699494
0.0897263282269
0.00297496049346
0.00307854316955
0.00335896535669
0.00345644267442
0.00349077281099
0.00350621172489
0.00351734803604
0.0035285003377
0.00354099905965
0.00355592978071
0.00357621057544
0.00361056490277
0.00368206695774
0.0038420737168
0.00418442896805
0.00485498907603
0.00614151217315
0.00933225523383
0.0217279547331
0.0738845896431
0.00296137836278
0.00306536331436
0.00334530057041
0.0034430187574
0.00347773402711
0.00349356546503
0.00350509026391
0.00351663818508
0.00352955444102
0.00354499609342
0.00356603233184
0.00360185275987
0.00367639298297
0.00384235354152
0.00419439223067
0.00487843066027
0.00617302751089
0.00936157673806
0.0228085785542
0.0786418111449
0.00294717359057