/*--------------------------------*- C++ -*----------------------------------*\
| =========                 |                                                 |
| \\      /  F ield         | OpenFOAM: The Open Source CFD Toolbox           |
|  \\    /   O peration     | Version:  v2012                                 |
|   \\  /    A nd           | Website:  www.openfoam.com                      |
|    \\/     M anipulation  |                                                 |
\*---------------------------------------------------------------------------*/
FoamFile
{
    version     2.0;
    format      ascii;
    class       volScalarField;
    location    "2.6";
    object      k;
}
// * * * * * * * * * * * * * * * * * * * * * * * * * * * * * * * * * * * * * //

dimensions      [0 2 -2 0 0 0 0];


internalField   nonuniform List<scalar> 
1984
(
0.00324142980104
0.003761463012
0.00393031000607
0.00399436699506
0.00402543588046
0.00404697246142
0.00406626397571
0.00408540706356
0.00410526055225
0.0041267678322
0.00415304307395
0.00419305115991
0.00427088517715
0.0044375845035
0.00477575728074
0.00540591240913
0.00659156281826
0.00985227734519
0.0233035513149
0.0686201028859
0.00377410873202
0.004622061325
0.0048816079139
0.00497651896137
0.00501727464303
0.00504165643105
0.00506171139034
0.00508097898255
0.00510082897399
0.00512270680109
0.00515128876011
0.00519968558552
0.00530030716933
0.00551745515522
0.00594410390691
0.00669380485835
0.00810606837612
0.012343243284
0.029080579066
0.0735821544111
0.00394328931936
0.00488286574395
0.00517435351846
0.00528020719049
0.00532387368039
0.00534859479942
0.00536840154964
0.0053874904319
0.0054072925193
0.00542971482812
0.00545972925104
0.00551162834562
0.00561974086799
0.00585043333787
0.00630003958299
0.00707870229619
0.00848590828027
0.0126670446207
0.0298601219165
0.0745179852113
0.00400784077075
0.00498013034679
0.00528397365007
0.00539367933263
0.0054378017498
0.00546198774203
0.00548115271902
0.00549974800806
0.00551938878413
0.00554177591516
0.00557215352195
0.00562464349039
0.00573314582174
0.00596349982129
0.00641121479027
0.00718781106211
0.00853881003029
0.0124029857087
0.0290855552809
0.074180772772
0.00403852305009
0.00502224644256
0.00533058548124
0.00544121153255
0.0054847961163
0.00550807736075
0.00552639417717
0.00554433695184
0.00556345990342
0.00558556655888
0.00561555873721
0.00566731826876
0.00577368831024
0.00599912018967
0.00643785320288
0.00720115435897
0.00848467509778
0.0119058837101
0.0274493332347
0.073614502336
0.00405862783607
0.00504658822553
0.00535631115082
0.00546669565779
0.00550939598706
0.00553165585982
0.00554903021656
0.00556617150812
0.00558463190402
0.00560614131711
0.00563543226969
0.00568582643369
0.00578920975285
0.0060084433545
0.00643695205047
0.00718551098338
0.00841690319379
0.0114273902808
0.0255996718222
0.0730818314576
0.00407541980054
0.00506542821302
0.00537545358504
0.00548523726096
0.00552699238052
0.00554825345623
0.00556469106769
0.00558098584263
0.00559870588866
0.00561949591722
0.0056478602388
0.00569664802145
0.00579683722372
0.00601005908179
0.00642903445941
0.0071675252804
0.008389416984
0.0112839789926
0.0241476953317
0.072411708569
0.004091069147
0.00508254983782
0.00539260926367
0.00550174501679
0.00554261905316
0.0055629602354
0.00557852134002
0.00559400495598
0.00561097312778
0.00563097537241
0.00565835966973
0.00570543401053
0.0058022419704
0.00600918018665
0.00641881023853
0.00714732458904
0.00837048325714
0.0112344549973
0.0232125760799
0.0701475568153
0.00410616963674
0.00509908477612
0.00540913267006
0.00551766811216
0.00555775556523
0.00557728209694
0.00559204288763
0.00560677738023
0.00562301368069
0.00564226158016
0.00566862605765
0.00571389282656
0.00580717452892
0.00600756217457
0.00640718551676
0.00712443820352
0.00834578266458
0.0111822876293
0.0226074799902
0.070025652113
0.00412083645353
0.00511528528392
0.00542536283862
0.00553334263974
0.00557273889656
0.00559154981388
0.00560560963876
0.00561965447522
0.00563522668363
0.00565372175662
0.00567908795135
0.0057225265394
0.00581216872347
0.00600576674278
0.00639502674789
0.00709950022426
0.00830401781626
0.0109858201697
0.0207997174763
0.0632305761434
0.0041350615399
0.00513116317074
0.0054413173901
0.00554880482172
0.00558758164879
0.00560576276886
0.00561920175889
0.00563264271992
0.00564759329741
0.00566540248205
0.00568977726407
0.00573137993945
0.0058173464114
0.00600399152136
0.00638252539545
0.00707349812862
0.00826273866009
0.010889386332
0.0208968246954
0.0679273049746
0.00414881671273
0.005146686259
0.00545695087691
0.00556398897215
0.00560221522467
0.00561984156758
0.00563273292285
0.00564563237219
0.00566002970266
0.00567717648575
0.00570061937888
0.00574041523905
0.00582270514033
0.00600231293694
0.00637009381302
0.007048041825
0.00823079922897
0.0108933766245
0.021876232234
0.0694249543253
0.00416206780464
0.00516179785062
0.00547220495872
0.00557882963053
0.00561655320613
0.00563368892033
0.00564609781836
0.0056585123213
0.00567240082549
0.00568895223138
0.00571149730789
0.00574956717234
0.00582829711907
0.00600103385697
0.00635815143877
0.00702350649449
0.00820677796974
0.0108671362676
0.0208628770789
0.0604705236133
0.00417476983209
0.00517644985537
0.00548700243251
0.00559324694465
0.0056305209304
0.00564722204652
0.00565920650068
0.00567119080629
0.00568462542991
0.00570063185609
0.00572235416757
0.00575884907161
0.00583429735619
0.00600077701813
0.00634822204491
0.007001694704
0.00818383651838
0.010883380867
0.0202743059242
0.0519357921398
0.00418688714624
0.00519060198424
0.00550127096761
0.00560717576256
0.00564404687288
0.00566036406451
0.0056719614018
0.00568358483856
0.00569663699691
0.00571214591736
0.0057331727731
0.00576827827684
0.00584095874398
0.00600247108205
0.00634303886391
0.006988312287
0.00815234388033
0.0107136036985
0.0193282919529
0.059044525556
0.00419842471697
0.00520418120717
0.00551499280205
0.00562057193557
0.00565705411968
0.00567303384504
0.00568434506667
0.00569563555411
0.00570830489745
0.00572344481449
0.00574379389152
0.00577777146659
0.00584826600062
0.00600654102958
0.00634496449974
0.00699463818606
0.00815477414831
0.0105353881523
0.0186549265676
0.0690753756584
0.00420939083762
0.00521719890377
0.00552812363433
0.00563336349598
0.00566954954462
0.00568524306279
0.00569627273212
0.00570723519735
0.00571969480684
0.00573445103543
0.00575425424101
0.00578726601182
0.00585593663283
0.00601171680478
0.00635137289336
0.00702522058566
0.00827240827649
0.010817918175
0.0199070412251
0.0697023070447
0.00421972273049
0.00522952207148
0.00554057815459
0.00564559459688
0.00568145804034
0.005696873478
0.00570772774086
0.0057185520441
0.00573066643913
0.00574506001806
0.00576428063388
0.00579625278083
0.00586284870009
0.00601531021498
0.00635514039981
0.00706370080763
0.00847959063663
0.0113970043334
0.019352907752
0.0570021315129
0.00422932280287
0.00524109013817
0.00555235293123
0.00565711346149
0.00569275198673
0.00570807674626
0.00571874137155
0.00572936291228
0.00574128058589
0.00575541510292
0.00577418059279
0.00580516314266
0.00586949757251
0.00601769790799
0.0063552286776
0.00709407791602
0.00867264159213
0.0119708044844
0.0193404652781
0.0493701073495
0.00423819728721
0.0052520282771
0.00556339535021
0.00566797068483
0.00570345821156
0.00571861307864
0.00572917080376
0.00573969204567
0.00575149317357
0.00576544532334
0.00578383159248
0.00581388657016
0.00587597586172
0.00601984684915
0.00635427804972
0.00711434399363
0.00880522722435
0.0124417424632
0.021133428147
0.0524775959361
0.00424630325221
0.00526223217519
0.00557374729585
0.0056781429036
0.00571345613512
0.0057285156942
0.00573902625804
0.00574951289411
0.00576127093761
0.00577511789023
0.00579320598696
0.00582240885422
0.00588236023504
0.00602219485233
0.00635392594812
0.00713041948888
0.00889958692902
0.0127927586947
0.023096981214
0.0664694558675
0.00425354977769
0.00527165007257
0.00558330299032
0.0056875367666
0.00572273493979
0.00573775904291
0.00574827880194
0.00575878686652
0.00577056618089
0.00578438894375
0.00580226424524
0.00583069083331
0.00588859292527
0.00602458046784
0.00635377828107
0.00714336551582
0.00897488356064
0.0131486963634
0.0251487881998
0.0715122893926
0.004259889662
0.00528021517194
0.00559203077124
0.00569613813079
0.0057312653504
0.00574629914657
0.00575688130074
0.00576748347552
0.00577935712146
0.00579323577775
0.00581097735526
0.00583869823442
0.00589457608331
0.00602670276744
0.00635290165424
0.00715175120829
0.00902971821804
0.0134022334877
0.0263205676106
0.0723482150856
0.00426529028445
0.00528788858743
0.00559988227885
0.00570390515954
0.00573900636396
0.00575409873482
0.00576480090393
0.0057755707925
0.00578761790837
0.00580162560745
0.00581932258852
0.00584642970985
0.00590032965042
0.0060284645378
0.00635071937921
0.00715483342059
0.00906711790082
0.0136251630831
0.0272669575034
0.0723263470684
0.00426968926105
0.0052945294621
0.00560674009924
0.00571074832994
0.00574588611837
0.0057611001687
0.00577198973624
0.005782996427
0.00579530436078
0.00580953778806
0.00582729821391
0.00585389408866
0.00590592835747
0.00603005036679
0.00634787824536
0.00715480198331
0.00909001604178
0.0137463912745
0.0274470225398
0.0648898650479
0.0042731172636
0.00530002455644
0.0056124957938
0.00571657595111
0.00575182973821
0.00576723709766
0.00577839127382
0.0057897111966
0.0058023656976
0.0058169546764
0.00583490196473
0.00586115593718
0.00591155253249
0.00603201182866
0.00634632191032
0.00715971045682
0.00910027452357
0.0134629817793
0.0252014657674
0.0519980086241
0.00427568780911
0.00530433486948
0.00561701819688
0.00572127431023
0.00575675445266
0.00577245447031
0.00578396754149
0.00579570213519
0.00580881823241
0.00582388675676
0.00584219387463
0.00586836768038
0.00591759229857
0.00603547136377
0.006349823368
0.00718513198394
0.00916409546353
0.0130030420031
0.0203461477471
0.0313376437713
0.00427748029777
0.00530748219193
0.00562025664949
0.00572476665378
0.00576058456927
0.00577667138097
0.00578862718233
0.00580086853023
0.00581456386227
0.00583025388013
0.00584913700503
0.00587557611433
0.00592427495794
0.0060411270911
0.00636067217567
0.00724608908535
0.00943994440926
0.0137630072149
0.0206416946462
0.0362032477613
0.00427832637028
0.00530920641739
0.00562206527497
0.00572695070263
0.0057632397858
0.0057798228617
0.00579231851007
0.0058051800823
0.00581959526712
0.00583608377902
0.00585576552337
0.00588282474316
0.00593161422025
0.00604841936659
0.00637493685375
0.00732166585761
0.00984605170876
0.0154353477062
0.0269202645204
0.0652866124244
0.00427802679693
0.00530931147952
0.0056223079557
0.00572772818139
0.0057646393688
0.00578183931417
0.00579498118439
0.00580856964407
0.00582382406213
0.0058412774251
0.00586200566237
0.00589008180586
0.00593976777221
0.00605852064191
0.0063970999683
0.00741166638864
0.0102325411039
0.0167503671516
0.0307595980986
0.0714173143141
0.00427662732873
0.00530786065023
0.00562090150492
0.00572700870655
0.00576469122139
0.0057826219261
0.00579651197161
0.00581093248455
0.00582715349799
0.00584573841867
0.00586775560892
0.00589732158895
0.00594940478108
0.00607588950872
0.00644506953332
0.0075519654453
0.0105680390972
0.0174154259384
0.0309504593915
0.0537727043607
0.00427392267045
0.00530462850307
0.00561778305051
0.00572469874921
0.00576329978262
0.00578208403352
0.00579682629414
0.00581218404128
0.00582948098826
0.00584932165898
0.00587283723368
0.00590452834968
0.00596180170555
0.00610845634994
0.00654990466681
0.00781898659888
0.0109743206859
0.0177615209197
0.0308366754916
0.0546840086755
0.00426983615422
0.00529957528815
0.00561278604885
0.00572067396425
0.00576035064615
0.00578012101877
0.00579582831032
0.00581223323659
0.00583071445471
0.00585191101783
0.00587714622255
0.00591178879969
0.00597845628478
0.00616394246368
0.00673568004519
0.00826159391955
0.0114917037241
0.0174083778854
0.0282496169702
0.0492019263908
0.00426430573809
0.00529250326296
0.00560582355732
0.00571483522521
0.00575574934435
0.00577664207595
0.00579342703742
0.00581097144057
0.00583072581924
0.00585339897533
0.00588056103627
0.00591903095487
0.00599918454315
0.00623765617735
0.00696862607465
0.00877475501127
0.012123204491
0.0172926515872
0.0251240162416
0.036053487817
0.00425731372869
0.00528329002478
0.00559675606982
0.00570706439228
0.00574940032989
0.00577156296872
0.00578954662912
0.00580832618547
0.0058294351435
0.00585365460729
0.00588278522709
0.00592537861008
0.00601955123912
0.00630563746612
0.00715802385281
0.00920274991607
0.0130525483616
0.019235976907
0.0282838081616
0.0401956236163
0.00424870031406
0.00527189704399
0.00558551536236
0.00569727423328
0.00574121155725
0.00576480447397
0.00578412962927
0.00580427930839
0.00582683144573
0.00585258968094
0.00588341646896
0.0059283949027
0.00602774795227
0.00632671813755
0.00721099792263
0.00937877130363
0.013648775264
0.0205563017348
0.030360983663
0.0469692338936
0.00423806364502
0.00525828276104
0.00557207013
0.0056854027104
0.00573109062417
0.00575629202772
0.00577713367731
0.00579881151388
0.00582296082323
0.00585029817672
0.00588229632055
0.00592632288449
0.00601642486221
0.00628540938973
0.00713496440302
0.00937506600181
0.013795634895
0.0204705424966
0.0308053220656
0.0545306499457
0.00422556829573
0.00524241458822
0.00555635688237
0.00567136875755
0.00571897931649
0.0057459743116
0.0057685271175
0.00579194080299
0.00581793151747
0.00584720975388
0.00588121581277
0.00592738324649
0.00602134496169
0.00630767343211
0.0072279775541
0.0096158668428
0.0141785999932
0.0210033611113
0.0317143809611
0.0652741732806
0.00421098010067
0.0052243037365
0.00553837068138
0.00565514482053
0.00570482124072
0.00573379154593
0.00575824972455
0.00578363656738
0.00581170269754
0.00584319577521
0.00587987610614
0.0059312744689
0.00604382505574
0.00639845491343
0.0074837755942
0.0100261207647
0.0145834427439
0.0217309681367
0.0334044572
0.070259194668
0.00419425504444
0.00520392558662
0.00551811838935
0.00563671086077
0.00568857883769
0.00571970029337
0.00574630348299
0.00577391805456
0.00580430136494
0.00583820776677
0.00587743014943
0.00593221070465
0.00605159357422
0.00641847202981
0.00749398656441
0.00996095255462
0.0146506386815
0.0224519311366
0.0351007165843
0.0708430121379
0.00417528225252
0.00518132808767
0.00549564457766
0.00561611163759
0.00567026428589
0.00570371970075
0.0057327264374
0.00576286206115
0.00579588153854
0.00583232500047
0.00587304478129
0.00592329970456
0.006010528845
0.00625109178109
0.00703649260226
0.00934985896175
0.014618497056
0.0232329782154
0.034633118322
0.0584729961949
0.00415440001384
0.00515677206973
0.00547118850812
0.00559346299483
0.00564995042479
0.0056858777301
0.0057175120891
0.00575052439956
0.00578664877042
0.00582642631473
0.00587024913072
0.00592129104304
0.005998907224
0.00619589811484
0.00687293901568
0.00913668301157
0.01497979514
0.0249921389573
0.0397935703203
0.0733859692988
0.00413168218779
0.00513057101159
0.00544505891627
0.00556904202773
0.00562776603321
0.00566618493016
0.00570058605822
0.00573669843277
0.0057762605794
0.00581996497525
0.0058679516903
0.00592192731862
0.00599825587755
0.00618713445695
0.00686772345802
0.00929938023106
0.0158108724724
0.0269312289989
0.0432997351475
0.076036561534
0.0041074634192
0.00510326693461
0.00541779909089
0.0055432376455
0.00560389805349
0.00564445781351
0.00568119154727
0.00571975028637
0.00576214423163
0.00581011783236
0.00586314600662
0.00592120917252
0.00600292299522
0.00622074736953
0.00702745966697
0.00982329323659
0.016877075266
0.0285290262579
0.0455569258413
0.0767629590797
0.00408231983448
0.00507566748567
0.00539019386181
0.00551661440619
0.00557837152653
0.00561961256246
0.00565608289811
0.00569318743989
0.00573428823612
0.00578605418211
0.00584403810295
0.00590329989711
0.00599379530002
0.00627937187414
0.00730110746513
0.0105638863166
0.0180051435299
0.0299700119055
0.0476535833314
0.0776935888031
0.00405711261678
0.00504884805997
0.00536326271887
0.0054897578012
0.00555059816569
0.0055879267205
0.00561510135367
0.00563613097439
0.00565943218293
0.00571427577903
0.00577669857461
0.00582881846489
0.00594172439095
0.00637421076385
0.00771360652005
0.0115581699957
0.0196357772041
0.0326350752954
0.0513076200309
0.0797089597289
0.00403288545933
0.00502407351299
0.00533819384503
0.0054632606204
0.00551872997275
0.00553981141493
0.0055297222687
0.00548352749957
0.0054275598734
0.00548920370031
0.00556650632548
0.00562466970698
0.00581160249987
0.00651355414378
0.00834457479331
0.0129820469227
0.0218602051235
0.0355394419839
0.0534753007352
0.0802880336907
0.00401059420093
0.00500256141645
0.00531617585732
0.00543760825733
0.00547984639803
0.0054551950707
0.00531275351362
0.00500549237407
0.00462423283455
0.00465839373381
0.00483403348134
0.00516443914637
0.00554500267237
0.00649828320375
0.00865580592307
0.0140727971745
0.0243057721695
0.0389397963146
0.0564363701083
0.0811756889504
0.0039916791553
0.00498550069922
0.00529816741833
0.00541388190597
0.0054412638533
0.00538390843423
0.00516856314199
0.00446120887373
0.00528576081524
0.00670981390021
0.00951998954497
0.0158776509241
0.0269106713524
0.0409135747673
0.057785318423
0.080995955709
0.00397886177857
0.00497604126182
0.00528934055173
0.00540287793297
0.00542141413325
0.00533726524911
0.00505237356705
0.00416931221549
0.00552772281755
0.00783457443152
0.0123488150725
0.0199518868739
0.0294870163766
0.0401070269145
0.0523697341262
0.0663987592043
0.00397887813488
0.00497604978342
0.00528934599258
0.00540288140203
0.00542141648564
0.00533726432063
0.00505236695307
0.00416929588598
0.00552809560495
0.00783571554943
0.0123512274136
0.0199555569899
0.0294908151011
0.0401110068724
0.0523732912277
0.0664004121141
0.00399170469088
0.00498552097337
0.00529818243535
0.00541389115342
0.00544126758972
0.00538390490093
0.00516855588221
0.0044611621235
0.00528637874963
0.00671147517575
0.00952312890178
0.0158821604824
0.0269154849308
0.0409184815204
0.0577935342683
0.0809990511959
0.00401063344933
0.00500259491258
0.00531620302724
0.00543762768787
0.00547985958725
0.00545521106053
0.00531277484525
0.00500552320854
0.0046242620678
0.0046584453738
0.00483412901526
0.00516468057388
0.00554560569612
0.00649968055653
0.0086583178046
0.0140758490983
0.0243087401598
0.038944588823
0.0564435001174
0.0811787702791
0.00403292902749
0.00502411255601
0.00533822710282
0.00546328669817
0.00551874997021
0.00553982612849
0.00552972722026
0.00548352552744
0.00542757467639
0.00548924243426
0.00556657700877
0.00562484345423
0.00581206253721
0.00651459182705
0.00834648900224
0.0129846002202
0.0218631773633
0.0355433664285
0.053482058947
0.0802918310905
0.00405715472837
0.00504888960116
0.0053633013714
0.00548979086185
0.00555062646264
0.00558795225482
0.00561512552499
0.00563615644162
0.00565946631643
0.00571432390683
0.0057767633179
0.00582893522352
0.00594200379538
0.00637484336668
0.00771484526266
0.0115600975316
0.0196382558899
0.0326377531358
0.0513125498472
0.079712232265
0.0040823536394
0.00507570754244
0.00539023515205
0.00551665157974
0.00557840361319
0.00561964364626
0.00565611556902
0.0056932245105
0.00573433318424
0.00578610811549
0.00584410018851
0.00590338241298
0.00599395985364
0.00627973688424
0.0073017990398
0.0105650230795
0.0180066043558
0.0299720986683
0.0476570619462
0.0776959597355
0.00410749133582
0.00510331107738
0.00541784637957
0.00554327757237
0.00560392512608
0.00564448965105
0.00568122714666
0.00571979079617
0.00576219173708
0.00581017160235
0.00586320411033
0.00592127340804
0.00600302829865
0.00622097826709
0.00702788221547
0.00982402116935
0.0168780374587
0.0285305409732
0.0455599264275
0.0767644715658
0.00413172536942
0.00513062460061
0.00544511132188
0.00556907985754
0.00562779359101
0.00566620615019
0.0057006189731
0.00573673870319
0.00577631110317
0.00582002256306
0.00586801643862
0.00592199347817
0.00599834302666
0.00618730580552
0.00686803746674
0.00929999346991
0.0158117066426
0.0269326937096
0.0433025866503
0.0760378451732
0.00415446089367
0.00515684196142
0.00547125418548
0.00559351951076
0.00564999341748
0.00568591482729
0.00571755173343
0.0057505723052
0.00578673072643
0.00582652668148
0.00587037627679
0.00592142004175
0.0059990536632
0.00619611422649
0.00687329255818
0.0091373929301
0.0149806958513
0.0249934887253
0.0397964827648
0.0733881180504
0.00417535073199
0.00518140699927
0.00549572252982
0.00561618132636
0.00567032463733
0.0057037741649
0.00573278030314
0.00576292910746
0.00579596593517
0.00583244158018
0.00587318772164
0.00592343145892
0.00601066954501
0.0062512985365
0.00703681625179
0.00935057290893
0.0146194017006
0.0232341417572
0.0346363166928
0.0584761356413
0.00419432936315
0.00520401020314
0.0055182037077
0.00563679185545
0.00568865407385
0.00571977088782
0.00574637590456
0.00577400444026
0.00580441242289
0.00583833256921
0.00587759381344
0.00593235162925
0.00605175603474
0.00641871340228
0.00749434711475
0.00996162985463
0.0146515040252
0.0224537334145
0.035107727393
0.0708480578531
0.00421106579668
0.00522439644117
0.00553846427799
0.00565523722519
0.00570491211474
0.0057338814721
0.00575834215942
0.0057837423755
0.00581183099188
0.00584333760371
0.00588004216082
0.00593142603984
0.00604400992338
0.00639874791094
0.00748422725647
0.0100268779775
0.014584240934
0.0217318271641
0.0334065867897
0.0702604145574
0.00422566337016
0.00524251565077
0.00555645942085
0.00567147254279
0.00571908529667
0.00574608273346
0.00576864101727
0.00579206970921
0.00581808175642
0.00584737092669
0.00588139575343
0.00592755282209
0.0060215498194
0.00630799273619
0.00722847115882
0.00961654837533
0.0141793001894
0.0210042186019
0.0317124359658
0.0652744129845
0.00423817207991
0.00525839553587
0.00557218525772
0.00568552122171
0.00573121364416
0.00575641977777
0.00577726656205
0.00579895999178
0.00582313382863
0.00585047609515
0.00588249751741
0.00592651299544
0.00601665150172
0.00628573455413
0.00713531684878
0.00937554903869
0.0137962669676
0.0204716090494
0.03080886596
0.0545445462837
0.00424880159665
0.00527200321979
0.00558562366164
0.0056973852433
0.00574132739942
0.00576492713775
0.00578426306728
0.00580443316889
0.00582701113641
0.00585277671465
0.00588362066549
0.00592859441902
0.00602798149454
0.00632702397755
0.00721135452269
0.00937923791594
0.0136494212309
0.0205574904717
0.0303634005645
0.0469810247933
0.00425740651545
0.00528338901078
0.0055968598837
0.00570717212522
0.00574951320199
0.00577168332201
0.0057896795208
0.00580847997654
0.0058296117892
0.00585384703055
0.00588299479286
0.00592557434072
0.00601976654363
0.00630594082554
0.00715844240801
0.00920340310102
0.0130532135943
0.0192371454672
0.028287602197
0.0402140247352
0.00426438851384
0.00529259604148
0.00560592537051
0.00571494344793
0.00575586319623
0.00577676332076
0.00579355963656
0.00581112382178
0.00583090184393
0.00585359126485
0.00588077246792
0.00591922853556
0.00599939391436
0.00623791767256
0.00696899011434
0.00877535390039
0.012124169326
0.0172940409913
0.0251299332384
0.0360762302438
0.00426991385212
0.00529966733959
0.00561289038004
0.00572078420185
0.00576046647058
0.00578024392395
0.00579596085151
0.00581238370887
0.0058308874191
0.0058520983924
0.00587735442429
0.00591198238272
0.00597865790692
0.00616418118826
0.00673601015797
0.00826224700246
0.0114926926853
0.0174101971163
0.0282525044211
0.0491450176265
0.00427399693092
0.00530471957852
0.00561788673553
0.00572480965468
0.00576341683391
0.00578220774635
0.00579695838997
0.00581233211769
0.00582964931011
0.00584950411116
0.00587303992397
0.00590471495496
0.00596199024694
0.00610867628013
0.00655018968801
0.0078195336231
0.0109754970772
0.0177648601977
0.0308446117501
0.0547114090318
0.00427670313852
0.00530795358351
0.00562100716955
0.0057271209647
0.00576480877957
0.00578274520565
0.00579664263213
0.00581107787749
0.00582731790512
0.0058459174424
0.00586795590333
0.00589750527664
0.00594958596132
0.0060760940796
0.00644531328677
0.00755243900955
0.0105690767739
0.0174180401944
0.0309575022602
0.0537897757665
0.0042781061287
0.00530940794022
0.0056224144548
0.00572784038901
0.00576475630859
0.0057819614811
0.00579511015368
0.00580871286365
0.00582398685749
0.00584145610454
0.00586220765771
0.00589026844577
0.00593995060666
0.00605871845359
0.00639732126692
0.00741213036178
0.0102336236732
0.0167532666101
0.0307714754824
0.071448697789
0.00427840682618
0.00530930217228
0.00562217023918
0.00572706146155
0.00576335561413
0.00577994426683
0.00579244668484
0.00580532254229
0.0058197585852
0.00583626577732
0.00585597271963
0.00588302020236
0.00593181225426
0.00604862761397
0.00637516160251
0.00732213096097
0.00984720830238
0.0154384099395
0.0269323514224
0.0652424951435
0.00427755901234
0.0053075733157
0.00562035843327
0.00572487598522
0.00576070060147
0.00577679445792
0.00578875755281
0.00580101232556
0.00581473627641
0.00583045310155
0.00584935147244
0.00587578519891
0.00592449049973
0.00604135023283
0.00636090410504
0.00724653822126
0.00944106282378
0.0137660817099
0.0206480037034
0.0353012293971
0.00427576221818
0.00530441881012
0.00561711585699
0.00572138285877
0.00575687256947
0.00577258259987
0.00578410469098
0.00579584974998
0.00580898710716
0.00582407595248
0.00584239824414
0.005868583373
0.00591781724572
0.00603570639697
0.00635009333732
0.0071855983597
0.00916515104531
0.0130069736235
0.0204641089594
0.0345897351004
0.0042731794299
0.00530009034602
0.00561258090255
0.00571667821124
0.00575194800616
0.00576737217157
0.0057785422744
0.00578987822243
0.00580255519969
0.00581716478292
0.00583512873989
0.00586139708996
0.00591180309248
0.00603227289752
0.00634662563704
0.00716019305768
0.00910144897863
0.0134744982028
0.0256438473602
0.0638106008797
0.00426975675869
0.005294604008
0.00560683556937
0.0057108624582
0.00574601671441
0.00576124575474
0.00577215016134
0.00578316631898
0.00579548392593
0.00580973526826
0.0058275051934
0.00585410781289
0.00590614469019
0.00603027018985
0.00634812823761
0.00715523450958
0.00909152116873
0.0137605056281
0.0276904403998
0.0663414401855
0.00426535571942
0.00528796128664
0.00559997673181
0.00570401981359
0.00573913939269
0.00575424833761
0.00576496472308
0.00577574620694
0.00578780087028
0.00580182017433
0.00581952446773
0.00584663645768
0.00590054023081
0.00602868057747
0.00635096594718
0.00715529467571
0.00906973231444
0.0136511956466
0.027372844031
0.067945083365
0.00425995706702
0.00528029075517
0.00559212957523
0.00569625929749
0.0057314067072
0.00574645737549
0.00575705181732
0.00576766073387
0.00577953568222
0.00579341363133
0.0058111517977
0.00583886905522
0.00589474460756
0.00602687120755
0.00635309271651
0.0071523040572
0.0090360068962
0.0134738800837
0.0267371818283
0.0721851369055
0.00425361656433
0.00527172370564
0.00558340219368
0.00568766162507
0.00572288250432
0.0057379242821
0.00574845434269
0.00575896428732
0.00577073706871
0.00578454759366
0.00580240821305
0.00583082194265
0.00588871412338
0.00602469179532
0.00635389163873
0.00714395504804
0.008985466911
0.0132861559128
0.0260340957789
0.0720602104141
0.0042463644169
0.00526229653268
0.00557384170482
0.00567826724733
0.0057136052717
0.00572868328404
0.00573920230191
0.00574968619841
0.00576143007034
0.00577525531946
0.00579331973074
0.00582250281811
0.00588243821398
0.00602225178697
0.00635394981479
0.00713088427219
0.00891270241643
0.01300746604
0.0249842395019
0.0707761123696
0.00423824997723
0.0052520800899
0.00556349414919
0.00566811098716
0.00570361313692
0.00571878359441
0.0057293457442
0.0057398583173
0.00575163548213
0.00576555569469
0.00578390793883
0.00581393823401
0.00587600591511
0.0060198427523
0.00635419037361
0.00711444397463
0.00881725370483
0.012704180042
0.0243194273782
0.0706147871082
0.00422936590371
0.00524113549584
0.00555244387559
0.00565726093083
0.00569295653748
0.00570825847387
0.00571891815516
0.00572951890115
0.0057414013358
0.00575548858506
0.00577421286835
0.00580515759255
0.00586946354155
0.00601761546515
0.00635501199384
0.00709386011325
0.00868386494422
0.0122585535599
0.0228997616565
0.0583454995889
0.00421976539816
0.00522957840542
0.00554068871174
0.00564573928523
0.00568165460227
0.0056971362815
0.00570794920498
0.00571870611925
0.0057307584336
0.00574509101082
0.00576424043897
0.00579617020354
0.00586272430405
0.00601512191794
0.00635478600342
0.00706320988078
0.0084882466119
0.0116052459382
0.0212223462778
0.0530861091923
0.00420943617462
0.0052172571586
0.00552822823219
0.00563354042883
0.00566973708587
0.00568544861174
0.00569647309156
0.00570743384748
0.00571972015601
0.00573434989469
0.00575400662037
0.00578689141683
0.00585550022041
0.00601121428076
0.00635070924119
0.00702442365355
0.0082798120278
0.0109793391074
0.0203280585885
0.0516950773503
0.00419848017905
0.00520426548414
0.00551510019036
0.00562070389151
0.00565722614368
0.00567322383584
0.00568451172105
0.00569574575319
0.00570833881841
0.00572334880345
0.00574355932031
0.00577749760404
0.00584793483177
0.00600615526929
0.00634444215998
0.00699375480256
0.00815650852143
0.010652642708
0.0201662812815
0.0654697921247
0.00418695582522
0.00519070184663
0.00550137589725
0.00560729934696
0.00564418504013
0.00566050975014
0.00567210949351
0.0056836678022
0.00569661728621
0.00571205618402
0.00573293175459
0.00576805486935
0.00584066620077
0.00600212136043
0.00634254657556
0.00698734257427
0.00814618083487
0.0106455991031
0.0187774536639
0.0588411128681
0.00417483923228
0.00517655582568
0.00548710260513
0.0055933631423
0.00563064933974
0.00564734995573
0.00565931718545
0.0056712526974
0.00568460386956
0.00570054247926
0.0057221735971
0.00575868766821
0.00583410551822
0.00600050274534
0.00634781499029
0.00700110203446
0.00818212914323
0.010836746425
0.0191346428553
0.0447892555258
0.00416214579024
0.00516187393965
0.00547229453426
0.00557893574154
0.00561667002263
0.00563380461687
0.00564619696685
0.00565856386317
0.00567237937394
0.00568888715564
0.00571134976484
0.00574947018008
0.00582816707299
0.00600083265695
0.00635781498334
0.00702309066219
0.00820847820545
0.0108634785163
0.0196402088944
0.0443001420503
0.00414886615445
0.00514674846531