/*--------------------------------*- C++ -*----------------------------------*\
| =========                 |                                                 |
| \\      /  F ield         | OpenFOAM: The Open Source CFD Toolbox           |
|  \\    /   O peration     | Version:  v2012                                 |
|   \\  /    A nd           | Website:  www.openfoam.com                      |
|    \\/     M anipulation  |                                                 |
\*---------------------------------------------------------------------------*/
FoamFile
{
    version     2.0;
    format      ascii;
    class       surfaceScalarField;
    location    "4.1";
    object      alphaPhi0.water;
}
// * * * * * * * * * * * * * * * * * * * * * * * * * * * * * * * * * * * * * //

dimensions      [0 3 -1 0 0 0 0];
oriented        oriented;


internalField   nonuniform List<scalar> 
3840
(
1.72302000447e-05
-1.72298113483e-05
3.29686775819e-05
-1.57380891486e-05
4.80500848523e-05
-1.50810343553e-05
6.3122402207e-05
-1.50718582804e-05
7.83634912033e-05
-1.52403124828e-05
9.37781983044e-05
-1.54113053301e-05
0.000109288641954
-1.55033064792e-05
0.000124848621068
-1.55502776383e-05
0.000140394290317
-1.55307142242e-05
0.000155842229093
-1.54351791798e-05
0.000171038235243
-1.51830943059e-05
0.000185872063576
-1.48180292154e-05
0.000200205319057
-1.43152055107e-05
0.000213485124173
-1.32633133052e-05
0.000223295910902
-9.79833209894e-06
0.00022459540725
-1.29219188897e-06
0.000225472553192
2.69365545992e-06
1.39642989409e-06
-2.79513496937e-06
-3.65372214554e-08
1.9779922997e-08
-2.667525345e-09
1.557622258e-05
-3.28056623036e-05
3.08839386436e-05
-3.10454500972e-05
4.60370849389e-05
-3.02338107704e-05
6.1066960568e-05
-3.01012484313e-05
7.60768487514e-05
-3.0249343258e-05
9.11278810861e-05
-3.04591315293e-05
0.000106243336407
-3.06113644746e-05
0.000121394500083
-3.06931994012e-05
0.000136549806808
-3.0667646791e-05
0.000151639726184
-3.05116579413e-05
0.000166597889254
-3.01269887085e-05
0.000181258844197
-2.94612406429e-05
0.000195431565348
-2.8470884354e-05
0.000209014512314
-2.68289684899e-05
0.000222532540603
-2.33058144885e-05
0.000234487118348
-1.32391688555e-05
0.000203629135374
-1.92587813291e-06
4.622935385e-07
-1.38867463297e-06
6.96451793624e-09
7.33996525619e-08
-1.90675140884e-09
1.47485730613e-05
-4.75539574311e-05
2.97287316906e-05
-4.60253658982e-05
4.46448166949e-05
-4.51496773354e-05
5.94644204852e-05
-4.49205517387e-05
7.4249294878e-05
-4.50336351603e-05
8.90638154239e-05
-4.52708773779e-05
0.000103964891503
-4.55083687874e-05
0.000118924379709
-4.56410475312e-05
0.000133894518233
-4.56239408345e-05
0.00014887709223
-4.5476021974e-05
0.000163784245861
-4.50186015223e-05
0.000178532177184
-4.41920327823e-05
0.000192869166199
-4.27908316989e-05
0.000206969278708
-4.09119952222e-05
0.000221143283298
-3.74694623018e-05
0.0002345484136
-2.6636352614e-05
0.000200824632569
-1.20866557322e-05
1.10282128245e-07
-2.65139905278e-06
1.19460332522e-08
1.6134444396e-07
7.54285458009e-09
1.45441352801e-05
-6.20979438752e-05
2.92420391606e-05
-6.07231991999e-05
4.3880644793e-05
-5.97883013058e-05
5.84948995989e-05
-5.95348464706e-05
7.31241183527e-05
-5.96627942418e-05
8.7836470401e-05
-5.99821456876e-05
0.000102639357742
-6.03068289873e-05
0.000117570730622
-6.05672083459e-05
0.000132639951132
-6.06697683645e-05
0.000147721234169
-6.05357938368e-05
0.00016278109259
-6.00587320544e-05
0.000177816021849
-5.9208040405e-05
0.000192780219745
-5.77377935511e-05
0.000207548847593
-5.56649328051e-05
0.000222553242726
-5.2463690676e-05
0.000239209774276
-4.32845994758e-05
0.00019995475196
-2.66013883624e-05
3.31828424176e-07
-7.9662466571e-06
3.72747465686e-08
9.35336556768e-08
3.87192073524e-08
1.45215173739e-05
-7.66194528712e-05
2.90434676579e-05
-7.5245271402e-05
4.34820151882e-05
-7.42271331841e-05
5.7920782535e-05
-7.39740235943e-05
7.24517940467e-05
-7.41942478453e-05
8.7099221171e-05
-7.46296060367e-05
0.000101911417436
-7.51173858016e-05
0.000116914288072
-7.55638054403e-05
0.00013209750181
-7.58404746193e-05
0.000147465866175
-7.58780897865e-05
0.000163024653706
-7.55914817441e-05
0.000178555031109
-7.47181144464e-05
0.000194379127834
-7.35448079159e-05
0.000210447428384
-7.17177307548e-05
0.000227599322247
-6.96048192977e-05
0.000245873403305
-6.1550301837e-05
0.000207468596232
-4.47430409936e-05
7.45593645105e-07
-1.75888074482e-05
1.37687952788e-07
-9.22897931098e-08
-4.18024079404e-08
1.45044831652e-05
-9.11240750359e-05
2.88292612255e-05
-8.95703731398e-05
4.3120401362e-05
-8.85188311236e-05
5.74394035039e-05
-8.82938020184e-05
7.18841126175e-05
-8.86398196143e-05
8.64845132336e-05
-8.92306492263e-05
0.000101319229886
-8.99517847084e-05
0.000116401177251
-9.06407911676e-05
0.000131786686207
-9.12153369702e-05
0.000147473780502
-9.1547725777e-05
0.00016348465618
-9.15762559237e-05
0.000179916838278
-9.11305354267e-05
0.000196707732947
-9.03184646525e-05
0.000214158858502
-8.9153164502e-05
0.000231925019949
-8.73598841935e-05
0.000252089120071
-8.17062381711e-05
0.000214058355388
-6.54377590027e-05
1.61349284554e-06
-2.82536661632e-05
-1.78831036449e-08
-2.56226763376e-07
-5.65082573527e-08
1.4419261564e-05
-0.000105543635643
2.85784695297e-05
-0.000103730115098
4.27007354916e-05
-0.000102641930654
5.68729643967e-05
-0.000102467170722
7.11916225746e-05
-0.000102959768571
8.57653354867e-05
-0.000103805402928
0.000100595698964
-0.000104782391368
0.000115761197182
-0.000105802266772
0.000131336618874
-0.000106780527731
0.000147335920841
-0.000107531590651
0.000163817593701
-0.000108031421589
0.000180889066666
-0.00010818321645
0.000198628905697
-0.000108040776522
0.000217177667492
-0.000107685911038
0.000236446380199
-0.000106617611325
0.000258093053615
-0.000103344910744
0.000220453825597
-8.81790099483e-05
9.51764728698e-09
-3.99932182059e-05
3.29068521136e-08
-2.02692698837e-07
-1.78434377785e-08
1.42421443144e-05
-0.00011978625873
2.82203777271e-05
-0.000117709106394
4.21389757567e-05
-0.000116561640928
5.61326351829e-05
-0.000116462324017
7.03076173049e-05
-0.000117136464919
8.47657921323e-05
-0.000118265044614
9.95644101994e-05
-0.000119581650962
0.00011478308668
-0.000121017465639
0.000130462041022
-0.00012244943909
0.000146716401675
-0.000123770905684
0.000163633915143
-0.000124922621897
0.000181301250876
-0.000125832198137
0.000199838888466
-0.000126560365254
0.00021931580295
-0.000127146389289
0.000239957679257
-0.000127248173465
0.000262190219297
-0.000125569279813
0.000229225049278
-0.000113203362238
1.30110023385e-07
-5.3304902896e-05
-8.05724066484e-09
-8.97697951926e-08
-2.8424532336e-08
1.39666067902e-05
-0.000133753549191
2.77247641679e-05
-0.000131468265322
4.1403618959e-05
-0.000130241893197
5.51685302497e-05
-0.000130229071013
6.91531037451e-05
-0.00013112316023
8.34325028186e-05
-0.000132546391524
9.81319093783e-05
-0.000134281924121
0.000113298053448
-0.000136180391011
0.000129078007494
-0.000138219522735
0.00014551658952
-0.000140194372513
0.000162726813182
-0.000142107292251
0.000180871125807
-0.000143958079006
0.000200132648512
-0.000145803623422
0.000220607583126
-0.000147604182701
0.000242185857706
-0.000148811667224
0.000264969682002
-0.000148344933703
0.000250197366647
-0.000138199194332
-7.14966478594e-07
-6.89972590434e-05
2.44788277774e-08
-1.94866989989e-08
-1.68613333808e-08
1.36286573381e-05
-0.000147383119019
2.70931953201e-05
-0.000144934067943
4.04635665583e-05
-0.000143613960925
5.39427680424e-05
-0.000143710451618
6.76545394732e-05
-0.000144837394953
8.17148196349e-05
-0.000146608954406
9.62101115362e-05
-0.000148778298916
0.000111265701298
-0.000151232870037
0.000126951878352
-0.000153895542648
0.000143506993374
-0.000156734007253
0.000160905546473
-0.000159480680493
0.000179409704801
-0.000162443459991
0.000199194455639
-0.00016556974457
0.000220505799489
-0.00016889740167
0.000243111130669
-0.000171401120186
0.000266751728545
-0.00017197683836
0.000276444573112
-0.000163072108592
1.61654770465e-06
-8.97567220568e-05
-3.39840263095e-07
-1.55575353173e-07
-9.45777956973e-08
1.32945948261e-05
-0.000160678871727
2.63283319092e-05
-0.000157969342992
3.93076361622e-05
-0.000156595268238
5.24292281352e-05
-0.000156834529837
6.57925510614e-05
-0.000158203519174
7.95367163611e-05
-0.000160355659401
9.3759906965e-05
-0.000163002667188
0.000108560015959
-0.000166029723662
0.000124093650364
-0.00016941857776
0.000140409084601
-0.000173033141733
0.000157940089462
-0.000176986168487
0.000176605559971
-0.000181089725967
0.000196686233996
-0.000185631425559
0.000218415438723
-0.000190606927909
0.000241915769357
-0.000194884892349
0.000267268111989
-0.000197320135062
0.000309548713842
-0.000190855387996
5.07900142682e-06
-0.000108034672788
9.03665332285e-08
-2.84000006034e-07
-4.53548294257e-08
1.27864189318e-05
-0.000173466685852
2.54056196164e-05
-0.000170590337566
3.79599352933e-05
-0.00016915186134
5.05998541352e-05
-0.000169477207777
6.35434156918e-05
-0.000171150084134
7.68685466729e-05
-0.000173683507666
9.07032271074e-05
-0.000176838425575
0.000105173492427
-0.000180496315308
0.000120392228605
-0.000184625932759
0.000136597891676
-0.000189221918103
0.000153772132514
-0.00019413372114
0.000172280679776
-0.000199578705715
0.000192277387522
-0.000205608848433
0.0002139863872
-0.000212295948737
0.000238107545539
-0.000218990034078
0.000266031800567
-0.000225234864293
0.00031264388326
-0.000222218490276
1.04892821411e-05
-0.000126967070688
-4.82231023769e-08
-4.92035819895e-07
-9.010470609e-08
1.2275463166e-05
-0.000185743738719
2.43442424127e-05
-0.000182661105268
3.63531837076e-05
-0.000181163269234
4.84712720624e-05
-0.000181598240334
6.08959067408e-05
-0.000183577907429
7.37119768256e-05
-0.000186502298877
8.70529260231e-05
-0.000190180416313
0.000101035576154
-0.000194474714004
0.000115794408453
-0.000199372810329
0.000131535570615
-0.000204945249239
0.00014840154006
-0.000210972496861
0.00016653516668
-0.000217692036114
0.000186178065225
-0.000225231752379
0.000207701951881
-0.000233800490975
0.00023199606216
-0.000243267414197
0.000260380161411
-0.000253608954057
0.000285143424045
-0.000255883546356
1.64162294507e-05
-0.00015077632991
1.64222427221e-07
-1.37280612645e-06
-8.12867412315e-09
1.16317090733e-05
-0.0001973771357
2.31002088045e-05
-0.000194131652913
3.45111312026e-05
-0.000192576715218
4.60396380489e-05
-0.000193129755912
5.7812444405e-05
-0.000195353925293
7.00173424281e-05
-0.000198709722409
8.27218679294e-05
-0.000202885201243
9.61258014622e-05
-0.000207874269678
0.000110328025028
-0.000213562156739
0.000125442147892
-0.00022003958276
0.000141728639978
-0.000227230147759
0.000159276776814
-0.000235216775714
0.000178484525368
-0.000244415738261
0.000199677478783
-0.000254971551719
0.000223935389818
-0.000267504504741
0.000252604298749
-0.000282266198282
0.00028689481532
-0.000289997808812
2.34796154214e-05
-0.000178074354396
3.66028744365e-07
-3.49630098292e-06
4.28521201571e-07
1.09848274699e-05
-0.000208363573205
2.17402588826e-05
-0.000204888993631
3.24428441327e-05
-0.000203281710562
4.32701455417e-05
-0.000203959813152
5.43446139529e-05
-0.000206431214464
6.58223728171e-05
-0.000210189900371
7.78495608842e-05
-0.000214913308497
9.04851722604e-05
-0.000220504569049
0.000103901529285
-0.000226963370404
0.00011823072118
-0.000234349670085
0.000133722072077
-0.000242685885766
0.000150621303403
-0.000252088252402
0.000169141531252
-0.000262906105495
0.000189903592268
-0.000275707879794
0.000213835171955
-0.000291412037068
0.000241761689072
-0.000310179747213
0.000275110708206
-0.000323188196296
3.14064035856e-05
-0.000207092819744
2.09125779756e-07
-7.16228282853e-06
6.68610873584e-07
1.01971358022e-05
-0.000218561834862
2.02277334938e-05
-0.00021492109372
3.01590449699e-05
-0.000213214932348
4.01915509581e-05
-0.000213994488335
5.04932404348e-05
-0.000216736443947
6.11566684144e-05
-0.000220855414066
7.23228440718e-05
-0.000226079894988
8.4108410499e-05
-0.000232284289319
9.65934962166e-05
-0.000239438012737
0.000109927090064
-0.000247661440717
0.000124520285713
-0.000257247089136
0.000140279361035
-0.000267817366495
0.000157662554948
-0.000280259347233
0.000177307392389
-0.000295323363862
0.000200120198739
-0.000314201556789
0.000226366432568
-0.000336411088582
0.000257846863221
-0.00035429127709
3.85720959843e-05
-0.000237720415382
-1.22144229452e-07
-1.34222522881e-05
5.92289524932e-07
9.33399470412e-06
-0.000227896348442
1.85339093775e-05
-0.000224121868246
2.76598217453e-05
-0.000222342249098
3.68602501858e-05
-0.0002231987622
4.62944012211e-05
-0.000226173321902
5.6063500441e-05
-0.000230627378509
6.62302205345e-05
-0.000236246327125
7.70644877196e-05
-0.000243117034565
8.84624417464e-05
-0.000250821863535
0.000100711124495
-0.000259888204012
0.000113823269367
-0.000270325664804
0.000128237398889
-0.000282193659307
0.000143969062144
-0.000295949069877
0.000161477300751
-0.000312792946415
0.000181730146828
-0.000334421060241
0.000205935916491
-0.000360594269119
0.000234855351384
-0.000383578213745
4.75203860979e-05
-0.000272985873803
5.4462427316e-07
-2.76204016137e-05
-3.42492078064e-07
8.45543057301e-06
-0.000236351627692
1.67351080425e-05
-0.000232401994356
2.49387799792e-05
-0.000230548216469
3.3220843096e-05
-0.000231483054481
4.17103091475e-05
-0.000234665926757
5.04987263134e-05
-0.000239419314817
5.96748831843e-05
-0.000245425411183
6.92081420842e-05
-0.000252648766915
7.95339833404e-05
-0.000261142607402
9.05228259046e-05
-0.000270866785461
0.000102292914189
-0.000282080396757
0.000115163583139
-0.000295045298543
0.000129141305564
-0.000309905525924
0.000144228210748
-0.000327859575554
0.000162005292464
-0.000352180524507
0.000183838617977
-0.000382415225707
0.000211667661455
-0.000411361492842
5.04242515515e-05
-0.000304632424522
-6.28272312313e-07
-3.63653444109e-05
-5.90294135777e-07
7.49113232966e-06
-0.000243842470865
1.48007230581e-05
-0.00023971207803
2.20166957496e-05
-0.000237764962826
2.92914334798e-05
-0.000238760254043
3.67450557391e-05
-0.000242124092873
4.44279679747e-05
-0.000247105289191
5.24574153932e-05
-0.000253455884516
6.09173954313e-05
-0.000261108464518
6.9869684798e-05
-0.000270091481401
7.95889824293e-05
-0.000280578570591
8.99736860434e-05
-0.000292453128062
0.000101049107228
-0.000306104854704
0.000113565386175
-0.00032240326896
0.000126993085746
-0.000341268308065
0.000141554771283
-0.000366724869522
0.000159844748234
-0.000400692334681
0.000183306951361
-0.000434779311883
5.25041675134e-05
-0.000333697205114
-1.04761619404e-07
-4.78029488578e-05
-3.92430385324e-07
6.47634291736e-06
-0.000250318311506
1.27396168329e-05
-0.000245975280174
1.89122750451e-05
-0.000243939117256
2.51101685108e-05
-0.000244961222071
3.14027764656e-05
-0.000248419677719
3.7946793957e-05
-0.000253652401123
4.48007998543e-05
-0.000260311831454
5.20225455526e-05
-0.000268330785587
5.96900953067e-05
-0.000277756973548
6.78070428296e-05
-0.000288689741493
7.67477441722e-05
-0.000301383731365
8.63613623685e-05
-0.000315704135455
9.65238911585e-05
-0.000332548003866
0.00010814692485
-0.000352872091545
0.000120472164376
-0.000379032050623
0.000133778995379
-0.000413985133263
0.000151108097548
-0.000452133908707
5.23885814071e-05
-0.00036260171106
5.26174109822e-07
-6.52533147312e-05
2.35298712806e-07
5.37149961188e-06
-0.000255689381501
1.05796712703e-05
-0.00025118335939
1.56469457623e-05
-0.00024900716901
2.0703277929e-05
-0.000250018990036
2.58690459595e-05
-0.000253588335421
3.12234568373e-05
-0.000259010199888
3.68013728933e-05
-0.000265892356349
4.26758223721e-05
-0.00027420643661
4.88863745109e-05
-0.000283966522752
5.55243863408e-05
-0.000295322988001
6.2567115748e-05
-0.000308417216933
7.03098239373e-05
-0.00032343281466
7.86714801576e-05
-0.000340891453153
8.7561833531e-05
-0.000361742032871
9.66557974845e-05
-0.000388106082571
0.000104516638226
-0.000421830649697
0.000110922411837
-0.000458520374397
4.06820877652e-05
-0.000377277173354
-1.68211217256e-06
-8.07492922467e-05
6.2890333402e-08
4.25327196123e-06
-0.000259942128805
8.34613765202e-06
-0.000255276101803
1.22881218531e-05
-0.000252949895377
1.61948699118e-05
-0.000253927633997
2.01654813154e-05
-0.000257561816847
2.42780893009e-05
-0.000263125889708
2.85226579511e-05
-0.000270140409123
3.29607013107e-05
-0.000278646377312
3.76355989807e-05
-0.000288641034643
4.2594939598e-05
-0.000300277936827
4.78589426149e-05
-0.000313671967625
5.3523057528e-05
-0.000329082503468
5.96279381722e-05
-0.000346977305567
6.61616642511e-05
-0.000368254091825
7.19786673531e-05
-0.000393901896765
7.46894759862e-05
-0.000424525242996
7.32180563498e-05
-0.000457040961027
2.87870456782e-05
-0.000383764160096
-3.15675960184e-08
-8.53255984653e-05
3.92195811903e-08
3.11640940954e-06
-0.000263057743015
6.06554881852e-06
-0.000258224773187
8.85799076884e-06
-0.000255742723636
1.1585738949e-05
-0.00025665680891
1.43421595506e-05
-0.000260320530516
1.71247488854e-05
-0.000265911665316
2.00183752643e-05
-0.000273037878957
2.30028159498e-05
-0.000281633707411
2.61057238653e-05
-0.000291743934456
2.93114828096e-05
-0.000303480286136
3.26648890939e-05
-0.000317015552117
3.62036876972e-05
-0.000332605502253
3.98971288167e-05
-0.000350649443864
4.34929781825e-05
-0.000371825215745
4.64292340271e-05
-0.000396813567902
4.58219449585e-05
-0.000423898473787
4.07980670226e-05
-0.00045201054057
1.92435438421e-05
-0.000387951231414
-6.19070988769e-07
-8.81929980109e-05
-1.29999869409e-07
1.96864578604e-06
-0.000265024798949
3.75542651486e-06
-0.000260010573356
5.38337489765e-06
-0.000257370595849
6.92345565886e-06
-0.000258197937113
8.42529954697e-06
-0.000261824647998
9.92548029753e-06
-0.000267415402799
1.14393751838e-05
-0.000274555066809
1.29407357768e-05
-0.000283137445254
1.44489736006e-05
-0.000293252084741
1.59063359281e-05
-0.000304932646181
1.73323806597e-05
-0.000318431840252
1.86725440046e-05
-0.000333926772909
1.98945862851e-05
-0.000351845765351
2.08627743818e-05
-0.000372763140255
2.09530108881e-05
-0.000396873161896
1.78879162656e-05
-0.000420809164687
1.01294658291e-05
-0.000444212241285
5.06364525305e-06
-0.000386687414684
-3.63065413856e-07
-8.69208722823e-05
-2.29733269401e-07
8.05966784709e-07
-0.000265828699232
1.44299646154e-06
-0.000260646021882
1.90012282912e-06
-0.000257827148947
2.24265105484e-06
-0.000258541093257
2.51351870113e-06
-0.00026209742738
2.73061575467e-06
-0.000267634980138
2.87673134946e-06
-0.000274703761817
2.92753247393e-06
-0.000283189477722
2.82486107869e-06
-0.00029314918665
2.5514086815e-06
-0.000304653898595
2.01861409153e-06
-0.000317886932363
1.15371518681e-06
-0.000333043925754
-8.74965083291e-08
-0.000350579397921
-1.87800541902e-06
-0.000370940743475
-4.76646911163e-06
-0.000393952656512
-8.87199797499e-06
-0.000416676432037
-1.37551935378e-05
-0.000439319081294
-1.73074415811e-05
-0.00038445714443
1.23515853155e-07
-8.60583750891e-05
-1.17625020541e-07
-3.34026491693e-07
-0.000265491696728
-8.43052909997e-07
-0.000260134550419
-1.5491253146e-06
-0.000257119880834
-2.39054478205e-06
-0.000257700394173
-3.33825175005e-06
-0.000261152431207
-4.39270782887e-06
-0.000266584641046
-5.58271045778e-06
-0.000273518530462
-6.95310294255e-06
-0.000281823163412
-8.58977263053e-06
-0.000291511776206
-1.05546683083e-05
-0.000302683975545
-1.29773928348e-05
-0.000315451042337
-1.59850853974e-05
-0.000330012797222
-1.98038304806e-05
-0.000346727775011
-2.46732192978e-05
-0.000366032893925
-3.08058988333e-05
-0.000387779880655
-3.87238772164e-05
-0.000408711984408
-4.9216288236e-05
-0.000428841794225
-3.55643983278e-05
-0.000378155602341
2.35827092063e-07
-8.20977438551e-05
9.68313955056e-08
-1.44755336022e-06
-0.000264042511943
-3.09824573175e-06
-0.000258482484398
-4.94384992922e-06
-0.000255273505322
-6.95437662959e-06
-0.000255689923177
-9.10250558171e-06
-0.000259005216136
-1.14004058608e-05
-0.000264289010036
-1.38870701473e-05
-0.000271034403115
-1.66311064783e-05
-0.000279080900418
-1.97176959127e-05
-0.00028842668574
-2.32674935079e-05
-0.000299129715641
-2.74260658819e-05
-0.000311284751219
-3.24253285025e-05
-0.000325001594768
-3.86258134154e-05
-0.000340511077241
-4.65242694869e-05
-0.000358115534076
-5.70098658318e-05
-0.000377275552953
-7.09919712729e-05
-0.0003947185297
-9.11479667008e-05
-0.000408678724632
-5.80175640899e-05
-0.000355667076861
-7.78444583758e-07
-7.34777198539e-05
1.27995215407e-07
-2.5769685408e-06
-0.000261464108708
-5.33692619853e-06
-0.000255721292176
-8.29531213063e-06
-0.000252314375147
-1.14299050195e-05
-0.000252555255512
-1.47278140702e-05
-0.000255707917874
-1.82093034064e-05
-0.000260808608095
-2.19197240615e-05
-0.000267325713623
-2.59230294079e-05
-0.000275078767307
-3.03214018032e-05
-0.00028402868892
-3.52673279887e-05
-0.000294178039372
-4.09525699575e-05
-0.000305590354268
-4.76507681777e-05
-0.000318294721639
-5.58179863413e-05
-0.000332333164601
-6.63040123724e-05
-0.000347616665665
-8.06259175043e-05
-0.000362941259326
-0.000100712556227
-0.000374616827911
-0.000130527155559
-0.000378837546325
-8.20399856032e-05
-0.000321891461712
-9.80529002147e-07
-6.03356558872e-05
-2.07268616178e-08
-3.6811014198e-06
-0.000257781700261
-7.53389749815e-06
-0.000251867353076
-1.15751217173e-05
-0.000248272431458
-1.57973962511e-05
-0.000248332837844
-2.01961456257e-05
-0.000251309620001
-2.48014180834e-05
-0.000256204277395
-2.96555257767e-05
-0.000262472949829
-3.48386459008e-05
-0.000269896565418
-4.04364412007e-05
-0.000278431534753
-4.65796057203e-05
-0.000288033316343
-5.3475974318e-05
-0.000298691165002
-6.13620985726e-05
-0.000310403122567
-7.0763556342e-05
-0.000322924754049
-8.27435211951e-05
-0.000335627854668
-9.94267617444e-05
-0.000346250018257
-0.000125580293941
-0.000348451901019
-0.000161950374876
-0.000342436123195
-9.05047803336e-05
-0.000284965132476
-9.8535058797e-07
-4.72696114636e-05
-2.06797895128e-09
-4.73239078409e-06
-0.000253048068446
-9.66799840388e-06
-0.000246930637232
-1.47793132661e-05
-0.000243160379811
-2.00441566111e-05
-0.000243067769642
-2.5492894293e-05
-0.000245861204545
-3.11596803555e-05
-0.000250538299833
-3.70934177788e-05
-0.000256540514115
-4.3335648513e-05
-0.000263655605814
-4.99916387789e-05
-0.000271777087677
-5.71523905424e-05
-0.000280872778817
-6.49512121345e-05
-0.00029089039379
-7.36153761082e-05
-0.000301735278116
-8.34539383323e-05
-0.000313082188963
-9.54078890093e-05
-0.000323667461125
-0.00011226720576
-0.000329386641138
-0.000138605686338
-0.000322099100989
-0.000178171411596
-0.000302855361315
-9.08819897079e-05
-0.000249282266727
-1.10226073848e-07
-3.72693598226e-05
-4.24497659491e-09
-5.81200205808e-06
-0.000247234839697
-1.17718600812e-05
-0.000240969652343
-1.78893453253e-05
-0.000237042087093
-2.41730056698e-05
-0.000236783753604
-3.06301423676e-05
-0.000239404218883
-3.72873401497e-05
-0.000243881745425
-4.42010618707e-05
-0.000249627773892
-5.14272440359e-05
-0.00025643119566
-5.90534422499e-05
-0.000264152963647
-6.71288002464e-05
-0.000272799023782
-7.56912586834e-05
-0.000282327231319
-8.48447300098e-05
-0.000292576871992
-9.46873821381e-05
-0.000303237543809
-0.000105905990669
-0.000312442614311
-0.000121095807657
-0.000314192800498
-0.000144908660699
-0.000298276980137
-0.000174394503215
-0.000273358459512
-8.0419553865e-05
-0.000221407821916
-8.12477945854e-07
-2.75121929332e-05
3.00519005384e-08
-6.87922137763e-06
-0.000240354372322
-1.3826358082e-05
-0.00023402133701
-2.08987626864e-05
-0.000229968765293
-2.81322401215e-05
-0.00022954974123
-3.55391007882e-05
-0.000231997273486
-4.31531799224e-05
-0.000236268049724
-5.1015471671e-05
-0.000241766271292
-5.91981509181e-05
-0.00024825033031
-6.77219611376e-05
-0.000255631814578
-7.66581962238e-05
-0.000263865338875
-8.60277941031e-05
-0.000272958283227
-9.57747448275e-05
-0.000282828983074
-0.000105949766106
-0.000293060580331
-0.00011691527832
-0.000301467627686
-0.00013056697256
-0.000300531739222
-0.00014901262755
-0.000279820202366
-0.000169545663645
-0.000252813711701
-7.42823479869e-05
-0.000196582040558
-4.63250201842e-07
-1.63733649668e-05
1.3025693071e-08
-7.86891623558e-06
-0.000232484182687
-1.5788097415e-05
-0.000226100920558
-2.37982242956e-05
-0.000221957599698
-3.19459171912e-05
-0.000221401309336
-4.02626928072e-05
-0.000223680128139
-4.87787701067e-05
-0.000227752018691
-5.75460626684e-05
-0.000232999428136
-6.66047000425e-05
-0.000239193224253
-7.60383715882e-05
-0.000246200655413
-8.58605003459e-05
-0.00025404561343
-9.61566396834e-05
-0.0002626674811
-0.000106900389265
-0.000272084936711
-0.000118156641809
-0.000281802955557
-0.000130491686726
-0.000289131887228
-0.000144418211165
-0.000286608739303
-0.000159291090772
-0.000264947042296
-0.000173592765584
-0.000238511629684
-6.77200063209e-05
-0.000180830030768
-7.56389852116e-08
-1.1181155105e-05
2.63888955784e-09
-8.80294388998e-06
-0.000223679960099
-1.76645358904e-05
-0.00021723806278
-2.65838986871e-05
-0.000213037097974
-3.56146235588e-05
-0.000212369655859
-4.47912840722e-05
-0.00021450282071
-5.41521138339e-05
-0.000218390887768
-6.38099829453e-05
-0.000223341602965
-7.369619512e-05
-0.000229308027837
-8.39356437947e-05
-0.000235963084049
-9.46401210415e-05
-0.000243342937605
-0.000105911334585
-0.000251400171408
-0.000117923373942
-0.00026007309988
-0.000130953419773
-0.000268771463836
-0.000145119980832
-0.000274966843432
-0.000159333311346
-0.000272398120105
-0.000169013083968
-0.000255265809421
-0.000171572120479
-0.000235951290291
-6.06719824606e-05
-0.00017381198427
-5.23502443732e-07
-8.63557495738e-06
1.31687431999e-08
-9.72441844161e-06
-0.000213954299558
-1.9467046973e-05
-0.000207494185318
-2.92527308849e-05
-0.000203250230392
-3.91272136034e-05
-0.00020249412039
-4.9128258196e-05
-0.000204500920884
-5.93608757223e-05
-0.000208157667813
-6.96939145546e-05
-0.000213008215858
-8.03654284737e-05
-0.000218636939076
-9.13878222617e-05
-0.000224941774195
-0.000102870011185
-0.000231861578339
-0.000115019443094
-0.000239252163955
-0.000128104148286
-0.000246988357099
-0.000142448097146
-0.00025442860364
-0.000157868534264
-0.000259548365232
-0.000171592946298
-0.000258674613234
-0.000176546734371
-0.000250311290952
-0.000172138834793
-0.000240358921632
-5.51053750387e-05
-0.000176000522884
-9.3515404971e-07
-8.92541980133e-06
7.41835073411e-08
-1.06336973604e-05
-0.000203319450798
-2.12277725987e-05
-0.000196898934291
-3.18169218403e-05
-0.000192659932212
-4.25211588471e-05
-0.000191788796518
-5.33115042516e-05
-0.000193709600154
-6.42088433322e-05
-0.000197259506721
-7.53254668821e-05
-0.000201890943839
-8.66660051965e-05
-0.000207296298906
-9.82832097202e-05
-0.000213324884152
-0.000110349653447
-0.000219795525208
-0.000123010052168
-0.000226593494622
-0.000136381747764
-0.000233618786571
-0.000150817540688
-0.000239995021707
-0.000165978639324
-0.000244389392678
-0.000177717915599
-0.000246936731944
-0.000179461462606
-0.000248567741216
-0.00017234193367
-0.000247479153322
-5.31377903256e-05
-0.000180072153721
-2.05008772969e-07
-1.02118285205e-05
1.45500845535e-08
-1.15222837467e-05
-0.000191796168252
-2.29424465415e-05
-0.000185477734446
-3.43265258587e-05
-0.000181274809018
-4.57313174956e-05
-0.000180382967872
-5.72664281891e-05
-0.000182173491149
-6.89183029233e-05
-0.000185606703004
-8.07129989563e-05
-0.00019009544582
-9.26530151763e-05
-0.00019535594907
-0.000104722153808
-0.000201255569405
-0.00011723376168
-0.000207284289239
-0.000129684256826
-0.000214144236601
-0.00014267553404
-0.000220629382798
-0.000156161561019
-0.000226510732677
-0.000169180052676
-0.000231372580449
-0.000178921349012
-0.000237196853854
-0.000180151560339
-0.000247338922276
-0.00017486494172
-0.000252766788412
-5.42826901427e-05
-0.000181792276347
-2.04407400203e-08
-1.06509198184e-05
3.71563368302e-10
-1.23818816403e-05
-0.000179413470516
-2.45733786008e-05
-0.000173285382098
-3.67019941473e-05
-0.000169145301501
-4.88540867925e-05
-0.000168229954135
-6.11078119999e-05
-0.000169918834986
-7.34630115904e-05
-0.000173250601505
-8.59249201388e-05
-0.000177632753234
-9.84550833509e-05
-0.000182825257147
-0.000111121868796
-0.000188588765636
-0.000123524381334
-0.000194881934282
-0.000136045018403
-0.000201623912408
-0.000148390826049
-0.000208284720561
-0.000160656741742
-0.000214245857106
-0.000171619731412
-0.000220410890656
-0.000179654914819
-0.000229163441862
-0.000181501584459
-0.000245494051356
-0.000179902337733
-0.000254367211507
-5.64377485935e-05
-0.000181380846031
-1.98844804967e-07
-9.57732865876e-06
8.62275129386e-11
-1.31363447148e-05
-0.000166276492075
-2.6136413237e-05
-0.00016028464162
-3.89922812239e-05
-0.00015628870918
-5.1859152223e-05
-0.000155362307761
-6.48180285774e-05
-0.000156959154128
-7.78777642111e-05
-0.000160190084622
-9.09895219515e-05
-0.000164520371705
-0.000104153764754
-0.000169660697539
-0.000117223582512
-0.000175519053615
-0.000130043873977
-0.000182061836615
-0.000142625991929
-0.000189042503821
-0.000154772131819
-0.000196139149501
-0.000166342598298
-0.000202675949172
-0.000176371412444
-0.000210382708931
-0.000183157434867
-0.00022237844102
-0.000186139325987
-0.00024251325714
-0.000187497845589
-0.000253008980869
-5.93256877989e-05
-0.000178309980474
-5.51043386894e-08
-7.90932051533e-06
1.69815184639e-09
-1.39670450362e-05
-0.000152308975503
-2.76092218725e-05
-0.000146641958984
-4.11598702771e-05
-0.000142737496512
-5.47230418128e-05
-0.000141798549946
-6.83998264717e-05
-0.000143281708654
-8.21782591013e-05
-0.000146411107261
-9.59999357826e-05
-0.00015069833947
-0.000109889417922
-0.000155771297254
-0.000123368526095
-0.000162040160642
-0.000136575378917
-0.000168855895072
-0.000149193768046
-0.000176425425534
-0.00016102198836
-0.000184311403998
-0.000171681199506
-0.00019201632513
-0.000181404050828
-0.000200660469672
-0.000188431195319
-0.000215351520119
-0.000193165057182
-0.000237777669189
-0.000199434793669
-0.000246737611812
-6.38887413725e-05
-0.000170147779521
-3.87430726301e-07
-5.95142345215e-06
2.14121875525e-09
-1.45788624936e-05
-0.00013772978367
-2.89540454397e-05
-0.000132266418127
-4.31449780933e-05