/*--------------------------------*- C++ -*----------------------------------*\
| =========                 |                                                 |
| \\      /  F ield         | OpenFOAM: The Open Source CFD Toolbox           |
|  \\    /   O peration     | Version:  v2012                                 |
|   \\  /    A nd           | Website:  www.openfoam.com                      |
|    \\/     M anipulation  |                                                 |
\*---------------------------------------------------------------------------*/
FoamFile
{
    version     2.0;
    format      ascii;
    class       volScalarField;
    location    "4.1";
    object      ddt0(k);
}
// * * * * * * * * * * * * * * * * * * * * * * * * * * * * * * * * * * * * * //

dimensions      [0 2 -3 0 0 0 0];


internalField   nonuniform List<scalar> 
1984
(
-0.000639775319919
-0.000749167915498
-0.00077275282761
-0.000777565148259
-0.000778592371639
-0.000779537902353
-0.000780975535857
-0.000782868212403
-0.000785463416494
-0.00078932341619
-0.000797583787617
-0.000816950335331
-0.0008619205169
-0.000963795452528
-0.00123175995547
-0.00217700301411
-0.0056498477286
-0.014798407474
-0.030070447634
-0.0188235234237
-0.000750654702875
-0.00093128644948
-0.00096855015504
-0.00097744557265
-0.00097966005705
-0.000981125235905
-0.000982948649586
-0.000985177486056
-0.000988450720272
-0.000993287258081
-0.00100434506917
-0.00103066922908
-0.00109194899533
-0.00123071528062
-0.00158840210196
-0.00275752155917
-0.00658704639544
-0.0146339431572
-0.00815207452885
0.0829487671237
-0.000788729058129
-0.00099286727273
-0.00103750290209
-0.00104839374337
-0.00105089629913
-0.00105236592079
-0.00105420808934
-0.00105684518953
-0.00106012228667
-0.00106585430301
-0.00107804122064
-0.00110720152331
-0.0011745058028
-0.0013271197843
-0.00171346675057
-0.00290166530445
-0.00664388836191
-0.014589816916
-0.0148375414019
0.0252296314958
-0.00080259443826
-0.00101653111216
-0.00106450366886
-0.00107646246368
-0.00107917435548
-0.00108065750997
-0.00108267299007
-0.0010852210811
-0.00108931498269
-0.00109500817082
-0.0011077562977
-0.00113770271284
-0.00120645138069
-0.00136223664144
-0.00175855062453
-0.00295511489139
-0.00662578526681
-0.0151206957348
-0.0260496087104
0.136263512193
-0.000807504515747
-0.00102575088816
-0.00107511029733
-0.00108753904495
-0.0010903203073
-0.0010917874697
-0.00109376397178
-0.00109650974968
-0.00110024175663
-0.00110678708563
-0.00111945137728
-0.00114887559347
-0.00121641917042
-0.00137003781827
-0.00176890720362
-0.00298847803813
-0.00664057911339
-0.0156202676481
-0.0360155749565
-0.0604620155884
-0.000809164116063
-0.00102941271762
-0.00107931667432
-0.00109191895663
-0.00109468208567
-0.00109607995247
-0.00109798822563
-0.00110072344325
-0.00110448078121
-0.0011105772514
-0.00112332741615
-0.00115185727117
-0.00121717224053
-0.00136625018013
-0.0017642138152
-0.00301229005657
-0.00669683875031
-0.01556780768
-0.0303672684849
0.218243057466
-0.000809608915834
-0.00103098868477
-0.00108113185787
-0.00109375980153
-0.00109644566616
-0.00109773975991
-0.0010995587736
-0.0011022029702
-0.00110588196438
-0.00111180390409
-0.00112414167164
-0.00115163540797
-0.0012145934834
-0.0013590210228
-0.00175171635177
-0.00301142797824
-0.00670224967105
-0.0150209829537
-0.0217719177977
0.0598050219508
-0.000809689090343
-0.00103167047116
-0.00108203019143
-0.00109466877233
-0.0010972684689
-0.0010984425413
-0.00110013479587
-0.00110265651705
-0.00110622186951
-0.00111189824645
-0.00112372166189
-0.00115010506813
-0.00121106118255
-0.00135247654692
-0.00174035850084
-0.00299414268595
-0.00664459657974
-0.0151010363576
-0.0229519414071
0.118960968707
-0.000809588783407
-0.00103197065585
-0.00108257110073
-0.00109524369332
-0.00109776534706
-0.0010988303933
-0.00110038962605
-0.00110276807152
-0.00110615619026
-0.00111155362553
-0.00112283243002
-0.00114807211726
-0.00120693226513
-0.00134497205888
-0.00172679294642
-0.00296166681948
-0.00654244837659
-0.01518453061
-0.0319433777379
0.232110267245
-0.000809408505282
-0.00103212378998
-0.0010829713504
-0.00109570702147
-0.00109816955796
-0.00109911704163
-0.0011005532048
-0.00110278067687
-0.0011059883105
-0.00111106933035
-0.0011217394549
-0.00114573778035
-0.00120220483801
-0.00133513484559
-0.0017030545579
-0.00289223711032
-0.00635027753679
-0.0150277481566
-0.0406350175074
-0.0482280927799
-0.000809242893442
-0.00103213599056
-0.00108327868714
-0.00109613082819
-0.00109856784426
-0.00109941005656
-0.00110071229462
-0.00110279385667
-0.00110580578099
-0.00111056203894
-0.00112059788412
-0.00114331185536
-0.00119736129568
-0.0013245773041
-0.00167512533644
-0.00280543722162
-0.00614577239138
-0.0146642111396
-0.0360673353816
0.0502672451379
-0.000809073529648
-0.00103199017647
-0.0010835149376
-0.00109653391134
-0.00109897959666
-0.00109974296653
-0.0011009152381
-0.00110284105679
-0.00110565465603
-0.00111008650898
-0.00111947404247
-0.00114096713357
-0.00119332747553
-0.00131917968947
-0.00166825703079
-0.00277959976966
-0.0060646280927
-0.0143140095994
-0.0234547479888
0.0865940228342
-0.000808837323766
-0.00103172059282
-0.00108370544164
-0.00109694013527
-0.00109942901201
-0.00110013355929
-0.00110118998917
-0.0011029530925
-0.00110554695037
-0.00110963119081
-0.00111838673805
-0.00113860732452
-0.00118897856588
-0.00131331125924
-0.00165748450525
-0.00274840396696
-0.00600565575287
-0.0142621016042
-0.0300878120076
-0.208822842754
-0.00080863065391
-0.00103138277612
-0.00108385807859
-0.00109735409809
-0.00109992892914
-0.00110059078165
-0.00110153956674
-0.00110314256431
-0.00110551059814
-0.00110926563082
-0.00111731185336
-0.00113618878482
-0.00118400195136
-0.00130281999224
-0.00163272713775
-0.00267794677896
-0.0058845424688
-0.0145382230058
-0.0381233976529
-0.116025093078
-0.000808506141356
-0.00103088874681
-0.00108398099192
-0.0010978056074
-0.00110049586065
-0.00110112153748
-0.00110195071099
-0.00110340813556
-0.00110561444505
-0.00110891164905
-0.00111646370738
-0.0011336715599
-0.00117747019702
-0.00128490596761
-0.00158100006348
-0.00254897254819
-0.00563887277227
-0.0137988142832
-0.0300177208149
-0.185898473425
-0.000808457528232
-0.00103025711628
-0.00108406138589
-0.00109829478774
-0.00110108970975
-0.00110172299458
-0.00110246757859
-0.00110379508054
-0.00110561275188
-0.0011088650826
-0.00111547343416
-0.00113131960146
-0.00117117598921
-0.00126854601387
-0.00153511123613
-0.00243357470844
-0.00537056152208
-0.0130197674579
-0.0199363560764
0.0595685740364
-0.000808485847773
-0.00102959579307
-0.00108411675648
-0.00109872930094
-0.00110179222424
-0.00110242518474
-0.00110310401201
-0.00110417341607
-0.00110613401894
-0.0011089192808
-0.00111499880846
-0.00112973486337
-0.00116712818347
-0.00125935807589
-0.00151378308665
-0.0023685780988
-0.00516880252604
-0.0123520314923
-0.0228960517814
0.000180727527453
-0.00080870003201
-0.00102884447984
-0.0010841127012
-0.0010993039334
-0.00110254185894
-0.00110316391272
-0.00110386927048
-0.00110490588737
-0.00110638301688
-0.00110879193738
-0.00111405412828
-0.00112756903447
-0.00116259449782
-0.00125105395514
-0.00149586019895
-0.00230793731517
-0.0049439724494
-0.011241889849
-0.00672632848122
0.124418756304
-0.000808936925412
-0.00102802153746
-0.00108418810476
-0.00109988462802
-0.00110337930324
-0.0011042646494
-0.00110487349211
-0.00110575902019
-0.00110705482164
-0.00110917732108
-0.0011138509565
-0.00112606548961
-0.00115822855489
-0.0012404253993
-0.00146704902874
-0.00221823436033
-0.00469892402131
-0.0105563780177
-0.00405189448632
0.187702226311
-0.000809225293329
-0.00102714994917
-0.00108421254197
-0.00110055631669
-0.0011044795263
-0.00110539232339
-0.00110598530508
-0.0011067860007
-0.00110793188241
-0.0011098129658
-0.00111390539367
-0.00112466996491
-0.00115330244107
-0.0012267376613
-0.00142741459113
-0.00210074418295
-0.00441768104472
-0.00997595022747
-0.0183216901554
-0.0164712732746
-0.000809747031151
-0.00102623088128
-0.00108430607069
-0.00110135491144
-0.00110562125413
-0.00110667650232
-0.00110727789902
-0.00110801574983
-0.00110903835281
-0.00111069177761
-0.00111425302464
-0.00112356086939
-0.00114844904195
-0.00121237554814
-0.00138579099674
-0.0019815377866
-0.004126520841
-0.00949709360228
-0.0147540154957
-0.00560903684446
-0.000810385052953
-0.00102541001552
-0.00108446853933
-0.0011022435998
-0.00110691644363
-0.00110814231235
-0.00110877825139
-0.00110948938248
-0.00111042166424
-0.00111187393606
-0.00111493462739
-0.00112290262669
-0.0011442240102
-0.00119897555562
-0.00134732900298
-0.00187045242138
-0.00381711195962
-0.00862081805028
-0.0107325200396
0.0986095266662
-0.000811202380999
-0.00102468452333
-0.00108474248115
-0.00110326435749
-0.00110836559475
-0.00110978531602
-0.00111047978914
-0.00111118868277
-0.001112073444
-0.00111338344777
-0.00111602059436
-0.00112278088389
-0.00114093063823
-0.00118776949829
-0.00131500501115
-0.00177426972272
-0.00353732902604
-0.00750652544869
-0.00343128588022
0.0259540855558
-0.000812084780471
-0.00102401488561
-0.00108512406979
-0.00110441558201
-0.0011099612223
-0.00111158420327
-0.00111236905528
-0.00111309443913
-0.00111398073792
-0.00111520599626
-0.00111752410796
-0.00112327266828
-0.00113866946648
-0.00117876871283
-0.0012883872796
-0.00168821363621
-0.00324713403381
-0.00633372251735
0.017248861037
0.120760086563
-0.000813031697234
-0.00102344129645
-0.00108561755698
-0.00110570093294
-0.00111170944124
-0.0011135621919
-0.0011144334032
-0.00111522009215
-0.00111611621032
-0.00111728074814
-0.00111934254461
-0.0011242014669
-0.00113713421836
-0.00117114627589
-0.00126415717325
-0.00159826837581
-0.00290797511089
-0.00510382478225
0.0230419872813
0.115571219282
-0.000814162124513
-0.00102298806665
-0.00108621825369
-0.00110709114177
-0.0011135525417
-0.00111561192393
-0.00111658092613
-0.00111739740409
-0.00111828315436
-0.00111959101091
-0.00112153614058
-0.00112572120635
-0.00113643622402
-0.00116401444326
-0.00123520180449
-0.00147888734105
-0.00241583312677
-0.0038429509248
0.00214149292258
-0.0354662892413
-0.000814575995197
-0.00102267028059
-0.00108704070052
-0.00110874060551
-0.00111565602582
-0.00111793311151
-0.00111901280059
-0.00111988589949
-0.00112076017949
-0.00112190111046
-0.00112340381133
-0.00112616523216
-0.00113257139986
-0.00114601714665
-0.00116263035049
-0.00119567332359
-0.00156175744284
-0.00186435974174
0.010849846232
0.236731364465
-0.000813405119848
-0.00102317371958
-0.00108843459177
-0.00111068935851
-0.00111787392181
-0.00112028560631
-0.00112143355166
-0.00112235574764
-0.00112321260643
-0.00112427900238
-0.0011254216424
-0.00112694875983
-0.00112882781032
-0.00112716590587
-0.00108867958942
-0.000906606392233
-0.000534407234538
0.00241180073059
0.0394968403207
0.165952026746
-0.000812407581863
-0.00102371032343
-0.00108984626189
-0.00111264454352
-0.00112010036324
-0.00112264372904
-0.00112386991728
-0.00112484334123
-0.00112579116339
-0.00112679497848
-0.00112763251001
-0.00112804677914
-0.00112553901859
-0.00110933551726
-0.00102267246067
-0.000642427187407
0.000574744548589
0.00693550727194
0.0455699355719
0.0660709801394
-0.000811581654697
-0.00102413855576
-0.00109118592211
-0.00111455053999
-0.00112228551683
-0.00112496586098
-0.0011262733157
-0.00112730031401
-0.00112828563373
-0.00112930670285
-0.00112988394881
-0.00112911786401
-0.00112185143356
-0.00109077075623
-0.00096532159376
-0.000482290467774
0.00129885994643
0.0101127001155
0.0506634883942
0.0627934952877
-0.000810904366229
-0.00102446451864
-0.00109235987016
-0.00111631377049
-0.00112436273172
-0.00112719849317
-0.00112859886336
-0.00112968336217
-0.00113072793801
-0.00113175318909
-0.0011319975
-0.00112967810939
-0.00111653511579
-0.00106918014092
-0.00091366225737
-0.000393043978179
0.00169007251804
0.0135408336702
0.0499661701648
0.0303086274515
-0.000810545503708
-0.0010246313749
-0.0010932875596
-0.00111783642893
-0.00112624363174
-0.00112926990227
-0.00113077820373
-0.00113193619292
-0.00113305179952
-0.00113406022964
-0.00113384529971
-0.00112930849055
-0.00110868426587
-0.00104405727032
-0.000868600447203
-0.00034820610877
0.00204928647149
0.0162521081813
0.0509464523063
0.0208357425956
-0.000810376359448
-0.00102451118053
-0.00109390548357
-0.00111907633166
-0.00112787567635
-0.0011311210709
-0.0011327534893
-0.00113401387934
-0.00113521567912
-0.00113618754004
-0.00113534015489
-0.00112788681626
-0.00109851787544
-0.00101742363613
-0.000828053863868
-0.000248116823844
0.00278594292988
0.0173359458429
0.0367694454702
0.0115469884649
-0.000810268256791
-0.00102406249887
-0.00109416876131
-0.00111998082614
-0.00112919702416
-0.00113267927938
-0.00113446307189
-0.00113585414165
-0.00113717673652
-0.00113811157123
-0.00113656238687
-0.001125955157
-0.00108815423903
-0.000995463834951
-0.000802956943542
-0.000150364224025
0.00330610674654
0.015729581785
0.022771951904
0.00331276419917
-0.000810054121072
-0.00102328418412
-0.00109401745779
-0.00112046722389
-0.00113012606407
-0.00113387756904
-0.00113584347813
-0.00113738958019
-0.00113885461021
-0.00113979712463
-0.00113768152314
-0.00112443815298
-0.00108033546972
-0.000982173716188
-0.000793809008172
-7.22212571246e-05
0.00359158744869
0.0129935131039
0.00809395463179
-0.0029702293359
-0.000809648042084
-0.001022081869
-0.00109337568853
-0.00112046373008
-0.00113059178744
-0.00113464784576
-0.00113680817909
-0.00113852118414
-0.0011401536919
-0.00114117124812
-0.00113874930387
-0.00112373334105
-0.00107587651897
-0.000976080539495
-0.000793563800406
-3.69525313803e-05
0.00367255681417
0.0114861076472
0.00288097558381
-0.00487541083054
-0.000808988500396
-0.00102035381438
-0.00109217341965
-0.00111990499201
-0.00113052571493
-0.00113490057885
-0.00113726858762
-0.00113915646222
-0.00114095885924
-0.00114210795374
-0.00113946833713
-0.00112305797141
-0.0010724471086
-0.000970660225143
-0.000785160401209
7.08783839921e-06
0.00371039156995
0.0110030661277
0.00490961170465
-0.00324936366967
-0.000808031986721
-0.00101813066441
-0.00109038114214
-0.0011187267453
-0.00112984884363
-0.00113455876785
-0.00113714617047
-0.00113920621807
-0.00114117498897
-0.00114242489149
-0.0011394943431
-0.00112193395418
-0.00106966199909
-0.000967047229135
-0.00077215859307
7.48473880816e-05
0.00378483200429
0.0109896620587
0.00993635365608
-0.000272415903356
-0.000806672422692
-0.0010153800508
-0.0010879659577
-0.00111688366966
-0.0011285035525
-0.00113355882338
-0.00113637439438
-0.00113860969867
-0.0011407575567
-0.00114209714078
-0.00113907552276
-0.00112141059046
-0.00107062129976
-0.000971458601511
-0.00076372305906
0.000176631961251
0.00412332704809
0.0115824486286
0.0117235261349
0.00105291368239
-0.000804891301863
-0.00101201123303
-0.00108486424642
-0.00111432864397
-0.00112644090504
-0.00113183878009
-0.0011348781955
-0.00113732242208
-0.00113967205385
-0.00114123404811
-0.00113863266731
-0.00112232820803
-0.00107488780441
-0.000976082594946
-0.00073482879843
0.00036903992847
0.00481228339206
0.0127967598201
0.0112233861186
0.00105162610953
-0.000802643250836
-0.00100809161557
-0.00108112371523
-0.00111106818004
-0.0011236184013
-0.00112936061099
-0.00113266012031
-0.00113532547034
-0.00113789482518
-0.00113977110666
-0.00113780697946
-0.0011229439286
-0.00107543232439
-0.000959359600952
-0.000635445740247
0.000732664697896
0.00585926201733
0.0145106374766
0.0112510011606
0.00109702804541
-0.000799912581115
-0.0010036803638
-0.0010768107343
-0.00110711635892
-0.00112011512785
-0.0011261691738
-0.00112975987321
-0.00113265911129
-0.00113549916067
-0.00113760546137
-0.0011360108842
-0.00112134060482
-0.00106892156063
-0.000918560853913
-0.000464541574985
0.00123587853345
0.00683118862181
0.0161245708532
0.0165911613347
0.0032724008038
-0.000796806894533
-0.000998975889841
-0.00107200160649
-0.00110263688461
-0.00111592147116
-0.00112237633826
-0.00112632809057
-0.00112966450071
-0.00113283861611
-0.00113502053193
-0.00113308904408
-0.00111702572695
-0.00105703020436
-0.000870193212095
-0.000287077496127
0.00174565353214
0.00781289797331
0.0178569338941
0.0219159116932
0.00540158291399
-0.0007934315873
-0.000994120154607
-0.00106694925056
-0.00109771324052
-0.00111137420412
-0.00111826515156
-0.00112280674542
-0.00112678709071
-0.00113024634475
-0.0011319894373
-0.00112868773811
-0.00110924475301
-0.00103970706665
-0.000823826581259
-0.000151166335616
0.00217471015238
0.00901438153756
0.0202320715573
0.0243726233533
0.00587000480566
-0.000789914878897
-0.00098941855313
-0.00106192964032
-0.00109273253796
-0.00110674288392
-0.00111428185965
-0.00111966420383
-0.00112393985831
-0.00112675570743
-0.00112702357796
-0.00112188722466
-0.00109781488451
-0.00101414942677
-0.000772857400404
-5.4156997311e-05
0.00253073558905
0.0104440232005
0.0228646931934
0.0227723522294
0.00386037186798
-0.000786473973001
-0.000985237263097
-0.00105733794498
-0.00108809520097
-0.00110258064827
-0.00111100975024
-0.00111646951539
-0.00111665295473
-0.00111734593475
-0.00111453105585
-0.00111006206383
-0.00107789391986
-0.000954410647033
-0.000681407905753
5.63026231496e-05
0.0028230232408
0.0116081272633
0.0247955628112
0.0198602155844
0.000826475497423
-0.000783454010481
-0.000982065625893
-0.00105360764328
-0.00108420576088
-0.00109927245778
-0.00110850555137
-0.00110936297102
-0.00108992018369
-0.00108447209714
-0.00107615231085
-0.00106873736908
-0.000982760286369
-0.000758021125302
-0.000476838412034
0.000215179611854
0.00300898530846
0.0121720795939
0.0254565981533
0.0155957799532
-0.00273618229466
-0.000781242499227
-0.000980375875485
-0.00105125349581
-0.00108152086456
-0.00109714156645
-0.001110713378
-0.00111954408349
-0.00106860845132
-0.000966187339798
-0.000926475581882
-0.000836296054617
-0.000569094531449
-0.000427537951676
-0.000203997960974
0.000367810336933
0.00302208422317
0.0118944147716
0.0238075138398
0.00917689439589
-0.00619078980019
-0.000779911223176
-0.000979456019206
-0.00104989785597
-0.00107995916537
-0.00109409232693
-0.00109696096902
-0.00106959852238
-0.000867793939164
-0.000404593828826
-0.000363894179646
9.87468909534e-05
0.00264081159267
0.0104195235358
0.0198433754703
0.00660572969264
-0.00583469193439
-0.000779274646117
-0.000979208224856
-0.0010491449063
-0.00107848200947
-0.00109110324977
-0.00109003452838
-0.00105688772888
-0.000860195218066
-0.000575750779501
-0.000754043542954
-0.000457430555475
0.00177536454806
0.00836745527177
0.0170667085633
0.0157899485337
0.000364630996736
-0.000779324670566
-0.000979228178991
-0.00104915593323
-0.0010784853092
-0.0010910862641
-0.00108997659777
-0.00105674859299
-0.000860405624944
-0.000579308086451
-0.000765562567465
-0.000517788021229
0.00144314788803
0.00727488575701
0.0169866154624
0.0268935673057
0.00622081085266
-0.000780011827906
-0.000979496178506
-0.00104991456436
-0.00107995658736
-0.00109404784148
-0.00109684212502
-0.00106927540828
-0.000868957298822
-0.00041015180113
-0.000380350047132
1.40181665669e-05
0.00215560078426
0.00847201179186
0.0156210943341
0.0100192092088
-0.00111480209407
-0.000781367741821
-0.000980404934031
-0.00105125204892
-0.0010815081099
-0.00109715372612
-0.00111077412011
-0.00111926815341
-0.00106748568028
-0.000966399125604
-0.000926747095491
-0.000837052317421
-0.000573412912951
-0.000437857161034
-0.000224042104719
0.000301576169368
0.00271542297843
0.0101302812907
0.0176101546955
0.0031221771131
-0.00581764689407
-0.000783539697938
-0.000982107702073
-0.00105363592583
-0.00108422315656
-0.00109928553535
-0.00110849942717
-0.00110926691014
-0.00108999594287
-0.00108433516473
-0.0010759429565
-0.00106818188244
-0.000982564151434
-0.000761438103651
-0.000479946585118
0.00021257135217
0.00288136432182
0.0110527670668
0.0216522689962
0.0108694219186
-0.00366609969056
-0.000786522038153
-0.000985261656657
-0.0010573635621
-0.00108811538128
-0.00110259834669
-0.00111101829378
-0.00111645133693
-0.00111663562455
-0.00111726733633
-0.00111435863288
-0.00110937441416
-0.00107580421036
-0.000949533853619
-0.000660883259962
0.000124641162453
0.00286401875444
0.0110539245614
0.0242487668524
0.0210902060404
0.00137303465369
-0.000789949789716
-0.000989425368446
-0.00106195182949
-0.00109275859937
-0.00110677816312
-0.00111432464798
-0.00111970611821
-0.0011239763819
-0.0011267813647
-0.00112696761272
-0.00112149071074
-0.00109602557607
-0.0010072800102
-0.000745651871439
4.57420573793e-05
0.00274043824579
0.0104591203186
0.0235611810972
0.0273261059548
0.00552585595699
-0.000793479802193
-0.000994122462187
-0.00106696835783
-0.00109774731297
-0.0011114217548
-0.00111832203348
-0.00112287300921
-0.00112686319157
-0.00113032770388
-0.00113205380313
-0.00112854464658
-0.00110828245253
-0.00103526089343
-0.000804986288498
-6.94972634771e-05
0.00244925356124
0.00945452140617
0.0205605966135
0.0261045425972
0.00645558680476
-0.000796852387509
-0.000998975230745
-0.00107203737617
-0.00110265807511
-0.00111599923574
-0.00112245166491
-0.0011264132904
-0.00112974601868
-0.00113291661069
-0.00113508870114
-0.00113307194624
-0.00111657554484
-0.00105496792762
-0.000861635095608
-0.000239672545806
0.00200118869097
0.00848801859242
0.0169907706044
0.0151623083395
0.00253085298802
-0.000799916883132
-0.00100367918874
-0.00107682752845
-0.00110717754784
-0.00112015168667
-0.0011262379257
-0.00112983425305
-0.00113276073149
-0.00113558257407
-0.00113766255776
-0.00113598309085
-0.00112093038776
-0.00106717175341
-0.000910830193944
-0.000417417243679
0.00149917922075
0.00743960356256
0.0138545418706
0.00302982661499
-0.00277755425386
-0.000802607756888
-0.00100806385398
-0.00108113901148
-0.00111109768501
-0.00112367860006
-0.00112942140127
-0.0011327356043
-0.00113540051006
-0.00113796409281
-0.00113978963698
-0.00113770491366
-0.00112226148008
-0.00107217651852
-0.000943332353492
-0.000553360008377
0.00105360445837
0.00624543442081
0.0122541609238
0.00292545663157
-0.00326265523727
-0.000804822224615
-0.00101195481572
-0.00108485939284
-0.00111435389684
-0.00112647941987
-0.00113188908724
-0.00113494365385
-0.00113738852886
-0.00113971249236
-0.00114122304709
-0.00113847159682
-0.0011216122374
-0.0010717709016
-0.00096132749657
-0.000659413258371
0.000690165377153
0.00549282245735
0.0122255749053
0.00646205800451
-0.00170370948049
-0.000806560741025
-0.00101529492012
-0.00108794048381
-0.00111689522619
-0.00112853477726
-0.00113359750482
-0.00113641139999
-0.00113864436992
-0.001140766509
-0.00114203949019
-0.00113887769626
-0.00112075872408
-0.00106860289195
-0.000964373168246
-0.000729390512198
0.000366349170716
0.00489345262556
0.0128715051446
0.00996299765551
2.00889075845e-05
-0.000807862218187
-0.00101801234573
-0.00109032811663
-0.00111871612952
-0.00112986195423
-0.00113458090797
-0.00113716789075
-0.00113921407309
-0.00114115841841
-0.00114234182658
-0.00113927867643
-0.00112138551564
-0.00106853298194
-0.000965546250853
-0.000769979613013
0.000124410348122
0.00430579447901
0.0131825116179
0.0139360867403
0.00159470131155
-0.000808754820428
-0.00102019516619
-0.00109208701636
-0.00111986801741
-0.0011305186818
-0.00113491011982
-0.00113727756265
-0.00113915992602
-0.00114094877337
-0.0011420111861
-0.00113927312685
-0.00112256237592
-0.00107141948636
-0.00096953552722
-0.000787751573435
3.62860607695e-06
0.0038963606421
0.0124927955569
0.0107545565355
-0.000451509047345
-0.000809385459199
-0.00102185300526
-0.00109322323686
-0.00112036609723
-0.00113052646165
-0.00113459987628
-0.00113676951876
-0.00113849437423
-0.00114012120404
-0.00114107668764
-0.00113856950329
-0.00112323587932
-0.00107475431352
-0.000973558357782
-0.000789306776485
-2.87669739512e-05
0.00375856407203
0.0122562474239
0.00758917456854
-0.00248635105518
-0.000809788391902
-0.00102303168553
-0.00109383468803
-0.00112033889425
-0.00113002921379
-0.00113379622552
-0.00113576777589
-0.00113732726859
-0.00113878884105
-0.00113968418769
-0.00113753203597
-0.00112393303472
-0.00107905722305
-0.000978859305619
-0.000785938043991
-5.32344241349e-05
0.00369301109205
0.0136242674363
0.0105504235829
-0.00156228425175
-0.000810007617377
-0.00102379267093
-0.00109396550214
-0.00111982682958
-0.00112907176164
-0.00113256538288
-0.00113434022881
-0.00113574158356
-0.00113706982087
-0.00113795554304
-0.00113640319228
-0.00112541377548
-0.00108698091837
-0.000992596365757
-0.000796683742946
-0.000135412256536
0.003408642863
0.0162102515457
0.021053349221
0.00326437652546
-0.000810121128092
-0.00102423538423
-0.00109368937304
-0.00111890043624
-0.00112772024942
-0.00113096841338
-0.00113258338304
-0.00113384886826
-0.00113506033245
-0.00113597761775
-0.00113514598927
-0.0011272644693
-0.00109730702405
-0.00101495048546
-0.000823777629963
-0.000250821122567
0.00270979408597
0.0171192743297
0.0376094938916
0.0146360000202
-0.000810290314209
-0.00102435513278
-0.00109305695871
-0.00111763645181
-0.00112605532045
-0.00112907559128
-0.00113055946308
-0.00113171429428
-0.00113284365164
-0.00113378607925
-0.00113359892976
-0.00112861806684
-0.00110753137284
-0.00104234123416
-0.000867857732322
-0.000363090766547
0.00198833828373
0.0168915324532
0.0551191223798
0.0191917311572
-0.0008106528627
-0.00102419055122
-0.00109211905118
-0.00111609158472
-0.00112414252324
-0.00112696222429
-0.00112832829526
-0.00112939772618
-0.00113045120141
-0.00113140258167
-0.00113167649311
-0.00112893473822
-0.00111543447071
-0.00106803216857
-0.000916624868028
-0.000431172648951
0.00155721219345
0.0143715188834
0.0579302871854
0.0232372799872
-0.000811332288501
-0.00102386167263
-0.00109093111761
-0.00111430632945
-0.00112203588079
-0.00112469264819
-0.00112595762633
-0.00112695004993
-0.00112792832846
-0.00112887791532
-0.00112946305246
-0.00112834024617
-0.00112082197469
-0.00108984494346
-0.00096793202957
-0.00052213029728
0.000981397227036
0.0089992797711
0.0544261605949
0.106779891249
-0.000812151710107
-0.00102342437413
-0.00108957780184
-0.00111238123404
-0.00111982683938
-0.00112234230452
-0.00112352366512
-0.00112444578559
-0.00112536407375
-0.00112629879545
-0.00112710825034
-0.00112726338456
-0.00112459936651
-0.00110841035767
-0.00102396649555
-0.000666474029391
0.000329243764505
0.00528479712358
0.0450389704912
0.113069723482
-0.000813151829625
-0.00102288040296
-0.00108815256855
-0.00111040940793
-0.0011175794058
-0.00111996134397
-0.00112106838328
-0.00112193539658
-0.00112281852912
-0.00112377375061
-0.00112485524525
-0.00112624241322
-0.00112800348022
-0.00112624444898
-0.00108718425552
-0.000894946953322
-0.00049394786229
0.00162846058879
0.0281022496001
0.284908912463
-0.000814335283717
-0.00102236920293
-0.00108674644321
-0.00110844308867
-0.00111534045426
-0.00111759704276
-0.00111864346983
-0.00111947880619
-0.00112036414999
-0.00112140331019
-0.00112286075194
-0.00112562073956
-0.00113197785442
-0.00114541141713
-0.00116149255986
-0.00118500924774
-0.0014896218492
-0.00165852062607
0.00209165097861
0.172077937238
-0.00081386139087
-0.00102268232353
-0.00108592382158
-0.00110681110347
-0.00111328474185
-0.00111535097229
-0.00111631592902
-0.00111711598659
-0.00111799955627
-0.0011191175349
-0.00112092261792
-0.00112493592095
-0.00113541250377
-0.00116265496262
-0.00123204391296
-0.00146317587769
-0.00231501967416
-0.00355260273209
-0.0050222688724
-0.0685151509859
-0.000812769240061
-0.00102320901332
-0.00108536119528
-0.00110541519197
-0.00111139191923
-0.00111320466959
-0.00111404962992
-0.00111479574927
-0.00111567046314
-0.00111685549865
-0.00111894016622
-0.00112383836154
-0.00113682752728
-0.00117078678044
-0.0012621013174
-0.0015804659393
-0.00276341129388
-0.00451752331989
-0.000632015507802
-0.0221452407057
-0.000811841042754
-0.00102382157963
-0.00108491006712
-0.00110418452172
-0.00110971680284
-0.00111132276393
-0.00111207644245
-0.00111277038198
-0.00111359198976
-0.00111475501715
-0.00111700154711
-0.00112268617039
-0.00113814674173
-0.00117890136996
-0.00129050268821
-0.00168687438404
-0.00316370167037
-0.00556619643781
0.0153262508655
0.0637175699329
-0.00081098363841
-0.00102453515946
-0.00108457184691
-0.00110307195041
-0.00110815245769
-0.00110954699662
-0.00111020915521
-0.00111086986206
-0.0011116935319
-0.00111292882645
-0.00111548427247
-0.00112219782721
-0.00114050946412
-0.00118862474632
-0.0013217343502
-0.0017944521166
-0.00352047439464
-0.00687455329908
0.00530483257489
-0.155533725757
-0.000810189676804
-0.00102530970336
-0.00108434875198
-0.00110210008387
-0.00110674602737
-0.00110793830505
-0.0011085276618
-0.00110917449704
-0.00111002280366
-0.00111137379431
-0.00111433009818
-0.00112224332135
-0.00114378489473
-0.00120036874498
-0.00135824080734
-0.00190819486308
-0.00381855942012
-0.00821722379041
-0.0124178020373
-0.0692586260334
-0.000809569875722
-0.0010261799786
-0.00108423181961
-0.00110125714131
-0.00110549369837
-0.00110650707501
-0.00110704419303
-0.0011076950766
-0.00110860197814
-0.00111011915757
-0.00111354717613
-0.00112277390058
-0.00114791597925
-0.0012139332522
-0.00139873697993
-0.00202779369672
-0.00411268080429
-0.00845884901426
-0.00994859448593
-0.2168462154
-0.000809078242385
-0.00102713479617
-0.00108418842562
-0.00110054183756
-0.00110440941717
-0.0011052707947
-0.00110577196415
-0.00110644948733
-0.00110742352441
-0.00110910752828
-0.00111300536449
-0.00112365410245
-0.00115247921797
-0.00122778450001
-0.00143819622719
-0.00213937884581
-0.00442146302757
-0.00916103417299
0.00148537660318
0.0860587483052
-0.000808822621449
-0.00102804700274
-0.00108422362385
-0.00109993244411
-0.00110347607083
-0.00110421090448
-0.00110470292154
-0.00110540032365
-0.00110644453664
-0.00110827637199
-0.00111263490459
-0.00112463989467
-0.00115688215899
-0.00124009321017
-0.00147114081838
-0.00223253476993
-0.00471251018162
-0.0103170086004
0.00866041373589
0.205282024971
-0.0008086335646
-0.00102895633586
-0.00108421451881
-0.0010994161973
-0.00110264942596
-0.00110330632915
-0.00110380200768
-0.00110457019251
-0.00110570201606
-0.00110766827455
-0.00111253720812
-0.00112579676244
-0.00116082950686
-0.00124967531278