/*--------------------------------*- C++ -*----------------------------------*\
| =========                 |                                                 |
| \\      /  F ield         | OpenFOAM: The Open Source CFD Toolbox           |
|  \\    /   O peration     | Version:  v2012                                 |
|   \\  /    A nd           | Website:  www.openfoam.com                      |
|    \\/     M anipulation  |                                                 |
\*---------------------------------------------------------------------------*/
FoamFile
{
    version     2.0;
    format      ascii;
    class       volScalarField;
    location    "4.1";
    object      epsilon;
}
// * * * * * * * * * * * * * * * * * * * * * * * * * * * * * * * * * * * * * //

dimensions      [0 2 -3 0 0 0 0];


internalField   nonuniform List<scalar> 
1984
(
0.000722628639823
0.000811773919797
0.000870711661322
0.000894125573529
0.000905732932551
0.000913666059749
0.000920606490361
0.000927492147794
0.000934812787508
0.000943449228043
0.000955609477991
0.00097678159622
0.00101913265768
0.00111248669821
0.00135945194027
0.0021927385569
0.00513275049563
0.0135708124797
0.0335308830036
0.0821529705887
0.000815362501847
0.000835654108754
0.000909902202388
0.000938577850967
0.000951516045896
0.000959322045681
0.000965632920148
0.000971744419775
0.000978326008769
0.000986536179966
0.00099911689909
0.00102248933143
0.00107118932818
0.00118231280105
0.00147917817528
0.00241445883125
0.00533726280384
0.0129807653778
0.0322444199845
0.134214628111
0.000877246998715
0.000914209514933
0.00100063400547
0.00103386291578
0.00104833811329
0.00105667449421
0.00106327796606
0.00106965994368
0.00107665774087
0.00108558907175
0.00109963587071
0.00112610801538
0.0011814938631
0.00130806082144
0.00164117604132
0.00265148143122
0.00571263270435
0.0137784545209
0.035416201585
0.143471733232
0.000902429673948
0.000945896124677
0.00103750339298
0.00107262598151
0.00108759531454
0.00109597413752
0.00110253218907
0.00110892402555
0.00111598903125
0.00112517167706
0.00113971715416
0.0011671779285
0.00122455462863
0.00135565330343
0.00170003243821
0.00272874674716
0.00578987428714
0.0139212409634
0.0348014209201
0.115380798168
0.000914551359317
0.000960208137086
0.00105396980222
0.00108977914443
0.00110477763776
0.00111297924279
0.00111934196168
0.00112557757076
0.00113257092087
0.00114166667625
0.00115615889205
0.00118346307465
0.00124034153807
0.0013707485553
0.0017164679846
0.00275012159829
0.0057922054936
0.0138425233206
0.0330769877919
0.0719918459843
0.000922118211568
0.000968248766841
0.00106295059145
0.0010989418181
0.00111378077253
0.00112171652422
0.00112781554101
0.00113382033069
0.00114061174761
0.00114951066088
0.0011636375902
0.00119024266874
0.00124558121088
0.0013731210351
0.00171637799306
0.00275519352298
0.00580487122175
0.0139153514586
0.0341529141601
0.0974372671324
0.000928107028888
0.00097410605589
0.00106927801851
0.00110526867165
0.00111989065553
0.00112754114114
0.00113335534956
0.0011390961922
0.00114563284509
0.00115423797724
0.00116790596389
0.00119363420748
0.00124721090309
0.00137137581197
0.00170931447823
0.00274294237593
0.00578878062483
0.0139839475535
0.036430635236
0.131869809308
0.000933558275434
0.000979200959971
0.00107468835877
0.00111063767908
0.00112504770069
0.00113242763696
0.00113796399163
0.00114343718461
0.00114970381589
0.00115798268057
0.00117114524303
0.00119596580351
0.00124785267206
0.0013688198622
0.00169996433111
0.00271786506822
0.00573278030546
0.0139529797502
0.0366607216898
0.130795636353
0.000938759511045
0.000984020556149
0.00107978138723
0.00111569678662
0.00112992210948
0.00113706154939
0.00114234352953
0.00114756250194
0.00115356107891
0.00116150922945
0.00117415941514
0.00119806873988
0.00124823883047
0.00136567563687
0.0016879514185
0.002680507553
0.00563582097084
0.0137880263121
0.0358278817066
0.109165601584
0.000943806606048
0.000988696579198
0.00108474006629
0.00112064778728
0.00113472133323
0.00114165192262
0.00114670918629
0.0011516960476
0.0011574444673
0.00116507325362
0.00117721428293
0.0012002140209
0.00124863632532
0.00136211840761
0.0016730807738
0.0026307492598
0.00550450929082
0.0135666559422
0.0351636769698
0.0798805410268
0.000948735499623
0.000993226258928
0.001089597412
0.00112553304019
0.00113949122002
0.00114624634977
0.00115110763811
0.00115588917488
0.0011614074271
0.00116873579081
0.00118039418292
0.00120252640553
0.00124937283368
0.00135942868492
0.00166042258307
0.00258597183038
0.00539017693381
0.0134136034346
0.0355161506898
0.0914622094431
0.000953522263304
0.000997675586297
0.00109436281777
0.00113034933191
0.0011442239126
0.0011508361626
0.00115553150843
0.00116013419227
0.00116544977144
0.00117249619221
0.0011836896218
0.0012050101205
0.00125055692124
0.00135859117536
0.00165471471989
0.00256273337524
0.00532513504388
0.0133416178933
0.0366948984347
0.130354419967
0.000958127407942
0.00100196535826
0.00109901415831
0.00113508249785
0.00114889988632
0.00115539840493
0.00115995683778
0.00116440784457
0.00116954400182
0.00117633672083
0.00118708039414
0.00120754928535
0.00125156895931
0.00135683598832
0.00164564127483
0.00253251347979
0.00525296686891
0.0132028477596
0.036717318932
0.11892836563
0.000962574864388
0.00100613700651
0.00110354067678
0.00113970761411
0.00115349489842
0.00115990572291
0.00116435449788
0.00116868321251
0.00117366840813
0.00118022823947
0.00119053598284
0.00121009453647
0.00125219524428
0.0013528558006
0.00162914318551
0.00248122890331
0.00512360201852
0.0128451027566
0.0344249968933
0.0830920547311
0.000966860201682
0.00101010789994
0.00110790813127
0.00114420500118
0.00115798719441
0.00116433566574
0.00116869820148
0.00117293041536
0.00117779143354
0.00118415642224
0.00119404873252
0.00121269109858
0.00125259377558
0.00134749447202
0.00160734608909
0.00241561468296
0.00494668118203
0.0123359916357
0.0338177632311
0.105070750743
0.000970968683907
0.00101393700951
0.00111211235978
0.00114855436696
0.00116235248399
0.00116866416845
0.00117296723499
0.00117712664323
0.00118190263139
0.00118809177706
0.00119764241965
0.00121547677682
0.00125358355018
0.00134413116746
0.00159187846739
0.0023641305216
0.00477175884065
0.0116664342622
0.031797223033
0.128764409283
0.000974883381633
0.00101759787277
0.00111614297887
0.00115273531869
0.00116657587036
0.00117287235974
0.00117713994748
0.0011812530595
0.00118595322728
0.00119202279533
0.00120127510666
0.00121844225425
0.00125522474701
0.00134320578941
0.00158459125981
0.00233331709113
0.00463156645521
0.0109083969414
0.0270461217029
0.0782246628243
0.000978600980046
0.0010210427702
0.00111997688111
0.00115674560944
0.00117063680953
0.00117694079483
0.00118119665441
0.00118528900392
0.00118995476256
0.00119592616375
0.00120492139241
0.0012214420882
0.00125688971468
0.00134221265647
0.0015770523044
0.00230430554833
0.00452355818663
0.0104838468959
0.0265187779972
0.114607661305
0.000982061012042
0.00102430079753
0.00112361991628
0.00116056541208
0.00117452515302
0.00118085338808
0.00118511475947
0.00118920806678
0.00119385660432
0.00119974862509
0.00120849009182
0.00122431868605
0.0012581355385
0.00133971189184
0.00156477806312
0.00226638417315
0.00442513569338
0.0102019082709
0.0255472213047
0.107573450633
0.000985269620704
0.00102736151015
0.00112705890608
0.00116418659463
0.00117822978099
0.00118459029558
0.0011888726279
0.00119298318155
0.00119763824839
0.00120347788353
0.00121198186718
0.00122710295494
0.00125910446622
0.00133631301277
0.00155007097101
0.00222353870895
0.0043307944453
0.0100317833683
0.0257208983331
0.0989898744693
0.000988249991078
0.00103023089815
0.00113028488012
0.00116759476825
0.00118172259258
0.00118813211757
0.00119245206031
0.00119659659109
0.00120127597317
0.00120709007446
0.00121539289431
0.00122984607006
0.00126010660141
0.00133306690918
0.00153637696116
0.00218478098048
0.00423829748557
0.00973825698342
0.0231945701867
0.0631339975266
0.00099093932087
0.00103288428615
0.00113327916585
0.0011707666373
0.00118498681771
0.00119145634372
0.00119582832651
0.00120002588464
0.00120474969048
0.00121056067206
0.00121870423015
0.00123256858985
0.00126126321488
0.00133051630171
0.00152491920538
0.00215174649354
0.00415858402914
0.00959909915435
0.0239403215496
0.081875831132
0.000993315144853
0.00103529995211
0.00113602690893
0.00117368638148
0.00118800049617
0.00119453753429
0.00119897398233
0.00120324024537
0.00120803016267
0.00121386661124
0.00122188990394
0.00123525040656
0.00126258352409
0.00132866622033
0.00151543899592
0.00212185598047
0.00407531184803
0.00937399138037
0.0243412466261
0.105280418496
0.0009953347434
0.00103745409183
0.00113850582136
0.00117633222572
0.00119074131777
0.00119735231862
0.00120186460684
0.00120621370432
0.0012110879585
0.00121697722836
0.00122492441689
0.00123785929787
0.00126398393087
0.00132715138847
0.00150625579193
0.00208933938055
0.003977703439
0.00908874411214
0.0237540161932
0.125373774304
0.000996994827956
0.0010393423601
0.00114069165094
0.00117867842764
0.00119318458004
0.00119987738857
0.00120447548219
0.00120892373898
0.00121389734501
0.00121986678024
0.00122778019604
0.00124035702099
0.00126537365291
0.00132562907091
0.0014959640486
0.00204950509333
0.00386445654354
0.00891542785955
0.0243110106951
0.123101995412
0.000998299884936
0.00104092782767
0.00114254966246
0.00118069193229
0.00119529966427
0.00120208264547
0.00120678032314
0.00121133860602
0.00121642333631
0.00122251021318
0.00123043048707
0.00124271819695
0.00126671857963
0.00132402765086
0.00148430980039
0.0020016059451
0.00373327366144
0.00885177130814
0.0261000318172
0.10924611975
0.000999211228824
0.00104219097887
0.00114405443844
0.00118234833062
0.00119706841764
0.00120395762283
0.00120877346339
0.00121346286479
0.00121868259857
0.0012248907532
0.00123285301227
0.00124493316879
0.00126808733499
0.00132289558756
0.00147443638847
0.00195803850688
0.00360386744084
0.00871269086347
0.0258085500541
0.106332309951
0.000999758154355
0.00104310721847
0.00114516201111
0.0011835958747
0.00119843586064
0.00120544727289
0.00121039642347
0.00121523392092
0.00122061363819
0.00122696928336
0.00123501860306
0.00124700814603
0.00126956397258
0.00132276398556
0.00146944288265
0.00193245411183
0.00351759222472
0.00867740761922
0.0275720285518
0.124874239055
0.000999971017252
0.00104361704623
0.00114582133469
0.00118439592363
0.00119937279991
0.0012065246633
0.00121162643631
0.00121663475096
0.00122221698256
0.00122876515683
0.00123694916002
0.00124894316356
0.00127120073547
0.00132387586871
0.00147033496332
0.00193089462009
0.00350684217298
0.00897091636419
0.0318118808453
0.145945539852
0.000999838701311
0.0010436611205
0.00114597364109
0.00118470279069
0.00119984370183
0.00120716208045
0.00121243900564
0.00121763889686
0.00122343611021
0.0012302148511
0.00123861433631
0.00125076541559
0.0012731662911
0.00132660625352
0.0014767279472
0.00194565644781
0.00353253691311
0.00921778435849
0.0343930686086
0.150474066849
0.000999379514521
0.00104321711929
0.00114556651193
0.00118446588248
0.00119980841672
0.00120732635877
0.00121280590432
0.00121822439125
0.00122426613549
0.00123131473491
0.00124001425533
0.00125255928509
0.00127586450568
0.00133217872379
0.0014899912262
0.0019702947117
0.00354938592473
0.00948348287929
0.0388682741936
0.158853538509
0.000998554059489
0.00104223614539
0.00114455941849
0.00118364445764
0.00119923023338
0.00120698768794
0.00121270309058
0.00121837239366
0.00122469330499
0.00123206045737
0.00124117033679
0.00125446921419
0.00127993181064
0.00134266614212
0.00151449076774
0.002006062518
0.00354636265189
0.00961406422386
0.0419730293718
0.162061526126
0.000997244820531
0.00104065956405
0.0011429216631
0.00118221716646
0.00119808699378
0.00120612474849
0.0012121135147
0.00121806886176
0.0012247061584
0.00123244321704
0.00124209627085
0.00125661306727
0.0012858418705
0.00135958082731
0.00155468119515
0.00207222859491
0.00364640297887
0.010279873379
0.0449311639789
0.163675255418
0.000995393511741
0.0010384653017
0.00114062900386
0.00118015884915
0.00119635308605
0.00120471281238
0.00121101595451
0.00121729353647
0.00122428680288
0.00123245177548
0.00124278234231
0.0012589387255
0.00129328458546
0.0013815672833
0.00160719157205
0.00216809810706
0.00385292886342
0.0113042129586
0.0474520024856
0.164287576283
0.000992951459328
0.00103563904687
0.0011376567739
0.00117744032123
0.00119400094911
0.00120272830842
0.00120938367434
0.00121602664734
0.001223419357
0.00123206228952
0.00124314245644
0.00126107464994
0.0013007526057
0.00140368473212
0.00166033251376
0.00227497845474
0.00412484023666
0.012355044281
0.0486248509508
0.163574539053
0.000989869765297
0.00103215145584
0.00113398039264
0.00117403790175
0.00119100490383
0.00120014367337
0.00120720204346
0.00121426021339
0.00122209554686
0.0012312447749
0.00124304267588
0.00126246742468
0.00130624924717
0.00141987478076
0.00169966756077
0.00236188397485
0.00435988225137
0.01313035558
0.0494424673259
0.163169152363
0.000986102494707
0.00102797826991
0.00112958411583
0.00116992904036
0.00118734571931
0.00119694992004
0.00120446826069
0.00121199208267
0.00122031797978
0.00123000132092
0.00124243146389
0.00126292091074
0.00130910927465
0.00142820936149
0.00172059235066
0.00241739668579
0.0045409211463
0.0136558942405
0.0501907040326
0.163346630237
0.000981616355031
0.00102312456415
0.00112446750345
0.0011651133815
0.00118302027801
0.0011931430251
0.00120117625904
0.00120922579524
0.00121810169554
0.00122835592433
0.00124146854657
0.00126298222484
0.00131103935712
0.0014333749769
0.00173192441098
0.00245151788502
0.00467713630145
0.0139818250904
0.0503356311981
0.163392818595
0.000976362724754
0.00101759357363
0.00111864287072
0.00115959884557
0.0011780278827
0.00118871866772
0.00119732861606
0.00120597315443
0.00121546349551
0.0012263704566
0.00124026567305
0.00126291369774
0.00131285606676
0.00143789003539
0.00174030028827
0.00247819229139
0.00480067431765
0.0144180881964
0.0510800080771
0.163721886498
0.000970420718594
0.00101139128461
0.00111212179067
0.0011533958602
0.00117237649939
0.00118368475507
0.00119294063608
0.00120226274297
0.00121244209913
0.00122406009304
0.00123864862435
0.00126186880916
0.00131180890352
0.00143561661411
0.00173776862959
0.0024970971397
0.00495830737124
0.0151724794648
0.0531815806057
0.164545713875
0.000963654338073
0.00100456799927
0.00110495922551
0.00114654367692
0.00116609129599
0.00117806275345
0.00118803832753
0.00119810109619
0.00120906495688
0.00122143289989
0.00123651454575
0.00125926048012
0.00130603457386
0.00142220674089
0.00171850224923
0.00251073709469
0.00516106094005
0.0160110411473
0.0548673870388
0.165315621838
0.000956280524098
0.000997210968882
0.00109723883769
0.00113910825018
0.00115922244886
0.00117187976077
0.00118260635163
0.00119350575669
0.00120536978193
0.00121860889591
0.00123424571417
0.00125636583011
0.00129946777336
0.00140755631945
0.00170235082552
0.00255751219837
0.00548270033846
0.0168628951161
0.0561511953181
0.166121615916
0.000948257189805
0.000989428709133
0.00108906488606
0.00113117916118
0.0011518117011
0.00116512283035
0.00117660964666
0.00118837204565
0.00120119286481
0.00121545140361
0.00123195435177
0.00125425323577
0.00129589816305
0.0014010976844
0.00170309225106
0.0026319142223
0.00584437058237
0.0177812204073
0.0575315336077
0.166961707869
0.000939698149272
0.000981395341979
0.00108062707526
0.00112288996247
0.00114391513901
0.00115770874462
0.00116971428379
0.00118205278271
0.00119568095748
0.00121106631295
0.00122880962159
0.00125238792529
0.00129603145143
0.00140648159015
0.00172528763639
0.0027176858664
0.00617112556377
0.0188560440898
0.0600059800437
0.168271861105
0.000930850521438
0.000973352988224
0.00107214359003
0.00111438229273
0.00113546777977
0.00114914372912
0.0011606596607
0.00117223073966
0.00118582355536
0.00120226827617
0.00122137191668
0.00124671854926
0.00129585721394
0.00142216904858
0.00176840226765
0.00281177350623
0.00646010267825
0.0200351219968
0.0630299156632
0.169815951723
0.000922092620405
0.000965597019121
0.00106390048081
0.00110578328973
0.00112614523221
0.00113801568139
0.00114587690162
0.00115220986654
0.00116272085842
0.00117975570556
0.00119956994409
0.00122543718439
0.001285097789
0.00144697069639
0.00184552278613
0.00296591258144
0.00682022267951
0.021254573066
0.0659976439415
0.171270121526
0.000913636995396
0.000958476359574
0.00105619686838
0.00109716678651
0.00111523183435
0.00112119100388
0.00111625705409
0.00110233768502
0.00109508472946
0.00111232655168
0.00113198083813
0.00116069905316
0.00125480223117
0.00148587470538
0.00197006645107
0.0032043958552
0.00725079226716
0.022242788867
0.0679982002762
0.17216397043
0.000905930488607
0.000952304149947
0.00104931258458
0.00108862190332
0.00110217386547
0.00109541736296
0.00105588796896
0.000968552031143
0.00115126727998
0.00114948327514
0.00119315040676
0.00133982299881
0.00123303647308
0.00158990181414
0.00218424675508
0.00356240644517
0.00778153699098
0.0229302497616
0.0685310656607
0.172108386366
0.000899211295343
0.00094726078066
0.00104369418536
0.00108118212497
0.00109003647933
0.00107251264907
0.00100672097729
0.00106117489014
0.0016634185938
0.00185303466133
0.00260636953029
0.00410392693583
0.00840599896401
0.0231655697358
0.0668704556447
0.171016942276
0.000894692271631
0.000944399110095
0.00104068185137
0.00107720157214
0.0010834026641
0.00105957862758
0.000978789420887
0.000970810339978
0.00186877514783
0.00219432894131
0.00306305267966
0.00457522387109
0.00869319263481
0.0225222819629
0.06465341893
0.17003831406
0.000894650315587
0.000944374419973
0.00104066758255
0.00107719652819
0.00108340607521
0.00105961025446
0.00097888383999
0.000971176972301
0.00186939093332
0.00219656120019
0.00306809529116
0.0045710679845
0.00855649849118
0.0218849490493
0.0644622855327
0.170147740963
0.000899160786215
0.000947226700571
0.00104367816027
0.00108118737903
0.00109006642858
0.00107258691916
0.00100687632152
0.00106207452412
0.00166248125607
0.00185246025348
0.00260839557763
0.00410634035267
0.00835383549999
0.0228374025045
0.066007932559
0.170387985712
0.000905881369349
0.000952274558462
0.00104930135382
0.00108863970228
0.00110221849492
0.00109542607525
0.00105579146632
0.000968488640348
0.0011515787974
0.00114983805574
0.00119363032381
0.00134044273948
0.00123329457792
0.00159065920368
0.00218990605778
0.00359090747603
0.00788513869935
0.0229791219342
0.0666854416725
0.170629322396
0.000913651027694
0.000958482994579
0.00105621509855
0.00109721060776
0.00111530793644
0.00112129958151
0.00111642961908
0.00110258138795
0.00109545321478
0.00111271049419
0.00113246107221
0.00116158407037
0.0012565248278
0.0014909522483
0.00198967721859
0.00327577315094
0.00743744036073
0.0223512020789
0.0669425942903
0.171280452861
0.000922151344214
0.000965625712924
0.00106393915387
0.00110584610448
0.00112624031115
0.00113815130259
0.00114606541158
0.00115245887536
0.00116301070506
0.00118009559605
0.00120004375102
0.00122639224132
0.00128761451647
0.00145489808328
0.00187591557749
0.0030749491915
0.00709687268346
0.0215724539647
0.0665341046341
0.171526223441
0.000930930105885
0.000973396458111
0.00107219637169
0.00111445425768
0.00113556568901
0.00114927582755
0.00116083518434
0.00117244321872
0.00118607128626
0.00120255772538
0.00122177811304
0.00124747772286
0.00129785630923
0.00142900895343
0.00179533056765
0.00291439522632
0.0067565778486
0.0204759499068
0.0637966132725
0.170322140223
0.00093977339938
0.000981446885941
0.0010806828483
0.0011229726332
0.00114402236743
0.00115783971893
0.00116987949387
0.00118224576431
0.00119589775004
0.00121131682563
0.00122912215147
0.00125292834034
0.00129734114431
0.00141059432629
0.00174039595692
0.0027798495326
0.00640555842846
0.0193765049253
0.0604401467369
0.168315947149
0.000948353854024
0.000989491179916
0.00108913647097
0.00113126873348
0.00115193410354
0.00116526519715
0.00117676948562
0.00118855255048
0.00120139610158
0.00121568900844
0.00123222972951
0.00125466548928
0.00129670937846
0.00140297555612
0.00170814801351
0.00265854778318
0.0060311636211
0.0186285342869
0.0585860312542
0.166656837929
0.000956409569415
0.000997288004041
0.00109732103057
0.00113920775015
0.00115934021724
0.00117202076835
0.00118276240772
0.00119367805017
0.00120555017866
0.00121880834254
0.00123449263141
0.00125671881814
0.00130011211395
0.00140895164354
0.0017068430833
0.00259066367848
0.0057427016975
0.0180637161923
0.0574372492886
0.165528385541
0.000963789599525
0.00100465658456
0.001105051172
0.00114664808948
0.00116621336252
0.00117820143819
0.00118818625592
0.00119826186166
0.00120923731333
0.00122162740887
0.00123675852865
0.00125961193682
0.00130677118834
0.00142453374621
0.00173009007401
0.00258130545723
0.00553509441682
0.0171658253667
0.0556672645179
0.164740421413
0.000970557901786
0.00101148286641
0.00111221859125
0.00115350563615
0.00117250253092
0.00118382786885
0.00119309900811
0.00120242518334
0.00121261833159
0.00122426133138
0.00123889753448
0.00126221638329
0.00131243649082
0.00143740137861
0.00174615029262
0.0025498741287
0.00525288203512
0.0161802221868
0.0543127046114
0.16444811446
0.000976495677989
0.00101768701428
0.00111874425054
0.00115971454664
0.00117816096772
0.00118886959885
0.00119749646958
0.00120615594334
0.00121565984407
0.00122659034467
0.00124052936427
0.00126325618591
0.00131332499677
0.00143861654795
0.00174220066244
0.00249171593209
0.00491987214958
0.0151589773172
0.0534435075257
0.164521555778
0.000981752517742
0.00102322267655
0.00112457383393
0.00116523454411
0.0011831594922
0.00119330099318
0.00120135189875
0.00120942048564
0.00121831728982
0.00122859443321
0.00124174659829
0.00126330982445
0.00131137768618
0.00143334912563
0.00172968093573
0.00244153584124
0.00467463557157
0.0144200007947
0.05324948913
0.165021811987
0.000986237824261
0.00102807654932
0.00112969026781
0.00117005046668
0.00118748671584
0.00119711110754
0.00120464844226
0.00121219340093
0.00122054288888
0.00123024942191
0.00124271649257
0.00126322404771
0.00130935088321
0.00142804268313
0.00171854009933
0.0024084153185
0.0045201864598
0.0138308380778
0.0520223194488
0.164951403622
0.000989986152993
0.00103222886728
0.00113407083778
0.00117414589304
0.00119113398979
0.00120029481977
0.00120737702839
0.00121446362632
0.00122232426451
0.0012314996323
0.00124332616681
0.00126275003547
0.0013064516416
0.00141968420268
0.00169841853424
0.00235745731805
0.00434405791007
0.0131104516892
0.0498397957014
0.164114615765
0.00099305252255
0.00103569714937
0.00113773314217
0.00117753901948
0.00119412258427
0.00120287364946
0.00120955716686
0.00121623314138
0.00122366030381
0.00123233714742
0.00124345167462
0.00126136749598
0.00130095127191
0.00140355771356
0.00165941193403
0.00227131131538
0.00410337012943
0.0122311052434
0.0482708868199
0.163758330889
0.000995481333593
0.00103850842932
0.0011406942584
0.00118025000992
0.00119646920892
0.00120485494386
0.0012111881552
0.00121750216054
0.00122453667057
0.00123274110809
0.00124311496214
0.00125925910435
0.00129353423503
0.00138150830937
0.00160617875651
0.00216290785891
0.00382869325284
0.01123279366
0.0474851889053
0.164105803811
0.000997323883522
0.0010406936873
0.00114298048911
0.00118230338573
0.00119819895733
0.00120626279774
0.00121228064725
0.00121827677683
0.0012249601979
0.00123273846473
0.00124244071635
0.00125694452978
0.0012861255458
0.00135960982725
0.00155355597763
0.00206546430414
0.00360487290868
0.010042947484
0.0440718443528
0.16299168346
0.000998632141492
0.00104226731411
0.00114461493436
0.00118372750947
0.00119933907545
0.00120712227623
0.00121286646549
0.00121857736713
0.00122494639555
0.00123235602188
0.00124151636718
0.00125479669227
0.00128021982172
0.00134269887944
0.00151299720758
0.0019948264133
0.00347311433232
0.00919492071059
0.0408812915037
0.162730106032
0.000999458075796
0.00104325024992
0.00114562230699
0.00118454771235
0.00119991504356
0.00120745758785
0.00121296460627
0.00121842329231
0.00122451386411
0.00123160311666
0.00124035149583
0.00125286973227
0.00127613777204
0.00133222086544
0.00148837520826
0.00195665350963
0.00345776704745
0.0089334019311
0.0374243403033
0.160162146525
0.000999919843525
0.00104369704751
0.00114603034
0.00118478412185
0.00119994860264
0.00120728997085
0.0012125920024
0.0012178289648
0.00122367315199
0.00123048865658
0.00123893501995
0.0012510534369
0.00127342541946
0.00132671243551
0.00147562470976
0.00193554280808
0.00345646198244
0.00868199076041
0.0313733027328
0.14216009892
0.00100005342525
0.00104365382863
0.00114587851503
0.00118447713446
0.00119947649048
0.00120664956511
0.00121177397388
0.00121681521097
0.00122244009975
0.00122902048927
0.00123724554638
0.00124920588338
0.00127145458342
0.00132405227834
0.0014696975105
0.00192469142463
0.00346211665898
0.00861156424436
0.0286824113843
0.13362538635
0.000999840207391
0.00104314322309
0.00114521947513
0.00118367793055
0.00119853944187
0.00120557043987
0.00121053999011
0.00121540652131
0.0012208364189
0.00122721553554
0.00123528258972
0.00124724412542
0.00126980113884
0.00132295384124
0.00146902408188
0.00192839961453
0.00350159755771
0.00863719927942
0.0261599354124
0.102771866436
0.000999291137627
0.00104222501773
0.00114411297954
0.00118243248129
0.00119717333679
0.00120408179169
0.00120891519739
0.00121362604699
0.00121888379146
0.00122509409618
0.00123305802337
0.00124513027915
0.00126827979492
0.00132298194231
0.00147363301842
0.0019529470961
0.00359479842361
0.00887769677449
0.0275313286328
0.11375451078
0.000998378025095
0.00104096130181
0.00114261296758
0.00118078391181
0.00119541369654
0.00120221479507
0.00120692886052
0.00121150271873
0.0012166107627
0.00122268356233
0.00123059516057
0.00124287300682
0.00126683966075
0.00132388338091
0.00148253091819
0.00199332148708
0.00372401232307
0.00913801271211
0.029247902073
0.119993748389
0.000997073337296
0.00103938426105
0.00114076033225
0.0011787717577
0.00119329584562
0.00120000101668
0.00120460976399
0.00120906315799
0.00121404099498
0.00122000302973
0.00122790576796
0.0012404721897
0.00126544050068
0.00132530452826
0.00149330617209
0.00203758923233
0.00384349171259
0.00920487688864
0.0276637604153
0.11077840385
0.000995415661278
0.00103750562849
0.00113857908703
0.00117642511882
0.00119084836029
0.00119746804061
0.00120198539905
0.00120633636175
0.00121120763652
0.00121709174209
0.00122503485613
0.00123797077038
0.00126408622443
0.0013270489247
0.00150456160566
0.00207984198423
0.00395493323361
0.00924885117043
0.026359366116
0.132286891789
0.000993396266725
0.00103535783146
0.00113610225228
0.00117377707957
0.00118810168746
0.00119464394539
0.00119908155725
0.00120334513737
0.00120812864857
0.00121395843165
0.0012219795876
0.0012353537157
0.00126274998093
0.0013290338196
0.00151609790509
0.00212081395249
0.00406857032247
0.00948361299721
0.0262951696716
0.1220496167
0.000991016634212
0.00103294270528
0.00113335419052
0.00117085489932
0.00118508329185
0.00119155549602
0.00119592555159
0.00120011684924
0.0012048312981
0.00121063339959
0.00121877556872
0.00123266677351
0.00126151983941
0.00133152466668
0.00152871346151
0.00216146473562
0.00417450527753
0.00979436151833
0.0264415450202
0.0901433501958
0.000988320737924
0.00103028532702
0.00113035836881
0.00116768092515
0.0011818159174
0.00118822676836
0.00119254256383
0.00119667823001
0.00120134568521
0.0012071481658
0.00121544780755
0.00122994153369
0.00126045262877
0.00133463575419
0.0015427678109
0.00220265093295
0.0042672866158
0.0100383262913
0.0287157343704
0.123906619704
0.000985335483208
0.00102741761105
0.00112713592263
0.00116427426814
0.00117832056396
0.00118468089228
0.00118895775497
0.0011930570946
0.00119769697578
0.0012035207434
0.00121201948952
0.00122718362728
0.00125947710327
0.00133810194284
0.00155720190404
0.00224269880347
0.00435215192658
0.0101158455795
0.0277869713779
0.129612258385
0.000982126128519
0.00102435788377
0.00112369360871
0.00116064973102
0.00117461616969
0.00118094070832
0.00118519493778
0.00118927531566
0.00119390548877
0.0011997782874
0.00120850417492
0.00122436372929
0.00125842403453
0.00134115436958
0.00157014121199
0.00227928950126
0.00443667932997
0.0101990077113
0.0259975375011
0.121627626331
0.000978661386617
0.00102109696218
0.00112004854456
0.00115682347401
0.00117072176334
0.00117702419511
0.00118127337526
0.00118535031195
0.00118999696588
0.00119593961428
0.00120491480215
0.00122143041095
0.00125702132837
0.00134301654821
0.00157984121884
0.00231055719626
0.0045348739141
0.0104655721826
0.0246811792861
0.0660354437332
0.000974943257349
0.00101764958972
0.00111620583682
0.00115280697545
0.00116664986526
0.00117294733741
0.00117720819899
0.00118130925504
0.00118599608911
0.00119203968721
0.00120125354289
0.00121838105311
0.001255162168
0.00134327021504
0.0015849138206
0.00233482727345
0.00465451096116
0.0110480152261
0.0265675788335
0.066502492072
0.000971032978009
0.00101399189233
0.00111216653171
0.00114861435169
0.00116241850315
0.00116873146907
0.00117303037578
0.00117718407712
0.00118194024401
0.00118810921998
0.00119761522614
0.00121533752599
0.00125319142077
0.00134286986768
0.001587722381
0.00235602223651
0.00478846110504
0.0117898565789
0.0311262883908
0.114973394727
0.000966926423574
0.00101016201289
0.0011079609738
0.00114425819266
0.00115804403806
0.00116439506348
0.00116875634241
0.00117298568657
0.00117784107375
0.00118417544025
0.00119403529685
0.00121249642353
0.00125180791884
0.00134434577386
0.00159627962428
0.00239070993368
0.00494358185874
0.0125338594448
0.0358290872136
0.13935432105
0.000962639538457
0.0010061888724
0.00110358982846
0.00113975649611
0.00115354664449
0.00115996025926
0.00116440960739
0.0011687399427
0.00117372263564
0.00118026605211
0.00119053585525
0.00120990911394
0.00125133069629
0.00134913583471
0.00161573893264
0.00244896016723
0.00509909459283
0.0130157721779
0.0366530532306
0.104937740766
0.000958183001275
0.00100201176968
0.00109905788823
0.0011351275033
0.00114894813635
0.00115545030457
0.00116001169588
0.00116446805868
0.00116960907891
0.00117638830407
0.00118712680349