/*--------------------------------*- C++ -*----------------------------------*\
| =========                 |                                                 |
| \\      /  F ield         | OpenFOAM: The Open Source CFD Toolbox           |
|  \\    /   O peration     | Version:  v2012                                 |
|   \\  /    A nd           | Website:  www.openfoam.com                      |
|    \\/     M anipulation  |                                                 |
\*---------------------------------------------------------------------------*/
FoamFile
{
    version     2.0;
    format      ascii;
    class       volScalarField;
    location    "4.1";
    object      rAU;
}
// * * * * * * * * * * * * * * * * * * * * * * * * * * * * * * * * * * * * * //

dimensions      [-1 3 1 0 0 0 0];


internalField   nonuniform List<scalar> 
1984
(
2.21065167738e-05
2.20254765885e-05
2.20149708465e-05
2.20108219071e-05
2.20090850174e-05
2.20080661408e-05
2.2007682191e-05
2.20075101705e-05
2.20072496744e-05
2.20075808387e-05
2.20082142595e-05
2.20079007839e-05
2.20064240571e-05
2.2048527528e-05
2.19198648348e-05
2.16055233782e-05
2.14462225369e-05
5.06489267089e-05
0.00782961947145
0.0199564791846
2.20196796608e-05
2.18742831346e-05
2.18530489189e-05
2.18476628499e-05
2.18455308495e-05
2.18439818394e-05
2.1842935566e-05
2.18421509004e-05
2.18415179566e-05
2.18408147593e-05
2.1839929147e-05
2.18386160888e-05
2.18336289496e-05
2.18371184577e-05
2.17017996097e-05
2.13825589502e-05
2.12417776196e-05
5.02199490555e-05
0.00642770430242
0.016013092274
2.20064278059e-05
2.1845918884e-05
2.1825410093e-05
2.18197319505e-05
2.18177262347e-05
2.18161858124e-05
2.18150863421e-05
2.18143275446e-05
2.18136719374e-05
2.18128505302e-05
2.18114668475e-05
2.18098000205e-05
2.18045250669e-05
2.18083899683e-05
2.16731744187e-05
2.13506130145e-05
2.12109225291e-05
5.04778470432e-05
0.00640023655023
0.0160391215845
2.20020517557e-05
2.1838627683e-05
2.1819194286e-05
2.18133162579e-05
2.1811417329e-05
2.18099914e-05
2.18090088475e-05
2.18082310359e-05
2.18078029773e-05
2.18072909346e-05
2.18057708468e-05
2.1802958951e-05
2.17970885664e-05
2.179673427e-05
2.16703353283e-05
2.1349032973e-05
2.12208907557e-05
5.07679054195e-05
0.00639420022043
0.0158281253471
2.19980961671e-05
2.18336189089e-05
2.18167161633e-05
2.18106668046e-05
2.18086648322e-05
2.18073048235e-05
2.18063682655e-05
2.18056610356e-05
2.18049935418e-05
2.18043249594e-05
2.18030242871e-05
2.1799685403e-05
2.17924441769e-05
2.17885189745e-05
2.16722263941e-05
2.13490521403e-05
2.12247913266e-05
5.09607208579e-05
0.00623151942187
0.0178067453822
2.19942334124e-05
2.18296309538e-05
2.18153196117e-05
2.18090911996e-05
2.1806892402e-05
2.18056003977e-05
2.18048104622e-05
2.18040433796e-05
2.18031517356e-05
2.18023296804e-05
2.18006735804e-05
2.17969009717e-05
2.17902535363e-05
2.17805812878e-05
2.16754535451e-05
2.13535977233e-05
2.12180802258e-05
5.11159301907e-05
0.00622313522671
0.0198269592866
2.19930324014e-05
2.18285020626e-05
2.18140884245e-05
2.18077900362e-05
2.18055281069e-05
2.18042444812e-05
2.18033812222e-05
2.18025724041e-05
2.1801745522e-05
2.18006896126e-05
2.17989427279e-05
2.17948979019e-05
2.1786520877e-05
2.17733526155e-05
2.1680955609e-05
2.13574771171e-05
2.11994787061e-05
5.10720519667e-05
0.00642214526458
0.0159801226598
2.19918220515e-05
2.18273398985e-05
2.18127799814e-05
2.18064764328e-05
2.18041359685e-05
2.18028783069e-05
2.18019839107e-05
2.18012183977e-05
2.18002515549e-05
2.17990259601e-05
2.17970807684e-05
2.17930445012e-05
2.17847435788e-05
2.17705332969e-05
2.16865440099e-05
2.1361067625e-05
2.11696790762e-05
5.07094751128e-05
0.00637725325358
0.0158742564834
2.19908198612e-05
2.1825971708e-05
2.18112028803e-05
2.18048574135e-05
2.18026044513e-05
2.18013223057e-05
2.18004181042e-05
2.17995882644e-05
2.17985400896e-05
2.1797184828e-05
2.17954568375e-05
2.17911360067e-05
2.17825809896e-05
2.17687980907e-05
2.1693388319e-05
2.1369368559e-05
2.11367653892e-05
4.97986591017e-05
0.00628054699636
0.0156857363626
2.1989791092e-05
2.18244397482e-05
2.18094845101e-05
2.18031944066e-05
2.18008759232e-05
2.17995244795e-05
2.17986593491e-05
2.17977923795e-05
2.1796602993e-05
2.17951027604e-05
2.17933823248e-05
2.17888386308e-05
2.17796698844e-05
2.17655013355e-05
2.16975514705e-05
2.13803455016e-05
2.11017033339e-05
4.83548107639e-05
0.00567365630916
0.0159632242131
2.19883073686e-05
2.18229853945e-05
2.18076031671e-05
2.18013505683e-05
2.17988467735e-05
2.17975725411e-05
2.17967022059e-05
2.17958473064e-05
2.17944692121e-05
2.17932404497e-05
2.1791196296e-05
2.17864061502e-05
2.1776542094e-05
2.17627180891e-05
2.16987047569e-05
2.13864509288e-05
2.10514337445e-05
4.67903598746e-05
0.00527097478317
0.0191042083937
2.19865092842e-05
2.18212699945e-05
2.18052774884e-05
2.17989291257e-05
2.17965561071e-05
2.17953617597e-05
2.1794567548e-05
2.17938251854e-05
2.17926228384e-05
2.1791158073e-05
2.17889229512e-05
2.17845763368e-05
2.17753032089e-05
2.17613141115e-05
2.16979145382e-05
2.13856050873e-05
2.10447242212e-05
4.49442000587e-05
0.00484791505803
0.0157556639265
2.19845311081e-05
2.18189421064e-05
2.18026647272e-05
2.17963198865e-05
2.17941105298e-05
2.17929446325e-05
2.17923236322e-05
2.17916679458e-05
2.17905156746e-05
2.1788906816e-05
2.17867956053e-05
2.17832173844e-05
2.17751367863e-05
2.17609798237e-05
2.17010523138e-05
2.13922169545e-05
2.10879792236e-05
4.27356256143e-05
0.00374498552055
0.0197692136198
2.19826635381e-05
2.18166657378e-05
2.17998515382e-05
2.17936117529e-05
2.17912944936e-05
2.17902332969e-05
2.17898205105e-05
2.17891407402e-05
2.1787990875e-05
2.17863337957e-05
2.17844983918e-05
2.1782188651e-05
2.1774594671e-05
2.17601607884e-05
2.17052126097e-05
2.14042186216e-05
2.11207734957e-05
4.05279742659e-05
0.0026482006815
0.018971750774
2.19800277107e-05
2.18144342673e-05
2.17968779203e-05
2.17906525506e-05
2.17883114979e-05
2.17873587987e-05
2.17867831085e-05
2.17858361022e-05
2.17853102921e-05
2.17839044674e-05
2.17828647781e-05
2.17798294068e-05
2.17714205002e-05
2.17557776949e-05
2.17073688924e-05
2.17062498767e-05
2.14659292589e-05
3.84288274276e-05
0.00187161543677
0.0169510420197
2.19769670014e-05
2.18113719062e-05
2.17933649108e-05
2.17873368015e-05
2.17853625785e-05
2.17846654915e-05
2.17841558364e-05
2.17841220867e-05
2.17836137884e-05
2.17823304479e-05
2.17801579483e-05
2.17752687539e-05
2.17656309847e-05
2.17470090932e-05
2.16983478685e-05
2.17094077816e-05
2.15237392095e-05
3.63588567934e-05
0.00127209526881
0.0140029756015
2.19732267134e-05
2.18071327246e-05
2.17889138552e-05
2.17833491333e-05
2.17819643758e-05
2.17822765206e-05
2.17828994049e-05
2.17832212556e-05
2.17822770149e-05
2.17809885155e-05
2.17775193643e-05
2.17727067132e-05
2.17619892533e-05
2.17406642737e-05
2.16933081019e-05
2.16796786467e-05
2.15313912379e-05
3.42626653569e-05
0.000764764755387
0.0141262894552
2.19677041612e-05
2.180249733e-05
2.17838508599e-05
2.17788346116e-05
2.17781259307e-05
2.17793741364e-05
2.17810072941e-05
2.17810770909e-05
2.17805903496e-05
2.17800013321e-05
2.17783143912e-05
2.17746006047e-05
2.17666525822e-05
2.17479895439e-05
2.17011137705e-05
2.16576167635e-05
2.1529248437e-05
3.26198940265e-05
0.000587234664842
0.0124552521254
2.19621191019e-05
2.17973178079e-05
2.17782512662e-05
2.17737823873e-05
2.17739352626e-05
2.17761091786e-05
2.17779699851e-05
2.17791057725e-05
2.17798965526e-05
2.17797837319e-05
2.17800546752e-05
2.17784580508e-05
2.17713935426e-05
2.17560379616e-05
2.17110819748e-05
2.16523749916e-05
2.15405876813e-05
3.11617302869e-05
0.000455252483291
0.0124395193427
2.19544303438e-05
2.17900523051e-05
2.177155288e-05
2.17684285248e-05
2.17700579812e-05
2.17732747554e-05
2.17761524136e-05
2.17782215969e-05
2.17794921847e-05
2.17798544769e-05
2.17794796658e-05
2.17784672347e-05
2.17720592965e-05
2.17566253213e-05
2.17136272807e-05
2.16545244889e-05
2.15350451225e-05
2.97516927875e-05
0.000348889887334
0.0143334454747
2.19411330833e-05
2.17801953525e-05
2.1764145547e-05
2.17639554638e-05
2.17676035901e-05
2.17724796409e-05
2.17761904577e-05
2.17782737469e-05
2.17792972894e-05
2.17798815021e-05
2.1779065246e-05
2.17766585658e-05
2.17720744229e-05
2.1758014835e-05
2.17239910918e-05
2.16603134578e-05
2.15304525634e-05
2.87106705079e-05
0.000270915898959
0.0120620373854
2.19218949333e-05
2.17669989844e-05
2.17572866018e-05
2.17612635001e-05
2.17672378872e-05
2.17733381609e-05
2.17771074475e-05
2.17791793876e-05
2.17800861192e-05
2.17802079415e-05
2.17796677483e-05
2.17780051901e-05
2.17731296733e-05
2.17616589365e-05
2.17370833546e-05
2.16741828722e-05
2.15570896254e-05
2.81008968735e-05
0.000243229561232
0.0109403806739
2.18843303227e-05
2.17497048198e-05
2.17530744816e-05
2.17619505782e-05
2.1769845994e-05
2.1775980232e-05
2.1779254168e-05
2.17810260971e-05
2.17819278669e-05
2.17819590121e-05
2.17813822492e-05
2.17796228007e-05
2.17755963813e-05
2.17678505412e-05
2.17439589322e-05
2.16848502703e-05
2.15816512291e-05
2.75669826566e-05
0.000223109333757
0.0106822042061
2.17905940025e-05
2.17401766114e-05
2.17580102135e-05
2.17678661305e-05
2.17765907605e-05
2.17816811789e-05
2.17839943931e-05
2.1784800764e-05
2.17847106791e-05
2.17842249213e-05
2.17833138706e-05
2.17815860306e-05
2.17788138644e-05
2.17725653539e-05
2.17563978093e-05
2.17088119642e-05
2.16054906239e-05
2.71724955097e-05
0.000204892881054
0.0103282475525
2.17299019261e-05
2.17823141447e-05
2.17856490969e-05
2.17870910743e-05
2.17891971142e-05
2.1790520356e-05
2.17906357673e-05
2.17901052954e-05
2.17890141967e-05
2.17876010341e-05
2.17858456013e-05
2.17835869078e-05
2.17806293259e-05
2.17753315586e-05
2.17617922792e-05
2.1716053615e-05
2.16297810915e-05
2.68952738117e-05
0.000192601626158
0.0103177500165
2.19477773165e-05
2.18596214366e-05
2.18209499681e-05
2.18097376902e-05
2.18030395154e-05
2.17992370303e-05
2.17965642019e-05
2.17942694474e-05
2.17920404026e-05
2.17895187139e-05
2.17868215529e-05
2.17838104025e-05
2.17791850903e-05
2.17693594093e-05
2.17525267739e-05
2.16722191981e-05
2.15662295617e-05
2.65647280869e-05
0.000182058099203
0.0102682009492
2.21348209879e-05
2.18948264305e-05
2.18396710088e-05
2.1823226554e-05
2.18128083245e-05
2.1806158738e-05
2.18016573853e-05
2.17982253203e-05
2.17952085711e-05
2.17917511773e-05
2.1787740221e-05
2.17828933208e-05
2.17758781083e-05
2.17588171415e-05
2.17443532087e-05
2.16369513356e-05
2.15131923861e-05
2.6290197698e-05
0.000176444721882
0.00980831291732
2.20907661403e-05
2.18908023107e-05
2.18430771583e-05
2.18282110195e-05
2.18183416112e-05
2.18111890808e-05
2.18061009147e-05
2.18022157627e-05
2.1798830302e-05
2.17950607826e-05
2.17902111674e-05
2.17832267333e-05
2.17729345572e-05
2.17483774924e-05
2.17383159516e-05
2.16138008758e-05
2.14220270951e-05
2.62476915269e-05
0.000181435100995
0.00980083467185
2.206553704e-05
2.18809711993e-05
2.18409013908e-05
2.18287756281e-05
2.18205674521e-05
2.18140923456e-05
2.18090509393e-05
2.18047576615e-05
2.1801052588e-05
2.17972200426e-05
2.17925271778e-05
2.17849147345e-05
2.17729070679e-05
2.17408137745e-05
2.17474450653e-05
2.15911781777e-05
2.12871244402e-05
2.62923626465e-05
0.00019457651724
0.00981376803778
2.2051052873e-05
2.18716583947e-05
2.18364280165e-05
2.18270754256e-05
2.18204952775e-05
2.18150926881e-05
2.18109646194e-05
2.18071220408e-05
2.18036132237e-05
2.18001837443e-05
2.17962401555e-05
2.17894742223e-05
2.17779014908e-05
2.17497539438e-05
2.17683871038e-05
2.15763070073e-05
2.12239463385e-05
2.67008562148e-05
0.000215617034674
0.0104064628889
2.20409255961e-05
2.18640758236e-05
2.18309997945e-05
2.18238609655e-05
2.18188231995e-05
2.18144289907e-05
2.18110732915e-05
2.18083135489e-05
2.18055675163e-05
2.18030423602e-05
2.18005215567e-05
2.17954593916e-05
2.17838606391e-05
2.17742879607e-05
2.18004749109e-05
2.15764941774e-05
2.12065084224e-05
2.73481069376e-05
0.000241859117075
0.0102439986599
2.20328869469e-05
2.18585661493e-05
2.18268316197e-05
2.18205864236e-05
2.18167760886e-05
2.1813290054e-05
2.18102487016e-05
2.18083643679e-05
2.1806354202e-05
2.1804741854e-05
2.18035611689e-05
2.17994384036e-05
2.17828046949e-05
2.1798114521e-05
2.18204441401e-05
2.15555565145e-05
2.11671592127e-05
2.78031056596e-05
0.000274599759612
0.0105530971005
2.20277077529e-05
2.18547173483e-05
2.18238066178e-05
2.18179485382e-05
2.18148346304e-05
2.18121132535e-05
2.18099532323e-05
2.18078303728e-05
2.18061324337e-05
2.18048020559e-05
2.1803868636e-05
2.17986744953e-05
2.17766126131e-05
2.17904265066e-05
2.17835078751e-05
2.14888171254e-05
2.09896368773e-05
2.78835047765e-05
0.000305295717159
0.0113063045248
2.20235372691e-05
2.18516291454e-05
2.18212651473e-05
2.18156926766e-05
2.1813376071e-05
2.18111722661e-05
2.18092437291e-05
2.18069105317e-05
2.18049183258e-05
2.18030596453e-05
2.18004804774e-05
2.17918168084e-05
2.1766239802e-05
2.1752193423e-05
2.17045492632e-05
2.13781022022e-05
2.10119334044e-05
2.80810905342e-05
0.000325492040986
0.0112967651604
2.20205914941e-05
2.18489509132e-05
2.18195109798e-05
2.18143437901e-05
2.18119861318e-05
2.18100000368e-05
2.18078257138e-05
2.18057605272e-05
2.18030576215e-05
2.17996927461e-05
2.17952422475e-05
2.17831048557e-05
2.17553343793e-05
2.17123786846e-05
2.16349109455e-05
2.12151277027e-05
2.11855890156e-05
2.86133240045e-05
0.000356680221152
0.0112537576451
2.20182113279e-05
2.18468776389e-05
2.18178800472e-05
2.18130020459e-05
2.18105268088e-05
2.18085435623e-05
2.18066542964e-05
2.18048232826e-05
2.18024124167e-05
2.17979334789e-05
2.1791222504e-05
2.17776623238e-05
2.17474597989e-05
2.16834835732e-05
2.1563509936e-05
2.12839099575e-05
2.11440042095e-05
2.88984609669e-05
0.00038286478837
0.0123930685275
2.20157091118e-05
2.18454216432e-05
2.18162172559e-05
2.18112398582e-05
2.18093292511e-05
2.18074892057e-05
2.18060648323e-05
2.18043461199e-05
2.18013136775e-05
2.17975155514e-05
2.17913052345e-05
2.17790866452e-05
2.1753644656e-05
2.17024554128e-05
2.15892806505e-05
2.13425839586e-05
2.11216721492e-05
2.89847606636e-05
0.000396872886205
0.0126726973179
2.20141878972e-05
2.18442540117e-05
2.18152825926e-05
2.18102004707e-05
2.18085578942e-05
2.18072362784e-05
2.18057276071e-05
2.18030274749e-05
2.18000253603e-05
2.1796667981e-05
2.17913501653e-05
2.17804174046e-05
2.17641952235e-05
2.17492193956e-05
2.1680767968e-05
2.14142350343e-05
2.12220635341e-05
2.91861649838e-05
0.000426868091376
0.0126338829222
2.20131156605e-05
2.18433787716e-05
2.18147953461e-05
2.18099234046e-05
2.18083082346e-05
2.18071263332e-05
2.18056014921e-05
2.18035127038e-05
2.18008490835e-05
2.17967850761e-05
2.17898202828e-05
2.17773548256e-05
2.17648345277e-05
2.17674929282e-05
2.17192367334e-05
2.15617990308e-05
2.12919399372e-05
2.94040451679e-05
0.000461078858928
0.0128109478708
2.20115725294e-05
2.18428173737e-05
2.18144799301e-05
2.18097779843e-05
2.18082897058e-05
2.18074748175e-05
2.18062934003e-05
2.18048253595e-05
2.18029370441e-05
2.17997733273e-05
2.17912655583e-05
2.17793860235e-05
2.17741582869e-05
2.1781081897e-05
2.17349669253e-05
2.15262144485e-05
2.12693712585e-05
2.94346412854e-05
0.000487543170771
0.0128443641459
2.20101620327e-05
2.18422518702e-05
2.1814224634e-05
2.1809716314e-05
2.18085474441e-05
2.18075102487e-05
2.18066255723e-05
2.18058324964e-05
2.18058139465e-05
2.18032240883e-05
2.17936310787e-05
2.17875761037e-05
2.1799061636e-05
2.18117876065e-05
2.17593731441e-05
2.15095969951e-05
2.11793999966e-05
2.93710179626e-05
0.000517641952993
0.0133999637896
2.2008653101e-05
2.18417869688e-05
2.18139953775e-05
2.18097807818e-05
2.18087955312e-05
2.18082535717e-05
2.18082871735e-05
2.18090350123e-05
2.18119901794e-05
2.18104827355e-05
2.17971950018e-05
2.1787270891e-05
2.18057938575e-05
2.18267932651e-05
2.17991690353e-05
2.14829599057e-05
2.10736111182e-05
2.9492984066e-05
0.00056906672866
0.0135274542853
2.20077666194e-05
2.18417667155e-05
2.18141906922e-05
2.18099391241e-05
2.18096248526e-05
2.1810243115e-05
2.18125508708e-05
2.18173792096e-05
2.18238203292e-05
2.182249436e-05
2.18005151157e-05
2.17620614671e-05
2.17717796285e-05
2.18142081748e-05
2.18641439654e-05
2.14706125311e-05
2.10063487932e-05
2.96730333822e-05
0.000618336720635
0.013544536088
2.2007599141e-05
2.18418823122e-05
2.18145685879e-05
2.18103176144e-05
2.18103910493e-05
2.18105767766e-05
2.18132842301e-05
2.18230556648e-05
2.18324630974e-05
2.18289425462e-05
2.17897080754e-05
2.1668706132e-05
2.15182218732e-05
2.1627528866e-05
2.1874127533e-05
2.14216938893e-05
2.09569447044e-05
2.9850054304e-05
0.000668506025618
0.0138190445057
2.20071392467e-05
2.18420266347e-05
2.18151298798e-05
2.18124397261e-05
2.18149819855e-05
2.18145819834e-05
2.18132131282e-05
2.18308887435e-05
2.18424348846e-05
2.1826732735e-05
2.17578349073e-05
2.15497605221e-05
2.1463245716e-05
2.15988891397e-05
2.17637343728e-05
2.13591759143e-05
2.09082963618e-05
3.00870909603e-05
0.000747748854907
0.0142177113976
2.20073112219e-05
2.18425393746e-05
2.18158020068e-05
2.18150734724e-05
2.18240784125e-05
2.18306070619e-05
2.1827387644e-05
2.18330449541e-05
2.18224934552e-05
2.18154898037e-05
2.17112466144e-05
2.13676136255e-05
2.14947516196e-05
2.16384221323e-05
2.17156413066e-05
2.13041902103e-05
2.08647901695e-05
3.04774119938e-05
0.00086471326325
0.01459465669
2.20079182017e-05
2.18430570667e-05
2.18158577109e-05
2.18136610714e-05
2.18243805487e-05
2.18358582195e-05
2.18151744351e-05
2.17913757208e-05
2.1796535254e-05
2.18782268411e-05
2.18662347414e-05
2.13407652534e-05
2.11910165274e-05
2.1448395053e-05
2.16555064893e-05
2.12451354546e-05
2.08328233243e-05
3.09710170479e-05
0.000973608529945
0.0148602848356
2.20085668204e-05
2.18438486419e-05
2.18174436063e-05
2.18154639532e-05
2.18221955011e-05
2.18269772765e-05
2.1752123938e-05
2.15718129689e-05
2.15784450625e-05
2.17991560825e-05
2.19485993818e-05
2.14848503027e-05
2.08460487375e-05
2.14984691734e-05
2.15384434746e-05
2.11822077504e-05
2.12043686922e-05
3.23849918822e-05
0.00101337457025
0.0146335563734
2.20094560772e-05
2.18431102749e-05
2.1811221714e-05
2.18074681021e-05
2.18172283719e-05
2.18197793632e-05
2.17739732894e-05
2.18939535484e-05
2.15121577738e-05
2.16315192632e-05
2.14277022509e-05
2.11151027594e-05
2.12470885107e-05
3.30457333795e-05
0.000945327385598
0.0149081312316
2.20101283563e-05
2.18437251377e-05
2.18074025315e-05
2.17673648588e-05
2.1785466905e-05
2.18404742584e-05
2.1845198112e-05
2.19957515253e-05
2.18734600751e-05
2.14997628698e-05
2.13063350103e-05
2.10479857791e-05
2.11847674564e-05
3.3267665497e-05
0.000810085400555
0.0143681914042
2.20101475475e-05
2.18437517327e-05
2.18073769083e-05
2.17673836504e-05
2.17852358114e-05
2.18399881704e-05
2.18447121137e-05
2.19959677912e-05
2.1870342131e-05
2.1449162898e-05
2.1112108274e-05
2.12456270868e-05
2.11276216753e-05
3.25889760176e-05
0.000873860943842
0.0127934839708
2.20095535712e-05
2.18432288874e-05
2.18114310216e-05
2.18075037075e-05
2.18173434513e-05
2.18188592308e-05
2.177270345e-05
2.18941852407e-05
2.15122050315e-05
2.16205937912e-05
2.1395887816e-05
2.11137055675e-05
2.12591608435e-05
3.30454042229e-05
0.000769826274559
0.0141823884791
2.2008641544e-05
2.18439257711e-05
2.18175142781e-05
2.18156302583e-05
2.18226362388e-05
2.18268221584e-05
2.17522791982e-05
2.15720947996e-05
2.15786651435e-05
2.18072722983e-05
2.19573129531e-05
2.14875026526e-05
2.08495166182e-05
2.15010784144e-05
2.15253318974e-05
2.11849737961e-05
2.12748744238e-05
3.26089067708e-05
0.000844377758465
0.0146746878484
2.20077987411e-05
2.18429858998e-05
2.18158083448e-05
2.18136047841e-05
2.18245954512e-05
2.18359909698e-05
2.18144520448e-05
2.17901305264e-05
2.17962623231e-05
2.18765579635e-05
2.18651309306e-05
2.13438113612e-05
2.12018231845e-05
2.1459155438e-05
2.16297561355e-05
2.12289623392e-05
2.11357560725e-05
3.18796474274e-05
0.000862745002049
0.0146577404656
2.20072489453e-05
2.18424440017e-05
2.18157127628e-05
2.18149123417e-05
2.18240539233e-05
2.18302522313e-05
2.18267356259e-05
2.18326864191e-05
2.18222154786e-05
2.18136142493e-05
2.17077976495e-05
2.13666745324e-05
2.15129012568e-05
2.16665911327e-05
2.16837632293e-05
2.12786147791e-05
2.08607101567e-05
3.07790750131e-05
0.00082231775091
0.0144351481213
2.20070606577e-05
2.18418932348e-05
2.18149460292e-05
2.18123256056e-05
2.18148960532e-05
2.18145576831e-05
2.18129458888e-05
2.18306941934e-05
2.18418851518e-05
2.18249862792e-05
2.17532837474e-05
2.15348388135e-05
2.14499039517e-05
2.15786811511e-05
2.17442196369e-05
2.13333863606e-05
2.08797080116e-05
3.04494475252e-05
0.00082229451338
0.0141657739496
2.20073689263e-05
2.18417596461e-05
2.18143545457e-05
2.18102922809e-05
2.18103233904e-05
2.18104065089e-05
2.18127326109e-05
2.18223390994e-05
2.18317168338e-05
2.18280037817e-05
2.17865998836e-05
2.16599725149e-05
2.15075927675e-05
2.16006393255e-05
2.18723362299e-05
2.14004737044e-05
2.09186190457e-05
3.01067671716e-05
0.000762289834972
0.0141134479966
2.20076423828e-05
2.18416556638e-05
2.18141678863e-05
2.18097959166e-05
2.18095066282e-05
2.18101279789e-05
2.18125108289e-05
2.18173700227e-05
2.18234630358e-05
2.18214716068e-05
2.17990029139e-05
2.17610511748e-05
2.17732065457e-05
2.18262447521e-05
2.18782351697e-05
2.14677527177e-05
2.0987121605e-05
2.97360198617e-05
0.000657167192464
0.0140920948601
2.20085079943e-05
2.18415764678e-05
2.18138738463e-05
2.18095525792e-05
2.18087837372e-05
2.18083928146e-05
2.18083101476e-05
2.1809549815e-05
2.18124936344e-05
2.18101655953e-05
2.17969771939e-05
2.17849007055e-05
2.18014635327e-05
2.18311734919e-05
2.18126675127e-05
2.14980212531e-05
2.10940507104e-05
2.95824189323e-05
0.000595625041738
0.0137397039199
2.20099595117e-05
2.18420576067e-05
2.18139527241e-05
2.1809462384e-05
2.18081605761e-05
2.18072481232e-05
2.18064897128e-05
2.18058001661e-05
2.18058524277e-05
2.18029510949e-05
2.1793738533e-05
2.17870634076e-05
2.17951791439e-05
2.18059498532e-05
2.17440602335e-05
2.14716771639e-05
2.13980941237e-05
3.0016623494e-05
0.000546702556332
0.013523372322
2.20113545171e-05
2.18426071101e-05
2.18141927659e-05
2.18095268554e-05
2.18079524583e-05
2.18067201134e-05
2.18057667896e-05
2.18044428984e-05
2.18028651103e-05
2.17997395351e-05
2.1791707675e-05
2.17820485683e-05
2.17775457724e-05
2.17762126287e-05
2.16834463468e-05
2.14236460017e-05
2.14000700225e-05
2.98521364051e-05
0.0004956729513
0.0122929355544
2.20127945652e-05
2.18430468451e-05
2.18144597568e-05
2.18095973833e-05
2.18080401246e-05
2.18068490458e-05
2.18052467263e-05
2.18032022402e-05
2.18008334944e-05
2.17971790472e-05
2.17906442329e-05
2.1779900027e-05
2.17722221768e-05
2.17775617595e-05
2.16927470259e-05
2.14918755439e-05
2.14216101112e-05
2.95821448868e-05
0.00045254707695
0.0122371940122
2.2013958021e-05
2.18439202682e-05
2.18149228532e-05
2.18098621901e-05
2.18082355379e-05
2.18070169013e-05
2.18056866731e-05
2.18031821518e-05
2.18000572652e-05
2.17966430901e-05
2.17909388854e-05
2.17791702288e-05
2.17655719247e-05
2.17552335609e-05
2.16696637708e-05
2.12821564441e-05
2.10626072719e-05
2.91956231169e-05
0.000435364469112
0.0112545190763
2.20155712926e-05
2.1845151409e-05
2.18157533359e-05
2.18106212647e-05
2.1808628538e-05
2.18069619221e-05
2.18057053349e-05
2.1804089154e-05
2.18012483833e-05
2.17975426461e-05
2.17906682647e-05
2.17776394905e-05
2.17518723107e-05
2.16919859724e-05
2.15544735603e-05
2.11673481872e-05
2.09192933367e-05
2.92134861399e-05
0.000415207922539
0.0119802307198
2.20182791086e-05
2.18468233556e-05
2.1817541841e-05
2.18123976978e-05
2.18098866678e-05
2.18078155628e-05
2.18057340013e-05
2.18041863955e-05
2.18020243403e-05
2.17981699354e-05
2.17918695777e-05
2.17778484414e-05
2.17461075636e-05
2.16800260873e-05
2.15568429219e-05
2.11880358531e-05
2.11144332273e-05
2.86630309372e-05
0.000375300606827
0.0124251997297
2.20208914539e-05
2.18491472262e-05
2.18196207865e-05
2.18142900213e-05
2.18117047911e-05
2.18093168126e-05
2.18072228678e-05
2.18053127316e-05
2.1802498296e-05
2.17991578431e-05
2.17954552423e-05
2.1784458826e-05
2.17570568836e-05
2.17140868264e-05
2.16295803285e-05
2.11445743339e-05
2.10285881499e-05
2.8194151745e-05
0.000350250169964
0.0120541200238
2.20237957074e-05
2.18518707425e-05
2.18214808226e-05
2.18158558252e-05
2.18133444176e-05
2.18110789283e-05
2.18092612902e-05
2.18063865865e-05
2.18040896291e-05
2.18019132387e-05
2.17989669665e-05
2.17909262396e-05
2.17679311503e-05
2.17539828642e-05
2.17043069413e-05
2.13613636688e-05
2.09089406391e-05
2.79044082769e-05
0.000323096722952
0.0114316975779
2.20278015612e-05
2.18548607158e-05
2.1823930719e-05
2.18180388555e-05
2.18148888137e-05
2.1812255677e-05
2.18096761701e-05
2.18070989427e-05
2.18055064557e-05
2.18036582193e-05
2.1801948502e-05
2.17961875682e-05
2.17753954165e-05
2.17893535221e-05
2.17845055375e-05
2.1494066328e-05
2.10724617995e-05
2.7738870582e-05
0.000297795241558
0.0110964334872
2.2032932359e-05
2.18586559563e-05
2.18269876768e-05
2.18207234772e-05
2.18168540877e-05
2.18131934665e-05
2.18098418678e-05
2.18080690757e-05
2.18056445386e-05
2.18037430903e-05
2.18024781064e-05
2.17977955374e-05
2.17816742967e-05
2.17981127495e-05
2.18212196155e-05
2.15534934919e-05
2.11519349493e-05
2.75524364844e-05
0.000267869475296
0.010716671236
2.20410010316e-05
2.18641286961e-05
2.18311745209e-05
2.18240113077e-05
2.18189285698e-05
2.18144893744e-05
2.18111676159e-05
2.18081890704e-05
2.18048941438e-05
2.18029385446e-05
2.18003431702e-05
2.17955126547e-05
2.17844907265e-05
2.17791531382e-05
2.18035556183e-05
2.15704480244e-05
2.11888563074e-05
2.70672526111e-05
0.000236304749891
0.0104970280283
2.20510412595e-05
2.18717270735e-05
2.18366181436e-05
2.18272017666e-05
2.18205887403e-05
2.18152140985e-05
2.18111081779e-05
2.18069730402e-05
2.18037557614e-05
2.18005472839e-05
2.17965961346e-05
2.17906773132e-05
2.17797329069e-05
2.17522913614e-05
2.17722509916e-05
2.15814801819e-05
2.12534985039e-05
2.66930768172e-05
0.000209622589361
0.010372259684
2.20654827418e-05
2.18811754065e-05
2.18410966303e-05
2.18289171036e-05
2.18206730453e-05
2.1814212274e-05
2.18091527888e-05
2.18050771222e-05
2.18018031298e-05
2.1797762667e-05
2.17931214767e-05
2.17859071994e-05
2.17748017162e-05
2.17437463613e-05
2.1751177032e-05
2.1603158324e-05
2.1339165462e-05
2.65275568068e-05
0.000194538515487
0.0100712086732
2.2091067135e-05
2.18908914849e-05
2.18431051729e-05
2.1828326456e-05
2.18184997456e-05
2.18114035831e-05
2.1806343384e-05
2.18025088408e-05
2.17988627639e-05
2.17950110092e-05
2.17902136982e-05
2.17835551345e-05
2.17737848295e-05
2.17499782466e-05
2.17391428121e-05
2.16119030321e-05
2.14478952719e-05
2.63460517056e-05
0.000180602784347
0.00983753434903
2.21355459958e-05
2.18941754821e-05
2.18392370689e-05
2.18231699747e-05
2.18130372124e-05
2.18066213059e-05
2.18022539907e-05
2.17987782369e-05
2.17954604867e-05
2.17920148084e-05
2.17881166254e-05
2.17832029651e-05
2.17758656629e-05
2.17577607969e-05
2.17390044307e-05
2.16301336442e-05
2.14986780184e-05
2.62683305778e-05
0.000175925737116
0.00989614374142
2.19406314686e-05
2.18601685391e-05
2.18215832953e-05
2.18102213128e-05
2.18033396005e-05
2.17993255416e-05
2.17964702925e-05
2.17940552495e-05
2.1791729475e-05
2.17891990051e-05
2.17864101359e-05
2.17830773369e-05
2.17781316326e-05
2.17688719601e-05
2.17505906789e-05
2.16743952353e-05
2.15589047129e-05
2.64246395499e-05
0.000180474332071
0.010136826931
2.17239289742e-05
2.17832622678e-05
2.17866129343e-05
2.17876797817e-05
2.17893323807e-05
2.17902166221e-05
2.179006808e-05
2.17894303809e-05
2.17884818329e-05
2.17872470516e-05
2.17856785371e-05
2.17838103709e-05
2.17811867227e-05
2.17753993006e-05
2.17620423962e-05
2.17152363067e-05
2.15837158283e-05
2.66199618954e-05
0.000187464184523
0.0103463607332
2.17924494399e-05
2.17397362707e-05
2.17572379867e-05
2.17671319011e-05
2.17762670913e-05
2.17816018248e-05
2.17841159561e-05
2.17850854203e-05
2.17851846737e-05
2.17850097938e-05
2.17844853322e-05
2.17831600467e-05
2.17807813293e-05
2.17738703748e-05
2.17584999305e-05
2.17131706893e-05
2.16276380217e-05
2.71850561951e-05
0.000204733018433
0.0101182049269
2.1884700232e-05
2.17491717509e-05
2.17520764626e-05
2.17610657783e-05
2.17693459729e-05
2.17759050684e-05
2.17794864154e-05
2.1781382934e-05
2.1782202525e-05
2.17820929414e-05
2.17816419191e-05
2.17800591378e-05
2.17764682824e-05
2.17694140902e-05
2.17474175875e-05
2.16965440553e-05
2.16544973461e-05
2.76913469272e-05
0.000225733670845
0.0117317529328
2.19218624683e-05
2.17666527971e-05
2.17568855689e-05
2.17609244206e-05
2.17670210825e-05
2.17731156542e-05
2.17769971695e-05
2.17791802692e-05
2.17802360819e-05
2.17803254001e-05
2.1779768556e-05
2.17783085372e-05
2.17729810855e-05
2.17621114745e-05
2.17363369197e-05
2.16634274123e-05
2.15158467871e-05
2.79218377263e-05
0.00022962251704
0.0113736026053
2.19408664633e-05
2.17800620814e-05
2.17643109149e-05
2.1764091569e-05
2.17677031512e-05
2.17725139137e-05
2.17761000778e-05
2.17782346813e-05
2.17794147774e-05
2.17804565579e-05
2.1779433226e-05
2.17768719399e-05
2.17724656465e-05
2.17573693398e-05
2.17211464256e-05
2.16478149632e-05
2.14741707394e-05
2.85839844733e-05
0.000279798779561
0.0120445898246
2.19540350382e-05
2.17901705002e-05
2.17718558519e-05
2.17688419469e-05
2.17703809552e-05
2.1773520604e-05
2.17762888979e-05
2.17782600172e-05
2.17794094563e-05
2.17797755556e-05
2.17795392746e-05
2.17781234942e-05
2.17720058759e-05
2.17558208538e-05
2.17137588525e-05
2.16568746954e-05
2.1537711902e-05
2.98477817097e-05
0.000359165095991
0.0115018494136
2.19621809591e-05
2.17975817481e-05
2.17784275906e-05
2.17739217896e-05
2.1773893624e-05
2.1775705963e-05
2.1777432283e-05
2.17785776776e-05
2.17792375712e-05
2.17787435911e-05
2.17792373235e-05
2.17776297174e-05
2.17700910162e-05
2.17561909894e-05
2.17118729913e-05
2.16579381005e-05
2.15430814982e-05
3.11736204175e-05
0.000447970450375
0.0113710344485
2.19678855805e-05
2.18025745901e-05
2.1783806779e-05
2.17785505179e-05
2.17776022997e-05
2.17785676431e-05
2.17799060002e-05
2.17800668711e-05
2.17798598298e-05
2.17794840772e-05
2.17778623314e-05
2.17750948603e-05
2.17677239526e-05
2.17499566123e-05