/*--------------------------------*- C++ -*----------------------------------*\
| =========                 |                                                 |
| \\      /  F ield         | OpenFOAM: The Open Source CFD Toolbox           |
|  \\    /   O peration     | Version:  v2012                                 |
|   \\  /    A nd           | Website:  www.openfoam.com                      |
|    \\/     M anipulation  |                                                 |
\*---------------------------------------------------------------------------*/
FoamFile
{
    version     2.0;
    format      ascii;
    class       volScalarField;
    location    "1.3";
    object      k_0;
}
// * * * * * * * * * * * * * * * * * * * * * * * * * * * * * * * * * * * * * //

dimensions      [0 2 -2 0 0 0 0];


internalField   nonuniform List<scalar> 
167
(
0.0111979400212
0.011246500814
0.0113005130676
0.0113770017786
0.0115403555263
0.0119910626388
0.0132276841447
0.0162163494436
0.0224362588906
0.0339078490339
0.0530913040429
0.0798252973915
0.0136475292548
0.0136929520947
0.0137461751231
0.0138321710127
0.0140396217241
0.0146266053621
0.0161841557678
0.0197086051223
0.0263170083876
0.0368131895937
0.0524294270334
0.0791112309259
0.0144102163902
0.014457102988
0.0145126382652
0.014603038322
0.0148195764461
0.0154232032555
0.01700350395
0.0205512865344
0.0272280393889
0.0380559946338
0.0544006900281
0.0802933709152
0.0147208917723
0.0147772402629
0.0148686729289
0.0150856794196
0.0156862843842
0.017253317121
0.020772345672
0.0274211548207
0.0382671692345
0.0547443048559
0.0804573361688
0.0148708596276
0.0149614389523
0.0151756293375
0.015767473453
0.0173130865782
0.0207939879597
0.0274005243233
0.0382359917468
0.0547639986693
0.0804884614894
0.0149103158666
0.0149990509592
0.0152088232645
0.0157891416381
0.0173089389508
0.0207455194512
0.0272993626794
0.0380979873501
0.0546174642803
0.0804220895523
0.0149346579326
0.0150210035981
0.015225417381
0.01579234079
0.0172825926713
0.0206676006257
0.0271542532812
0.0378905089836
0.05437979573
0.0803139930046
0.0149559734058
0.0150396236518
0.0152380036393
0.0157899135814
0.0172469716085
0.0205728984365
0.0269779730094
0.037630604142
0.0540874181624
0.0801877065738
0.014977658145
0.0150584255779
0.0152502037111
0.0157854997969
0.0172054513253
0.0204642475094
0.026773901684
0.0373217525219
0.0537254135993
0.0800249927731
0.0150004841254
0.0150782448272
0.015262903788
0.0157799490371
0.0171585642124
0.0203414109651
0.0265405834448
0.0369592661878
0.0532520602792
0.0797952959503
0.0150244812039
0.0150991567971
0.0152762424003
0.0157735023048
0.0171067373172
0.0202050927536
0.0262789929314
0.0365424022327
0.0526615205835
0.0794988617145
0.0150494876778
0.0151210331325
0.0152901374558
0.0157661021557
0.0170497540939
0.0200545446122
0.0259887904158
0.0360879505246
0.0520768767025
0.0792366002669
0.0150753036421
0.0151437068672
0.0153044927579
0.0157578081212
0.016987972683
0.0198904268815
0.0256690978813
0.0355728792068
0.0512983906966
0.0788343807898
0.0151017333588
0.0151670123513
0.0153192189647
0.0157487012944
0.0169217600123
0.0197133803839
0.0253213982751
0.0350123606011
0.0503671026927
0.0783764911443
0.0151285956501
0.0151907989014
0.0153342410973
0.0157388622857
0.0168513855958
0.0195236950553
0.0249456862429
0.0344154764733
0.0495479624467
0.078087318743
0.0151557483575
0.0152149530621
0.01534953817
0.0157284921419
0.0167774658007
0.0193224623561
0.0245427130979
0.0337747460892
0.0490311076827
0.0779406515897
)
;

boundaryField
{
    back
    {
        type            kqRWallFunction;
        value           nonuniform List<scalar> 
167
(
0.0111979400212
0.011246500814
0.0113005130676
0.0113770017786
0.0115403555263
0.0119910626388
0.0132276841447
0.0162163494436
0.0224362588906
0.0339078490339
0.0530913040429
0.0798252973915
0.0136475292548
0.0136929520947
0.0137461751231
0.0138321710127
0.0140396217241
0.0146266053621
0.0161841557678
0.0197086051223
0.0263170083876
0.0368131895937
0.0524294270334
0.0791112309259
0.0144102163902
0.014457102988
0.0145126382652
0.014603038322
0.0148195764461
0.0154232032555
0.01700350395
0.0205512865344
0.0272280393889
0.0380559946338
0.0544006900281
0.0802933709152
0.0147208917723
0.0147772402629
0.0148686729289
0.0150856794196
0.0156862843842
0.017253317121
0.020772345672
0.0274211548207
0.0382671692345
0.0547443048559
0.0804573361688
0.0148708596276
0.0149614389523
0.0151756293375
0.015767473453
0.0173130865782
0.0207939879597
0.0274005243233
0.0382359917468
0.0547639986693
0.0804884614894
0.0149103158666
0.0149990509592
0.0152088232645
0.0157891416381
0.0173089389508
0.0207455194512
0.0272993626794
0.0380979873501
0.0546174642803
0.0804220895523
0.0149346579326
0.0150210035981
0.015225417381
0.01579234079
0.0172825926713
0.0206676006257
0.0271542532812
0.0378905089836
0.05437979573
0.0803139930046
0.0149559734058
0.0150396236518
0.0152380036393
0.0157899135814
0.0172469716085
0.0205728984365
0.0269779730094
0.037630604142
0.0540874181624
0.0801877065738
0.014977658145
0.0150584255779
0.0152502037111
0.0157854997969
0.0172054513253
0.0204642475094
0.026773901684
0.0373217525219
0.0537254135993
0.0800249927731
0.0150004841254
0.0150782448272
0.015262903788
0.0157799490371
0.0171585642124
0.0203414109651
0.0265405834448
0.0369592661878
0.0532520602792
0.0797952959503
0.0150244812039
0.0150991567971
0.0152762424003
0.0157735023048
0.0171067373172
0.0202050927536
0.0262789929314
0.0365424022327
0.0526615205835
0.0794988617145
0.0150494876778
0.0151210331325
0.0152901374558
0.0157661021557
0.0170497540939
0.0200545446122
0.0259887904158
0.0360879505246
0.0520768767025
0.0792366002669
0.0150753036421
0.0151437068672
0.0153044927579
0.0157578081212
0.016987972683
0.0198904268815
0.0256690978813
0.0355728792068
0.0512983906966
0.0788343807898
0.0151017333588
0.0151670123513
0.0153192189647
0.0157487012944
0.0169217600123
0.0197133803839
0.0253213982751
0.0350123606011
0.0503671026927
0.0783764911443
0.0151285956501
0.0151907989014
0.0153342410973
0.0157388622857
0.0168513855958
0.0195236950553
0.0249456862429
0.0344154764733
0.0495479624467
0.078087318743
0.0151557483575
0.0152149530621
0.01534953817
0.0157284921419
0.0167774658007
0.0193224623561
0.0245427130979
0.0337747460892
0.0490311076827
0.0779406515897
)
;
    }
    sides
    {
        type            kqRWallFunction;
        value           nonuniform List<scalar> 
12
(
0.0111979400212
0.011246500814
0.0113005130676
0.0113770017786
0.0115403555263
0.0119910626388
0.0132276841447
0.0162163494436
0.0224362588906
0.0339078490339
0.0530913040429
0.0798252973915
)
;
    }
    bottom
    {
        type            kqRWallFunction;
        value           nonuniform List<scalar> 0();
    }
    front
    {
        type            kqRWallFunction;
        value           nonuniform List<scalar> 
167
(
0.0111979400212
0.011246500814
0.0113005130676
0.0113770017786
0.0115403555263
0.0119910626388
0.0132276841447
0.0162163494436
0.0224362588906
0.0339078490339
0.0530913040429
0.0798252973915
0.0136475292548
0.0136929520947
0.0137461751231
0.0138321710127
0.0140396217241
0.0146266053621
0.0161841557678
0.0197086051223
0.0263170083876
0.0368131895937
0.0524294270334
0.0791112309259
0.0144102163902
0.014457102988
0.0145126382652
0.014603038322
0.0148195764461
0.0154232032555
0.01700350395
0.0205512865344
0.0272280393889
0.0380559946338
0.0544006900281
0.0802933709152
0.0147208917723
0.0147772402629
0.0148686729289
0.0150856794196
0.0156862843842
0.017253317121
0.020772345672
0.0274211548207
0.0382671692345
0.0547443048559
0.0804573361688
0.0148708596276
0.0149614389523
0.0151756293375
0.015767473453
0.0173130865782
0.0207939879597
0.0274005243233
0.0382359917468
0.0547639986693
0.0804884614894
0.0149103158666
0.0149990509592
0.0152088232645
0.0157891416381
0.0173089389508
0.0207455194512
0.0272993626794
0.0380979873501
0.0546174642803
0.0804220895523
0.0149346579326
0.0150210035981
0.015225417381
0.01579234079
0.0172825926713
0.0206676006257
0.0271542532812
0.0378905089836
0.05437979573
0.0803139930046
0.0149559734058
0.0150396236518
0.0152380036393
0.0157899135814
0.0172469716085
0.0205728984365
0.0269779730094
0.037630604142
0.0540874181624
0.0801877065738
0.014977658145
0.0150584255779
0.0152502037111
0.0157854997969
0.0172054513253
0.0204642475094
0.026773901684
0.0373217525219
0.0537254135993
0.0800249927731
0.0150004841254
0.0150782448272
0.015262903788
0.0157799490371
0.0171585642124
0.0203414109651
0.0265405834448
0.0369592661878
0.0532520602792
0.0797952959503
0.0150244812039
0.0150991567971
0.0152762424003
0.0157735023048
0.0171067373172
0.0202050927536
0.0262789929314
0.0365424022327
0.0526615205835
0.0794988617145
0.0150494876778
0.0151210331325
0.0152901374558
0.0157661021557
0.0170497540939
0.0200545446122
0.0259887904158
0.0360879505246
0.0520768767025
0.0792366002669
0.0150753036421
0.0151437068672
0.0153044927579
0.0157578081212
0.016987972683
0.0198904268815
0.0256690978813
0.0355728792068
0.0512983906966
0.0788343807898
0.0151017333588
0.0151670123513
0.0153192189647
0.0157487012944
0.0169217600123
0.0197133803839
0.0253213982751
0.0350123606011
0.0503671026927
0.0783764911443
0.0151285956501
0.0151907989014
0.0153342410973
0.0157388622857
0.0168513855958
0.0195236950553
0.0249456862429
0.0344154764733
0.0495479624467
0.078087318743
0.0151557483575
0.0152149530621
0.01534953817
0.0157284921419
0.0167774658007
0.0193224623561
0.0245427130979
0.0337747460892
0.0490311076827
0.0779406515897
)
;
    }
    atmosphere
    {
        type            inletOutlet;
        inletValue      uniform 0.1;
        value           uniform 0.1;
    }
    floatingObject
    {
        type            kqRWallFunction;
        value           nonuniform List<scalar> 0();
    }
    procBoundary1to0
    {
        type            processor;
        value           nonuniform List<scalar> 10(0.0151830497598 0.0152393754756 0.0153651104556 0.0157178752568 0.0167009024608 0.0191115172266 0.0241144891112 0.0330732828573 0.0482345050307 0.0776308511694);
    }
    procBoundary1to2
    {
        type            processor;
        value           nonuniform List<scalar> 
18
(
0.0111510085972
0.0136039587902
0.0143656516304
0.014673513516
0.014673513516
0.0148149760443
0.0148149760443
0.0148556385792
0.0148815964125
0.0149047067018
0.0149282461907
0.0149529239554
0.014978732457
0.0150054847606
0.0150329641551
0.015060960775
0.0150892852492
0.0151177761807
)
;
    }
}


// ************************************************************************* //
