/*--------------------------------*- C++ -*----------------------------------*\
| =========                 |                                                 |
| \\      /  F ield         | OpenFOAM: The Open Source CFD Toolbox           |
|  \\    /   O peration     | Version:  v2012                                 |
|   \\  /    A nd           | Website:  www.openfoam.com                      |
|    \\/     M anipulation  |                                                 |
\*---------------------------------------------------------------------------*/
FoamFile
{
    version     2.0;
    format      ascii;
    class       volScalarField;
    location    "5.2";
    object      p;
}
// * * * * * * * * * * * * * * * * * * * * * * * * * * * * * * * * * * * * * //

dimensions      [1 -1 -2 0 0 0 0];


internalField   nonuniform List<scalar> 
164
(
8411.8152181
7922.33595656
7432.98652389
6943.77281876
6454.7015412
5965.77931424
5477.01389791
4988.41412143
8411.52441945
7922.04308492
7432.68803925
6943.46562497
6454.38336456
5965.44842108
5476.66956615
4988.05668065
8411.10175094
7921.61655292
7432.25251713
6943.01635276
6453.91640301
5964.96056967
5476.15843582
4987.52153853
4499.06365825
4010.80298794
8410.55061109
7921.05969665
7431.68306279
6942.42769844
6453.30261333
5964.31648502
5475.47986662
4986.80597357
4498.31143371
4010.01727999
8409.87597634
7920.37760672
7430.98457226
6941.70420918
6452.54608685
5963.51941316
5474.63557924
4985.90902971
4497.35910868
4009.0108854
8409.08490636
7919.5770495
7430.1637465
6940.8524119
6451.6530801
5962.57512374
5473.63040504
4984.8341721
4496.20800697
4007.78117285
8408.18631293
7918.66683824
7429.22937359
6939.88117697
6450.63235774
5961.49220271
5472.47266632
4983.58932597
4494.86515181
4006.33138043
8407.19107219
7917.65791423
7428.19253303
6938.80170097
6449.49531692
5960.28229256
5471.17420652
4982.18632942
4493.3418596
4004.67161307
8406.11188688
7916.56336177
7427.06651028
6937.62755352
6448.25596743
5958.95994031
5469.7501644
4980.64089862
4491.65422786
4002.81904283
8404.96366143
7915.39823791
7425.86672058
6936.37466142
6446.93086805
5957.54246562
5468.21883723
4978.97266386
4489.82359368
4000.79723976
8403.76330212
7914.17963513
7424.61068409
6935.06118415
6445.53898595
5956.0499054
5466.60170697
4977.20508743
4487.87640403
3998.63625382
8402.52943697
7912.9264577
7423.31780706
6933.70729905
6444.10159627
5954.50497182
5464.92323713
4975.36462443
4485.84173323
3996.3697658
8401.28213257
7911.65907116
7422.00914919
6932.33508402
6442.64215695
5952.93273437
5463.21027698
4973.48023102
4483.75111839
3994.03313365
8400.04241623
7910.39891665
7420.70702578
6930.9681327
6441.18581196
5951.36018136
5461.49196024
4971.58345848
4481.63920645
3991.665452
8398.83169495
7909.16796083
7419.43440101
6929.630906
6439.75897357
5949.81606182
5459.79968167
4969.70867973
4479.54372951
3989.30809063
8397.67142754
7907.98821019
7418.21451415
6928.34852851
6438.38909573
5948.33082392
5458.16719537
4967.89262958
4477.50456599
3987.00299347
8396.58232496
7906.88106076
7417.07021321
6927.14575922
6437.10454152
5946.9359891
5456.629363
6435.93180974
)
;

boundaryField
{
    back
    {
        type            calculated;
        value           nonuniform List<scalar> 
164
(
8411.8152181
7922.33595656
7432.98652389
6943.77281876
6454.7015412
5965.77931424
5477.01389791
4988.41412143
8411.52441945
7922.04308492
7432.68803925
6943.46562497
6454.38336456
5965.44842108
5476.66956615
4988.05668065
8411.10175094
7921.61655292
7432.25251713
6943.01635276
6453.91640301
5964.96056967
5476.15843582
4987.52153853
4499.06365825
4010.80298794
8410.55061109
7921.05969665
7431.68306279
6942.42769844
6453.30261333
5964.31648502
5475.47986662
4986.80597357
4498.31143371
4010.01727999
8409.87597634
7920.37760672
7430.98457226
6941.70420918
6452.54608685
5963.51941316
5474.63557924
4985.90902971
4497.35910868
4009.0108854
8409.08490636
7919.5770495
7430.1637465
6940.8524119
6451.6530801
5962.57512374
5473.63040504
4984.8341721
4496.20800697
4007.78117285
8408.18631293
7918.66683824
7429.22937359
6939.88117697
6450.63235774
5961.49220271
5472.47266632
4983.58932597
4494.86515181
4006.33138043
8407.19107219
7917.65791423
7428.19253303
6938.80170097
6449.49531692
5960.28229256
5471.17420652
4982.18632942
4493.3418596
4004.67161307
8406.11188688
7916.56336177
7427.06651028
6937.62755352
6448.25596743
5958.95994031
5469.7501644
4980.64089862
4491.65422786
4002.81904283
8404.96366143
7915.39823791
7425.86672058
6936.37466142
6446.93086805
5957.54246562
5468.21883723
4978.97266386
4489.82359368
4000.79723976
8403.76330212
7914.17963513
7424.61068409
6935.06118415
6445.53898595
5956.0499054
5466.60170697
4977.20508743
4487.87640403
3998.63625382
8402.52943697
7912.9264577
7423.31780706
6933.70729905
6444.10159627
5954.50497182
5464.92323713
4975.36462443
4485.84173323
3996.3697658
8401.28213257
7911.65907116
7422.00914919
6932.33508402
6442.64215695
5952.93273437
5463.21027698
4973.48023102
4483.75111839
3994.03313365
8400.04241623
7910.39891665
7420.70702578
6930.9681327
6441.18581196
5951.36018136
5461.49196024
4971.58345848
4481.63920645
3991.665452
8398.83169495
7909.16796083
7419.43440101
6929.630906
6439.75897357
5949.81606182
5459.79968167
4969.70867973
4479.54372951
3989.30809063
8397.67142754
7907.98821019
7418.21451415
6928.34852851
6438.38909573
5948.33082392
5458.16719537
4967.89262958
4477.50456599
3987.00299347
8396.58232496
7906.88106076
7417.07021321
6927.14575922
6437.10454152
5946.9359891
5456.629363
6435.93180974
)
;
    }
    sides
    {
        type            calculated;
        value           nonuniform List<scalar> 0();
    }
    bottom
    {
        type            calculated;
        value           nonuniform List<scalar> 
17
(
8656.62431149
8656.33356874
8655.91100388
8655.35999283
8654.68548604
8653.894526
8652.99600947
8652.0007997
8650.92158987
8649.77328052
8648.57278165
8647.33873857
8646.09125224
8644.85137693
8643.64048996
8642.48006795
8641.39087384
)
;
    }
    front
    {
        type            calculated;
        value           nonuniform List<scalar> 
164
(
8411.8152181
7922.33595656
7432.98652389
6943.77281876
6454.7015412
5965.77931424
5477.01389791
4988.41412143
8411.52441945
7922.04308492
7432.68803925
6943.46562497
6454.38336456
5965.44842108
5476.66956615
4988.05668065
8411.10175094
7921.61655292
7432.25251713
6943.01635276
6453.91640301
5964.96056967
5476.15843582
4987.52153853
4499.06365825
4010.80298794
8410.55061109
7921.05969665
7431.68306279
6942.42769844
6453.30261333
5964.31648502
5475.47986662
4986.80597357
4498.31143371
4010.01727999
8409.87597634
7920.37760672
7430.98457226
6941.70420918
6452.54608685
5963.51941316
5474.63557924
4985.90902971
4497.35910868
4009.0108854
8409.08490636
7919.5770495
7430.1637465
6940.8524119
6451.6530801
5962.57512374
5473.63040504
4984.8341721
4496.20800697
4007.78117285
8408.18631293
7918.66683824
7429.22937359
6939.88117697
6450.63235774
5961.49220271
5472.47266632
4983.58932597
4494.86515181
4006.33138043
8407.19107219
7917.65791423
7428.19253303
6938.80170097
6449.49531692
5960.28229256
5471.17420652
4982.18632942
4493.3418596
4004.67161307
8406.11188688
7916.56336177
7427.06651028
6937.62755352
6448.25596743
5958.95994031
5469.7501644
4980.64089862
4491.65422786
4002.81904283
8404.96366143
7915.39823791
7425.86672058
6936.37466142
6446.93086805
5957.54246562
5468.21883723
4978.97266386
4489.82359368
4000.79723976
8403.76330212
7914.17963513
7424.61068409
6935.06118415
6445.53898595
5956.0499054
5466.60170697
4977.20508743
4487.87640403
3998.63625382
8402.52943697
7912.9264577
7423.31780706
6933.70729905
6444.10159627
5954.50497182
5464.92323713
4975.36462443
4485.84173323
3996.3697658
8401.28213257
7911.65907116
7422.00914919
6932.33508402
6442.64215695
5952.93273437
5463.21027698
4973.48023102
4483.75111839
3994.03313365
8400.04241623
7910.39891665
7420.70702578
6930.9681327
6441.18581196
5951.36018136
5461.49196024
4971.58345848
4481.63920645
3991.665452
8398.83169495
7909.16796083
7419.43440101
6929.630906
6439.75897357
5949.81606182
5459.79968167
4969.70867973
4479.54372951
3989.30809063
8397.67142754
7907.98821019
7418.21451415
6928.34852851
6438.38909573
5948.33082392
5458.16719537
4967.89262958
4477.50456599
3987.00299347
8396.58232496
7906.88106076
7417.07021321
6927.14575922
6437.10454152
5946.9359891
5456.629363
6435.93180974
)
;
    }
    atmosphere
    {
        type            calculated;
        value           nonuniform List<scalar> 0();
    }
    floatingObject
    {
        type            calculated;
        value           nonuniform List<scalar> 0();
    }
    procBoundary4to0
    {
        type            processor;
        value           nonuniform List<scalar> 8(8411.9724453 7922.49380093 7433.14716275 6943.93798154 6454.87217176 5965.95571879 5477.19556212 4988.59939498);
    }
    procBoundary4to3
    {
        type            processor;
        value           nonuniform List<scalar> 
13
(
4966.17424553
4475.56252105
3984.7943895
8395.58320155
7905.86603301
7416.02241437
6926.04703655
5945.66355739
4966.17424553
5455.22335308
6926.04703655
5945.66355739
6434.89821945
)
;
    }
    procBoundary4to5
    {
        type            processor;
        value           nonuniform List<scalar> 
18
(
4499.98883507
4499.62142553
4499.62142553
4011.37619269
3522.75174936
3521.945041
3520.89185578
3519.58526384
3518.02254313
3516.21076399
3514.16811032
3511.92277478
3509.50912833
3506.96705281
3504.33952034
3501.67083021
3499.00594938
3496.39148698
)
;
    }
}


// ************************************************************************* //
