/*--------------------------------*- C++ -*----------------------------------*\
| =========                 |                                                 |
| \\      /  F ield         | OpenFOAM: The Open Source CFD Toolbox           |
|  \\    /   O peration     | Version:  v2012                                 |
|   \\  /    A nd           | Website:  www.openfoam.com                      |
|    \\/     M anipulation  |                                                 |
\*---------------------------------------------------------------------------*/
FoamFile
{
    version     2.0;
    format      ascii;
    class       surfaceScalarField;
    location    "5.2";
    object      phi;
}
// * * * * * * * * * * * * * * * * * * * * * * * * * * * * * * * * * * * * * //

dimensions      [0 3 -1 0 0 0 0];
oriented        oriented;


internalField   nonuniform List<scalar> 
300
(
4.56483114473e-06
0.000224837904962
9.03728015355e-06
0.000230635693762
1.3466915409e-05
0.000236839590502
1.79506736142e-05
0.00024231953856
2.25494445104e-05
0.000247127264781
2.74009229627e-05
0.000252004436114
3.25015918148e-05
0.00025751961966
0.00026392978623
5.43789218768e-06
0.000219400955075
1.07737454455e-05
0.000225300570951
1.6077304417e-05
0.000231536251223
2.14433240177e-05
0.000236952999267
2.69625413686e-05
0.000241606722263
3.27029032848e-05
0.000246261821417
3.87412444163e-05
0.00025147857096
0.000257518240836
6.23816355551e-06
0.000213163551282
1.23919736234e-05
0.000219147259142
1.85282615918e-05
0.000225399893946
2.47451723581e-05
0.000230735243638
3.11342982381e-05
0.00023521595934
3.77757075837e-05
0.000239618122289
4.47555733917e-05
0.000244496051921
5.21584485178e-05
0.000250113091745
6.00662276062e-05
0.000256601772687
0.000264071895579
6.98487882864e-06
0.000206179272848
1.38941849277e-05
0.000212238233619
2.08081323279e-05
0.000218485588534
2.78297077402e-05
0.000223712482182
3.50395027578e-05
0.000228004185427
4.25280939495e-05
0.000232127025497
5.03814967471e-05
0.000236640053332
5.86786715408e-05
0.000241814134167
6.7517690452e-05
0.000247762838718
0.000254540301112
7.66366402051e-06
0.000198516070969
1.52852115245e-05
0.000204616782312
2.29309209217e-05
0.000210839276437
3.06723257168e-05
0.000215969601029
3.86328236726e-05
0.000220041416412
4.68961606142e-05
0.000223860965493
5.55494551747e-05
0.000227984143756
6.46991097343e-05
0.000232662950503
7.44617698918e-05
0.000238000669726
0.0002440457672
8.26886301488e-06
0.000190247568684
1.65228325288e-05
0.000196362780221
2.48129642846e-05
0.000202548373584
3.32421878743e-05
0.00020753870584
4.18915519746e-05
0.000211389591776
5.08504977841e-05
0.000214899160292
6.02098362743e-05
0.000218622175596
7.00779698298e-05
0.000222793428412
8.05760884328e-05
0.00022750323395
0.000232747848827
8.80191793674e-06
0.000181445966904
1.76389773245e-05
0.000187525634508
2.65376630548e-05
0.000193648845877
3.55781214274e-05
0.000198496500529
4.48380678178e-05
0.000202127127731
5.43979233725e-05
0.000205336430416
6.43416438806e-05
0.000208675876126
7.47581652865e-05
0.000212375612413
8.57828646798e-05
0.000216479243822
0.000220963271285
9.31896938948e-06
0.00017212733809
1.86602365776e-05
0.000178184311194
2.80951256394e-05
0.000184213149637
3.76840854872e-05
0.000188905846899
4.74820585308e-05
0.000192326722748
5.7556545756e-05
0.000195259192025
6.79707945781e-05
0.000198259199155
7.87986979458e-05
0.000201546522563
9.01140480238e-05
0.000205164582443
0.000209020243757
9.77716443436e-06
0.000162350603644
1.95840035808e-05
0.000168377521505
2.95010422598e-05
0.0001742954339
3.95796596745e-05
0.000178825706734
4.98572362695e-05
0.000182046933406
6.03827780622e-05
0.000184731156232
7.11769096758e-05
0.000187462902228
8.23193425813e-05
0.000190403084629
9.38243844459e-05
0.000193660293054
0.000197130286767
1.01706805602e-05
0.000152180484199
2.04076319489e-05
0.00015814077221
3.07661706666e-05
0.000163936412926
4.12842992255e-05
0.000168306312647
5.1997133024e-05
0.000171332208421
6.29086523655e-05
0.000173817506933
7.40984811809e-05
0.000176271268322
8.55220464668e-05
0.000178978799172
9.71970493206e-05
0.000181986254173
0.000185255086076
1.05099995191e-05
0.000141671179768
2.11252352979e-05
0.000147525896687
3.18897104526e-05
0.000153171671644
4.28103808212e-05
0.000157384675428
5.39261444346e-05
0.000160214933018
6.52563747851e-05
0.000162485575443
7.67846824872e-05
0.000164741576534
8.85149120581e-05
0.000167248215228
0.000100416264119
0.000170086171722
0.000173288376585
1.08019205285e-05
0.000130870049467
2.17416683451e-05
0.000136586634042
3.28656716003e-05
0.000142047602661
4.41884048635e-05
0.000146061279083
5.56934084921e-05
0.000148708818555
6.73983527335e-05
0.000150779385858
7.92974340662e-05
0.000152841549737
9.13767915068e-05
0.000155168877735
0.0001036026883
0.000157861798223
0.000161031282863
1.10317388155e-05
0.000119839133743
2.22580752642e-05
0.000125360862001
3.3710432498e-05
0.000130595359469
4.53882355112e-05
0.000134383119011
5.72733698076e-05
0.000136822990074
6.93687544512e-05
0.000138683222967
8.16646966874e-05
0.000140545079233
9.41440900124e-05
0.000142689789707
0.000106762570702
0.000145244897316
0.000148280450748
1.12028052099e-05
0.000108637138582
2.26578045105e-05
0.000113906492869
3.43971868175e-05
0.000118856290787
4.64097564272e-05
0.000122370540677
5.86730812301e-05
0.000124559431148
7.11784215075e-05
0.00012617758077
8.3918047555e-05
0.000127805284049
9.68639088678e-05
0.000129744549135
0.000109914205052
0.000132196144148
0.000135057971661
1.1316198219e-05
9.73219955974e-05
2.29408516187e-05
0.000102282804985
3.4918565953e-05
0.000106879430851
4.72387726419e-05
0.000110051141429
5.98719808342e-05
0.000111926600732
7.28107653814e-05
0.000113239333342
8.60512081598e-05
0.000114565930285
9.94651547029e-05
0.000116331396821
0.000113072583513
0.000118590453909
0.00012129129942
1.13617441787e-05
8.59617614483e-05
2.30855846001e-05
9.05606508164e-05
3.52498498043e-05
9.47171291967e-05
4.78344403312e-05
9.74682351247e-05
6.08219826289e-05
9.89417306456e-05
7.41940023661e-05
9.98698816405e-05
8.79720894884e-05
0.00010078897639
0.000101975875826
0.000116050114658
1.13142764062e-05
2.30632995849e-05
3.53256321938e-05
4.81139154059e-05
6.14497444785e-05
8.5609603114e-05
7.53431641156e-05
)
;

boundaryField
{
    back
    {
        type            calculated;
        value           uniform 0;
    }
    sides
    {
        type            calculated;
        value           nonuniform List<scalar> 0();
    }
    bottom
    {
        type            calculated;
        value           uniform 0;
    }
    front
    {
        type            calculated;
        value           uniform 0;
    }
    atmosphere
    {
        type            calculated;
        value           nonuniform List<scalar> 0();
    }
    floatingObject
    {
        type            calculated;
        value           nonuniform List<scalar> 0();
    }
    procBoundary4to0
    {
        type            processor;
        value           nonuniform List<scalar> 8(-0.000229400892986 -0.000235106561281 -0.000241268339995 -0.000246803476851 -0.000251727468645 -0.000256858671597 -0.000262624118216 -0.00026928681054);
    }
    procBoundary4to3
    {
        type            processor;
        value           nonuniform List<scalar> 
13
(
0.000102329295547
0.000104516288349
0.000107086045973
7.46493782865e-05
7.88139348331e-05
8.24576631706e-05
8.4684410356e-05
8.597962852e-05
8.96706781246e-05
8.6464016204e-05
-4.80305072272e-05
6.16561391392e-05
7.19911372206e-05
)
;
    }
    procBoundary4to5
    {
        type            processor;
        value           nonuniform List<scalar> 
18
(
3.78545149146e-05
4.51501264989e-05
-0.000264511328578
-0.000272463301352
6.8458642349e-05
7.70511518863e-05
8.49585931722e-05
9.18764644356e-05
9.75698553514e-05
0.000102059362996
0.000105716570354
0.000109074557197
0.000112385435512
0.000115862321193
0.000119515799762
0.000123138835292
0.000126839744075
0.000130257213936
)
;
    }
}


// ************************************************************************* //
