/*--------------------------------*- C++ -*----------------------------------*\
| =========                 |                                                 |
| \\      /  F ield         | OpenFOAM: The Open Source CFD Toolbox           |
|  \\    /   O peration     | Version:  v2012                                 |
|   \\  /    A nd           | Website:  www.openfoam.com                      |
|    \\/     M anipulation  |                                                 |
\*---------------------------------------------------------------------------*/
FoamFile
{
    version     2.0;
    format      ascii;
    class       surfaceVectorField;
    location    "5.2";
    object      Uf_0;
}
// * * * * * * * * * * * * * * * * * * * * * * * * * * * * * * * * * * * * * //

dimensions      [0 1 -1 0 0 0 0];


internalField   nonuniform List<vector> 
300
(
(0.0456989065338 0.00100332644569 -1.32048756648e-22)
(0.0446300653362 0.000579296817886 -1.62433172322e-22)
(0.0468817738987 0.00198878013383 -4.67246955926e-23)
(0.0457670692439 0.00162922293319 -7.11430060218e-23)
(0.0480498709606 0.00296781432652 1.19007851186e-23)
(0.0470087542668 0.00269108616927 -1.62418629861e-23)
(0.0490843571188 0.00396100231226 3.06000249097e-23)
(0.0480987479802 0.00376705404159 2.56804440349e-23)
(0.0500659009078 0.00498122696238 1.09993576727e-23)
(0.0490507997094 0.00486003609329 1.34795007833e-23)
(0.0511214797203 0.00605719510001 -1.88369351602e-24)
(0.0500156035909 0.00599661118857 -2.54131035924e-25)
(0.0523294336311 0.00718854332434 -4.31791448972e-24)
(0.0511079078406 0.00719139445033 -4.46360642314e-24)
(0.052379678233 0.00845114784827 -2.09362579728e-24)
(0.0446176970169 0.00117571276864 -1.01527421695e-22)
(0.0434545218946 0.000659692654744 -1.33360426388e-22)
(0.0458130193474 0.00233158806457 -4.06601734153e-23)
(0.0446114203383 0.00187813617868 -3.76154124965e-23)
(0.0469762577122 0.00348337210415 -2.46220406981e-24)
(0.0458572949677 0.00310462910389 2.3152066109e-24)
(0.0479852069804 0.00465128404583 8.5599199085e-24)
(0.0469312951208 0.00435051720009 2.19957208254e-23)
(0.0489248505919 0.00585447414957 2.22601207476e-24)
(0.047848213692 0.00561790786952 1.10578580714e-23)
(0.0499260456579 0.00710754201603 -2.83404394304e-24)
(0.0487633420395 0.0069318773856 4.09407710159e-24)
(0.051069331542 0.00842676140603 -2.2393177307e-24)
(0.0497896187146 0.00830897966266 -2.03040659342e-24)
(0.0509801343327 0.00976533294467 2.95058466103e-24)
(0.0433705430908 0.00133236379761 -6.9448417189e-23)
(0.0421223158268 0.000732914959228 -8.90076399091e-23)
(0.044577110368 0.00264849734035 5.35996752971e-24)
(0.0432954945343 0.00210782736198 2.32274558549e-23)
(0.045733078257 0.00396375148295 2.67731315061e-23)
(0.0445423467362 0.00348698217407 5.66066852196e-23)
(0.0467140759705 0.00529912681698 2.44936589883e-23)
(0.0455963605266 0.00489259206244 6.11746731081e-23)
(0.0476065066102 0.00667412716316 1.29259230982e-23)
(0.0464737981158 0.00632433359293 3.32327855108e-23)
(0.0485445381678 0.00810596416838 4.89771445121e-24)
(0.0473322268578 0.00780780136522 1.61023400245e-23)
(0.0496111796469 0.0096129766129 3.15949579831e-24)
(0.0482834433212 0.00936103489355 3.97777077971e-24)
(0.0508479398325 0.0112128468207 1.68228354103e-23)
(0.0493809405964 0.0110014478391 6.88844556845e-24)
(0.0522754709329 0.012923052133 2.91413883962e-23)
(0.050652544866 0.0127479095869 2.59942181782e-23)
(0.0521218975968 0.0146168922505 3.07582724463e-23)
(0.0419720918628 0.00147725257564 3.66823313477e-24)
(0.0406451825359 0.000803011895232 2.68218197268e-23)
(0.0431856979962 0.00293992279682 7.44741735448e-23)
(0.0418329870086 0.00231935622123 1.23244658485e-22)
(0.0443297318728 0.00440638173231 9.10082268216e-23)
(0.0430761500524 0.00383611517749 1.28848135491e-22)
(0.0452787957035 0.00589870616961 6.99137996306e-23)
(0.0441044369885 0.00538929223713 1.1237652224e-22)
(0.0461200484275 0.00743430068145 3.6409202437e-23)
(0.0449387541306 0.00697341454127 6.52940430695e-23)
(0.0469882449076 0.00903262819663 1.5182396353e-23)
(0.0457345806352 0.00861280291212 3.59267606567e-23)
(0.0479673449858 0.0107123316632 7.70672054985e-24)
(0.0466045082256 0.0103276385133 1.36345332902e-23)
(0.0490975632291 0.0124905221231 1.60598283364e-23)
(0.0476033083318 0.0121360349101 8.65222592506e-24)
(0.0504010729964 0.0143884472682 2.76111022283e-23)
(0.0487547650323 0.0140578919805 2.35905467508e-23)
(0.0500712825863 0.0161254143181 4.10727817237e-23)
(0.0404357170204 0.00160715622136 1.46398245077e-22)
(0.0390380760542 0.000864209100451 1.40772066322e-22)
(0.0416506975825 0.00320664231496 1.77618620432e-22)
(0.0402335870368 0.00250903188666 2.00888110869e-22)
(0.0427790697119 0.00481390405736 1.50216430909e-22)
(0.0414690735574 0.00415112148897 1.81613132776e-22)
(0.0436924416187 0.00644466558998 1.07756765679e-22)
(0.042474002756 0.0058385736488 1.55515992899e-22)
(0.0444774355765 0.00812526851897 6.48116012892e-23)
(0.0432586373558 0.0075597654494 9.29501766533e-23)
(0.0452701311557 0.00987396431208 3.43788975939e-23)
(0.0439865169709 0.00933894767091 5.95943702291e-23)
(0.0461545542085 0.0117099054455 1.45800386654e-23)
(0.0447692998225 0.0111976562528 2.98887437837e-23)
(0.047168294116 0.0136562943118 1.61829443394e-23)
(0.045657552532 0.0131555329767 1.77889055472e-23)
(0.0483279233317 0.0157388615189 3.70522262462e-23)
(0.0466726929981 0.015234555831 2.46407150958e-23)
(0.047826203662 0.0174707990909 4.57985446854e-23)
(0.038774673203 0.00172107936339 1.95261932114e-22)
(0.0373169557114 0.00091199971288 1.77453520664e-22)
(0.0399863127434 0.00343992356399 2.04882623214e-22)
(0.0385147309186 0.00267475368766 2.29051054964e-22)
(0.0410960889569 0.00516895883593 1.86912694766e-22)
(0.0397401213229 0.00443159099941 1.94815869184e-22)
(0.0419704841874 0.00693042306448 1.40709403874e-22)
(0.0407127627339 0.00623930221955 1.73562066568e-22)
(0.0426958961488 0.00874201743258 8.77329455932e-23)
(0.0414474330455 0.00808165224226 1.14851179211e-22)
(0.0434095515695 0.0106233256569 5.51042164188e-23)
(0.042105764983 0.00998324158491 9.2119299953e-23)
(0.0441931612769 0.0125944101789 3.30976106655e-23)
(0.0427989085525 0.0119643788416 5.99788496178e-23)
(0.0450802723683 0.0146791446898 2.62466763036e-23)
(0.0435735814347 0.0140443975634 4.45118026811e-23)
(0.0460819243814 0.0169045866973 3.33870335351e-23)
(0.0444481510948 0.0162465359314 3.61189174787e-23)
(0.0454223278227 0.0186048072624 4.51198420115e-23)
(0.0370035834371 0.00181932461745 2.11242643515e-22)
(0.0354974943822 0.000952647581415 1.64816734427e-22)
(0.0382070742633 0.00364635805054 2.18984300935e-22)
(0.0366875825457 0.00282082791736 2.23655216521e-22)
(0.0392940974634 0.00548869618399 1.81465240986e-22)
(0.037897754381 0.00467962681579 1.80352862614e-22)
(0.0401271911107 0.00736388491704 1.47703841905e-22)
(0.038837678278 0.00659301336205 1.70193874463e-22)
(0.0407935249085 0.00928899472311 1.1923753357e-22)
(0.0395225923975 0.00854230208851 1.35190531875e-22)
(0.041428824503 0.01128183357 9.6993933152e-23)
(0.0401133742837 0.0105484757316 1.15705303008e-22)
(0.0421114886068 0.0133611883419 7.13930416335e-23)
(0.0407201735594 0.0126288406944 8.5761960257e-23)
(0.0428704817597 0.0155472023832 5.43840438563e-23)
(0.0413884147272 0.0148005668021 7.14288962741e-23)
(0.0437103744115 0.0178702559068 4.78517259551e-23)
(0.0421262857736 0.017083539889 6.60221853756e-23)
(0.0429283668748 0.0195080279772 7.50299530661e-23)
(0.0351333941902 0.0019133584354 1.77229307433e-22)
(0.03358391386 0.000989970860639 1.52482478461e-22)
(0.0363252627489 0.00383136049049 1.850237782e-22)
(0.0347693729456 0.00295074357275 2.15007263479e-22)
(0.0373863810003 0.00577102756319 1.69081496091e-22)
(0.0359579521123 0.00489914630783 1.58857249469e-22)
(0.0381779149556 0.00774577936277 1.57680564434e-22)
(0.0368629075764 0.00690466995443 1.60863687002e-22)
(0.0387870680441 0.00976805819982 1.31658301313e-22)
(0.0375004462845 0.00894675132011 1.38860579137e-22)
(0.0393481845341 0.0118530535719 1.04473330113e-22)
(0.0380286876253 0.0110408481615 1.08957964355e-22)
(0.0399380810458 0.0140153608209 8.57978148976e-23)
(0.0385583622988 0.0132006383971 9.87622763683e-23)
(0.0405823006796 0.0162722549626 8.30670377935e-23)
(0.0391323429725 0.0154400400334 1.02064231063e-22)
(0.0412786291699 0.018641701457 9.32004124866e-23)
(0.0397581025594 0.0177725067126 1.16960688196e-22)
(0.0404154533804 0.0202168750834 1.07199920244e-22)
(0.0331761548373 0.00199419026228 1.90260434506e-22)
(0.0315894376959 0.00102042094066 1.61325810987e-22)
(0.0343536648868 0.00399433248771 1.88840734748e-22)
(0.0327689519077 0.00306412701137 2.05778467402e-22)
(0.0353865124036 0.00601916482412 1.5063944038e-22)
(0.0339328946682 0.00509161677196 1.30347654178e-22)
(0.0361370697507 0.00808019216643 1.42043701705e-22)
(0.0348017457551 0.0071777160646 1.36983863928e-22)
(0.0366921981243 0.010186215689 1.16160242179e-22)
(0.0353944131711 0.00929950482781 1.25398039708e-22)
(0.0371868471339 0.012348621257 1.0324691061e-22)
(0.0358664266546 0.0114684707522 1.0442105067e-22)
(0.0376990751532 0.0145732111929 1.15028692533e-22)
(0.0363340945323 0.0136957808325 1.18017286944e-22)
(0.0382531352898 0.0168785367348 1.35957881465e-22)
(0.0368276920059 0.0159900171187 1.09045686051e-22)
(0.0388415174254 0.019270262546 1.30960195953e-22)
(0.037367495163 0.0183567971766 1.41707950703e-22)
(0.0379306130665 0.0208008935708 1.18752501171e-22)
(0.0311436598886 0.00206089692741 1.76843843883e-22)
(0.0295282187293 0.00104330701622 1.2444745237e-22)
(0.032302666479 0.00413497039943 1.47285386833e-22)
(0.0306945555443 0.00315981512927 8.08132540958e-23)
(0.0333046649357 0.00623560953947 1.16692077727e-22)
(0.0318319636106 0.00525654191517 5.42377921932e-23)
(0.0340153227206 0.00837145396145 1.2033820193e-22)
(0.0326656668942 0.00741366028663 9.08422486887e-23)
(0.0345220955009 0.010550746096 1.13658848199e-22)
(0.0332149731809 0.00960575074164 1.15000059778e-22)
(0.0349616476591 0.0127755121919 1.19191427004e-22)
(0.0336416289327 0.0118427024723 1.06135430842e-22)
(0.0354126248274 0.0150636125279 1.12034280461e-22)
(0.0340461088139 0.0141316439356 1.16357598744e-22)
(0.0358995397391 0.0174077949819 1.14795755289e-22)
(0.0344839427012 0.0164752677085 9.25098887996e-23)
(0.0364173999326 0.0198139190622 1.29500255921e-22)
(0.0349621878697 0.0188733937697 1.15752195949e-22)
(0.0354705011163 0.021320440572 1.22187753133e-22)
(0.0290468329922 0.00211583062911 2.84168625827e-23)
(0.027412058974 0.00106177563989 3.46499996168e-23)
(0.0301824523236 0.00425241660475 -1.22343405438e-23)
(0.0285576312991 0.00323855127067 -5.94829088036e-23)
(0.0311508297448 0.00642069293379 2.8387963155e-23)
(0.0296633548684 0.00539366932845 -8.7706460189e-23)
(0.031823191764 0.00862271906569 8.55041065358e-23)
(0.030463328321 0.00761502591269 2.22660587806e-23)
(0.0322882782921 0.010867377107 1.07476642421e-22)
(0.0309700441862 0.00987266315183 1.12174817212e-22)
(0.0326814175787 0.0131596919572 1.03301602582e-22)
(0.0313491122406 0.0121727384325 1.29329917409e-22)
(0.033081324491 0.01549758537 9.68332070826e-23)
(0.0317081167524 0.0145191830154 1.15438496668e-22)
(0.0335168287115 0.0178835086181 9.3466329459e-23)
(0.032098173165 0.0169119999105 1.06156718118e-22)
(0.0339916116654 0.0203130627467 1.0843969316e-22)
(0.0325330896621 0.0193467503894 1.12547210661e-22)
(0.0330168242594 0.0218161544784 1.54466176422e-22)
(0.0268967782698 0.00216055720491 -5.32497717696e-23)
(0.0252511923296 0.00107376361934 -3.3717173711e-23)
(0.0280038643132 0.00434810026048 -1.34955028449e-22)
(0.0263697617184 0.0033009173359 -1.81303403686e-22)
(0.0289363135585 0.00657382457512 -9.38283645633e-23)
(0.0274372849428 0.00550482086924 -2.52990542657e-22)
(0.0295703220659 0.00884108718638 4.89367694569e-23)
(0.0281957027754 0.00778338322888 -6.2182954129e-23)
(0.0299948594633 0.0111471877357 1.34028092201e-22)
(0.0286635769752 0.0101016774866 1.018616254e-22)
(0.0303439558157 0.0134966315893 1.41466811496e-22)
(0.0289993234048 0.0124612068945 1.48437324361e-22)
(0.0306987895409 0.0158892992149 1.24762007704e-22)
(0.0293151641728 0.0148647332382 1.37196029839e-22)
(0.0310931829818 0.0183237176247 1.2523759932e-22)
(0.0296636526576 0.0173105364288 1.33573113134e-22)
(0.0315394212734 0.0207946269666 1.58573693922e-22)
(0.0300623116465 0.0197940805719 1.62723116436e-22)
(0.0305309295501 0.0223115339604 2.15468484536e-22)
(0.024703333153 0.00219237950095 -1.61770805627e-22)
(0.0230585454465 0.00107876581895 -3.39961288919e-23)
(0.0257752005556 0.00442284016151 -2.99338917894e-22)
(0.0241390102205 0.00334601571316 -2.56513792592e-22)
(0.0266663912168 0.00669919220938 -2.21345132222e-22)
(0.0251606013445 0.005589208289 -3.70363759285e-22)
(0.0272585844476 0.00902141151802 -9.25809818565e-24)
(0.0258731025104 0.00791756030802 -1.44740080436e-22)
(0.027640360333 0.0113862310017 1.16270857561e-22)
(0.026298334408 0.0102916627048 7.6224514088e-23)
(0.0279463442495 0.0137948965456 1.44166542704e-22)
(0.0265902173726 0.0127106225708 1.48044803755e-22)
(0.0282600676045 0.0162462710008 1.46007135269e-22)
(0.0268633759564 0.0151749852776 1.62116274545e-22)
(0.0286194189963 0.0187380053345 1.71058630251e-22)
(0.0271716361064 0.0176819278675 1.72053192389e-22)
(0.0290384655782 0.0212622349446 2.1961790705e-22)
(0.0275379950948 0.0202260535839 2.28713098261e-22)
(0.0279740903029 0.022803235421 2.49098034082e-22)
(0.0224774334179 0.00221235135519 -1.28739115857e-22)
(0.0208459861776 0.00107968078367 2.06988262149e-22)
(0.0235033812867 0.00447390914695 -3.27538633983e-22)
(0.021877217878 0.00337289892915 -1.69215192803e-22)
(0.0243445610756 0.00679230916409 -2.93758707499e-22)
(0.0228419109233 0.00564490855595 -3.61307029852e-22)
(0.0248889913431 0.00916498884648 -5.92574681624e-23)
(0.0235000607151 0.00801624274162 -1.62152319214e-22)
(0.0252249225888 0.0115874979608 1.07998460283e-22)
(0.0238753954377 0.0104429818373 7.13204920333e-23)
(0.0254860433185 0.0140584459538 1.65994535596e-22)
(0.0241187982877 0.0129220590295 1.70492654023e-22)
(0.0257586388541 0.0165769571233 1.88162331665e-22)
(0.0243444030739 0.0154525978626 2.25624014811e-22)
(0.0260842804499 0.019138213461 2.29707660398e-22)
(0.024609982566 0.0180307121667 3.03683838053e-22)
(0.0264741760648 0.0217223794684 2.58193225293e-22)
(0.0249536297383 0.0206453864616 3.99415549229e-22)
(0.0253519585721 0.0232896417905 4.27273178437e-22)
(0.020232368638 0.00222103612038 1.66512185202e-22)
(0.0186248438477 0.00107551265891 7.0234935701e-22)
(0.0211994542177 0.00450207447368 -2.02983588672e-22)
(0.0195960346116 0.00338114581165 8.19250902775e-23)
(0.0219789185799 0.00685279594101 -2.29700641567e-22)
(0.0204909709624 0.00567046138373 -1.97916831487e-22)
(0.0224660312638 0.00927034142795 -3.15743590181e-23)
(0.0210821979539 0.00807664758441 -7.00455023314e-23)
(0.0227479375253 0.0117484907341 1.33814685774e-22)
(0.0213968548332 0.0105513223155 1.39662743058e-22)
(0.0229556384312 0.0142857940441 2.30122133238e-22)
(0.0215810399816 0.0130885539017 3.14863788081e-22)
(0.0231813954848 0.0168820134726 3.411455212e-22)
(0.0217476027678 0.0156918015227 6.00677966727e-22)
(0.0234713935183 0.0195120214616 4.73391726883e-22)
(0.0219795092545 0.018352628788 1.04772813491e-21)
(0.0238322054006 0.0221812641066 5.68495502373e-22)
(0.0222842550522 0.021043933199 1.45515288243e-21)
(0.0226496758236 0.0237510550944 1.64847998974e-21)
(0.0179815842542 0.00221679244096 6.17762262085e-22)
(0.0164080549941 0.00106350619656 1.08453398386e-21)
(0.0188756523155 0.00450376867167 8.69918474626e-23)
(0.0173090098374 0.00336796437764 3.81637290639e-22)
(0.0195793748421 0.00687694761819 -3.82616922511e-23)
(0.0181176387362 0.00566122910318 2.17768286624e-23)
(0.0199950889459 0.00933095569905 1.01191599744e-22)
(0.018627955983 0.00809161066386 1.1660756556e-22)
(0.0202096393172 0.0118613976867 3.20711845365e-22)
(0.0188660205891 0.0106070514015 4.50401919766e-22)
(0.0203551813865 0.0144644953871 6.85419621571e-22)
(0.0189773993555 0.0132037038178 1.17544327862e-21)
(0.0205270407448 0.0171452722569 1.30726058044e-21)
(0.0190662923004 0.0158873885408 2.78573663768e-21)
(0.0207794257769 0.0198679101939 2.02948929046e-21)
(0.0211110546201 0.0226029570897 2.5351373698e-21)
(0.0157381154897 0.00219504862487 8.48409012416e-22)
(0.0165448241192 0.00447428068398 3.16422271839e-22)
(0.0171571592876 0.00685306140933 1.76646086474e-22)
(0.0174820114235 0.00933192128538 4.65817885582e-22)
(0.0176070849561 0.0119141591796 1.30513335302e-21)
(0.0162834865482 0.0105949281553 1.9047866386e-21)
(0.0176728123651 0.014600785499 3.27576029473e-21)
)
;

boundaryField
{
    back
    {
        type            calculated;
        value           uniform (0 0 0);
    }
    sides
    {
        type            calculated;
        value           nonuniform List<vector> 0();
    }
    bottom
    {
        type            calculated;
        value           uniform (0 0 0);
    }
    front
    {
        type            calculated;
        value           uniform (0 0 0);
    }
    atmosphere
    {
        type            calculated;
        value           nonuniform List<vector> 0();
    }
    floatingObject
    {
        type            calculated;
        value           nonuniform List<vector> 0();
    }
    procBoundary4to0
    {
        type            processor;
        value           nonuniform List<vector> 8((0.0456331400347 0.000491388398813 -1.98966667235e-22) (0.0467521789847 0.00136384079345 -8.5128284446e-23) (0.0479872975911 0.00225062515619 -4.34913018244e-24) (0.0490912413568 0.00314629588481 5.18227944474e-23) (0.0500701026278 0.00405670179699 2.87891212026e-23) (0.0510903942729 0.00500821528292 4.30276897951e-24) (0.0522378600893 0.00601223845512 -3.74463304263e-24) (0.0535659803459 0.00706740343115 -6.90267086058e-24));
    }
    procBoundary4to3
    {
        type            processor;
        value           nonuniform List<vector> 
13
(
(0.0192564429118 0.0186432683002 5.27714993644e-21)
(0.0195489063998 0.0214072143657 7.57971211617e-21)
(0.0198884380064 0.0241250856728 8.68768147246e-21)
(0.0142130911921 0.00104285132254 1.24521699272e-21)
(0.015029799679 0.00333002388623 5.79131734127e-22)
(0.0157388014832 0.00561036857584 2.55905370333e-22)
(0.0161488346084 0.00804832648937 5.85399344368e-22)
(0.0162903646617 0.0132549670328 5.61459403766e-21)
(0.0177833550879 0.0173671892652 6.75562599368e-21)
(0.0162993896378 0.0160302024982 1.3962560162e-20)
(0.0149343952188 0.00926678025431 2.02436809738e-21)
(0.0149377081759 0.0118894855897 6.21424732324e-21)
(0.0136604481233 0.0104836094898 8.22050328837e-21)
)
;
    }
    procBoundary4to5
    {
        type            processor;
        value           nonuniform List<vector> 
18
(
(0.0537222494876 0.00837629079487 -1.70894482475e-24)
(0.0523939861236 0.0098272204522 5.01469703282e-24)
(0.0523622439035 0.0113128675366 1.88869477821e-23)
(0.0539399676634 0.0129534547324 2.68485663083e-23)
(0.0539044574235 0.0147402776424 3.72648430893e-23)
(0.051896991176 0.0164385611716 3.74389692251e-23)
(0.0496493278263 0.0179839921286 4.72786145951e-23)
(0.047200807584 0.0193091285591 4.74191834151e-23)
(0.0446216736383 0.020365354555 5.64276726152e-23)
(0.0420076194942 0.0211559610156 5.62453706603e-23)
(0.0394387588175 0.0217563818929 1.28839387881e-22)
(0.036946389353 0.0222750435302 1.94944711623e-22)
(0.0345031209874 0.0227674031211 2.60948330262e-22)
(0.032046571048 0.0232808666733 3.27955831434e-22)
(0.029522443676 0.0238192148129 2.34180652753e-22)
(0.0269262912927 0.0243446032812 3.1214358337e-22)
(0.0242479718876 0.0248836012744 6.3314064269e-22)
(0.0214626013852 0.0253646203421 2.8512697488e-21)
)
;
    }
}


// ************************************************************************* //
