/*--------------------------------*- C++ -*----------------------------------*\
| =========                 |                                                 |
| \\      /  F ield         | OpenFOAM: The Open Source CFD Toolbox           |
|  \\    /   O peration     | Version:  v2012                                 |
|   \\  /    A nd           | Website:  www.openfoam.com                      |
|    \\/     M anipulation  |                                                 |
\*---------------------------------------------------------------------------*/
FoamFile
{
    version     2.0;
    format      ascii;
    class       surfaceScalarField;
    location    "4.2";
    object      alphaPhi0.water;
}
// * * * * * * * * * * * * * * * * * * * * * * * * * * * * * * * * * * * * * //

dimensions      [0 3 -1 0 0 0 0];
oriented        oriented;


internalField   nonuniform List<scalar> 
300
(
-4.35106943717e-05
-0.000296148835771
-5.18122572432e-05
-0.000305966456571
-6.15932857852e-05
-0.000316935301325
-7.33003179708e-05
-0.00032910273829
-8.7530214042e-05
-0.000342610690021
-0.000105273410954
-0.000357652821562
-0.000128035361718
-0.000373438146179
-0.00015782092847
-0.000386523345414
-0.000198335642735
-0.000397759409388
-9.98357730185e-05
-0.000330287093423
-8.33258587135e-08
-3.8140083708e-05
-7.81941510501e-09
-5.32757865437e-05
-6.27099565972e-05
-7.36325155853e-05
-0.000306017382256
-8.65242974684e-05
-0.000316216767173
-0.000102110188329
-0.000327032433444
-0.000121511925215
-0.000338259109784
-0.00014667480929
-0.000348284485498
-0.000180496614936
-0.000352705849674
-0.000227776758886
-0.000350478660068
-0.000109462330901
-0.000280558435994
-8.18315754269e-07
-2.64141672396e-05
6.65836355721e-09
-8.36037389208e-05
-0.0002944222229
-9.70289709715e-05
-0.000302797090112
-0.000112936769521
-0.000311131028068
-0.000132472174472
-0.000318729910401
-0.000157504637919
-0.000323258139083
-0.000190804511583
-0.000319406868761
-0.000234704832003
-0.0003065752057
-0.00010368743807
-0.000236340642386
-4.97004856611e-07
-1.72110723311e-05
2.27931416474e-08
-9.17624378199e-05
-0.000282623113327
-0.000105004733562
-0.000289560016776
-0.000120229227656
-0.000295911964641
-0.000138512357468
-0.000300451515443
-0.000162005018033
-0.000299770496582
-0.000195321919379
-0.000286086445898
-0.000237777553518
-0.000264116693403
-9.70588436907e-05
-0.000198250787744
-8.29224647446e-07
-1.20003137189e-05
2.80715789806e-08
-9.84352962264e-05
-0.00027095009319
-0.000111061839001
-0.000276932083969
-0.000124826559732
-0.000282151292164
-0.000140491668668
-0.000284789852814
-0.000160513834059
-0.000279752152117
-0.000188733144108
-0.000257863475317
-0.000225278819029
-0.000227569883048
-8.48582453881e-05
-0.000169857251442
-1.34718404423e-07
-9.24206218815e-06
1.90336123462e-08
-0.000104287375545
-0.00025946619107
-0.000116175805468
-0.000265049731948
-0.000128333612505
-0.000269994075088
-0.000141127165937
-0.000271995704304
-0.000156516711753
-0.000264362792035
-0.000177421904803
-0.000236953405483
-0.000199439760521
-0.000205549480347
-7.16624234821e-05
-0.000149011128086
-8.46797280081e-07
-4.69707797954e-06
3.10904130916e-08
-0.000109958773401
-0.000247960876959
-0.00012150578255
-0.000253502796325
-0.000132876121769
-0.000258621515038
-0.000144106866471
-0.000260759958102
-0.000156402804036
-0.000252061839548
-0.000170291535006
-0.000223064180194
-0.000182645337657
-0.000193195146921
-6.20548958883e-05
-0.000133116812132
-4.70287761663e-07
-1.86434896172e-06
1.01376196561e-08
-0.000115801819633
-0.000236114047496
-0.000127730554253
-0.000241572892066
-0.000139586488289
-0.000246766590609
-0.000151558123928
-0.000248790287365
-0.000163341716454
-0.000240282754219
-0.00017266433341
-0.000213740444148
-0.0001774680493
-0.000188390645531
-5.44009608651e-05
-0.000128013802131
-7.51853257201e-08
-1.12386282904e-06
2.68213677041e-09
-0.000121656098973
-0.000223706346002
-0.00013447999142
-0.000228748063331
-0.000147796629989
-0.000233450928521
-0.000161328855124
-0.000235259315126
-0.000173186377603
-0.000228425479096
-0.000177905527647
-0.000209019412166
-0.000174556380922
-0.000191737826174
-5.0287956403e-05
-0.000128200651858
-5.24079364401e-07
-1.06343600512e-06
1.34312518731e-08
-0.000127160594276
-0.000210717448868
-0.00014084191888
-0.000215065855211
-0.000155350248554
-0.000218941162322
-0.000170129073023
-0.000220482221118
-0.000181881894738
-0.000216673633461
-0.000183569589482
-0.00020733000644
-0.00017639437169
-0.000198911479063
-4.82742725017e-05
-0.000132594776939
-9.35851036039e-07
-9.59988181434e-07
7.4061776084e-08
-0.00013176966774
-0.000197448420985
-0.000145612441312
-0.000201224141116
-0.000160239610944
-0.000204315080632
-0.000174996058881
-0.000205726585339
-0.000185510302729
-0.000206159857742
-0.000185952867646
-0.000206887753074
-0.000178859733873
-0.000206003270302
-4.76329419219e-05
-0.00013731039938
-2.05207178255e-07
-1.24432204852e-06
1.45429124012e-08
-0.000135218380311
-0.000184548072383
-0.000148609366979
-0.00018783364807
-0.000162410171961
-0.000190514838629
-0.000175580646944
-0.000192555909676
-0.00018519071886
-0.00019654961491
-0.000186844340251
-0.000205234229973
-0.000183171298306
-0.000209675420247
-4.88191513411e-05
-0.000138297404961
-2.03851435454e-08
-1.02927914933e-06
3.74433287997e-10
-0.000138385371335
-0.000171754844999
-0.00015110491093
-0.000175113210594
-0.000163865327858
-0.000177752174216
-0.00017555277695
-0.0001808675789
-0.00018456168368
-0.000187540178995
-0.000188410584536
-0.000201384809718
-0.000190304681876
-0.000207779974335
-5.1643915761e-05
-0.000133049302633
-1.98842554894e-07
5.12088795522e-08
9.12026977351e-11
-0.000141646775875
-0.000159111004165
-0.000154055962889
-0.000162701676012
-0.000166203701099
-0.000165602067408
-0.000177300781617
-0.000169767131674
-0.000185979001725
-0.000178859637648
-0.000192670961525
-0.000194691266695
-0.000200315925486
-0.000200132070484
-5.48527362538e-05
-0.000121208400607
-5.50697571375e-08
1.12462685869e-06
1.6977501202e-09
-0.000144655883186
-0.000146753322992
-0.000156466496985
-0.000150885797955
-0.00016757143271
-0.000154490156267
-0.000178402447626
-0.000158931050319
-0.000187892420856
-0.000169365383769
-0.000197816087079
-0.00018476321819
-0.00021238068069
-0.000185562189576
-5.74402739187e-05
-0.00010325204748
-3.87428035329e-07
1.5702207052e-06
2.14058537676e-09
-0.000147839916597
-0.000158302769463
-0.00016740235631
-0.000176962678907
-0.000188248175128
-0.000203958872983
-0.000226337072698
-5.77442675878e-05
-2.0080591716e-09
)
;

boundaryField
{
    back
    {
        type            calculated;
        value           uniform 0;
    }
    sides
    {
        type            calculated;
        value           nonuniform List<scalar> 0();
    }
    bottom
    {
        type            calculated;
        value           nonuniform List<scalar> 0();
    }
    front
    {
        type            calculated;
        value           uniform 0;
    }
    atmosphere
    {
        type            calculated;
        value           nonuniform List<scalar> 
16
(
-6.12746005835e-08
-8.22345526853e-07
-5.59837290737e-07
-8.54100415067e-07
-1.25680085803e-07
-8.60240145248e-07
-4.49295659166e-07
-6.75698421025e-08
-5.34804307836e-07
-9.96379648986e-07
-1.45654563767e-07
-6.22135544239e-09
-1.985647871e-07
-5.66794526591e-08
-3.87870905485e-07
-5.00796015153e-13
)
;
    }
    floatingObject
    {
        type            calculated;
        value           nonuniform List<scalar> 0();
    }
    procBoundary5to0
    {
        type            processor;
        value           nonuniform List<scalar> 
12
(
0.000303308475205
0.000314265782699
0.000326710492136
0.000340800366543
0.000356826603341
0.0003753804373
0.00039618835664
0.000416303103486
0.000438275498634
0.000371672978249
5.26561307957e-05
-1.74893959202e-08
)
;
    }
    procBoundary5to3
    {
        type            processor;
        value           nonuniform List<scalar> 10(-0.00013486459051 -0.00014041714374 -0.000145383945099 -0.000149363158083 -0.000158073974783 -0.000169045572922 -0.000163176818867 -8.36958910776e-05 8.81493519167e-07 1.32996951176e-10);
    }
    procBoundary5to4
    {
        type            processor;
        value           nonuniform List<scalar> 
18
(
3.63510405515e-05
4.50123053893e-05
-0.000287888110554
-0.00029653520172
7.20012031806e-05
7.99597552523e-05
8.67602051039e-05
9.28018803417e-05
9.84523522317e-05
0.000103953591905
0.00010924734687
0.000114172189441
0.000118499906607
0.000122317645141
0.000125592996668
0.000129005413236
0.000132302956255
0.000135957343551
)
;
    }
}


// ************************************************************************* //
