/*--------------------------------*- C++ -*----------------------------------*\
| =========                 |                                                 |
| \\      /  F ield         | OpenFOAM: The Open Source CFD Toolbox           |
|  \\    /   O peration     | Version:  v2012                                 |
|   \\  /    A nd           | Website:  www.openfoam.com                      |
|    \\/     M anipulation  |                                                 |
\*---------------------------------------------------------------------------*/
FoamFile
{
    version     2.0;
    format      ascii;
    class       surfaceVectorField;
    location    "4.2";
    object      Uf;
}
// * * * * * * * * * * * * * * * * * * * * * * * * * * * * * * * * * * * * * //

dimensions      [0 1 -1 0 0 0 0];


internalField   nonuniform List<vector> 
300
(
(-0.0609842021151 -0.00870238057992 2.82089206573e-24)
(-0.0592219506478 -0.00891231268957 1.13398387107e-23)
(-0.0631937359823 -0.0103614964315 2.31328511323e-25)
(-0.061184618057 -0.0105676548546 1.49234807029e-23)
(-0.0656786083024 -0.012315860392 2.06808577114e-23)
(-0.0633777994426 -0.0124850081646 1.17876249516e-23)
(-0.0684688717174 -0.0146548251799 4.50487867453e-23)
(-0.0658109077654 -0.0147408044818 7.30478346859e-23)
(-0.0716328030904 -0.0174978190288 6.09741049031e-23)
(-0.0685125177466 -0.017448353611 9.69956052305e-23)
(-0.0751568532979 -0.0210430831682 -5.8962548678e-22)
(-0.0715214615721 -0.0207571968035 6.20475106401e-24)
(-0.0786629380447 -0.025592842184 -8.77183642661e-23)
(-0.0746800763112 -0.0250972542167 -8.90128354485e-22)
(-0.082061190939 -0.0315490119297 -1.94078070894e-21)
(-0.0772994980476 -0.0299274921677 8.96437029415e-22)
(-0.0873087057366 -0.0396534330451 -6.71700093083e-21)
(-0.0796566267926 -0.0409555798679 -4.44560159943e-21)
(-0.10542163505 -0.0496294268948 -9.97785285455e-21)
(-0.0855472719407 -0.0317819586643 -1.02092283013e-20)
(-0.10687778484 -0.0757809215101 -1.04628047075e-20)
(-0.10665467028 -0.0613910315736 -2.07747786721e-20)
(-0.0852444280958 -0.0982962925357 -1.33832169763e-20)
(-0.0593284816446 -0.0106547862766 2.34424273478e-23)
(-0.0612738679432 -0.0125404766456 2.64797771431e-23)
(-0.0634147327119 -0.0147233331446 6.4154601926e-23)
(-0.0611949918252 -0.0145936834237 3.168402743e-23)
(-0.0657494561939 -0.0172997161174 1.24994653171e-22)
(-0.0632346257708 -0.0170257939513 1.12049043965e-22)
(-0.0682827563161 -0.0204145518924 4.22262513914e-23)
(-0.0653978156852 -0.0198993939055 1.67610325315e-22)
(-0.0708978596612 -0.0242923164003 -2.94298116641e-22)
(-0.0676438411172 -0.0233815315286 -8.86519223203e-23)
(-0.0731077043615 -0.0293224061249 9.40270391955e-23)
(-0.0696501176037 -0.0278626024177 -9.97664401748e-22)
(-0.0745521642319 -0.036086296005 -1.60838386108e-21)
(-0.0705357003572 -0.0331913403309 -9.74246960388e-22)
(-0.077510772906 -0.0455603279731 -7.93782896987e-21)
(-0.0701826445216 -0.0440673617254 -3.79915386878e-21)
(-0.0874907506022 -0.0573813523487 -2.10061541188e-20)
(-0.0737262171166 -0.0360128691116 -1.10255234104e-20)
(-0.0850117993451 -0.0811262884459 -2.36951909409e-20)
(-0.0829076384138 -0.0660177143739 -3.67964645407e-20)
(-0.0703873531729 -0.0959294943154 -2.32339322456e-20)
(-0.0609718573151 -0.0167175110433 7.95784694693e-23)
(-0.0588760494711 -0.0163627675451 3.78253004684e-23)
(-0.0628538187347 -0.0194009808741 1.54664716109e-22)
(-0.0605512282161 -0.0188583534744 1.11378403701e-22)
(-0.064747039056 -0.0225806948356 3.67321516029e-23)
(-0.0622182042173 -0.021731523084 1.72724892151e-22)
(-0.0664202999938 -0.0264858545762 -7.92018207427e-22)
(-0.0637387946612 -0.0251321640165 -2.9973345523e-22)
(-0.0672182554682 -0.0314905709472 -2.06593840133e-21)
(-0.064645505135 -0.0294065954431 -2.24041713705e-21)
(-0.0665718710212 -0.0381507883502 -3.1650169681e-21)
(-0.0638755558387 -0.0347234677111 -2.85624941941e-21)
(-0.0671403279411 -0.0469602332565 -6.88684830931e-21)
(-0.0613732357965 -0.0449638275713 -4.2287981103e-21)
(-0.0703511481365 -0.0574846807263 -2.68158338323e-20)
(-0.063201737999 -0.0380823209831 -1.06487032716e-20)
(-0.0688542551872 -0.0784680937354 -3.63352058453e-20)
(-0.0619246184691 -0.0652948937006 -3.65729377312e-20)
(-0.0597838764394 -0.0860773325573 -2.45181164654e-20)
(-0.0584726508656 -0.0183494908638 6.96252347e-23)
(-0.0565167339991 -0.017844907013 4.35734899481e-23)
(-0.0599609409411 -0.0209966665018 1.29438579743e-22)
(-0.0579041096255 -0.0203082888935 1.01604557209e-22)
(-0.0612873846899 -0.0240401053531 -1.63740714682e-22)
(-0.0591748489259 -0.0230385639086 9.68122566045e-23)
(-0.0620836538825 -0.0276953519 -1.74813238486e-21)
(-0.0600836416023 -0.0261371626619 -7.88597815453e-22)
(-0.0614382223515 -0.0323926191511 -3.03072815513e-21)
(-0.059948323965 -0.0298816619184 -2.66930571867e-21)
(-0.058930484469 -0.0390566292979 -3.92003056162e-21)
(-0.0572116063605 -0.0348197876858 -1.9149478425e-21)
(-0.0579855677999 -0.0475718225941 -7.99065307259e-21)
(-0.0528580729042 -0.0442490639824 -5.84406886746e-21)
(-0.0569763869646 -0.0567232356259 -2.04058071705e-20)
(-0.0540503113877 -0.0383429088768 -1.61278114798e-20)
(-0.0537919376489 -0.0696493225237 -2.47558483513e-20)
(-0.0489976259514 -0.0613136921534 -3.28090580387e-20)
(-0.0497144238954 -0.0742450343906 -2.34425956316e-20)
(-0.0560147444799 -0.0196843735374 7.55528124576e-23)
(-0.0541827373606 -0.0191145928727 5.66056804582e-23)
(-0.0572294197951 -0.0222087042456 6.89782340706e-23)
(-0.0553798300418 -0.0214994319812 9.13013627986e-23)
(-0.0581528169919 -0.0249605379486 -5.28044844166e-22)
(-0.0564230885283 -0.0240168126356 -1.11027553497e-23)
(-0.0582193485029 -0.0280925491764 -1.70977114926e-21)
(-0.0569517121135 -0.0266866858594 -1.04557204956e-21)
(-0.0561632817243 -0.0320961172678 -1.55352540604e-21)
(-0.0559448311647 -0.0297069364934 -2.10860066475e-21)
(-0.0518199692034 -0.0377408538894 -3.83898614835e-21)
(-0.0515669229653 -0.0337441078035 -2.67529620156e-21)
(-0.0500040661942 -0.0450711469893 -1.39812272746e-20)
(-0.0455278055292 -0.0411850956216 -7.02214427003e-21)
(-0.0480140506664 -0.0518975472055 -2.85310623479e-20)
(-0.0472239132332 -0.0358432722036 -1.67644920351e-20)
(-0.0462720294779 -0.0597631086468 -3.14958053189e-20)
(-0.0411307559598 -0.0548884058073 -2.28657875111e-20)
(-0.039295885578 -0.0707673960926 -1.62604257587e-20)
(-0.0536508595469 -0.0208552737756 7.23542307992e-23)
(-0.0518863793767 -0.0202692498893 5.95077906113e-23)
(-0.0547415133023 -0.0232319508425 1.12203733784e-23)
(-0.0530032043153 -0.022591723103 7.23768377797e-23)
(-0.0554861348886 -0.0256628325988 -5.28629960742e-22)
(-0.0539922759448 -0.0249422764027 -1.01243272927e-23)
(-0.0550971177828 -0.0282208487561 -1.44440156505e-21)
(-0.0543937717936 -0.0272587175349 -5.74911934851e-22)
(-0.0519848704842 -0.0312981954272 -3.23037146027e-21)
(-0.0528675540489 -0.029701519958 -3.17753069439e-22)
(-0.0464095083712 -0.0354804030058 -5.85845432324e-21)
(-0.0473847646364 -0.0327854881105 -3.04818613201e-21)
(-0.0439949661939 -0.0398961006747 -9.80540903052e-21)
(-0.0411121278211 -0.0378176834042 -2.55353918372e-21)
(-0.0385346449204 -0.0450430186619 -1.10992171983e-20)
(-0.0420769765022 -0.032775501423 -5.75408585127e-21)
(-0.0333781125011 -0.062657585889 -7.63040795079e-21)
(-0.0235173729244 -0.0488402522241 2.65899208737e-21)
(-0.0311011613979 -0.0666957984541 2.22726818059e-21)
(-0.0513532961008 -0.0219896742582 5.95303975917e-23)
(-0.0495858861109 -0.021386280901 1.32227777381e-23)
(-0.0524362599646 -0.0242982889344 5.10321371086e-23)
(-0.0506946441356 -0.0237191964044 2.56046478441e-24)
(-0.0531848609509 -0.0265718428646 -5.64063014022e-23)
(-0.0517187904548 -0.0260556394327 1.68005884886e-22)
(-0.0526116682832 -0.0288173716031 5.51736560757e-22)
(-0.0521483162894 -0.0283069644924 1.09493592131e-21)
(-0.0489354272687 -0.0312761645816 -1.35567741176e-22)
(-0.0504088276363 -0.0306292172944 5.21865705386e-21)
(-0.0428843915596 -0.0340532545842 2.56729007513e-22)
(-0.0446077215307 -0.0332341192131 9.01320037429e-21)
(-0.039703814078 -0.0365254997301 1.49778399553e-21)
(-0.0386399034157 -0.0364866186937 1.52079787562e-20)
(-0.0279397548518 -0.0404929124571 8.00412343439e-21)
(-0.0381095802482 -0.0311899948214 1.93311444841e-20)
(-0.0212735283593 -0.0533911030453 1.25166682188e-20)
(-0.0106179184482 -0.0432282893822 2.83619253441e-20)
(-0.023565048172 -0.0528941786239 2.00681131444e-20)
(-0.0490288258633 -0.0231587081598 -4.37471550692e-23)
(-0.0472167885828 -0.0224930263111 -2.50759250233e-24)
(-0.0501357347044 -0.025544272551 1.19534212562e-22)
(-0.0483091372201 -0.0249223862103 4.86061055583e-23)
(-0.0509186560191 -0.0279148878285 1.3193481076e-21)
(-0.0493482433798 -0.0274084489835 1.03636665279e-21)
(-0.0502822931294 -0.0303091061392 5.76185641441e-21)
(-0.0497541691492 -0.0298910419736 5.58777868901e-21)
(-0.046516385964 -0.032665308534 1.43674251693e-20)
(-0.0480526890832 -0.0324525137836 1.89096695537e-20)
(-0.0407679901426 -0.0345302226074 2.3964450123e-20)
(-0.0427428517805 -0.0347651729512 3.8347844676e-20)
(-0.0375449399028 -0.0354865737781 3.30413392448e-20)
(-0.0376835712226 -0.0364768075598 5.06302618975e-20)
(-0.0222665827461 -0.0365819181436 3.96889463938e-20)
(-0.0370142505431 -0.0304957621821 5.81814146158e-20)
(-0.0135975814023 -0.0401230276851 3.59133702697e-20)
(-0.00707590424959 -0.0388082496702 5.8989518275e-20)
(-0.0171512535254 -0.0409812385972 4.12211683544e-20)
(-0.0465839954056 -0.024329908191 8.98456681252e-23)
(-0.0447354575156 -0.0235595080394 5.38133236434e-23)
(-0.0476440254545 -0.0268947537315 9.65438545786e-22)
(-0.0457443493628 -0.0261251079104 4.09269057631e-22)
(-0.0483582573854 -0.0295578347817 5.30479723421e-21)
(-0.0466852282085 -0.0288207083638 2.87493463952e-21)
(-0.0477300689383 -0.0322642377859 1.87355918283e-20)
(-0.0470478333663 -0.0316208577045 1.31454799079e-20)
(-0.0444754778822 -0.0346361627896 4.28900890603e-20)
(-0.0456808233798 -0.0344279800165 3.95181048671e-20)
(-0.0398814421882 -0.0355802393486 6.50136564504e-20)
(-0.0417988157732 -0.0364567779836 7.84058278547e-20)
(-0.0373432705917 -0.0349068713916 7.57703372685e-20)
(-0.0383569550726 -0.0369015019281 1.02381784515e-19)
(-0.0215080516445 -0.0345325285653 7.7481986497e-20)
(-0.0373885984867 -0.0303423480913 1.09832588197e-19)
(-0.0103297761069 -0.0343376224316 6.42973163596e-20)
(-0.00727072242194 -0.036472588146 1.01648425868e-19)
(-0.0133585582736 -0.0351526359062 6.17225967777e-20)
(-0.0439701735681 -0.0254314172289 3.73236713149e-22)
(-0.0421379207324 -0.0245208322548 1.5927138555e-22)
(-0.0448875153491 -0.0281677206069 2.31876515136e-21)
(-0.0430080992673 -0.0271767547971 7.91385651066e-22)
(-0.0454849896382 -0.0310693459736 1.07156173132e-20)
(-0.0437836624112 -0.0299970342586 4.35896917092e-21)
(-0.0450838572858 -0.0340250616148 3.39279929467e-20)
(-0.0440921774255 -0.0329585479315 1.87235481416e-20)
(-0.0430285651527 -0.036375517971 7.50338436616e-20)
(-0.0433304188142 -0.0357921960873 5.33306711356e-20)
(-0.0402591764105 -0.0367131664348 1.15773955919e-19)
(-0.0414612023637 -0.0375651349844 1.0362615357e-19)
(-0.0385330037102 -0.0352767094013 1.36444035444e-19)
(-0.0397934243002 -0.0374646593971 1.37879799597e-19)
(-0.0222780837527 -0.0337165997412 1.33999027568e-19)
(-0.0389487096201 -0.0308408327363 1.46358837575e-19)
(-0.00931710244479 -0.0335361539303 9.90737062863e-20)
(-0.00745159461337 -0.035540703132 1.29631570115e-19)
(-0.0140129376327 -0.0312788029658 7.69087161973e-20)
(-0.0412451511391 -0.0263537681255 5.77420323467e-22)
(-0.039483953381 -0.025331404961 3.13353617243e-22)
(-0.0419848122693 -0.0291223387616 2.83158967063e-21)
(-0.0402395719348 -0.0279741134625 8.03058202402e-22)
(-0.0424999404381 -0.0320477784155 1.23668999993e-20)
(-0.0408582709458 -0.0307546590132 3.85918986316e-21)
(-0.0424914368537 -0.0349989128517 3.81262263305e-20)
(-0.0411410907919 -0.0336059404073 1.57968618187e-20)
(-0.0419222724363 -0.0371014437566 8.19229810444e-20)
(-0.0412279290928 -0.036224512594 4.54861055878e-20)
(-0.0411082972459 -0.0371900192763 1.25731997248e-19)
(-0.0413726543179 -0.0378202553312 8.75163170085e-20)
(-0.0402565082952 -0.0357713491552 1.47794601728e-19)
(-0.0412121040644 -0.0378228488415 1.19810699529e-19)
(-0.0246558838685 -0.0340739364612 1.41991380121e-19)
(-0.0406461209686 -0.0318135233437 1.25969660815e-19)
(-0.0124356445648 -0.0304486800888 1.07466580026e-19)
(-0.0110769325269 -0.0364025147123 1.10409674723e-19)
(-0.0157263925296 -0.0330107407405 6.94700328929e-20)
(-0.0385316883621 -0.0270439337601 5.38991496178e-22)
(-0.0369037040969 -0.0260268848454 2.63908450848e-22)
(-0.0391432281023 -0.0297222633922 1.83065839493e-21)
(-0.0375612700694 -0.0286036216793 3.95163543602e-22)
(-0.0396235600702 -0.0324825470292 7.28915168252e-21)
(-0.0380980191393 -0.0312390104601 1.87863914453e-21)
(-0.0400441992367 -0.0351165861993 2.3156741076e-20)
(-0.0385070836498 -0.0338327569672 7.65338114857e-21)
(-0.0408042995142 -0.0370381826868 5.10794415519e-20)
(-0.0393063601191 -0.0361238222781 2.40783260882e-20)
(-0.0415978616815 -0.0373682824207 8.15950192892e-20)
(-0.0410425726346 -0.0376377040023 4.93701532958e-20)
(-0.0414925103026 -0.0366329294296 9.7985758616e-20)
(-0.0419474643392 -0.0383770539511 6.84302597662e-20)
(-0.0265760864598 -0.0359586923686 9.43879554169e-20)
(-0.0413203528605 -0.0333936079537 7.21166864338e-20)
(-0.0144352315171 -0.0358755870752 7.24131275897e-20)
(-0.0111595720501 -0.039307306372 6.35539827195e-20)
(-0.0154214632439 -0.0454903173772 3.99168000368e-20)
(-0.035940724452 -0.0276778340402 1.20080498272e-22)
(-0.0343449581688 -0.0266959529413 2.4833023837e-22)
(-0.0365465331079 -0.0302220109135 4.43144293196e-22)
(-0.0350171009576 -0.0292197282615 1.88176799746e-22)
(-0.0370770727347 -0.0327743959212 2.24286861058e-21)
(-0.0355456458101 -0.0317255268232 8.7605779957e-22)
(-0.0378488854979 -0.0351119599494 8.57496616078e-21)
(-0.0361695327541 -0.0341386844639 3.14621132235e-21)
(-0.0395690994498 -0.0369135857848 2.23690378321e-20)
(-0.037504746178 -0.0361860429336 1.00946071351e-20)
(-0.0414234026609 -0.0376826667911 3.62053937729e-20)
(-0.040273499621 -0.0376284409994 2.00549092792e-20)
(-0.0416243126316 -0.0380579418756 4.2561187584e-20)
(-0.0415721916739 -0.0394428329795 2.4527692781e-20)
(-0.0241981909965 -0.0392186739574 4.12827137365e-20)
(-0.0401596283849 -0.0354215229628 2.53234489838e-20)
(-0.0110405649966 -0.0489372589171 3.10576551666e-20)
(-0.00144063561249 -0.0433421710194 2.16480489043e-20)
(-0.0134976430907 -0.0607547124495 7.94366452752e-21)
(-0.0334090471021 -0.0283307003696 3.16426539845e-22)
(-0.0318161713966 -0.0273630854394 3.60369864374e-22)
(-0.0340718644311 -0.0308129751452 6.2109030612e-22)
(-0.0325348005315 -0.0298200362743 3.7910563721e-22)
(-0.034733316635 -0.0332430008261 1.77940051134e-21)
(-0.0331155980517 -0.0321822226671 9.92046783121e-22)
(-0.0358729251674 -0.0354628794139 4.66585229666e-21)
(-0.0339496383602 -0.0344653817679 2.31230626087e-21)
(-0.038207577183 -0.0371990523253 7.78047858217e-21)
(-0.0357685619599 -0.0364560282121 5.31843436735e-21)
(-0.0404786273458 -0.0385364346242 8.37720828728e-21)
(-0.0389361128926 -0.0381039300627 8.31291111556e-21)
(-0.0401865028325 -0.040066662253 7.28995418073e-21)
(-0.0400419605923 -0.0410105737279 8.8445780398e-21)
(-0.0169091212644 -0.0432163077443 5.68878415163e-21)
(-0.0370099902991 -0.0377516403777 2.60686991121e-21)
(-0.00372921067239 -0.0595232919426 -1.46594173478e-21)
(0.0148660627986 -0.0476442701576 1.17189650579e-21)
(-0.0110724117404 -0.0713511227702 -3.73814688029e-21)
(-0.0309209191707 -0.0289331378579 4.2304896174e-22)
(-0.0293448445038 -0.0280560793578 8.89905784189e-22)
(-0.0316377783502 -0.0312958796709 7.50062114211e-22)
(-0.0301719921608 -0.0303783332822 1.04744737432e-21)
(-0.032389627335 -0.0335177170531 1.52495253266e-21)
(-0.0308937049417 -0.0324536304432 1.61423398465e-21)
(-0.0338546122425 -0.0356845806987 2.96488833156e-21)
(-0.0317827241389 -0.0344635186378 2.25151745254e-21)
(-0.0365814581053 -0.0375831119961 5.85086690074e-21)
(-0.0338700025275 -0.0364506127854 3.4122155607e-21)
(-0.0386245018634 -0.0395687267925 8.78028086808e-21)
(-0.0369504822591 -0.0387300265887 5.37873260658e-21)
(-0.0368778056922 -0.0424907470389 4.16149377028e-21)
(-0.0371199311899 -0.0429774778087 9.34603170915e-21)
(-0.00549719504106 -0.0475280478708 -1.91001773463e-21)
(-0.0319727141226 -0.0405610650946 7.25761261355e-22)
(0.00714734330851 -0.0667379746562 -1.10030863972e-21)
(0.0340743884742 -0.0510208476947 -4.66936724717e-22)
(-0.0106278306393 -0.0696111948921 -1.35024537975e-21)
(-0.0285850679438 -0.0295705082986 1.51430419677e-21)
(-0.029449247913 -0.0316639193298 1.91161924476e-21)
(-0.0302593583458 -0.0334847529088 2.34079890454e-21)
(-0.0317311120738 -0.0353976966389 2.69884468168e-21)
(-0.0342099246241 -0.0376557677621 2.94008126654e-21)
(-0.0353826111533 -0.0407987508821 5.94448344765e-21)
(-0.0321114566815 -0.045279330392 5.91029920023e-21)
(0.00491167688034 -0.0508919888605 2.16884227127e-21)
(0.0133488501797 -0.0606883506903 -7.16873464747e-22)
)
;

boundaryField
{
    back
    {
        type            calculated;
        value           uniform (0 0 0);
    }
    sides
    {
        type            calculated;
        value           nonuniform List<vector> 0();
    }
    bottom
    {
        type            calculated;
        value           nonuniform List<vector> 0();
    }
    front
    {
        type            calculated;
        value           uniform (0 0 0);
    }
    atmosphere
    {
        type            calculated;
        value           nonuniform List<vector> 
16
(
(0 -0.0909412618555 0)
(0 -0.0959852592227 0)
(0 -0.0890714241077 0)
(0 -0.0797196875164 0)
(0 -0.0701828328353 0)
(0 -0.0708514332893 0)
(0 -0.0609283300748 0)
(0 -0.0465376961123 0)
(0 -0.0381304389308 0)
(0 -0.0328814308623 0)
(0 -0.0287351777058 0)
(0 -0.0361809507982 0)
(0 -0.0508613946126 0)
(0 -0.0619483043783 0)
(0 -0.0671813246884 0)
(0 -0.0566817886711 0)
)
;
    }
    floatingObject
    {
        type            calculated;
        value           nonuniform List<vector> 0();
    }
    procBoundary5to0
    {
        type            processor;
        value           nonuniform List<vector> 
12
(
(-0.0606532706274 -0.00697384343055 -2.29425078332e-24)
(-0.0628436994905 -0.00837752181467 3.80150381747e-24)
(-0.0653320201206 -0.0100287418274 -1.09324676351e-25)
(-0.0681496417166 -0.0120037153719 4.2454024574e-23)
(-0.0713552251826 -0.0143887489302 2.85350989575e-23)
(-0.0750664234078 -0.0172861405437 -4.32407514455e-23)
(-0.079229559074 -0.0211714430969 -1.3335392903e-21)
(-0.0832554626631 -0.0249321039093 1.13148387094e-21)
(-0.0877609415799 -0.0350536410063 -4.34257129214e-21)
(-0.0955233174883 -0.0248947231542 -8.62325974011e-21)
(-0.132803856448 -0.0512102190737 -1.48547336757e-20)
(-0.100406601838 -0.0881984744121 -1.12170365877e-20)
)
;
    }
    procBoundary5to3
    {
        type            processor;
        value           nonuniform List<vector> 10((-0.026967418486 -0.0289655251579 4.49064242393e-21) (-0.0280784974347 -0.0311419897989 5.01324338106e-21) (-0.0290727869987 -0.0328017163526 5.41409375167e-21) (-0.0298697196744 -0.0343796287405 4.91996655065e-21) (-0.031611887044 -0.0363039806232 3.50164995203e-21) (-0.0338074805075 -0.0396773475526 2.80114963173e-21) (-0.032639340619 -0.0455859714439 8.83961811314e-21) (-0.0263601042768 -0.0438876984343 2.90191980414e-21) (0.0438687387677 -0.0516394238176 7.23716881316e-22) (-0.0146328140181 -0.0483839172335 -1.9072385064e-21));
    }
    procBoundary5to4
    {
        type            processor;
        value           nonuniform List<vector> 
18
(
(-0.0590326609658 -0.00727120845176 -6.72319151659e-25)
(-0.0575840565622 -0.00900300083617 9.53669531239e-24)
(-0.0575700252457 -0.0106442271212 2.59720459161e-23)
(-0.0592989161946 -0.012490765103 2.73764298133e-23)
(-0.0591678917881 -0.0143985711934 3.25806801002e-23)
(-0.0569632538641 -0.0159901832784 3.43220663946e-23)
(-0.0547208164422 -0.0173503774406 3.86522327115e-23)
(-0.0524780187177 -0.018558900521 4.67379840345e-23)
(-0.0502321831561 -0.0196891473724 5.20070003933e-23)
(-0.0479321041957 -0.020789561833 2.87074728618e-23)
(-0.0455350260117 -0.0218485202954 5.52185380767e-23)
(-0.0430252653017 -0.0228338248363 8.45772534901e-23)
(-0.0404377762113 -0.0236997563368 1.59404270625e-22)
(-0.03784080987 -0.0244636606977 2.85384663156e-22)
(-0.0352653623117 -0.0251190927536 1.75583769036e-22)
(-0.0326971793759 -0.0258019597877 2.77911918584e-22)
(-0.0301505704968 -0.0264618976349 3.53685525804e-22)
(-0.0276441612638 -0.0271932178708 1.34235093105e-21)
)
;
    }
}


// ************************************************************************* //
