/*--------------------------------*- C++ -*----------------------------------*\
| =========                 |                                                 |
| \\      /  F ield         | OpenFOAM: The Open Source CFD Toolbox           |
|  \\    /   O peration     | Version:  v2012                                 |
|   \\  /    A nd           | Website:  www.openfoam.com                      |
|    \\/     M anipulation  |                                                 |
\*---------------------------------------------------------------------------*/
FoamFile
{
    version     2.0;
    format      ascii;
    class       volVectorField;
    location    "4.9";
    object      ddtCorrDdt0(U);
}
// * * * * * * * * * * * * * * * * * * * * * * * * * * * * * * * * * * * * * //

dimensions      [0 1 -2 0 0 0 0];


internalField   nonuniform List<vector> 
167
(
(0.0115365445762 -0.140082215431 -1.62058570098e-22)
(0.0130212625876 -0.164515907763 -3.66442137914e-22)
(0.014916214224 -0.192563598399 -1.68755951527e-22)
(0.0174728563002 -0.225382625336 -1.77519208679e-22)
(0.020953383461 -0.264185910296 -4.50894117429e-22)
(0.0258531376213 -0.311654250996 -9.97486285104e-22)
(0.0327447862333 -0.366965356874 -5.83762063207e-22)
(0.0435897918255 -0.44977557538 -1.91641795225e-21)
(0.0582124972267 -0.528548001026 2.83315647418e-20)
(0.0506971623964 -0.576447181704 3.01700242651e-19)
(0.404909595227 -0.602936615807 -8.06607905332e-19)
(13.3503694844 -1.75975162836 -5.36859439006e-19)
(0.0332105402284 -0.137785036446 4.66742534534e-23)
(0.0375129288421 -0.161556896394 8.75487989559e-23)
(0.0430404310648 -0.188574961829 7.80949963318e-23)
(0.0503617295501 -0.219827531134 3.76521894469e-23)
(0.0601939814258 -0.256556456057 -3.64625056375e-22)
(0.0736735231805 -0.300932555541 -1.21348141165e-21)
(0.0922555736585 -0.351095378231 -2.40017797913e-21)
(0.120030961581 -0.422024463946 -4.19833465395e-21)
(0.155529454112 -0.475660074815 2.14845882204e-22)
(0.184425426618 -0.463546873267 -8.78912285629e-20)
(0.55297851144 -0.498976125165 4.17600684742e-19)
(-2.43755429732 -1.34379778743 2.82599299568e-19)
(0.054255932791 -0.132691375217 -1.84960236228e-22)
(0.0610608076975 -0.154997167558 1.43144148127e-22)
(0.069776824879 -0.180077803926 2.94802989248e-23)
(0.0811247418953 -0.2086385569 -2.43957437365e-22)
(0.0961648235681 -0.241495620781 -6.62031005511e-22)
(0.116603763413 -0.280508453945 1.85344924793e-22)
(0.14437576623 -0.323655655715 -1.53910513998e-21)
(0.182698127421 -0.385251817168 -1.4890332406e-20)
(0.225365283931 -0.437612533151 3.93519770985e-20)
(0.24285540574 -0.430094711997 -1.50192777892e-19)
(0.481810222209 -0.556958449203 2.92744156158e-19)
(1.54401536915 -0.476852247814 4.66814876578e-19)
(0.0827323633632 -0.145950018038 -1.16170765795e-22)
(0.0939662763418 -0.168394770276 -1.24341821651e-23)
(0.108407185538 -0.193346605045 -1.1340423578e-22)
(0.127341998921 -0.221150577384 -1.35008926981e-22)
(0.152615951938 -0.253107774022 -3.3900848541e-22)
(0.187061231568 -0.286367580011 2.18726425676e-21)
(0.234995040359 -0.336246273512 -1.95772486689e-21)
(0.290686383519 -0.367762755288 -4.88657668485e-21)
(0.320829717425 -0.350300253753 -1.51770545734e-20)
(0.531222089928 -0.440007349112 -1.48965774932e-19)
(0.846735146104 -0.102049740149 -1.22234428347e-19)
(0.114939756965 -0.154365411286 -3.43290681681e-23)
(0.131384471494 -0.175229784684 -1.7288100259e-22)
(0.152517630999 -0.197334369567 -5.478871277e-22)
(0.180094596743 -0.221193335795 -5.68920127826e-22)
(0.217160310494 -0.242096407535 -1.85952436972e-22)
(0.267904466555 -0.2735335352 -3.23618084617e-21)
(0.326056246059 -0.272856654658 2.55634635954e-20)
(0.348309850153 -0.249457495859 8.27330145108e-21)
(0.465610466881 -0.288029321921 -3.65610313223e-20)
(0.642802908223 0.0783131080862 -2.53905062994e-20)
(0.132585217171 -0.138907049842 -3.38327959379e-23)
(0.149907709697 -0.155706238539 -1.18315910434e-22)
(0.171456570016 -0.17239024468 -6.88976137949e-22)
(0.198582946675 -0.188672366808 -3.90838310315e-22)
(0.232766545394 -0.198879560908 -1.69308837827e-21)
(0.276055172957 -0.208738092329 -1.81649450703e-21)
(0.31883148535 -0.185413807613 4.46953247787e-20)
(0.331353971628 -0.157610050217 5.7851191755e-20)
(0.421633488983 -0.156372236451 -2.42236839313e-19)
(0.450878086314 -0.294922012382 -2.31148872285e-19)
(0.147116173619 -0.123043708402 -6.81992326321e-23)
(0.164376205646 -0.136280251191 -1.69432136885e-22)
(0.1850801994 -0.148561212529 -5.00789078953e-22)
(0.209731120841 -0.159794508776 -5.63655328933e-22)
(0.238520960195 -0.164486684365 -5.61602049335e-21)
(0.271366452448 -0.170140510853 -1.95938719597e-22)
(0.296171839783 -0.151607366074 5.33329367813e-20)
(0.320787738864 -0.14175429313 3.80498644719e-20)
(0.586192795628 -0.182740186816 -1.44429376383e-19)
(0.407271351357 -0.297871810525 -8.44195324942e-20)
(0.15881744927 -0.107383053033 -1.03212441361e-22)
(0.175525396229 -0.117640454538 -2.90922815601e-22)
(0.195013169882 -0.126914234594 -4.43942880447e-22)
(0.217170177298 -0.135015345365 -4.11955643866e-25)
(0.241547752123 -0.137706411593 -2.15792848547e-21)
(0.267867622638 -0.149415828993 -1.13251030731e-20)
(0.285019154701 -0.132815859721 3.67519588409e-20)
(0.330432481073 -0.140543910429 1.26522704344e-20)
(0.66310353174 -0.159818196136 8.53186049197e-20)
(0.474861877994 -0.0644826743394 8.66445591692e-20)
(0.168039684946 -0.0922126352375 -4.78361053864e-23)
(0.184040435386 -0.100004550494 -2.42150679464e-22)
(0.202389466346 -0.106840807385 -4.67337197885e-23)
(0.223019420074 -0.113021836716 -6.04606286994e-22)
(0.245154700174 -0.114430783925 1.22449089936e-21)
(0.268514423644 -0.129683531706 -8.42864618875e-21)
(0.282592027582 -0.115607859098 -4.31605360863e-21)
(0.327085193017 -0.133896930469 -9.88010522941e-21)
(0.577162113077 -0.139332036634 1.5488591144e-20)
(0.457975298703 0.108295898761 -1.19343872646e-21)
(0.175049303489 -0.0776676016606 -5.1955318311e-23)
(0.190281472248 -0.0832634014881 -2.41630976504e-22)
(0.207674819447 -0.0879344238687 -1.6921824189e-22)
(0.227335154226 -0.09198976664 -7.51222046556e-22)
(0.248953980346 -0.0927086706461 -1.42038348008e-22)
(0.271817818269 -0.106134259672 -3.92376489464e-21)
(0.283982902121 -0.0970499100484 1.41134313127e-21)
(0.318900171464 -0.120095476499 -1.40227524402e-20)
(0.468488960881 -0.129022332106 6.87633173998e-20)
(0.408834072289 0.0878258564819 3.27028338815e-20)
(0.18002782931 -0.0638769612385 -5.16013460553e-23)
(0.194386878345 -0.0674091452436 -1.59499469045e-22)
(0.210793203413 -0.0698664140415 3.18632442939e-23)
(0.2295889186 -0.0715996619863 -9.85656315066e-22)
(0.250957415712 -0.0704844844209 -6.34974037265e-22)
(0.274110233957 -0.0782984070903 -2.26205387214e-21)
(0.286670958005 -0.069567457632 -9.37650603332e-21)
(0.32304050382 -0.0871104736301 -3.93615284314e-21)
(0.430503083542 -0.0856712188525 -3.58458616708e-20)
(0.356333919209 -0.104868135352 -5.36921244356e-20)
(0.183105435462 -0.0509434543412 -3.82733234355e-23)
(0.196397487277 -0.0525507288593 -2.53776227073e-23)
(0.211596012375 -0.0528486986729 -1.75921245894e-22)
(0.22911193654 -0.0519158089681 -5.41815400241e-22)
(0.249650405187 -0.0483585077007 -1.34255117559e-21)
(0.271898534208 -0.0492594051263 9.69464163301e-22)
(0.287088548855 -0.0405011678351 7.85931581722e-22)
(0.326692309783 -0.0524948896551 1.84636485803e-21)
(0.463691120316 -0.0419687423313 -2.51413091102e-20)
(0.324777664246 -0.0664653150586 -4.13337476038e-21)
(0.184481786003 -0.0390703589252 -2.78287919031e-23)
(0.196471501501 -0.0389725909042 7.60386775974e-23)
(0.210098980087 -0.0372884916554 -7.73646670516e-23)
(0.225727823016 -0.0338090773948 -2.63932763216e-22)
(0.244206572218 -0.0273211930806 -1.29431693416e-21)
(0.264774177084 -0.0216002489675 -2.54926931723e-21)
(0.283057968485 -0.008179376034 1.94038215042e-20)
(0.32619720005 -0.0171653158021 2.82918093899e-22)
(0.45099036964 0.00346856810214 -2.77983699666e-20)
(0.308598767926 0.1136170046 -3.27687070209e-20)
(0.184409175854 -0.0284725823728 -4.23530892468e-23)
(0.194912525664 -0.0270107296383 -1.65901538118e-23)
(0.206614765309 -0.0237141706268 -1.97328202557e-22)
(0.219755192923 -0.018147175705 -6.73094605264e-22)
(0.234995963966 -0.00906194059895 -1.12077336707e-21)
(0.251785377689 0.0020448476189 -8.66413937795e-21)
(0.269441194601 0.0234005574042 -5.86520134537e-21)
(0.313452737391 0.0147451061092 -2.41258041621e-24)
(0.397764085156 0.0579426895265 -5.02866303115e-20)
(0.269661107708 0.131482577947 -2.67913174002e-20)
(0.183203476553 -0.0192766618764 -9.74033558288e-24)
(0.192131596361 -0.0168782586359 3.91349520132e-23)
(0.201726448695 -0.0125651051712 -9.74336198933e-23)
(0.212020919258 -0.00579301114585 -7.00396986229e-23)
(0.22323768501 0.00477486804144 9.56562418266e-22)
(0.234533878884 0.0196987670693 -7.23295557851e-22)
(0.245320937659 0.0445185337085 2.07333629284e-22)
(0.281484306852 0.0367306711179 3.55104683686e-21)
(0.338000261536 0.115996672889 -1.88624613606e-21)
(0.242366195419 0.25264496543 2.12674227987e-20)
(0.181298980612 -0.0115021433598 -3.00689909105e-23)
(0.188650982854 -0.00858875389112 -4.21967607292e-23)
(0.196183081551 -0.0039273964969 -6.61655837385e-23)
(0.203635208773 0.00301016791999 5.30513607587e-23)
(0.210836155696 0.0134585631498 1.53335914802e-21)
(0.216032105267 0.0288853931365 1.68911709375e-21)
(0.216822596178 0.0513253247637 8.77315478928e-22)
(0.237942826795 0.0422781648637 3.96547907311e-21)
(0.196623492989 0.129810176194 1.765443615e-20)
(0.17718503829 0.362688037215 2.55123937241e-21)
)
;

boundaryField
{
    back
    {
        type            calculated;
        value           uniform (0 0 0);
    }
    sides
    {
        type            calculated;
        value           uniform (0 0 0);
    }
    bottom
    {
        type            calculated;
        value           nonuniform List<vector> 0();
    }
    front
    {
        type            calculated;
        value           uniform (0 0 0);
    }
    atmosphere
    {
        type            calculated;
        value           nonuniform List<vector> 
16
(
(9.07783090457 -1.75975162836 -9.6234228039e-18)
(1.70065413804 -1.34379778743 -5.74495554789e-18)
(-4.94456096645e-10 -0.476852247814 -4.40835900787e-29)
(-0.0041202696139 -0.102049740149 3.23931398509e-22)
(0.144183992061 0.0783131080862 4.5899570789e-20)
(-0.0629079460135 -0.294922012382 8.81081275653e-20)
(0.441143109138 -0.297871810525 -4.63124458723e-19)
(0.132280807297 -0.0644826743394 2.87893381777e-21)
(-0.017565350147 0.108295898761 -1.23828419316e-22)
(-0.00192478709444 0.0878258564819 -4.96738195006e-21)
(-0.011127844447 -0.104868135352 -2.29910225034e-22)
(-0.00480937087114 -0.0664653150586 -7.4378589083e-22)
(-0.00106853631981 0.1136170046 1.78238759184e-22)
(0.00135350162261 0.131482577947 -1.7355647956e-23)
(3.57787984949e-05 0.25264496543 -2.11706659952e-24)
(1.52622561473e-05 0.362688037215 -5.917635347e-25)
)
;
    }
    floatingObject
    {
        type            calculated;
        value           nonuniform List<vector> 0();
    }
    procBoundary1to0
    {
        type            processor;
        value           nonuniform List<vector> 10((0.179046118414 -0.00503058882851 -2.37867257501e-23) (0.184995965962 -0.00207051778751 -8.25609894821e-24) (0.190699713792 0.00232638390433 -9.76092383995e-23) (0.195703332694 0.00850088432527 -2.93483722484e-22) (0.199988575354 0.0169277792963 -8.65337918159e-22) (0.200317675708 0.0292006912608 4.94337505581e-21) (0.19577714645 0.0457832544397 7.52091979462e-21) (0.20403879577 0.036294916601 5.48037620761e-21) (0.0206002816713 0.09466512847 2.3063987736e-20) (0.113847637294 0.321401320029 5.91275038551e-21));
    }
    procBoundary1to2
    {
        type            processor;
        value           nonuniform List<vector> 
18
(
(0.010363600038 -0.118441247473 -8.27984531467e-24)
(0.0298476523821 -0.116659731793 3.94377730718e-22)
(0.0489126282199 -0.112692927698 -6.89861942748e-23)
(0.0738615551065 -0.125590699574 3.69454706175e-23)
(0.0738615551065 -0.125590699574 3.69454706175e-23)
(0.10192174148 -0.134890411139 -2.71095152265e-23)
(0.10192174148 -0.134890411139 -2.71095152265e-23)
(0.118630443461 -0.12261491092 -3.85818234569e-23)
(0.132896156204 -0.109729387673 -6.2417425191e-23)
(0.144728260314 -0.0966981932476 -3.03163456635e-23)
(0.154327727663 -0.08384084546 -1.22622596181e-23)
(0.161878896601 -0.071372982382 -3.30090014102e-23)
(0.167550083117 -0.0594801978063 -2.91848237213e-23)
(0.171503833127 -0.0482741132806 -1.26583607498e-23)
(0.17390953191 -0.037916460954 -1.14107816653e-23)
(0.175003446407 -0.0285448280035 1.63216109091e-23)
(0.175052412051 -0.0202713839972 -3.62422141305e-23)
(0.174332638006 -0.0130952298912 4.21236022238e-23)
)
;
    }
}


// ************************************************************************* //
