/*--------------------------------*- C++ -*----------------------------------*\
| =========                 |                                                 |
| \\      /  F ield         | OpenFOAM: The Open Source CFD Toolbox           |
|  \\    /   O peration     | Version:  v2012                                 |
|   \\  /    A nd           | Website:  www.openfoam.com                      |
|    \\/     M anipulation  |                                                 |
\*---------------------------------------------------------------------------*/
FoamFile
{
    version     2.0;
    format      ascii;
    class       volScalarField;
    location    "4.9";
    object      p_rgh;
}
// * * * * * * * * * * * * * * * * * * * * * * * * * * * * * * * * * * * * * //

dimensions      [1 -1 -2 0 0 0 0];


internalField   nonuniform List<scalar> 
167
(
8783.95605496
8790.9616374
8799.14131882
8808.65094239
8819.69522134
8832.61472901
8847.77822457
8865.34177845
8886.42945176
8483.98992793
2923.40874242
-0.171572186789
8782.90466446
8789.77398189
8797.77692844
8807.03157745
8817.77097357
8830.28615165
8844.93727264
8861.91754964
8882.56380611
8593.00599955
2649.57230671
-0.161489371575
8780.80514262
8787.38351597
8795.04058997
8803.85566277
8813.98683907
8825.71278764
8839.36801448
8855.17906094
8874.60862422
8580.21732064
2479.84057265
-0.139407116363
8783.8920793
8791.01827442
8799.1957502
8808.54260956
8819.18411682
8831.35131835
8845.13272236
8861.56322595
8436.42041974
2195.82129921
-0.100429485066
8785.93975848
8793.3234592
8801.71276404
8811.04211734
8821.42901099
8832.72232609
8845.31447575
8167.99068932
1944.19500173
-0.0610292284124
8779.95444456
8786.50201342
8793.81891532
8801.77308452
8810.33963804
8819.25658277
8828.33969416
7851.80324156
1791.24776999
-0.0664719778175
8773.23084795
8778.94735956
8785.2012757
8791.85772314
8798.84109821
8805.81958066
8812.68593815
7694.19113072
1599.49752809
-0.0833176824661
8765.94959919
8770.85486353
8776.10533647
8781.60801503
8787.28174167
8792.71481602
8798.13116946
7633.86813504
1350.83210776
-0.0609251312766
8758.24775954
8762.38732646
8766.75067603
8771.20150125
8775.7343271
8779.91881522
8784.0460698
7534.19130671
1139.73496307
-0.0356994492813
8750.24505394
8753.6777294
8757.21305876
8760.75456592
8764.26538105
8767.42406542
8770.49986001
7399.80264039
994.045383454
-0.0250054785957
8742.08484956
8744.82002892
8747.58816134
8750.29444907
8752.87599065
8755.13423113
8757.27561738
7229.85620249
892.420521382
-0.0242232399453
8733.76278392
8735.87877162
8737.95959742
8739.90875793
8741.62751538
8743.02746507
8744.16825654
7050.46091994
796.159184263
-0.0277772656976
8725.37532332
8726.95483681
8728.43500091
8729.70807641
8730.65910013
8731.17141574
8731.20503814
6870.61902103
693.333924314
-0.024875117525
8717.00755666
8718.12352506
8719.09057557
8719.78901124
8720.08524375
8719.79369517
8718.77438589
6696.28890395
599.597740053
-0.0158590036299
8708.70076651
8709.42706561
8709.9792183
8710.22173934
8710.02296585
8709.14016448
8707.33551505
6543.64374188
515.119873662
-0.00521029713514
8700.45919894
8700.88125136
8701.11270553
8701.03427529
8700.52027029
8699.3528734
8697.22254506
6412.3233824
447.17523351
0.000789300174301
)
;

boundaryField
{
    back
    {
        type            fixedFluxPressure;
        gradient        uniform 0;
        value           nonuniform List<scalar> 
167
(
8783.95605496
8790.9616374
8799.14131882
8808.65094239
8819.69522134
8832.61472901
8847.77822457
8865.34177845
8886.42945176
8483.98992793
2923.40874242
-0.171572186789
8782.90466446
8789.77398189
8797.77692844
8807.03157745
8817.77097357
8830.28615165
8844.93727264
8861.91754964
8882.56380611
8593.00599955
2649.57230671
-0.161489371575
8780.80514262
8787.38351597
8795.04058997
8803.85566277
8813.98683907
8825.71278764
8839.36801448
8855.17906094
8874.60862422
8580.21732064
2479.84057265
-0.139407116363
8783.8920793
8791.01827442
8799.1957502
8808.54260956
8819.18411682
8831.35131835
8845.13272236
8861.56322595
8436.42041974
2195.82129921
-0.100429485066
8785.93975848
8793.3234592
8801.71276404
8811.04211734
8821.42901099
8832.72232609
8845.31447575
8167.99068932
1944.19500173
-0.0610292284124
8779.95444456
8786.50201342
8793.81891532
8801.77308452
8810.33963804
8819.25658277
8828.33969416
7851.80324156
1791.24776999
-0.0664719778175
8773.23084795
8778.94735956
8785.2012757
8791.85772314
8798.84109821
8805.81958066
8812.68593815
7694.19113072
1599.49752809
-0.0833176824661
8765.94959919
8770.85486353
8776.10533647
8781.60801503
8787.28174167
8792.71481602
8798.13116946
7633.86813504
1350.83210776
-0.0609251312766
8758.24775954
8762.38732646
8766.75067603
8771.20150125
8775.7343271
8779.91881522
8784.0460698
7534.19130671
1139.73496307
-0.0356994492813
8750.24505394
8753.6777294
8757.21305876
8760.75456592
8764.26538105
8767.42406542
8770.49986001
7399.80264039
994.045383454
-0.0250054785957
8742.08484956
8744.82002892
8747.58816134
8750.29444907
8752.87599065
8755.13423113
8757.27561738
7229.85620249
892.420521382
-0.0242232399453
8733.76278392
8735.87877162
8737.95959742
8739.90875793
8741.62751538
8743.02746507
8744.16825654
7050.46091994
796.159184263
-0.0277772656976
8725.37532332
8726.95483681
8728.43500091
8729.70807641
8730.65910013
8731.17141574
8731.20503814
6870.61902103
693.333924314
-0.024875117525
8717.00755666
8718.12352506
8719.09057557
8719.78901124
8720.08524375
8719.79369517
8718.77438589
6696.28890395
599.597740053
-0.0158590036299
8708.70076651
8709.42706561
8709.9792183
8710.22173934
8710.02296585
8709.14016448
8707.33551505
6543.64374188
515.119873662
-0.00521029713514
8700.45919894
8700.88125136
8701.11270553
8701.03427529
8700.52027029
8699.3528734
8697.22254506
6412.3233824
447.17523351
0.000789300174301
)
;
    }
    sides
    {
        type            fixedFluxPressure;
        gradient        uniform 0;
        value           nonuniform List<scalar> 
12
(
8783.95605496
8790.9616374
8799.14131882
8808.65094239
8819.69522134
8832.61472901
8847.77822457
8865.34177845
8886.42945176
8483.98992793
2923.40874242
-0.171572186789
)
;
    }
    bottom
    {
        type            fixedFluxPressure;
        gradient        nonuniform List<scalar> 0();
        value           nonuniform List<scalar> 0();
    }
    front
    {
        type            fixedFluxPressure;
        gradient        uniform 0;
        value           nonuniform List<scalar> 
167
(
8783.95605496
8790.9616374
8799.14131882
8808.65094239
8819.69522134
8832.61472901
8847.77822457
8865.34177845
8886.42945176
8483.98992793
2923.40874242
-0.171572186789
8782.90466446
8789.77398189
8797.77692844
8807.03157745
8817.77097357
8830.28615165
8844.93727264
8861.91754964
8882.56380611
8593.00599955
2649.57230671
-0.161489371575
8780.80514262
8787.38351597
8795.04058997
8803.85566277
8813.98683907
8825.71278764
8839.36801448
8855.17906094
8874.60862422
8580.21732064
2479.84057265
-0.139407116363
8783.8920793
8791.01827442
8799.1957502
8808.54260956
8819.18411682
8831.35131835
8845.13272236
8861.56322595
8436.42041974
2195.82129921
-0.100429485066
8785.93975848
8793.3234592
8801.71276404
8811.04211734
8821.42901099
8832.72232609
8845.31447575
8167.99068932
1944.19500173
-0.0610292284124
8779.95444456
8786.50201342
8793.81891532
8801.77308452
8810.33963804
8819.25658277
8828.33969416
7851.80324156
1791.24776999
-0.0664719778175
8773.23084795
8778.94735956
8785.2012757
8791.85772314
8798.84109821
8805.81958066
8812.68593815
7694.19113072
1599.49752809
-0.0833176824661
8765.94959919
8770.85486353
8776.10533647
8781.60801503
8787.28174167
8792.71481602
8798.13116946
7633.86813504
1350.83210776
-0.0609251312766
8758.24775954
8762.38732646
8766.75067603
8771.20150125
8775.7343271
8779.91881522
8784.0460698
7534.19130671
1139.73496307
-0.0356994492813
8750.24505394
8753.6777294
8757.21305876
8760.75456592
8764.26538105
8767.42406542
8770.49986001
7399.80264039
994.045383454
-0.0250054785957
8742.08484956
8744.82002892
8747.58816134
8750.29444907
8752.87599065
8755.13423113
8757.27561738
7229.85620249
892.420521382
-0.0242232399453
8733.76278392
8735.87877162
8737.95959742
8739.90875793
8741.62751538
8743.02746507
8744.16825654
7050.46091994
796.159184263
-0.0277772656976
8725.37532332
8726.95483681
8728.43500091
8729.70807641
8730.65910013
8731.17141574
8731.20503814
6870.61902103
693.333924314
-0.024875117525
8717.00755666
8718.12352506
8719.09057557
8719.78901124
8720.08524375
8719.79369517
8718.77438589
6696.28890395
599.597740053
-0.0158590036299
8708.70076651
8709.42706561
8709.9792183
8710.22173934
8710.02296585
8709.14016448
8707.33551505
6543.64374188
515.119873662
-0.00521029713514
8700.45919894
8700.88125136
8701.11270553
8701.03427529
8700.52027029
8699.3528734
8697.22254506
6412.3233824
447.17523351
0.000789300174301
)
;
    }
    atmosphere
    {
        type            totalPressure;
        rho             rho;
        psi             none;
        gamma           1;
        p0              uniform 0;
        value           nonuniform List<scalar> 
16
(
-0.00523345307854
-0.00324344474333
-0.00382073839916
-0.00348662072598
-0.00273597322572
-0.00271532390639
-0.00396793013443
-0.00350484731264
-0.00306058381535
-0.00254276632029
-0.00175585349657
-0.00163160482883
-0.00142885578068
-0.000817283317778
-0.00014637482092
-3.81714591506e-05
)
;
    }
    floatingObject
    {
        type            fixedFluxPressure;
        gradient        nonuniform List<scalar> 0();
        value           nonuniform List<scalar> 0();
    }
    procBoundary1to0
    {
        type            processor;
        value           nonuniform List<scalar> 10(8692.30413742 8692.4886208 8692.49189505 8692.20782374 8691.54835214 8690.41550803 8688.5259354 6304.19808497 396.270482132 0.00160846277764);
    }
    procBoundary1to2
    {
        type            processor;
        value           nonuniform List<scalar> 
18
(
8777.98075269
8777.04451594
8775.16535207
8777.73471074
8777.73471074
8779.44603916
8779.44603916
8774.1353345
8768.12065229
8761.52752103
8754.4867744
8747.10776329
8739.48585584
8731.68635774
8723.76903375
8715.80792979
8707.8409534
8699.89854133
)
;
    }
}


// ************************************************************************* //
