/*--------------------------------*- C++ -*----------------------------------*\
| =========                 |                                                 |
| \\      /  F ield         | OpenFOAM: The Open Source CFD Toolbox           |
|  \\    /   O peration     | Version:  v2012                                 |
|   \\  /    A nd           | Website:  www.openfoam.com                      |
|    \\/     M anipulation  |                                                 |
\*---------------------------------------------------------------------------*/
FoamFile
{
    version     2.0;
    format      ascii;
    class       surfaceVectorField;
    location    "0.3";
    object      ddtCorrDdt0(Uf);
}
// * * * * * * * * * * * * * * * * * * * * * * * * * * * * * * * * * * * * * //

dimensions      [0 1 -2 0 0 0 0];


internalField   nonuniform List<vector> 
300
(
(-0.165602298465 0.0113214126462 -4.35440728199e-23)
(-0.171722111701 0.00581813945769 -7.37124152202e-23)
(-0.170788450994 0.0231634322619 -8.92884081435e-23)
(-0.178286593273 0.0160844098381 -5.97173948035e-23)
(-0.174557403856 0.0357055995899 -2.98996066658e-23)
(-0.182357179625 0.0277292301624 -2.22657308395e-22)
(-0.179461680401 0.0480836728693 7.12636016489e-23)
(-0.186056796874 0.0393945942852 2.3038227825e-23)
(-0.186433751587 0.0614815395756 7.65504530287e-23)
(-0.192710792084 0.0510919581399 7.92657734546e-23)
(-0.195450058551 0.0758671781881 1.06659962024e-22)
(-0.201199638907 0.0639862924923 6.2615665875e-23)
(-0.206982222289 0.0913506309482 8.79322162882e-23)
(-0.212021858849 0.0777437293006 7.53093248834e-23)
(-0.225660676941 0.0926130951015 5.39011334205e-23)
(-0.176293360874 0.0102496542049 -8.98857372038e-23)
(-0.181972487046 0.00495010836273 -2.70087765181e-22)
(-0.181768978428 0.0200886125677 -1.93086295055e-22)
(-0.188126095804 0.0139536661687 2.06212118893e-22)
(-0.186140386734 0.0294899839917 -1.69719473904e-22)
(-0.191758816021 0.023899610516 -2.86537510907e-22)
(-0.191807845332 0.0411388890653 3.10403996307e-23)
(-0.197705663496 0.033771893939 -1.92890217129e-23)
(-0.199386649427 0.0526757570707 6.53309863009e-23)
(-0.204247390797 0.0435018597033 3.88740614112e-23)
(-0.209225788543 0.0646354840937 3.12650287344e-23)
(-0.213159041152 0.0541279462253 -5.85363413466e-24)
(-0.221722530908 0.0772324941565 4.12782420157e-23)
(-0.224618775628 0.0652266842902 -2.17586039674e-23)
(-0.237467960365 0.090593508075 -2.60004034042e-23)
(-0.239022011234 0.0768408217357 -1.27814183875e-23)
(-0.257165355224 0.104593995816 -8.47527553648e-23)
(-0.256963489434 0.0889247761346 4.13483486135e-23)
(-0.281726048148 0.119183405992 2.4636165952e-22)
(-0.279138781108 0.101330469279 -7.65763403707e-23)
(-0.306498142969 0.113744177031 -5.41632126671e-24)
(-0.186140589367 0.00822980247852 2.60100909161e-23)
(-0.190202932525 0.00388380361604 -2.82835508808e-22)
(-0.191264395805 0.0169524961772 1.12760903041e-22)
(-0.196849337106 0.0117401718865 6.26794448828e-22)
(-0.195967556628 0.0260419029178 -1.36107058716e-22)
(-0.200848632385 0.0195731805271 3.70344869171e-23)
(-0.202153563101 0.0346047694457 -1.14553599324e-23)
(-0.206268805993 0.0275671223495 1.33256965591e-23)
(-0.210026963062 0.0436757522472 -3.23105590243e-23)
(-0.213318568065 0.0355812402042 -3.32870977083e-23)
(-0.220287478348 0.0530478648419 -5.88772668364e-23)
(-0.222531360432 0.0438291053464 -1.84016086612e-23)
(-0.233259815845 0.0626609422397 -7.58182643706e-23)
(-0.234232195918 0.0522193989844 -6.99976674168e-23)
(-0.249413868299 0.072432936133 5.45673336302e-23)
(-0.248794523096 0.0606538859208 -2.40371775562e-22)
(-0.269345439281 0.0821646566392 4.95247636076e-23)
(-0.266695815225 0.0689595206681 6.06349785203e-24)
(-0.293794361874 0.0915417239459 -3.28354321158e-22)
(-0.288516405147 0.0768448218988 -3.67514014233e-22)
(-0.323662007899 0.100003607533 -6.84413947438e-22)
(-0.314959971486 0.0838354415024 -7.83677953883e-22)
(-0.360007221901 0.106685408858 4.12819565327e-22)
(-0.346837833753 0.0891932772236 -6.41612791542e-22)
(-0.385052969127 0.0917861870645 -2.6401556859e-22)
(-0.19384278772 0.00672415114014 3.17948849104e-22)
(-0.196927590791 0.00291647641487 9.75553101918e-23)
(-0.199293929111 0.0135971274293 5.51068032705e-22)
(-0.203722782163 0.00936824359885 1.72563064837e-21)
(-0.203976679211 0.0205908926779 1.86467242192e-22)
(-0.207842819938 0.0153179002446 3.14723350527e-22)
(-0.210145303979 0.0274478412701 -8.50604121683e-24)
(-0.213126147684 0.0213893223806 -8.01630540636e-23)
(-0.218237550081 0.0343420119836 -1.93781473452e-23)
(-0.220213141748 0.0274447692878 -4.56532550361e-23)
(-0.228612127836 0.0412153794041 -2.95220092416e-23)
(-0.229405185729 0.0334164591842 -1.59576156049e-23)
(-0.241591511137 0.0479508055437 -2.34551178609e-22)
(-0.240968170952 0.0392067613113 -7.64221026742e-23)
(-0.257564152018 0.0543657430161 -2.8887561134e-22)
(-0.255210060807 0.0446500085457 -2.40003302197e-22)
(-0.277000510079 0.0601711012565 -4.10975279988e-22)
(-0.272501742902 0.0494924944739 -3.59057782762e-22)
(-0.300457410692 0.064931306498 -8.22837646958e-22)
(-0.29327700648 0.0533560317293 -4.09430000869e-22)
(-0.328569873647 0.0679956090819 -7.40876797987e-22)
(-0.31802424596 0.0556884387242 -4.99773307851e-22)
(-0.362023808382 0.0684226021042 -1.31844792546e-21)
(-0.347263784009 0.0557018786131 -2.6468508188e-22)
(-0.401488719352 0.0648723499115 -1.32574061419e-21)
(-0.381500373501 0.0522770193514 -5.94323800402e-22)
(-0.421116300372 0.0439265642186 -1.00468824968e-22)
(-0.199932634378 0.00515243808802 1.50523710945e-21)
(-0.202080405801 0.00195628144251 -3.58160089985e-22)
(-0.205432701484 0.0102626839642 1.48928596619e-21)
(-0.208833408709 0.00699213341464 2.13678806206e-21)
(-0.210077858897 0.0153423923998 4.80930542714e-23)
(-0.212922918687 0.0111511438064 4.70192072195e-22)
(-0.21615750953 0.0202885419601 -1.17310267883e-22)
(-0.218072718157 0.0153374732862 -9.87579696294e-23)
(-0.224155013835 0.0250606830161 -4.22327232958e-23)
(-0.224985761636 0.0194242760483 -4.3778887883e-23)
(-0.234324894102 0.0295547244634 -6.28577090375e-23)
(-0.233899784124 0.0232215765676 -1.0875724511e-23)
(-0.246923533429 0.0336037077489 -8.1874226263e-23)
(-0.24501777289 0.0265841448883 -5.02537289568e-23)
(-0.262249304853 0.0369658665476 -3.10185473618e-22)
(-0.258572849188 0.0293007648515 -9.55152746065e-23)
(-0.280647156822 0.0392955159863 -3.57512503643e-22)
(-0.274831934038 0.0310710446537 -4.43190050234e-22)
(-0.302500267979 0.0401070331354 -8.63656617625e-23)
(-0.294088877175 0.031478267162 -4.33277121153e-22)
(-0.328208227559 0.0387283122572 -2.35815917444e-23)
(-0.316645535589 0.0299538711562 -1.9468009601e-22)
(-0.35814712583 0.0342454866182 4.59439043177e-22)
(-0.342780077593 0.0257343097164 -2.87755992793e-22)
(-0.392591985729 0.0254390152473 6.3094798882e-22)
(-0.372691952702 0.0178004444186 8.74721191547e-23)
(-0.406401890124 0.00486173547913 -3.27186916685e-22)
(-0.204357515766 0.00354951280482 2.73390862626e-22)
(-0.205630210893 0.00101703856164 -1.18713247985e-21)
(-0.209788062198 0.00697511543296 1.11769416807e-21)
(-0.212259337383 0.00464540131607 4.43387701718e-22)
(-0.214312830602 0.0102674592069 3.23341048295e-22)
(-0.216215628044 0.00711152060659 -3.69485056455e-22)
(-0.220190164843 0.0133415368679 -2.52265896296e-23)
(-0.221147217147 0.00950862743285 -1.12415086895e-22)
(-0.227888494869 0.0160934513297 -1.24218890982e-23)
(-0.227738169157 0.011720770369 -6.62216831079e-23)
(-0.237605320559 0.0183759076952 1.72825556968e-24)
(-0.236182810041 0.0134932854549 -3.84659344747e-23)
(-0.249529158313 0.0199860240399 -6.38947773003e-23)
(-0.246628507043 0.0146469263892 -1.62965628132e-22)
(-0.263871279449 0.0206489596153 -2.28519851222e-22)
(-0.259236389468 0.0149440114144 -4.01268550431e-23)
(-0.280861410815 0.0199962766612 -5.18954667744e-22)
(-0.274179770318 0.014065098563 -2.32964522436e-22)
(-0.300731489242 0.0175383342354 -5.415915554e-22)
(-0.291631284176 0.0115909883205 -4.8963223586e-22)
(-0.323688574187 0.0126331361092 -4.58854497059e-22)
(-0.3117404032 0.0069778307043 -2.61074464474e-22)
(-0.349870825098 0.00445272164235 -6.59722916816e-22)
(-0.334599025388 -0.00046880918728 -5.88963174999e-22)
(-0.379275807373 -0.00804884680733 -8.7066278635e-22)
(-0.360188921107 -0.0116267279026 -3.90060592024e-22)
(-0.388301803774 -0.0275566701157 -2.7688418117e-22)
(-0.207179629764 0.00199246524277 -1.01713564075e-21)
(-0.207622939636 0.000130621624538 -7.564478681e-22)
(-0.212456039925 0.00380796894979 -1.04379152281e-21)
(-0.214075155448 0.00239102845003 -1.25057549082e-21)
(-0.216775667589 0.00542363685467 -8.05241191645e-22)
(-0.217831658747 0.00326558722642 -9.7070646204e-22)
(-0.222343383482 0.00673976878866 -1.53410180373e-22)
(-0.222463767049 0.00399527903808 -1.93727225081e-22)
(-0.229593925749 0.00762269874362 -9.22657284844e-23)
(-0.228621576907 0.00447372520627 -2.54763610297e-23)
(-0.238677254844 0.0079001702052 -2.03159818177e-22)
(-0.236460813801 0.00440699157302 -8.0528040277e-23)
(-0.249721086931 0.00734998871227 -1.39197705875e-22)
(-0.246078885679 0.00359740939049 -1.53589643622e-22)
(-0.262859146869 0.00568657949464 -4.45715262574e-23)
(-0.257573517542 0.0017982163863 1.07942992458e-23)
(-0.278222109616 0.00254461784606 -2.03642090552e-22)
(-0.271038271987 -0.00130732010179 -1.01569643289e-22)
(-0.295919065523 -0.00253953297594 -2.09115144933e-22)
(-0.286547462267 -0.0061170530622 -1.37743908085e-22)
(-0.316009293917 -0.0101466395655 -3.91183142414e-22)
(-0.304133406453 -0.0131251408924 -8.48986230117e-23)
(-0.338460620427 -0.0209914399234 -3.19300850208e-22)
(-0.323753832085 -0.0229347827474 -4.0408884109e-22)
(-0.363091046149 -0.0359328554022 2.03718013156e-22)
(-0.345246542759 -0.0362724755099 3.66235938488e-22)
(-0.368270604356 -0.0539750616092 1.41435734469e-22)
(-0.20847063404 0.000520526920514 -9.89887718164e-22)
(-0.208143742958 -0.000688246836934 -6.1662912095e-22)
(-0.213537153795 0.000823491700375 -1.17749043005e-21)
(-0.214378453086 0.000273117868094 -7.44967338715e-22)
(-0.217586997837 0.000882731701307 -3.59192495476e-22)
(-0.217891272401 -0.000326745180774 -4.77034993408e-22)
(-0.222762076644 0.000583299749107 -6.57934057375e-23)
(-0.22216474392 -0.00112597217705 -8.26934175281e-23)
(-0.229460302706 -0.000224876522864 -1.37386728224e-23)
(-0.227813838252 -0.00221831951495 -3.91511817039e-23)
(-0.237789993383 -0.00172619239654 -3.09578657227e-23)
(-0.234959952638 -0.00392185228954 -8.41692106385e-23)
(-0.247826471228 -0.00414781981253 -3.59763850136e-24)
(-0.243657708411 -0.00644054987544 -2.06824470928e-24)
(-0.259637920272 -0.00776988593602 -4.62038177859e-23)
(-0.253951864045 -0.0100166902316 2.30785985867e-23)
(-0.273275124261 -0.0129367323197 -3.56714608226e-23)
(-0.265871770647 -0.0149497243605 -1.01557450039e-22)
(-0.288752939327 -0.0200680965343 -1.35273861636e-23)
(-0.279416342103 -0.0216016607021 1.86969953739e-23)
(-0.306023942265 -0.029668508401 -9.78043216873e-23)
(-0.294533085045 -0.0304044975744 7.19094150512e-24)
(-0.324942905397 -0.0423323722583 2.81447947605e-22)
(-0.311089742554 -0.041863863221 -1.2047196184e-22)
(-0.345221682762 -0.0587394380271 3.039536598e-22)
(-0.328838910598 -0.0565618672186 4.71299747766e-22)
(-0.347373307062 -0.0751344854514 -1.24701584737e-22)
(-0.208329019726 -0.00084340535306 -3.71708741502e-22)
(-0.207300649684 -0.00143188286239 -1.86123485432e-21)
(-0.213147657358 -0.00193571564247 -4.45119020725e-23)
(-0.213286510547 -0.00168015457958 -2.46636115335e-22)
(-0.216884522935 -0.00329931667455 -2.0053591546e-22)
(-0.216528060456 -0.0036234035364 3.35300600279e-22)
(-0.221611582594 -0.00505749028072 -5.60511934946e-23)
(-0.2204069595 -0.00580168114539 -1.19231647895e-23)
(-0.227692392172 -0.00736802113304 -1.0958171952e-22)
(-0.225503679611 -0.00829292990194 -6.80359283539e-23)
(-0.235199953729 -0.0104178331674 -5.52795896251e-23)
(-0.231910479247 -0.0114274981858 -1.1820383306e-22)
(-0.244166208892 -0.014428593444 2.46079923788e-23)
(-0.239647237448 -0.01540654365 -5.28958102346e-24)
(-0.254606924718 -0.0196640177784 -3.22750336665e-23)
(-0.248716664844 -0.0204587046735 2.96527263974e-23)
(-0.266511816485 -0.0264368155006 -4.71889938427e-23)
(-0.259099127215 -0.0268573915386 -4.38219420052e-23)
(-0.279827531962 -0.0351142388616 3.94153230426e-23)
(-0.270738997745 -0.0349215332981 8.6092351471e-23)
(-0.294434946657 -0.0461207637277 -1.54766986476e-23)
(-0.283526547201 -0.0450174505355 2.45186146335e-23)
(-0.310121333106 -0.0599352320837 6.93798383207e-23)
(-0.297275104975 -0.057557279408 -1.47463512564e-22)
(-0.32654534842 -0.077078815406 4.26445032288e-23)
(-0.311694968351 -0.0729933660224 1.18056722426e-22)
(-0.326359851966 -0.0917927012295 -1.19485901418e-22)
(-0.206871896376 -0.00208624224752 -1.73616222815e-21)
(-0.205214909958 -0.00209668442559 -1.65039662492e-21)
(-0.211417295812 -0.00444382446265 1.33176387016e-22)
(-0.210929445105 -0.00345203128545 -3.85493904939e-22)
(-0.214816082701 -0.00708706055581 5.23913350949e-22)
(-0.213885307604 -0.0065995884642 4.44173310065e-22)
(-0.219065319567 -0.0101412147205 -2.39078996489e-23)
(-0.217353216523 -0.0100023297759 -2.00491253967e-22)
(-0.224497611943 -0.0137646584281 -7.66580418934e-23)
(-0.221880543706 -0.0137198775187 -2.4170563646e-23)
(-0.231157070208 -0.0181393807851 -6.82138244579e-23)
(-0.227535938988 -0.0180851973283 -7.64993299728e-23)
(-0.239041479665 -0.023474461832 -2.44847004875e-25)
(-0.234312202259 -0.0232902867565 -9.84638214569e-24)
(-0.248126905226 -0.0300106239953 1.81058180587e-23)
(-0.242180420085 -0.0295445873157 -1.87284229882e-24)
(-0.258358977205 -0.0380238130787 8.94594033085e-23)
(-0.251085755155 -0.0370910576236 6.56742231222e-24)
(-0.26963824288 -0.0478267865575 7.11956430619e-23)
(-0.26093578357 -0.0462035187249 6.4743576998e-23)
(-0.281802136778 -0.05976735757 -1.07468199283e-22)
(-0.27158571767 -0.0571852026281 -5.21735157886e-23)
(-0.294603666362 -0.0742206411556 -9.87866284586e-23)
(-0.282821566293 -0.0703638664746 -1.6635117245e-22)
(-0.307685937526 -0.091575371075 -4.40736822208e-23)
(-0.2943399997 -0.086081104809 2.93996426904e-23)
(-0.320556609726 -0.112207258419 -1.2982740568e-23)
(-0.305727584432 -0.104668893243 -8.11632530848e-23)
(-0.332545815766 -0.136437618841 1.74306495085e-22)
(-0.316442138465 -0.126364043257 7.68406949577e-23)
(-0.325767200425 -0.151522643679 3.04252234699e-22)
(-0.204225774496 -0.00320084567267 -2.99728301707e-22)
(-0.202014807969 -0.00268206820962 -5.8927536624e-22)
(-0.208483098498 -0.00668796226566 -7.44969818904e-23)
(-0.207443044518 -0.00503478956846 1.03455750696e-22)
(-0.211533987998 -0.0104645857174 -2.80231294852e-22)
(-0.210109290246 -0.00924565319722 -5.02162362473e-22)
(-0.215297078834 -0.014652592562 -2.00753917964e-22)
(-0.21316563904 -0.0137194591288 -4.50277520333e-22)
(-0.220077191537 -0.0194054025739 -2.40118517255e-23)
(-0.217127938268 -0.018495609352 -8.69293155482e-23)
(-0.225895922235 -0.0248950228287 -1.81318876606e-23)
(-0.222046272361 -0.0239027225714 -2.37068163069e-23)
(-0.232725598329 -0.0313134929077 -1.14743774396e-23)
(-0.227893439074 -0.0301194818593 -1.75623583957e-23)
(-0.240513930227 -0.0388752548907 -1.34112380453e-23)
(-0.234618162197 -0.0373332202981 -1.49353547054e-23)
(-0.249176860506 -0.0478182945859 -1.81484039983e-23)
(-0.242142100266 -0.0457551355569 -3.41667269999e-23)
(-0.258586803152 -0.0584031042271 -5.86255818525e-23)
(-0.250350351674 -0.0556154857871 -8.20531159154e-23)
(-0.268558983716 -0.0709079915695 -1.11056488955e-22)
(-0.259080313329 -0.0671602861064 -1.39909059286e-23)
(-0.278835211414 -0.0856201997723 -3.81649013008e-23)
(-0.268109028408 -0.0806439313709 -9.57658291025e-23)
(-0.289067573513 -0.10282082245 -7.68992817368e-24)
(-0.277139257492 -0.0963176784523 5.11066878607e-23)
(-0.298804042506 -0.122760341764 8.66018244094e-24)
(-0.285788002475 -0.114409357788 -7.75986390285e-23)
(-0.30745957286 -0.14562551196 2.06786434572e-22)
(-0.293576827684 -0.135058111832 2.05012066016e-23)
(-0.299898637358 -0.158470709579 3.79011282538e-22)
(-0.200521252748 -0.00418592897595 -1.86091313838e-22)
(-0.204484707576 -0.00866655201864 -3.24209629887e-22)
(-0.207190114847 -0.0134319999872 -6.72208587954e-22)
(-0.210475231775 -0.0185971170617 -3.36452917917e-22)
(-0.214620488667 -0.0243064548497 -8.66242801296e-23)
(-0.219630702498 -0.0307187240422 -2.31372870419e-23)
(-0.2254603381 -0.0380065515947 -2.10233356614e-23)
(-0.232038304918 -0.0463571998035 -3.569084366e-23)
(-0.239262566355 -0.0559720502257 -9.8071438917e-23)
(-0.246991242062 -0.0670638259948 -3.74184399915e-23)
(-0.25503211782 -0.079850840774 1.29975392434e-24)
(-0.26313161114 -0.0945479033305 -6.49423994094e-24)
(-0.270965170369 -0.11135134003 -1.88020229941e-23)
(-0.278129765756 -0.130419024895 -6.57576148679e-23)
(-0.284125008962 -0.151844040369 1.92726054568e-22)
)
;

boundaryField
{
    back
    {
        type            calculated;
        value           uniform (0 0 0);
    }
    sides
    {
        type            calculated;
        value           nonuniform List<vector> 0();
    }
    bottom
    {
        type            calculated;
        value           uniform (0 0 0);
    }
    front
    {
        type            calculated;
        value           uniform (0 0 0);
    }
    atmosphere
    {
        type            calculated;
        value           nonuniform List<vector> 0();
    }
    floatingObject
    {
        type            calculated;
        value           nonuniform List<vector> 0();
    }
    procBoundary7to6
    {
        type            processor;
        value           nonuniform List<vector> 
11
(
(-0.447518189232 0.0554898337803 -2.24715620185e-21)
(-0.431610075301 0.0107271720648 1.03978985251e-21)
(-0.411664162064 -0.0261469267105 -7.88040981641e-22)
(-0.389490459265 -0.0559626647008 5.56255609505e-22)
(-0.36636886532 -0.0796358081319 -7.04851687182e-23)
(-0.343195486183 -0.0980917018022 2.48030836771e-24)
(-0.340673558272 -0.114325021864 1.08983469218e-22)
(-0.353809184289 -0.141167408592 4.09507940063e-22)
(-0.342865353067 -0.164478222066 1.23340104797e-21)
(-0.314366559316 -0.171493770811 1.31258382309e-21)
(-0.288392409346 -0.175619296807 8.48801542333e-22)
)
;
    }
    procBoundary7to8
    {
        type            processor;
        value           nonuniform List<vector> 
17
(
(-0.160399998974 0.00664737968644 3.4309116264e-23)
(-0.16644434317 0.0181184654874 2.08918297751e-22)
(-0.169815664576 0.0308921939501 1.24658942392e-23)
(-0.173680458399 0.04419681091 3.27600272224e-22)
(-0.179315631447 0.0580373737316 1.45164763098e-22)
(-0.18681718914 0.0729964871872 2.03687253064e-22)
(-0.196541348412 0.0892853517624 1.95416359198e-22)
(-0.208973315472 0.107251072495 -8.14048952407e-23)
(-0.221601904415 0.108039772384 -2.57438175177e-23)
(-0.24296245396 0.108656317582 -1.05645354342e-22)
(-0.264548088529 0.12593006032 -1.48027738733e-22)
(-0.291743536551 0.144394343631 1.75804185361e-22)
(-0.312331881318 0.133936425221 -3.49042055161e-22)
(-0.340156376983 0.125584520463 -1.02803968133e-21)
(-0.381506325385 0.13585659173 5.40970043918e-22)
(-0.404019000105 0.110234047178 -1.90963373088e-24)
(-0.430503055198 0.090019751805 -1.06363467933e-21)
)
;
    }
    procBoundary7to9
    {
        type            processor;
        value           nonuniform List<vector> 
16
(
(-0.197829745471 -0.00318994126707 -1.10259792567e-21)
(-0.202963256758 -0.00642836364482 8.1235434873e-22)
(-0.205344519137 -0.0115642039987 -5.12927455378e-22)
(-0.208000950124 -0.0169610310107 -2.29406863696e-22)
(-0.211418723196 -0.0226373066875 -1.11948692011e-22)
(-0.215633796469 -0.0289123112125 2.76943648689e-23)
(-0.220605096417 -0.0359489975575 -1.41763487907e-23)
(-0.226266763956 -0.0439116159767 -1.02676243116e-23)
(-0.232526391423 -0.0529804446621 -5.26721826016e-23)
(-0.239257770707 -0.0633458657017 -7.64001273397e-23)
(-0.246292702791 -0.075203533924 7.96299602008e-23)
(-0.253411693298 -0.0887465173793 -5.17709405033e-23)
(-0.260335878659 -0.104154649386 5.62579365552e-23)
(-0.266720584093 -0.121577029046 -5.5781838633e-23)
(-0.272152073548 -0.141082938049 -6.02754661005e-23)
(-0.276123542611 -0.162778616425 3.42218314998e-22)
)
;
    }
}


// ************************************************************************* //
