/*--------------------------------*- C++ -*----------------------------------*\
| =========                 |                                                 |
| \\      /  F ield         | OpenFOAM: The Open Source CFD Toolbox           |
|  \\    /   O peration     | Version:  v2012                                 |
|   \\  /    A nd           | Website:  www.openfoam.com                      |
|    \\/     M anipulation  |                                                 |
\*---------------------------------------------------------------------------*/
FoamFile
{
    version     2.0;
    format      ascii;
    class       surfaceScalarField;
    location    "3.6";
    object      alphaPhi0.water;
}
// * * * * * * * * * * * * * * * * * * * * * * * * * * * * * * * * * * * * * //

dimensions      [0 3 -1 0 0 0 0];
oriented        oriented;


internalField   nonuniform List<scalar> 
300
(
-1.9264252935e-06
7.16670370608e-06
-2.93168698919e-06
3.75143587415e-06
-3.30459657582e-06
1.62931533695e-06
-3.442501818e-06
7.32213388231e-07
-4.43032781441e-06
5.41895313137e-07
-8.26422738551e-06
-1.04806523499e-08
-1.8338615409e-05
4.40416159731e-06
-3.6068566451e-05
1.77668895709e-05
-4.34188295774e-05
7.35124192666e-06
-2.68807309457e-05
-1.65381723236e-05
-1.16787382603e-05
-1.52072220146e-05
-4.18739477014e-05
3.01794676409e-05
2.81919385083e-05
0.000147725680424
8.33165136025e-05
-1.1955787772e-06
8.36213635688e-06
-1.73265786415e-06
4.28847756795e-06
-2.01201343576e-06
1.90884984632e-06
-2.83846152793e-06
1.55916027582e-06
-5.42740990231e-06
3.13170779053e-06
-1.0463638492e-05
5.02699041014e-06
-1.48175094378e-05
8.75950710235e-06
-1.56165766057e-05
1.85673481619e-05
-1.59578151431e-05
7.69325904944e-06
-2.77335877639e-05
-4.76296024025e-06
-3.79797141323e-05
-4.96476158418e-06
-3.5558279597e-05
2.77486621496e-05
1.80973914447e-05
9.4055432354e-05
7.64466504011e-05
-6.7309749012e-07
9.0351247852e-06
-6.58527645541e-07
4.27392165681e-06
-3.19177302098e-07
1.56974738044e-06
1.09518524752e-07
1.13103838044e-06
6.5257181948e-07
2.589595105e-06
4.50769733044e-07
5.23008279945e-06
-6.29566910969e-08
9.27472808599e-06
2.26919084011e-06
1.62365984809e-05
-3.28228716866e-06
1.32456426209e-05
-1.3957944805e-05
5.91256544274e-06
-2.66548363881e-05
7.73018292566e-06
-2.80860032147e-05
2.91747307324e-05
3.34321626597e-06
6.26181353626e-05
5.87804872012e-05
-1.28059015226e-07
9.16311456073e-06
3.7944815405e-07
3.76648600424e-06
1.24708667343e-06
7.02414375102e-07
2.29654072335e-06
8.2192373689e-08
3.44148966683e-06
1.44557519745e-06
4.45496497215e-06
4.21781748835e-06
5.80232918791e-06
7.92872444036e-06
9.49457615668e-06
1.25456295844e-05
9.23660226404e-06
1.3504525205e-05
3.03857392894e-06
1.21108194305e-05
-4.76059481646e-06
1.55285005731e-05
-3.87537670977e-06
2.82867324069e-05
1.35789118159e-05
4.51589568337e-05
4.62047302554e-05
3.61733077335e-07
8.80136118618e-06
1.40902994905e-06
2.71932554746e-06
2.79416680874e-06
-6.82377568072e-07
4.38105043786e-06
-1.50410810748e-06
6.08474100872e-06
-2.57302314076e-07
7.9474838299e-06
2.35606126064e-06
1.01089517141e-05
5.76829663637e-06
1.29738932938e-05
9.68160777328e-06
1.41654785118e-05
1.23135471966e-05
1.22832946487e-05
1.39930105362e-05
9.59114355071e-06
1.8219892647e-05
1.11905788905e-05
2.66857151442e-05
2.02203486625e-05
3.6126308335e-05
3.87893132113e-05
8.85360327704e-07
7.91608520617e-06
2.43568832268e-06
1.16924084958e-06
4.32147153333e-06
-2.56776127424e-06
6.39324924173e-06
-3.5753523696e-06
8.55922438138e-06
-2.42265542884e-06
1.08433110295e-05
7.26060955404e-08
1.32836588002e-05
3.32847705922e-06
1.59137597947e-05
7.05179806169e-06
1.76798848355e-05
1.05472847719e-05
1.77455942804e-05
1.39266711281e-05
1.76849599182e-05
1.82792734264e-05
1.94279198055e-05
2.49407203395e-05
2.41486734585e-05
3.1401983244e-05
3.45056776357e-05
1.45214417465e-06
6.46420425095e-06
3.51293163803e-06
-8.91127094761e-07
5.89154406762e-06
-4.94587919839e-06
8.45149265273e-06
-6.13481138711e-06
1.10637481152e-05
-5.03452159529e-06
1.37386054954e-05
-2.6020756166e-06
1.64519637136e-05
6.14964157791e-07
1.91378892875e-05
4.36529615586e-06
2.13246039912e-05
8.35931379955e-06
2.26423886901e-05
1.26070753434e-05
2.33901359131e-05
1.75292898552e-05
2.49580567958e-05
2.33692837113e-05
2.71358957998e-05
2.92190751015e-05
3.35767138855e-05
2.06458270465e-06
4.40014080551e-06
4.67194062215e-06
-3.49783295787e-06
7.58331420364e-06
-7.85663031009e-06
1.05897536371e-05
-9.14080219893e-06
1.36775856692e-05
-8.12223169922e-06
1.67805805284e-05
-5.7054311548e-06
1.98443505842e-05
-2.44978117926e-06
2.27988033628e-05
1.40905208849e-06
2.54029176275e-05
5.7526021794e-06
2.73920623426e-05
1.0614691447e-05
2.87649225623e-05
1.61524764617e-05
2.99462088737e-05
2.21824096797e-05
3.03377672679e-05
2.88222434543e-05
3.55984710163e-05
2.67454675193e-06
1.72663848277e-06
5.84523373733e-06
-6.66747000115e-06
9.22673753355e-06
-1.12372757509e-05
1.27655677966e-05
-1.26792061102e-05
1.6339410236e-05
-1.16963415927e-05
1.99209205292e-05
-9.28816237149e-06
2.34469526622e-05
-5.97816859596e-06
2.68244021993e-05
-1.97211066165e-06
2.98821734851e-05
2.69065954619e-06
3.24012284974e-05
8.09070855486e-06
3.42217925852e-05
1.43259578952e-05
3.50244721994e-05
2.13719730655e-05
3.46281883239e-05
2.92081391877e-05
3.84099290571e-05
3.30617718296e-06
-1.57790135716e-06
6.99515144124e-06
-1.0354966e-05
1.09100395616e-05
-1.51511528729e-05
1.49437745763e-05
-1.67127702683e-05
1.90351373698e-05
-1.57888077314e-05
2.31375331551e-05
-1.33932823371e-05
2.72356792985e-05
-1.00809367612e-05
3.12154656494e-05
-5.95759803294e-06
3.49487338823e-05
-1.04944486589e-06
3.8287413304e-05
4.74429628974e-06
4.09841167536e-05
1.16206722873e-05
4.26855722578e-05
1.96606276426e-05
4.32808610767e-05
2.85992879329e-05
3.95112155406e-05
3.92943839311e-06
8.15203821847e-06
1.25627711797e-05
1.70981525014e-05
2.17225247667e-05
2.64309294934e-05
3.11756865066e-05
3.59268721041e-05
4.05727435557e-05
-5.70564880621e-06
4.49636396208e-05
3.42867300206e-07
4.89373666336e-05
7.63664651531e-06
5.22505950783e-05
1.63357673509e-05
5.42803690952e-05
2.65536159221e-05
3.82989833209e-05
4.64758627613e-05
5.21018951568e-05
5.74596329376e-05
6.22495864756e-05
1.15340310985e-05
6.59654180342e-05
2.28220050425e-05
3.54919925421e-05
7.34656948489e-05
7.99382889495e-05
2.94129946244e-05
)
;

boundaryField
{
    back
    {
        type            calculated;
        value           uniform 0;
    }
    sides
    {
        type            calculated;
        value           nonuniform List<scalar> 0();
    }
    bottom
    {
        type            calculated;
        value           uniform 0;
    }
    front
    {
        type            calculated;
        value           uniform 0;
    }
    atmosphere
    {
        type            calculated;
        value           nonuniform List<scalar> 0();
    }
    floatingObject
    {
        type            calculated;
        value           uniform 0;
    }
    procBoundary8to3
    {
        type            processor;
        value           nonuniform List<scalar> 8(-5.24041490983e-06 -2.74619203824e-06 -1.25611386636e-06 -5.93569558757e-07 4.47198393924e-07 3.84625173988e-06 5.67245952849e-06 -3.46036864788e-08);
    }
    procBoundary8to6
    {
        type            processor;
        value           nonuniform List<scalar> 
16
(
-0.000217829184972
-7.36140345161e-05
1.84521646322e-05
2.49520528717e-05
2.10008057032e-05
2.61486865092e-05
2.76319871754e-05
2.84285522976e-05
2.80621805275e-05
2.83068087538e-05
3.18051717607e-05
4.21646770308e-05
5.54753096505e-05
6.87559449786e-05
8.60022931845e-05
0.000107872606136
)
;
    }
    procBoundary8to7
    {
        type            processor;
        value           nonuniform List<scalar> 
17
(
-5.50552494789e-06
-1.45760707401e-05
-1.95610431999e-05
-2.12484488859e-05
-2.04150782955e-05
-1.81056116878e-05
-1.4832598648e-05
-1.07174374342e-05
-4.08078547558e-05
-1.13888400125e-05
-5.29529839446e-06
2.26821766209e-06
-6.65608086638e-05
4.61256858468e-06
1.63398890622e-05
-9.65214155965e-05
1.80528880735e-05
)
;
    }
}


// ************************************************************************* //
