/*--------------------------------*- C++ -*----------------------------------*\
| =========                 |                                                 |
| \\      /  F ield         | OpenFOAM: The Open Source CFD Toolbox           |
|  \\    /   O peration     | Version:  v2012                                 |
|   \\  /    A nd           | Website:  www.openfoam.com                      |
|    \\/     M anipulation  |                                                 |
\*---------------------------------------------------------------------------*/
FoamFile
{
    version     2.0;
    format      ascii;
    class       volScalarField;
    location    "3.6";
    object      k;
}
// * * * * * * * * * * * * * * * * * * * * * * * * * * * * * * * * * * * * * //

dimensions      [0 2 -2 0 0 0 0];


internalField   nonuniform List<scalar> 
164
(
0.00235900460222
0.00295178935763
0.00315151325677
0.00323175535561
0.00326154887472
0.00325568455031
0.00319461525647
0.00302493412103
0.00280703609829
0.00278903126258
0.00283001649316
0.00289095595921
0.00322002069929
0.00365771706448
0.00237240273533
0.00296400275098
0.00316491383048
0.00324797529587
0.00328521840112
0.0032997433274
0.00329399103881
0.00326121712718
0.00325762444896
0.00328014579077
0.00331766777342
0.00335804584178
0.00345415418973
0.00370757348901
0.00238720736926
0.00297867651198
0.00318048579477
0.00326504391047
0.00330593239899
0.00333002307534
0.00334670251475
0.00335998595187
0.00337948647974
0.00340747499328
0.00344040440781
0.00347731597068
0.00354682403175
0.00372179449162
0.00240270439985
0.00299499264947
0.00319738918055
0.00328237852838
0.00332419328671
0.00335083655515
0.00337311917229
0.00339553951068
0.00342082139635
0.00344966173906
0.00348086728132
0.00351646366056
0.0035745124018
0.00370992969268
0.00241827897115
0.00301210414611
0.00321490112538
0.00329969900375
0.00334114802145
0.0033676144735
0.00339015338394
0.00341309802586
0.00343816146389
0.00346557671335
0.00349514948104
0.00352940208083
0.0035818650671
0.00370013466884
0.00243340240468
0.00302931714414
0.00323238740414
0.00331660991988
0.00335711949877
0.00338248469196
0.00340379826906
0.00342532048287
0.00344859645746
0.00347397192688
0.00350177717692
0.00353491578838
0.00358666409378
0.00370443947046
0.00244768149892
0.0030460587788
0.00324929978823
0.00333272280734
0.00337204375013
0.00339604744376
0.00341583818804
0.0034356505253
0.00345701420387
0.00348045051124
0.00350673908585
0.00353975137685
0.00359546645739
0.00372714274071
0.00246087991824
0.00306194527923
0.00326524786826
0.00334773367916
0.00338577594881
0.0034083804368
0.00342668451459
0.0034448960251
0.00346455781364
0.00348633672022
0.00351146656047
0.00354519717027
0.00360767851658
0.0037607466452
0.00247287937927
0.00307672548564
0.00328000359954
0.00336148314595
0.00339820511008
0.00341944984463
0.00343637494572
0.0034531531686
0.00347132240266
0.00349163923631
0.00351563533655
0.00354954378212
0.00361656279481
0.00378498130742
0.00248359535229
0.00309020522577
0.00329341692165
0.00337383985239
0.00340926167833
0.00342921786314
0.00344488326671
0.003460383369
0.00347723003345
0.00349618680305
0.00351881188008
0.00355132865104
0.00361704324431
0.00378571700845
0.00249303272293
0.00310231265587
0.00330538743647
0.00338475085895
0.00341891638979
0.00343767330897
0.00345220063422
0.00346656831239
0.00348224283805
0.00349996990027
0.00352128913612
0.00355219854256
0.0036153140786
0.00378015428688
0.00348633313781
0.00350297261982
0.00352320418314
0.00355309601844
0.00361539034348
0.00378007007296
0.00355300979744
0.00361391249597
0.00377598309453
0.00375709812084
)
;

boundaryField
{
    back
    {
        type            kqRWallFunction;
        value           nonuniform List<scalar> 
164
(
0.00235900460222
0.00295178935763
0.00315151325677
0.00323175535561
0.00326154887472
0.00325568455031
0.00319461525647
0.00302493412103
0.00280703609829
0.00278903126258
0.00283001649316
0.00289095595921
0.00322002069929
0.00365771706448
0.00237240273533
0.00296400275098
0.00316491383048
0.00324797529587
0.00328521840112
0.0032997433274
0.00329399103881
0.00326121712718
0.00325762444896
0.00328014579077
0.00331766777342
0.00335804584178
0.00345415418973
0.00370757348901
0.00238720736926
0.00297867651198
0.00318048579477
0.00326504391047
0.00330593239899
0.00333002307534
0.00334670251475
0.00335998595187
0.00337948647974
0.00340747499328
0.00344040440781
0.00347731597068
0.00354682403175
0.00372179449162
0.00240270439985
0.00299499264947
0.00319738918055
0.00328237852838
0.00332419328671
0.00335083655515
0.00337311917229
0.00339553951068
0.00342082139635
0.00344966173906
0.00348086728132
0.00351646366056
0.0035745124018
0.00370992969268
0.00241827897115
0.00301210414611
0.00321490112538
0.00329969900375
0.00334114802145
0.0033676144735
0.00339015338394
0.00341309802586
0.00343816146389
0.00346557671335
0.00349514948104
0.00352940208083
0.0035818650671
0.00370013466884
0.00243340240468
0.00302931714414
0.00323238740414
0.00331660991988
0.00335711949877
0.00338248469196
0.00340379826906
0.00342532048287
0.00344859645746
0.00347397192688
0.00350177717692
0.00353491578838
0.00358666409378
0.00370443947046
0.00244768149892
0.0030460587788
0.00324929978823
0.00333272280734
0.00337204375013
0.00339604744376
0.00341583818804
0.0034356505253
0.00345701420387
0.00348045051124
0.00350673908585
0.00353975137685
0.00359546645739
0.00372714274071
0.00246087991824
0.00306194527923
0.00326524786826
0.00334773367916
0.00338577594881
0.0034083804368
0.00342668451459
0.0034448960251
0.00346455781364
0.00348633672022
0.00351146656047
0.00354519717027
0.00360767851658
0.0037607466452
0.00247287937927
0.00307672548564
0.00328000359954
0.00336148314595
0.00339820511008
0.00341944984463
0.00343637494572
0.0034531531686
0.00347132240266
0.00349163923631
0.00351563533655
0.00354954378212
0.00361656279481
0.00378498130742
0.00248359535229
0.00309020522577
0.00329341692165
0.00337383985239
0.00340926167833
0.00342921786314
0.00344488326671
0.003460383369
0.00347723003345
0.00349618680305
0.00351881188008
0.00355132865104
0.00361704324431
0.00378571700845
0.00249303272293
0.00310231265587
0.00330538743647
0.00338475085895
0.00341891638979
0.00343767330897
0.00345220063422
0.00346656831239
0.00348224283805
0.00349996990027
0.00352128913612
0.00355219854256
0.0036153140786
0.00378015428688
0.00348633313781
0.00350297261982
0.00352320418314
0.00355309601844
0.00361539034348
0.00378007007296
0.00355300979744
0.00361391249597
0.00377598309453
0.00375709812084
)
;
    }
    sides
    {
        type            kqRWallFunction;
        value           nonuniform List<scalar> 0();
    }
    bottom
    {
        type            kqRWallFunction;
        value           nonuniform List<scalar> 
11
(
0.00235900460222
0.00237240273533
0.00238720736926
0.00240270439985
0.00241827897115
0.00243340240468
0.00244768149892
0.00246087991824
0.00247287937927
0.00248359535229
0.00249303272293
)
;
    }
    front
    {
        type            kqRWallFunction;
        value           nonuniform List<scalar> 
164
(
0.00235900460222
0.00295178935763
0.00315151325677
0.00323175535561
0.00326154887472
0.00325568455031
0.00319461525647
0.00302493412103
0.00280703609829
0.00278903126258
0.00283001649316
0.00289095595921
0.00322002069929
0.00365771706448
0.00237240273533
0.00296400275098
0.00316491383048
0.00324797529587
0.00328521840112
0.0032997433274
0.00329399103881
0.00326121712718
0.00325762444896
0.00328014579077
0.00331766777342
0.00335804584178
0.00345415418973
0.00370757348901
0.00238720736926
0.00297867651198
0.00318048579477
0.00326504391047
0.00330593239899
0.00333002307534
0.00334670251475
0.00335998595187
0.00337948647974
0.00340747499328
0.00344040440781
0.00347731597068
0.00354682403175
0.00372179449162
0.00240270439985
0.00299499264947
0.00319738918055
0.00328237852838
0.00332419328671
0.00335083655515
0.00337311917229
0.00339553951068
0.00342082139635
0.00344966173906
0.00348086728132
0.00351646366056
0.0035745124018
0.00370992969268
0.00241827897115
0.00301210414611
0.00321490112538
0.00329969900375
0.00334114802145
0.0033676144735
0.00339015338394
0.00341309802586
0.00343816146389
0.00346557671335
0.00349514948104
0.00352940208083
0.0035818650671
0.00370013466884
0.00243340240468
0.00302931714414
0.00323238740414
0.00331660991988
0.00335711949877
0.00338248469196
0.00340379826906
0.00342532048287
0.00344859645746
0.00347397192688
0.00350177717692
0.00353491578838
0.00358666409378
0.00370443947046
0.00244768149892
0.0030460587788
0.00324929978823
0.00333272280734
0.00337204375013
0.00339604744376
0.00341583818804
0.0034356505253
0.00345701420387
0.00348045051124
0.00350673908585
0.00353975137685
0.00359546645739
0.00372714274071
0.00246087991824
0.00306194527923
0.00326524786826
0.00334773367916
0.00338577594881
0.0034083804368
0.00342668451459
0.0034448960251
0.00346455781364
0.00348633672022
0.00351146656047
0.00354519717027
0.00360767851658
0.0037607466452
0.00247287937927
0.00307672548564
0.00328000359954
0.00336148314595
0.00339820511008
0.00341944984463
0.00343637494572
0.0034531531686
0.00347132240266
0.00349163923631
0.00351563533655
0.00354954378212
0.00361656279481
0.00378498130742
0.00248359535229
0.00309020522577
0.00329341692165
0.00337383985239
0.00340926167833
0.00342921786314
0.00344488326671
0.003460383369
0.00347723003345
0.00349618680305
0.00351881188008
0.00355132865104
0.00361704324431
0.00378571700845
0.00249303272293
0.00310231265587
0.00330538743647
0.00338475085895
0.00341891638979
0.00343767330897
0.00345220063422
0.00346656831239
0.00348224283805
0.00349996990027
0.00352128913612
0.00355219854256
0.0036153140786
0.00378015428688
0.00348633313781
0.00350297261982
0.00352320418314
0.00355309601844
0.00361539034348
0.00378007007296
0.00355300979744
0.00361391249597
0.00377598309453
0.00375709812084
)
;
    }
    atmosphere
    {
        type            inletOutlet;
        inletValue      nonuniform List<scalar> 0();
        value           nonuniform List<scalar> 0();
    }
    floatingObject
    {
        type            kqRWallFunction;
        value           nonuniform List<scalar> 4(0.00280703609829 0.00278903126258 0.00283001649316 0.00289095595921);
    }
    procBoundary8to3
    {
        type            processor;
        value           nonuniform List<scalar> 8(0.00234766316311 0.00294194880084 0.00314067442651 0.00321774134379 0.00323909766061 0.00321138287835 0.00309131756328 0.00262173174968);
    }
    procBoundary8to6
    {
        type            processor;
        value           nonuniform List<scalar> 
16
(
0.00315690812947
0.00403423985954
0.00441861967206
0.00425910728117
0.00415219651793
0.00407007564499
0.00402577590226
0.00402613705597
0.00407315852997
0.0041449326367
0.0041978456073
0.00420478309856
0.00419867879905
0.0042004367605
0.00418857321313
0.00414127283953
)
;
    }
    procBoundary8to7
    {
        type            processor;
        value           nonuniform List<scalar> 
17
(
0.00250121806191
0.00311305739109
0.00331591259047
0.00339421376023
0.00342718255021
0.00344483594897
0.00345834159892
0.00347169691181
0.00347169691181
0.00348945857949
0.00350509888831
0.00352425468726
0.00352425468726
0.00355116992366
0.0036074196511
0.0036074196511
0.00372794024021
)
;
    }
}


// ************************************************************************* //
