/*--------------------------------*- C++ -*----------------------------------*\
| =========                 |                                                 |
| \\      /  F ield         | OpenFOAM: The Open Source CFD Toolbox           |
|  \\    /   O peration     | Version:  v2012                                 |
|   \\  /    A nd           | Website:  www.openfoam.com                      |
|    \\/     M anipulation  |                                                 |
\*---------------------------------------------------------------------------*/
FoamFile
{
    version     2.0;
    format      ascii;
    class       volScalarField;
    location    "3.9";
    object      alpha.water;
}
// * * * * * * * * * * * * * * * * * * * * * * * * * * * * * * * * * * * * * //

dimensions      [0 0 0 0 0 0 0];


internalField   nonuniform List<scalar> 
1984
(
1.00000100898
1.00000116227
1.0000012528
1.00000127448
1.00000116248
1.00000043117
0.99999945037
0.999998537129
0.999997267559
0.999996989759
0.999996096893
0.99999507512
0.999994264868
0.999994307869
0.999995034662
0.99999793733
0.969334808771
0.311314694038
6.4058200057e-05
4.18301388289e-05
1.00000113006
1.0000012618
1.00000133083
1.00000130871
1.00000112712
1.00000038328
0.999999203363
0.999998308076
0.999996183686
0.999996165554
0.999995329432
0.999993828054
0.999993311326
0.999993762131
0.999996949534
0.999998122618
0.963976291246
0.312317516447
4.18301334634e-05
2.36975123873e-05
1.00000114843
1.00000127208
1.00000133545
1.00000129419
1.00000108326
1.00000029813
0.999999464057
0.999997311184
0.999995471457
0.999994673123
0.999995207312
0.999994147966
0.999993311326
0.999993442909
0.999997314355
0.999998385055
0.963748255849
0.311163479671
2.36975019296e-05
1.14774485869e-05
1.00000111242
1.00000123158
1.00000128921
1.00000123539
1.00000100915
1.00000044941
0.999999188375
0.999998222987
0.999992591466
0.9999918378
0.999993417499
0.999993419299
0.999993952987
0.999995740416
0.999997425198
0.999998737634
0.962490087048
0.310122075333
1.14774331868e-05
4.78782366514e-06
1.00000105188
1.00000116373
1.00000120922
1.000001133
1.00000087247
1.00000037898
0.999999527633
0.999998080146
0.999994558247
0.999990160936
0.9999902408
0.999992547893
0.999995472962
0.999996577979
0.999997750901
0.999999139955
0.961773073082
0.309626946922
4.7878008505e-06
1.71272394502e-06
1.00000098415
1.00000108283
1.00000110494
1.0000009964
1.000000698
1.0000002006
0.9999995757
0.99999804105
0.999995558092
0.999992804545
0.99999023051
0.999993534988
0.99999595302
0.99999716336
0.999997858907
0.999999477411
0.962157791047
0.310349267233
1.71270759273e-06
4.46246435078e-07
1.00000091723
1.00000099499
1.00000098144
1.00000083243
1.00000050405
1.00000000577
0.999999469471
0.999997930949
0.999996183102
0.999994663102
0.999991300121
0.999995234445
0.999996614505
0.999997494449
0.99999815428
0.999999643731
0.96325300969
0.312654198914
4.46240687596e-07
9.78456645175e-08
1.00000085425
1.00000090287
1.00000084298
1.00000064675
1.00000030118
0.999999855648
0.999999267833
0.999998203871
0.999997114537
0.999996183139
0.999994339915
0.999996629968
0.99999716144
0.999997574673
0.999998675167
0.999999693519
0.965001639806
0.316807108588
9.78441284749e-08
2.30618892203e-08
1.00000079721
1.00000080866
1.00000069408
1.00000044793
1.00000009675
0.999999750067
0.999999250198
0.999998634935
0.99999786896
0.99999734456
0.99999571445
0.999997675741
0.999998105404
0.999997848616
0.999998896832
0.999999724654
0.96737053564
0.3227791522
2.30254735561e-08
8.72924746818e-11
1.0000007438
1.00000071663
1.0000005421
1.00000025383
0.999999997378
0.999999604734
0.999999354028
0.999999150241
0.999998958802
0.999998970375
0.999997687029
0.999999039172
0.999999181077
0.999998325119
0.99999932908
0.999999740222
0.970104747213
0.330989198273
-4.42830917708e-14
-1.19366981889e-12
1.00000069079
1.00000062346
1.00000040011
1.00000016569
0.99999979966
0.99999934106
0.999999594414
0.999999724189
1.00000014312
1.00000059572
0.999999763098
1.00000058135
1.00000028548
0.99999880348
0.999999650232
0.999999740222
0.973167358658
0.341745547169
-7.88967187135e-15
-3.67422573669e-13
1.00000064735
1.00000053779
1.00000030951
1.0000000109
0.999999584097
0.999999154016
0.99999972812
1.00000025775
1.00000121155
1.00000216597
1.00000173675
1.00000218082
1.00000148664
0.999999269944
0.999999611243
0.999999751732
0.976647623388
0.355220338176
-1.72102499566e-15
-5.85494212618e-12
1.00000060335
1.00000045823
1.00000021132
0.999999785255
0.999999400862
0.999999192605
0.999999779147
1.00000063253
1.00000207056
1.00000325963
1.00000338225
1.00000345446
1.0000026028
0.999999846804
0.999999573226
0.999999774752
0.981081382622
0.370917974593
-6.10402415553e-16
-7.14564563618e-10
1.00000056116
1.00000039642
1.00000002712
0.999999401208
0.999999028516
0.999999348292
0.99999988511
1.00000060865
1.00000213365
1.00000367339
1.00000433789
1.00000437483
1.00000360185
1.00000033762
0.999999507864
0.999999839697
0.985480669553
0.389152993193
6.10261038855e-08
7.18925416158e-10
1.00000054029
1.00000031449
0.999999789854
0.99999946692
0.999998938863
0.999999080466
0.999998843846
0.999999865016
1.00000149556
1.00000396929
1.00000436334
1.00000553465
1.00000455834
1.00000128586
0.999999510037
0.999999946566
0.990270573578
0.41040314354
6.17441499836e-07
5.9397831487e-08
1.00000065918
1.0000003294
0.999999841465
0.999999400744
0.999997985064
0.99999770013
0.99999842636
0.999998762448
1.00000120554
1.00000312301
1.00000526367
1.00000633028
1.00000606364
1.00000188279
0.999999685044
1
0.995152777001
0.435518063247
5.5989887194e-06
4.9780006816e-07
1.00000081782
1.00000045432
0.999999899751
0.999997460298
0.999997114548
0.999994295413
0.999995446589
0.999996958318
0.999998945805
1.00000246713
1.00000516656
1.0000070301
1.00000666556
1.00000236224
0.99999909899
0.999999999882
1
0.463956222636
0.000434036761085
2.41261011995e-23
1.00000106901
1.00000046385
0.999998982765
0.99999823349
0.999994899982
0.999993181027
0.999993181027
0.999996846531
0.999999081806
1.00000185013
1.00000486909
1.00000689596
1.00000717068
1.00000329115
1.00000007957
1.00000005482
1
0.498197165751
0.00215219737704
-2.41261011995e-23
1.00000124785
1.00000060873
0.999999767354
0.99999771327
0.999994385744
0.999993418269
0.999994251415
0.999996885473
0.999997991059
0.999999814896
1.00000212037
1.00000406029
1.00000482453
1.000002238
0.999999848952
1.00000013686
1
0.532667823981
0.00500209537256
-1.54724685032e-20
1.00000101324
1.00000056195
0.999999494377
0.999997620959
0.999996456765
0.999996066995
0.999995894473
0.999996446296
0.999996941313
0.999998422874
1.00000014978
1.00000195717
1.00000297692
1.00000133941
0.999999352316
1.00000017477
1
0.56775252703
0.00957702522625
7.05860789379e-21
1.00000089311
1.00000054993
0.99999971614
0.999998509434
0.99999805026
0.999997033795
0.999995943757
0.999995788742
0.999996266578
0.999997467043
0.999998986455
1.00000055118
1.00000171202
1.00000068256
1.00000027243
1.00000015601
1
0.602550087575
0.0156359376286
8.65561792975e-22
1.00000084432
1.00000054641
0.999999905749
0.999999187296
0.999998262857
0.99999713868
0.999995967422
0.999995788054
0.999995958802
0.999996905382
0.999998225492
0.99999960259
1.00000060308
1.00000007284
1.00000002708
0.99999999786
1
0.637746791098
0.0235197236016
3.26171101873e-22
1.00000103496
1.00000073835
1.00000016671
0.999999520813
0.999998711747
0.999997835173
0.999997001936
0.999996052671
0.999995855137
0.99999628869
0.999997002836
0.999998057161
0.999998981199
0.999998570785
0.999998798413
0.999999261292
0.999999989319
0.671940006162
0.0335337680294
1.76465197345e-21
1.0000013606
1.00000110446
1.00000058842
0.999999928533
0.999999125268
0.999998300574
0.999997436617
0.999996281754
0.999995399584
0.999994929511
0.999995090733
0.999995696859
0.999996398845
0.999996311633
0.99999768045
0.999998884877
0.999999945373
0.704782446532
0.0483209792841
-1.41172157876e-20
1.00000162872
1.00000144575
1.00000103896
1.00000043068
0.999999725904
0.999998835194
0.999997320739
0.99999616074
0.999994608093
0.999993448099
0.999993255908
0.99999319872
0.999993988905
0.999994040355
0.999995403283
0.9999980758
0.999999742007
0.732461909678
0.0629393946375
-2.64697796017e-21
1.00000209909
1.00000200655
1.00000160389
1.00000096206
1.00000010827
0.999998763747
0.999997011275
0.999994662103
0.999991045563
0.99999026547
0.999989376601
0.999989236309
0.999989236309
0.999989710063
0.999991294986
0.999996017706
0.999999308877
0.753803225484
0.0739096980316
-1.77347523334e-22
1.00000158303
1.00000162674
1.00000149119
1.0000012196
1.00000080195
0.999999978135
0.999998893684
0.999997260088
0.999993254143
0.999992661633
0.999992661716
0.999992399396
0.999992364788
0.999992071483
0.999992648746
0.99999532072
0.999998915081
0.774405154943
0.0803260280925
-9.58150876207e-22
1.00000160914
1.00000171625
1.00000166072
1.00000147787
1.00000113364
1.00000051046
0.999999563153
0.999997451496
0.999992306984
0.999988640736
0.999987275918
0.999991664897
0.999991756617
0.999990781472
0.999991278882
0.999994574449
0.99999851646
0.793429751857
0.0965178774621
7.60070898003e-20
1.00000171012
1.00000187179
1.00000187767
1.00000175286
1.00000143609
1.00000082023
0.999999806568
0.999997492081
0.999994054007
0.999991277753
0.999985029007
0.999989555333
0.999989931815
0.999988762286
0.999989525016
0.999993604471
0.999997974056
0.807292869661
0.107865453108
5.48312661189e-20
1.0000018647
1.00000207478
1.000002129
1.00000204412
1.00000173852
1.00000108024
0.999999973067
0.99999747321
0.999993607643
0.999990746135
0.999983553272
0.999988262485
0.999988585376
0.99998738718
0.999988503971
0.999992898817
0.99999759017
0.815935147043
0.117405813249
1.61598004468e-21
1.00000204532
1.00000229029
1.00000238402
1.00000233162
1.00000203566
1.00000136047
1.0000001864
0.999997549159
0.999993439617
0.999990222981
0.999983553147
0.999986851564
0.999987755682
0.999985727402
0.999987521534
0.999992236489
0.999997372073
0.816751973223
0.12856362781
-3.3528387497e-23
1.00000221331
1.00000247388
1.00000260093
1.00000257748
1.00000229841
1.00000163615
1.00000045353
0.999997795849
0.999993795425
0.999990595345
0.999983590642
0.99998622045
0.999987234603
0.999985178439
0.999986154698
0.999992258433
0.999996984946
0.81215703512
0.128087358966
-4.18156343258e-21
1.00000232704
1.00000258345
1.00000273389
1.00000273177
1.00000247051
1.00000182241
1.00000069077
0.999998175922
0.999994595492
0.999991701288
0.999985704193
0.999988579792
0.999986339808
0.999985178439
0.999985464481
0.999992570343
0.999995403348
0.815030106159
0.124620396039
-4.35816969651e-10
1.00000234192
1.00000257614
1.00000273246
1.00000273599
1.00000247197
1.00000185836
1.00000086335
0.999998642556
0.999995522837
0.999992888469
0.999987148065
0.999989144365
0.999986320566
0.999986176257
0.999988888681
0.9999929763
0.999992175718
0.814777489135
0.115768041605
-3.8362291288e-10
1.00000223047
1.00000243195
1.00000255688
1.00000254502
1.0000022961
1.00000179141
1.00000097446
0.999999095944
0.999996527916
0.999993735136
0.999988311912
0.999988291284
0.999988034884
0.999988042631
0.999992564062
0.999993898662
0.999992883352
0.815311277901
0.107025653483
-8.85802119398e-13
1.00000197809
1.00000215423
1.00000222258
1.0000022181
1.00000204484
1.00000167882
1.00000099136
0.999999451022
0.999997549311
0.999994691753
0.999990596215
0.999990667527
0.999991461903
0.999991987289
0.999994331276
0.999994605338
0.99999393781
0.813151787775
0.100009207806
-1.2059543712e-13
1.00000160715
1.0000017619
1.00000183791
1.00000186059
1.00000176677
1.00000150735
1.00000089151
0.99999968183
0.999998385211
0.999996758188
0.999994504286
0.999994734545
0.999995201859
0.99999513937
0.999995583379
0.999995689637
0.999995029957
0.809789818395
0.0955377070196
0
1.00000126882
1.00000138775
1.00000150525
1.00000154898
1.00000149489
1.00000124605
1.0000006799
0.999999837549
0.999999008466
0.99999842176
0.999997093056
0.99999754221
0.99999803768
0.999997537202
0.999996673551
0.999996686938
0.99999615116
0.807328203781
0.0928347862099
-3.22051206345e-17
1.00000105613
1.00000116586
1.0000012898
1.00000134265
1.00000126636
1.00000097619
1.00000044154
0.999999854121
0.999999613625
0.99999907456
0.99999733397
0.999998999593
0.999999070345
0.999998279768
0.999996714411
0.999996705512
0.999996129047
0.808023094949
0.0920412134785
-4.44135308169e-19
1.00000100834
1.00000109911
1.00000117841
1.00000111805
1.00000105344
1.00000059913
0.999999886111
0.999999975917
1
0.99999945987
0.999997297564
0.999998730966
0.999998144403
0.999993413317
0.999994876958
0.999995668784
0.999994537044
0.811383618255
0.0932195965908
-5.8250247548e-20
1.00000100367
1.00000106433
1.00000094929
1.00000121714
1.00000032807
1.0000000648
1.00000006976
1.00000001615
1.00000060802
0.999999367482
0.999998372138
0.999994103764
0.999989952656
0.999989952656
0.999991435663
0.999993903134
0.999992319733
0.818031270821
0.0955350092768
-5.04824393319e-21
1.00000098796
1.00000100103
1.00000143187
1.00000026675
1.00000100043
1.00000018446
0.999999727898
0.999999989163
1.00000088593
1.00000111719
1.00000017729
0.999999469209
0.999995154264
0.999990845236
0.999992837451
0.999995522694
0.999993722178
0.82524669284
0.098602042395
0
1.00000091998
1.00000111342
1.00000066833
1.0000013901
0.999999777109
0.999999903454
1.00000045231
1.00000125123
1.0000013264
1.00000148605
1.0000020138
1.00000215426
1.00000030596
0.999997862304
0.999997116768
0.99999846705
0.999996811447
0.832645151273
0.102079761333
-5.72042353536e-23
1.0000007551
1.00000094556
1.00000089421
1.00000060241
1.00000066931
1.00000103097
1.00000099114
1.00000152282
1.00000215338
1.00000243714
1.00000347655
1.00000362218
1.0000028078
1.00000128928
1
0.999999996591
0.999999079973
0.839481262282
0.106059583243
-5.14015240016e-28
1.00000053027
1.00000054792
1.00000052259
1.00000031952
1.00000049787
1.00000056711
1.00000107765
1.00000185693
1.00000258731
1.00000286416
1.00000327533
1.00000324342
1.00000278288
1.0000013203
1
0.999999995904
0.99999899292
0.846317458396
0.110870766842
-9.1242231428e-27
1.00000024541
1.00000012872
1.00000004613
1.00000001374
1.00000014052
1.0000005255
1.00000120792
1.00000201194
1.00000291818
1.00000373052
1.0000039856
1.00000356605
1.0000030457
1.00000126336
0.999999925994
0.999999969052
0.999998571199
0.851219302094
0.116314439297
-1.51505743249e-25
0.999999750531
0.999999520549
0.999999397469
0.999999430527
0.999999686433
1.00000018827
1.00000096706
1.0000019939
1.00000347838
1.00000494733
1.00000557747
1.00000525036
1.00000472637
1.00000155268
0.999999781243
0.999999780393
0.999997915229
0.852577808735
0.121062413985
-2.01142053189e-24
0.999999137929
0.999998822816
0.99999864687
0.999998671198
0.999999012001
0.999999653311
1.00000037169
1.00000131784
1.00000255949
1.0000034287
1.00000393876
1.00000448634
1.00000687391
1.00000189665
0.999999980071
0.999999968903
0.999997321689
0.849732908075
0.123493605334
-1.0030885127e-37
0.999998440239
0.99999813447
0.999997974964
0.999998037495
0.999998445099
0.999999100014
0.999999695628
1.00000008542
1.0000117785
1.0000029797
1.00000000002
0.999999993893
0.999995918682
0.841958257476
0.121186564552
-3.67110418572e-28
0.99999754069
0.999997397505
0.999997293824
0.999997484963
0.999998112989
0.999998994495
1.0000000171
1.0000009152
1.00000989866
1
0.999999999359
0.999999987045
0.999993952562
0.827507868283
0.117602264295
-3.76405759947e-25
0.99999694437
0.999996933472
0.999997071409
0.999997620784
0.999998727981
1.00000020424
1.00000199426
1.0000020614
1.00001361603
1.00000132114
1
0.999999985992
0.999993368684
0.814838788928
0.115845384398
-6.29178088272e-23
0.99999673886
0.999996921454
0.999997445401
0.999998511127
1.00000004242
1.00000181499
1.0000036217
1.00000286267
1.0000176433
1.00000949707
1
0.999999989704
0.999995473762
0.821510430244
0.116503885514
5.01544256351e-38
0.9999968467
0.999997313829
0.999998028945
0.999999319883
1.00000126825
1.00000356025
1.00000608718
1.00000800314
1.00000882678
1.00001006851
1.00001132252
1.00001288888
1.00001576734
1.00001347223
1
0.999999992858
0.999997275187
0.83316415344
0.117443120252
0
1.0000001621
1.00000107296
1.00000169051
1.0000025394
1.00000381982
1.00000544249
1.00000707763
1.00000815681
1.00000868623
1.00000909376
1.00000900491
1.00000882155
1.00000961874
1.00000649678
1
0.999999996708
0.999998076968
0.84074214756
0.119524022791
-6.02212598409e-25
1.00000214344
1.00000301572
1.00000371376
1.00000457327
1.00000564324
1.00000677384
1.00000761232
1.00000769898
1.00000705686
1.00000606395
1.00000464662
1.00000292921
1.00000160902
1.00000009617
0.999997620484
0.999998320874
0.999996263936
0.842993169722
0.119255565668
-1.09922834457e-26
1.00000370285
1.00000455553
1.00000514325
1.00000576695
1.00000642776
1.00000689102
1.00000687653
1.00000608438
1.0000043155
1.00000208644
1.00000017522
0.999997212534
0.999993677907
0.999990506131
0.999988895868
0.999994679101
0.999990911554
0.843101385183
0.113525843763
0
1.00000468061
1.00000549596
1.00000608376
1.00000648195
1.00000649094
1.00000626191
1.00000551584
1.00000399181
1.00000129827
0.999998826757
0.99999611245
0.999991412411
0.999981521385
0.999973096807
0.999977488378
0.99998790759
0.999982865703
0.840396010574
0.105133021642
-2.72103398747e-11
1.00000569546
1.00000641945
1.0000068419
1.00000696328
1.00000667922
1.00000582289
1.00000424009
1.00000185142
0.999999413405
0.999994403984
0.999990218801
0.99998602549
0.999968086676
0.999949895324
0.999961382542
0.999979024117
0.999971729759
0.83508748913
0.0989395464586
-3.57565099934e-12
1.00000616155
1.00000667666
1.000006966
1.00000695913
1.00000642296
1.0000051264
1.00000292854
1.0000001165
0.999996201132
0.99998963989
0.999982793215
0.999975947362
0.999953772895
0.999937688552
0.999948799498
0.999965614359
0.999958181376
0.829627651573
0.0955013848389
0
1.00000586697
1.00000615758
1.00000638128
1.00000633502
1.00000571836
1.00000428299
1.00000198543
0.999998956019
0.999993224319
0.999984878471
0.999980878034
0.999964628266
0.999941042539
0.999935926668
0.999936183672
0.999946568419
0.999945802468
0.822723814371
0.0935299479933
-1.28796619481e-18
1.0000048315
1.00000509979
1.00000547861
1.00000563288
1.00000526011
1.00000403391
1.00000184407
0.999998916715
0.999992804475
0.999988217368
0.999983634478
0.999971320675
0.999949802593
0.9999406075
0.999939006405
0.999953465255
0.999946445625
0.816623757708
0.0931176787102
-3.41859073525e-17
1.00000350785
1.00000398819
1.00000473607
1.00000532426
1.00000538772
1.00000455742
1.00000244123
0.999999678799
0.999996199759
0.999992674616
0.999987119737
0.999977973506
0.999971438784
0.999961097957
0.999946278957
0.999967950494
0.999958857626
0.810829574674
0.0936371881326
-1.71246247471e-16
1.00000245409
1.00000310039
1.00000416513
1.0000051751
1.00000567035
1.00000523256
1.00000341409
1.00000050849
0.999998262854
0.9999940678
0.999989607497
0.99998566098
0.999981033
0.999975403387
0.999960503948
0.999979743311
0.999971859951
0.807560342608
0.0947377126692
-2.39098309207e-20
1.00000180645
1.00000252976
1.00000384277
1.00000526828
1.00000618205
1.00000610512
1.0000045417
1.00000154905
0.999999039882
0.999994213037
0.999988414677
0.99998613852
0.999985839595
0.999979729066
0.999975379426
0.999984887868
0.999979838504
0.809253071892
0.0969714209111
-3.87810074478e-20
1.00000044429
1.00000087909
1.00000173598
1.00000273381
1.0000034964
1.000003704
1.00000325174
1.00000193294
0.99999906539
0.999995022196
0.999989497715
0.999979531821
0.999978977299
0.999978977299
0.999983389135
0.999991148249
0.999984888027
0.814297712971
0.100936320703
-1.63602129795e-18
0.999999821581
1.00000005056
1.00000075795
1.00000165434
1.00000244579
1.00000286508
1.00000297989
1.00000250313
1.00000093441
0.99999975109
0.999998064017
0.999989283374
0.999979207139
0.999978986595
0.999983296003
0.999995900904
0.999991844398
0.818668239105
0.10867992358
-3.10116550238e-18
0.999999236217
0.99999948753
1.00000004587
1.00000088221
1.00000169659
1.00000236034
1.00000279389
1.0000027837
1.00000219724
1.00000130128
1.00000025776
0.999999284093
0.999994409916
0.999983595292
0.999983779631
0.999997360641
0.999997810549
0.81908452623
0.119446850869
-5.78693172053e-10
0.999998754766
0.999998997363
0.99999956717
1.00000027394
1.00000107217
1.00000189898
1.00000245608
1.00000268252
1.00000253931
1.00000203025
1.00000136737
1.00000062499
0.999999352327
0.999994954083
0.999992059915
0.999999113018
0.9999998063
0.818048046443
0.126497276828
-2.24003267148e-21
0.999998477131
0.999998709352
0.99999921574
0.999999873992
1.00000060955
1.00000139284
1.00000195526
1.00000224726
1.00000226828
1.00000199324
1.00000138779
1.00000042377
0.999998804859
0.999996922441
0.999998187756
0.999999450654
1
0.814928582537
0.127665567278
0
0.999998473655
0.999998630468
0.999999070545
0.999999630413
1.00000022774
1.00000083389
1.00000135562
1.00000165665
1.0000017216
1.00000157201
1.00000111767
0.9999997898
0.99999870194
0.999997184776
0.99999843097
0.999999232626
1
0.818564876962
0.126484213851
-2.17747231035e-10
0.999998490079
0.9999986979
0.999998999345
0.999999432129
0.999999922174
1.0000003476
1.00000078374
1.00000108926
1.00000127133
1.00000119992
1.00000097649
1.00000056622
1
0.999998379658
0.999996778256
0.999999139457
1.00000036576
0.815826489491
0.121116316102
-6.79554426798e-10
0.999998780632
0.999998884883
0.999999058167
0.999999328203
0.999999676122
1.00000002176
1.00000039902
1.0000007193
1.00000088639
1.00000095668
1.00000083796
1.00000052545
1
0.99999868144
0.99999583138
0.999998344133
1.00000112827
0.808675050261
0.117254432016
0.000396036500976
0.999999159631
0.999999270172
0.999999423691
0.999999570762
0.999999724021
0.999999919468
1.00000017483
1.00000040045
1.00000051203
1.00000046949
1.00000035785
1.00000027093
1
0.999998752816
0.999995735188
0.999998398248
1.00000296068
0.795239507896
0.0957325164684
0.00058771515616
0.999999481302
0.999999636279
0.99999980147
0.999999879211
0.9999999567
1.0000000033
0.999999994973
0.999999942905
0.999999797197
0.999999556921
0.999999254429
0.999999303771
0.999999210257
0.999997947203
0.999996296972
0.999998215976
1.00000132731
0.776781148348
0.0816023319789
4.1094127611e-06
0.999999777265
0.999999799782
0.999999843736
0.999999976488
1.00000015824
1.00000013758
0.999999921229
0.999999577425
0.999999134848
0.999998578683
0.999998022684
0.999997686127
0.999997645818
0.999996013689
0.999996320593
0.999998472078
1
0.755012600555
0.0685503164862
0
1.00000009619
1.00000031136
1.00000041825
1.00000058111
1.00000060724
1.00000030154
0.999999739631
0.999998912406
0.999997925759
0.999996738236
0.999995167337
0.999994103963
0.999993304411
0.999993059337
0.999994220639
0.999998912111
0.999999999612
0.730006517761
0.0577382291271
-4.41162993362e-22
1.00000053655
1.00000080196
1.00000098106
1.00000095757
1.00000071795
1.00000030359
0.999999738141
0.999998992366
0.999998097342
0.999997097703
0.999996103406
0.999995531415
0.999994813944
0.999993059337
0.999994897927
0.99999826359
0.99999994949
0.704037957011
0.0513086370733
-1.23779748025e-19
1.00000113891
1.00000129604
1.00000126885
1.00000109533
1.000000737
1.00000020766
0.999999505723
0.999998598379
0.999997561003
0.999996537867
0.999995685188
0.999995306976
0.999994627892
0.999993341814
0.999995166732
0.99999787271
0.99999982668
0.671893278003
0.0344537799013
-5.48312661189e-20
1.0000014243
1.00000152617
1.00000145005
1.00000121004
1.00000078117
1.00000015106
0.999999312783
0.999998231464
0.999997015865
0.99999579597
0.999994735413
0.999993818666
0.999993266941
0.999994428687
0.999995444155
0.999998335952
0.999999913293
0.636501783895
0.0226101795563
-2.81215109779e-22
1.00000155118
1.00000158405
1.00000149954
1.00000129144
1.0000008761
1.00000020727
0.999999315143
0.99999814284
0.999996828796
0.999995498673
0.999994590916
0.99999369794
0.9999929166
0.999993770269
0.999995609753
0.999998141635
0.999999940802
0.600357576334
0.0147397888555
-3.26634694601e-23
1.00000150255
1.00000156823
1.00000155634
1.00000147389
1.0000011464
1.00000052782
0.999999637155
0.999998401209
0.999996985647
0.999995666552
0.999994588552
0.999994093412
0.999992824808
0.999991768855
0.999995810368
0.999998529405
0.999999944863
0.565155028275
0.00905432076937
8.52771512715e-24
1.00000143328
1.00000154515
1.00000180665
1.00000182464
1.00000161803
1.00000107142
1.00000010778
0.999998900654
0.9999973174
0.999996042079
0.999993889056
0.999993482659
0.999991816535
0.999989856437
0.999996268963
0.999998991464
0.999999946894
0.530698801868
0.00495976192687
-1.28762505805e-09
1.00000129728
1.00000174659
1.00000175316
1.00000219126
1.00000202271
1.00000155611
1.00000069175
0.999999385441
0.999998026331
0.999995253032
0.999994501616
0.999991255429
0.999989454504
0.99999019488
0.999997785769
0.999999670662
0.999999946894
0.496360747653
0.00199609954335
1.88214262309e-05
1.0000012178
1.00000167171
1.00000199768
1.00000284807
1.00000261949
1.00000215194
1.00000113044
0.999999766618
0.999997545898
0.999996476076
0.999992378621
0.999989483305
0.999989454504
0.999990664884
0.999997092631
0.999999765131
0.999999946894
0.462311436708
0.000369849569582
2.34408849228e-06
1.00000147205
1.00000239851
1.0000021468
1.00000203837
1.00000200323
1.00000177965
1.0000013002
1.00000067841
1.0000000016
0.999999256507
0.999998435221
0.999995168664
0.999995030651
0.99999758368
0.999999236933
0.999999752
0.995408397174
0.434050253535
2.33509144097e-06
1.48083765231e-08
1.00000247608
1.0000024811
1.00000200976
1.00000199936
1.00000195721
1.00000177603
1.00000145367
1.00000113033
1.00000097335
1.00000032289
1.00000040532
0.99999917735
0.999998238843
0.999998448657
0.999999529979
0.999999745435
0.990705255604
0.409116044681
-1.33746818597e-15
7.15161263456e-09
1.00000256856
1.00000285059
1.00000209459
1.00000204049
1.00000195463
1.00000178158
1.00000156741
1.0000015361
1.0000017964
1.00000211426
1.00000137892
0.999999827087
0.999999527197
0.99999926084
0.99999962208
0.99999974542
0.985747597768
0.388036779729
-1.17052686484e-15
-7.34898773454e-10
1.00000289432
1.00000226848
1.00000212082
1.00000204316
1.00000191637
1.00000174755
1.00000167552
1.0000020323
1.00000292096
1.00000293398
1.00000300565
1.00000130952
0.999999995703
0.999999574509
0.999999713175
0.9999997774
0.980840288931
0.369986530245
-1.62578022372e-15
-1.71143641831e-11
1.00000216988
1.00000214212
1.00000208327
1.00000197345
1.00000181397
1.0000016793
1.00000182022
1.00000274732
1.00000333808
1.00000433727
1.00000344213
1.00000178532
1.00000011833
0.999999660066
0.999999670713
0.999999868077
0.97609455432
0.354330158434
-4.93820717508e-15
-1.99053810413e-12
1.00000199552
1.00000203772
1.00000197182
1.00000183022
1.00000165922
1.00000159079
1.00000203394
1.00000290998
1.00000415177
1.00000472078
1.00000351539
1.00000161785
1.00000016968
0.99999960018
0.999999606103
0.999999950771
0.972482031042
0.340866259589
-2.07383521891e-14
2.36895174896e-13
1.0000018608
1.00000187976
1.00000178529
1.00000162198
1.00000145698
1.00000146987
1.00000198641
1.0000029102
1.00000429545
1.00000448105
1.00000292403
1.00000167893
1.00000021597
0.999999554678
0.999999552904
0.999999983558
0.969544760542
0.330008451429
1.45792480575e-08
2.68941140706e-12
1.00000167428
1.00000164747
1.0000015261
1.00000135533
1.00000120716
1.00000125753
1.00000169404
1.00000270658
1.00000370703
1.00000428112
1.00000313789
1.0000017325
1.0000003869
0.999999500111
0.999999544232
0.99999999571
0.967027108585
0.321707461966
5.76566658203e-08
1.45807448287e-08
1.00000141279
1.00000134098
1.0000012043
1.00000104113
1.00000091605
1.00000095314
1.00000137611
1.00000230345
1.00000356296
1.00000393768
1.00000313038
1.00000179095
1.00000064513
0.999999496449
0.99999960458
0.999999999113
0.964783639074
0.315724279394
1.834021323e-07
5.76571791113e-08
1.00000108216
1.00000097627
1.00000083761
1.0000006942
1.00000059561
1.00000063378
1.00000100557
1.00000177908
1.00000257798
1.00000312789
1.00000267214
1.00000183651
1.00000087133
0.999999599149
0.999999788287
0.999999999334
0.963131442165
0.311541446689
7.08495666898e-07
1.83404288535e-07
1.00000070717
1.00000058176
1.00000045393
1.00000033749
1.00000026839
1.00000031395
1.00000065406
1.00000137281
1.00000212738
1.00000254206
1.00000235813
1.00000195387
1.00000112455
0.999999671317
0.999999880497
0.999999999778
0.96200115817
0.309477568809
2.42706813737e-06
7.08502639831e-07
1.00000032682
1.00000020419
1.00000011417
1.00000004698
0.999999998112
1.00000003374
1.00000038278
1.00000114951
1.00000151762
1.00000224397
1.00000203945
1.00000214517
1.00000138719
0.999999710625
1
1
0.961714012028
0.30895816819
6.37979603205e-06
2.42708497429e-06
1.00000001713
0.999999908279
0.999999806617
0.999999712549
0.999999677578
0.999999891321
1.00000025016
1.00000069115
1.00000126119
1.00000188815
1.00000188348
1.00000232341
1.00000158401
0.999999827127
1.00000011777
1.00000007284
0.962638519583
0.30998058349
1.40579218715e-05
6.37981862338e-06
0.999999641048
0.999999546234
0.999999476115
0.999999395
0.999999465689
0.999999806934
1.00000005492
1.00000061826
1.00000128927
1.00000117177
1.00000218764
1.00000250882
1.00000179674
0.999999957951
1.00000015809
1.00000008262
0.964085421424
0.311956687595
2.63953718837e-05
1.40579395748e-05
0.999999429676
0.999999429727
0.999999417312
0.999999395
0.999999432246
0.999999806572
1.00000004968
1.00000048297
1.00000100038
1.0000013867
1.00000226128
1.00000260557
1.00000193349
1
1.0000001572
1.00000007161
0.964407715488
0.314075917005
4.2965426246e-05
2.63953837656e-05
0.999999725687
0.999999726914
0.999999719444
0.999999727621
0.999999782396
1.00000000483
1.00000017246
1.00000037826
1.00000079951
1.00000087795
1.00000142575
1.00000151728
1.0000011155
1.0000000228
0.999999935629
1
0.970033630587
0.313801372603
6.28270067286e-05
4.29654321678e-05
)
;

boundaryField
{
    back
    {
        type            zeroGradient;
    }
    sides
    {
        type            zeroGradient;
    }
    bottom
    {
        type            zeroGradient;
    }
    front
    {
        type            zeroGradient;
    }
    atmosphere
    {
        type            inletOutlet;
        inletValue      uniform 0;