/*--------------------------------*- C++ -*----------------------------------*\
| =========                 |                                                 |
| \\      /  F ield         | OpenFOAM: The Open Source CFD Toolbox           |
|  \\    /   O peration     | Version:  v2012                                 |
|   \\  /    A nd           | Website:  www.openfoam.com                      |
|    \\/     M anipulation  |                                                 |
\*---------------------------------------------------------------------------*/
FoamFile
{
    version     2.0;
    format      ascii;
    class       volVectorField;
    location    "3.9";
    object      ddtCorrDdt0(U);
}
// * * * * * * * * * * * * * * * * * * * * * * * * * * * * * * * * * * * * * //

dimensions      [0 1 -2 0 0 0 0];


internalField   nonuniform List<vector> 
1984
(
(-0.00524957438752 0.00525278424602 3.9194784867e-23)
(-0.00541550078107 0.0155114684648 -3.19976302395e-23)
(-0.00543614423325 0.0260903626105 4.80714825651e-23)
(-0.00545204797633 0.0366970840982 7.74607711126e-23)
(-0.00548536964386 0.0473513342189 1.32980836036e-22)
(-0.0055457213442 0.0580905348654 2.54871129435e-23)
(-0.00560722508248 0.0689358605864 -2.64970973545e-23)
(-0.00566361686322 0.0799006225225 -1.74138392119e-22)
(-0.00571631081856 0.0909634758981 -1.26945719983e-22)
(-0.00571961030217 0.102053138167 -9.11192891193e-23)
(-0.00563636362367 0.113127584728 7.27084804095e-23)
(-0.00547956281895 0.12403698125 1.04673529392e-23)
(-0.00511991228539 0.134402139602 7.1629116839e-24)
(-0.00433289656504 0.143849604361 -6.25369863094e-22)
(-0.00251440518027 0.151209692676 -1.6978270934e-22)
(-0.000210290470173 0.154058244674 -6.36507374306e-22)
(-0.00467118338656 0.140013822162 -8.47912915712e-21)
(-0.0470152392734 0.135627577988 -1.15955979268e-20)
(-0.30781022995 0.232880389189 1.34921942564e-20)
(-0.583771490393 1.25647322984 8.64516191514e-21)
(-0.0154704132474 0.00540943226945 4.93060788622e-23)
(-0.0156997063123 0.0156705606214 -7.35978304929e-23)
(-0.0157528897779 0.0261952920961 4.42547515324e-23)
(-0.0158351019703 0.0368000020574 1.66288042168e-22)
(-0.0159551530151 0.0474582699855 1.72097582864e-22)
(-0.016113941126 0.0582267857023 1.16299609598e-22)
(-0.016284418175 0.0691323935173 -6.60778837905e-23)
(-0.0164530313689 0.0801667020603 -1.32072029644e-22)
(-0.0165749759265 0.0913483589073 8.77132733407e-23)
(-0.0166174321496 0.102643384842 1.31519998455e-22)
(-0.0164668352456 0.113940080364 9.0054344174e-23)
(-0.0160758390332 0.125165998787 5.25233742701e-23)
(-0.0152502743758 0.136215746693 9.91430802454e-25)
(-0.0135866177464 0.147017560419 3.93144104719e-22)
(-0.0108200633297 0.156472537174 -5.22938588718e-22)
(-0.00772931656343 0.166859668997 -1.42298203533e-21)
(-0.00571078373946 0.154568303562 1.12931693566e-21)
(-0.0089447795938 0.149069381841 -6.71400727809e-21)
(-0.227351053066 0.140833072839 -3.5647561511e-21)
(-1.02661522877 -0.104660997464 -2.23485132158e-21)
(-0.0259270107175 0.00538562537693 -7.4431412426e-23)
(-0.0261513683224 0.0155981936149 5.17889026742e-23)
(-0.0262714558165 0.0260957932493 -4.40355325653e-23)
(-0.026447664905 0.036657962392 1.1741414044e-22)
(-0.0266669292164 0.0472934884416 1.20719651444e-22)
(-0.026923786878 0.0580477587321 1.05723162733e-22)
(-0.0272088630325 0.0689456832595 -3.40297172772e-25)
(-0.0274919325844 0.0800211670059 3.62389396461e-23)
(-0.02774299648 0.0912792115298 1.66194418314e-23)
(-0.0278865683328 0.10271208447 -9.44073745491e-23)
(-0.0278503871812 0.114286283963 4.16488498116e-23)
(-0.0274484106265 0.125952291446 -3.96301637288e-23)
(-0.0264523530495 0.137703178807 8.59122570316e-23)
(-0.0243517387046 0.149445368461 -1.7688207126e-21)
(-0.0202935606247 0.15955964512 5.11558937727e-21)
(-0.0234852541465 0.172469481371 -1.13603070232e-20)
(-0.013682019137 0.159743816772 -1.43093951542e-20)
(-0.00389330286242 0.15596589772 2.3814614674e-20)
(-0.200695132353 0.169670445212 3.19350939513e-20)
(-0.631148514745 -0.138820652835 -1.29767199278e-20)
(-0.0363112348759 0.00533493542537 -1.05795212375e-22)
(-0.0365706867771 0.0154731239998 -2.12721854207e-22)
(-0.0367557406129 0.0259052782145 -5.12937371692e-23)
(-0.0370248652667 0.0363968478747 9.50201598189e-23)
(-0.0373620454828 0.0469871447823 6.89473133358e-23)
(-0.0377587752236 0.0577061044766 3.35599991698e-23)
(-0.0381969722543 0.0685965056791 7.42723979011e-23)
(-0.038642604624 0.0796773596978 -4.58123523296e-23)
(-0.0390683808955 0.0910177871269 -4.85957940291e-23)
(-0.0394046064238 0.102616737221 1.27201195737e-22)
(-0.0395544196117 0.114465298611 -1.71099345258e-23)
(-0.0394174285552 0.126655748406 -4.01612601082e-23)
(-0.0387740153544 0.139390461914 -8.77410413221e-23)
(-0.0372419910721 0.153271610869 -2.56138070456e-22)
(-0.0340124364486 0.157232414043 1.63974902589e-21)
(-0.0466350200894 0.178563117601 -1.39889020891e-21)
(-0.0245141519492 0.175471403632 2.57428231281e-21)
(-0.00890677334132 0.176120512753 1.18311117212e-20)
(-0.124627714984 0.230957277272 1.16232623765e-20)
(-0.278612564954 0.0275422956653 1.21831081979e-20)
(-0.0465761838842 0.00526872256374 -1.87352180918e-23)
(-0.0468659447069 0.0152952786215 -1.12666969889e-22)
(-0.0471448649239 0.0256245848732 -4.36663395974e-23)
(-0.0475104631402 0.0360238035793 2.30299815224e-23)
(-0.0479775304648 0.0465373869458 4.27930290264e-23)
(-0.0485354840836 0.0572000500628 1.59632032202e-23)
(-0.049154925349 0.0680513251895 -3.89958923752e-24)
(-0.0498150388468 0.0791411418894 -2.0955606585e-23)
(-0.0504381990137 0.0905178246589 -1.68835423405e-23)
(-0.0510217078694 0.102242941181 3.29665609196e-23)
(-0.0514774557256 0.114303248782 -2.39202342392e-23)
(-0.0517595382365 0.126763741127 -8.9320731559e-23)
(-0.0519501626695 0.139890055718 5.08015952629e-23)
(-0.0522285617433 0.154107809998 -1.26223059348e-22)
(-0.0555520158245 0.149372179153 -7.2960461552e-22)
(-0.0607552468308 0.187099296651 -1.46815140872e-21)
(-0.0420470595332 0.198906866201 -3.58726708757e-21)
(-0.021373314628 0.200423099204 7.83946414556e-21)
(-0.0655123494756 0.192401897586 2.42295027827e-22)
(-0.108050614777 0.128676586775 -8.6336985212e-21)
(-0.0567023133431 0.00520753192248 2.54349598809e-23)
(-0.0570546926826 0.0150692984281 -4.13743316094e-23)
(-0.0574117252499 0.0252401886518 7.8378519734e-23)
(-0.0578911280162 0.0355350659343 4.84461546662e-23)
(-0.0585073481994 0.0459354061344 2.62129332632e-23)
(-0.0592518115737 0.0565089706895 1.39067701761e-23)
(-0.0600893247784 0.0672980208434 -3.41965821932e-24)
(-0.060984201929 0.0783717212158 -4.02865535106e-24)
(-0.0618822566904 0.0897833519776 2.4215226006e-24)
(-0.0627367284959 0.101556598063 -2.00957608371e-23)
(-0.0635396624763 0.113717054289 -2.13216244737e-23)
(-0.0642164119942 0.126177669402 -6.14172961776e-23)
(-0.0649896423991 0.13890575449 2.93217824982e-24)
(-0.0664618502693 0.149550869781 1.26510398878e-22)
(-0.0707608983421 0.147570838726 -5.36397208475e-22)
(-0.0601181702644 0.193278661579 -2.64966359534e-21)
(-0.0558747139308 0.212785100195 -6.44162040202e-21)
(-0.0392397436022 0.237468854556 9.20220425935e-21)
(-0.0519657032634 0.176188445038 -2.79868046326e-21)
(-0.0419686573919 0.152371919198 -1.01290536145e-20)
(-0.0666416747873 0.00511767744323 6.83369758354e-23)
(-0.0671052521116 0.0147870886462 -6.53030121465e-23)
(-0.0675232725033 0.0247709367846 -3.46814804686e-23)
(-0.0681332256048 0.0349020078478 7.33404526975e-23)
(-0.0689217361074 0.0451534961481 5.14274224967e-23)
(-0.0698748363378 0.0556044196865 2.09775171715e-23)
(-0.0709647606425 0.0663086976418 2.27804992773e-23)
(-0.0721375757158 0.0773337336568 -1.33779443838e-24)
(-0.0733548440239 0.0887393753972 2.4191769022e-23)
(-0.0745411325043 0.10055757445 -6.57122257118e-23)
(-0.0756527467182 0.112800973251 -4.28931277497e-23)
(-0.0766096963318 0.12529700443 -8.41802541195e-23)
(-0.0773449406334 0.137631069552 -5.37445728027e-23)
(-0.0777177682157 0.148256827264 7.62577837108e-22)
(-0.0762528265084 0.154567018796 1.90139684955e-21)
(-0.0609617508935 0.199210821055 -1.33513786996e-20)
(-0.0585994911303 0.215936330305 -1.2986618285e-20)
(-0.0594620395604 0.257278866473 -1.43515095799e-20)
(-0.0705337717863 0.194103896852 2.77718921418e-20)
(-0.0178624328307 0.194057714965 -8.37733658952e-21)
(-0.0763641313317 0.0049908832823 -3.11645597351e-23)
(-0.0769449248288 0.0144266843339 -3.0586236884e-23)
(-0.0774493995029 0.0241951261339 4.30975442204e-23)
(-0.0782001795932 0.0341096559809 2.96601248865e-23)
(-0.0791801109769 0.0441724502563 5.10459938802e-23)
(-0.0803730069648 0.0544566493388 3.13935052562e-23)
(-0.0817439683759 0.0650293720794 3.91553645558e-24)
(-0.083249187426 0.0759703014592 -2.34682352715e-23)
(-0.084831581386 0.0873579260643 4.19598744617e-23)
(-0.0864076592163 0.099234889948 -3.06933629902e-23)
(-0.087875481518 0.11161551304 -8.5593630085e-23)
(-0.0891171954609 0.12446430378 -1.0480760014e-22)
(-0.0897711410392 0.137784599759 6.03359411712e-23)
(-0.0889853465136 0.150578013005 5.79724047447e-22)
(-0.0852889923013 0.163392344882 1.29243610035e-21)
(-0.0733368318782 0.205675734831 -9.33206483929e-21)
(-0.0676219950995 0.212411371249 -1.91146348248e-20)
(-0.081554609114 0.250704843158 -4.34148359841e-21)
(-0.0892528712703 0.233072156744 -2.71282583988e-20)
(-0.01951049527 0.246924002903 -7.87074929098e-22)
(-0.085846386649 0.00482865508698 -6.39104651052e-23)
(-0.0865206486866 0.0139781053214 -1.98975098967e-22)
(-0.087130020225 0.0234977152893 -7.37741944333e-23)
(-0.0880399744675 0.0331407204325 9.19977680219e-24)
(-0.0892325905467 0.0429569825866 4.50636691899e-23)
(-0.0906993673021 0.0530312569478 -2.72255144487e-24)
(-0.0923955067865 0.0634268578265 -1.7040049473e-23)
(-0.0942807584856 0.0742373904301 2.3321495585e-23)
(-0.0962926192451 0.085564836472 -2.52805372844e-23)
(-0.0983515624702 0.0974839905655 -8.16939111591e-23)
(-0.100337094304 0.110066831743 3.85113977767e-23)
(-0.102057434101 0.12338894601 -9.45104648823e-23)
(-0.103222047055 0.137734155539 -1.11254242907e-23)
(-0.103201395174 0.152692657943 -2.14617192835e-23)
(-0.10090653005 0.169468788122 -6.80215438637e-22)
(-0.0942286871835 0.209697718689 -8.4509251104e-21)
(-0.0872178806534 0.208402120921 6.92628138379e-24)
(-0.105657584838 0.240155127669 5.82715923531e-21)
(-0.109001352091 0.259458036408 5.43539628284e-21)
(-0.0208779763562 0.285246397391 2.97387557907e-20)
(-0.0950379284156 0.00465313657583 -6.07106036836e-23)
(-0.0957740481617 0.0134573220888 -6.18221231908e-23)
(-0.0965099490526 0.0226555206852 -6.42549686773e-23)
(-0.0975960694691 0.0319718908923 9.7159704754e-24)
(-0.0990258624215 0.041485494638 3.99574774521e-23)
(-0.100792008414 0.0512825591441 1.37383835948e-23)
(-0.102861299321 0.0614416075989 1.64613882641e-24)
(-0.105183521097 0.0720636818681 1.58215448815e-24)
(-0.107707886913 0.08326967378 7.23424910033e-24)
(-0.110358680511 0.0951660278838 -3.3978058726e-23)
(-0.11299704317 0.107894491609 -1.72443318783e-23)
(-0.11549339282 0.121564713623 -1.93450187757e-22)
(-0.117697599269 0.136600054285 -8.65149945433e-24)
(-0.11947257203 0.152829788442 6.44367888753e-23)
(-0.120074315995 0.171729645386 -2.64960748107e-22)
(-0.11868620957 0.211199693092 -4.83556400221e-22)
(-0.111663137385 0.205523731481 -6.70172581137e-21)
(-0.133748911891 0.23135063845 3.46254018111e-21)
(-0.129645363278 0.272442350892 6.89332668454e-21)
(-0.0193272149246 0.306752037424 3.10153827112e-22)
(-0.103838821415 0.00446451309449 6.78678662951e-24)
(-0.10467601033 0.0128601295213 -3.06886406186e-23)
(-0.105537743946 0.021651261167 -9.61113387676e-23)
(-0.106815631415 0.0305846570009 9.52847204305e-24)
(-0.108498365801 0.0397304040907 3.97895183597e-23)
(-0.110591996134 0.049182940707 -2.04103705313e-24)
(-0.113065840413 0.0590272563072 -1.37957482525e-24)
(-0.115879505223 0.0693791336023 -5.45282011592e-24)
(-0.118988522564 0.0803701540914 -1.65264870464e-23)
(-0.12235817055 0.0921674902938 -1.45504194154e-23)
(-0.125752652144 0.104904388368 -1.21853685152e-23)
(-0.129279457008 0.118661561712 -1.80099502511e-22)
(-0.132851884484 0.133685785405 9.06571895903e-23)
(-0.136727306235 0.150224654906 -1.02015781931e-22)
(-0.140732037066 0.169865489211 -9.73786804273e-22)
(-0.145444432739 0.209860102809 1.07518348746e-20)
(-0.138325078636 0.203698161854 -4.18770480269e-21)
(-0.163357520469 0.22462120211 6.29622523082e-21)
(-0.149087591375 0.273487154188 4.02644591402e-22)
(-0.0160610800095 0.306094038027 1.53668494506e-20)
(-0.112196704641 0.00422937706898 6.47155831696e-23)
(-0.113153494762 0.0121526104681 -4.71312906222e-23)
(-0.114141472578 0.0204878569299 -1.81132880777e-24)
(-0.115620767409 0.0289653072226 -5.40364765218e-24)
(-0.117576213984 0.0376740151388 3.36441334009e-23)
(-0.120024151526 0.0467009274905 1.16907458001e-23)
(-0.122932621952 0.0561457806472 -3.63097194681e-23)
(-0.126268793481 0.0661278928022 -2.5484517833e-23)
(-0.129990869315 0.0767706467717 -5.58137776715e-23)
(-0.134040031829 0.0883734948169 -1.42582679714e-23)
(-0.13842458676 0.100945287031 1.01381989545e-23)
(-0.143068669025 0.114427580759 -2.11622621275e-22)
(-0.148020053885 0.129052543212 -3.6209275574e-23)
(-0.153581883779 0.144853172972 3.49644304133e-23)
(-0.160687975627 0.162966511853 -4.28668426335e-22)
(-0.172569464087 0.205206590116 1.47842704935e-21)
(-0.163337977674 0.20232897372 -9.46879330761e-21)
(-0.187573932868 0.217303238356 3.03730956988e-21)
(-0.165278763063 0.248372714015 7.57075031662e-21)
(-0.0123999826132 0.279398619721 4.76850926617e-21)
(-0.12005696382 0.00396960369085 1.58504375605e-23)
(-0.12112150609 0.0113482816794 -1.57255298083e-22)
(-0.122249708493 0.0191521421979 -5.22085587713e-23)
(-0.123935124954 0.0270984884536 -1.25663923558e-23)
(-0.126183919321 0.0352865409561 4.80743852484e-23)
(-0.129000917496 0.0438087696949 3.08935654767e-24)
(-0.132372518771 0.0527734736172 -2.48028680571e-23)
(-0.136273286848 0.0623098978504 -5.81807620841e-23)
(-0.140653333869 0.0725824852196 -6.91622933151e-23)
(-0.145440933176 0.083707999655 -3.83382850269e-23)
(-0.15086587638 0.0958468029529 -6.77609769754e-24)
(-0.156553841694 0.109024077442 -1.41222043667e-22)
(-0.162552076281 0.123072443295 -4.53557432206e-23)
(-0.168877771855 0.137480461934 -1.64676044392e-22)
(-0.175900539174 0.150807992219 2.65740233845e-21)
(-0.18546483431 0.196172311585 -6.30712024805e-21)
(-0.187540663018 0.20059409984 -1.29886070317e-20)
(-0.207799373956 0.208830697865 3.98690721372e-21)
(-0.187101904843 0.208151480744 3.36951976298e-21)
(-0.00754183280479 0.231664853333 -1.30006982007e-21)
(-0.127344810722 0.00367161244344 5.05491376484e-23)
(-0.128515842659 0.0104340352988 -1.96592680431e-22)
(-0.129788684405 0.0176371244136 -1.30603957882e-22)
(-0.131686075851 0.0249738515154 -5.17519232728e-23)
(-0.134228350979 0.0325636447005 1.14757182573e-23)
(-0.137431147747 0.0404929706842 1.85310333465e-23)
(-0.141288285655 0.0488656263538 9.19990855003e-24)
(-0.1457829699 0.0578403157322 1.93384194233e-23)
(-0.150903544003 0.0675911225808 -1.16315677014e-23)
(-0.156635536074 0.0781421265971 -2.73055043148e-23)
(-0.163003670499 0.0898063265026 1.9785909969e-23)
(-0.169705390278 0.102697663291 -2.914773877e-23)
(-0.176669037775 0.116637477947 3.8735262147e-22)
(-0.183414255622 0.131435047529 -9.52813276198e-23)
(-0.188685902916 0.146042579829 -1.91514570149e-21)
(-0.188725432085 0.180228777196 3.95300367133e-21)
(-0.198229544154 0.189312162003 6.26224225709e-21)
(-0.225980387615 0.207379344915 -1.11292343449e-20)
(-0.207585793302 0.176134742962 -1.13597571313e-20)
(0.0167076800683 0.175633540987 -5.18138207564e-21)
(-0.133988301979 0.00334709982763 -3.02396680976e-23)
(-0.13526907701 0.00942128572494 -1.17719810512e-22)
(-0.136675562992 0.0159397395047 -1.06724525174e-22)
(-0.138785497262 0.0225941162541 -5.25947973087e-23)
(-0.141618467898 0.0294925245919 -2.59506503701e-24)
(-0.145208551443 0.0367300465698 4.81469832297e-24)
(-0.149545996284 0.0444179450071 6.05640819262e-24)
(-0.154638931681 0.0526956085181 3.5815965401e-23)
(-0.160497621364 0.0617269335659 8.41746351292e-24)
(-0.167177955632 0.0715975656871 2.75617106274e-24)
(-0.174653284704 0.0827572072969 -4.44011561307e-24)
(-0.182489792514 0.095315260923 -3.04071670957e-22)
(-0.19084814779 0.109275664304 1.54944082058e-23)
(-0.19922746491 0.125314891967 -3.40695640515e-22)
(-0.206527449151 0.144655149858 7.32003229005e-22)
(-0.209540934021 0.172056472463 -7.42841101307e-22)
(-0.212829915981 0.173231727464 -6.37312627222e-21)
(-0.249328755954 0.182880805504 -1.73817981071e-20)
(-0.195018536678 0.212343501638 -3.71650004474e-20)
(0.117121166412 0.141687426802 3.27356901443e-20)
(-0.139898301315 0.00298211613229 3.92224880103e-23)
(-0.141298900143 0.0083035621584 -5.10955207267e-23)
(-0.142834803107 0.0140713465625 -6.27966896556e-23)
(-0.145150160312 0.0199600595039 -5.85139192315e-24)
(-0.148256922093 0.0260915380344 7.56787636862e-25)
(-0.152212160056 0.0325532398556 1.26757735146e-24)
(-0.157022292421 0.0394409521886 1.99878514171e-24)
(-0.162692741733 0.0468967485335 3.8486826488e-25)
(-0.169271436268 0.0550553993145 7.48916783356e-25)
(-0.176734590357 0.0639832165626 1.03905184547e-23)
(-0.1849534185 0.0744749134523 -2.98263273987e-23)
(-0.194620927337 0.0864547928582 1.99352370772e-23)
(-0.204903581072 0.0997940261442 1.63409434767e-22)
(-0.215819730175 0.115457498183 1.54947119243e-22)
(-0.22741760368 0.134406126284 -1.46247548874e-21)
(-0.240044824072 0.15825800444 7.03814304256e-21)
(-0.244087176968 0.1603793738 5.302236675e-21)
(-0.273695770182 0.165415579011 -2.70908740395e-20)
(-0.177193105157 0.260927708583 -2.50031268041e-20)
(0.365564843303 0.0559954635018 1.62629330566e-21)
(-0.145017311321 0.00258806900849 2.652845299e-22)
(-0.146518340193 0.00708452597596 8.9064895578e-23)
(-0.148185105694 0.0120340986882 5.65001996323e-23)
(-0.150674572477 0.0170993344607 1.41462388508e-23)
(-0.154046714361 0.0223871203065 -3.36943841509e-23)
(-0.158353021934 0.0279659657539 3.58956870752e-24)
(-0.163612470143 0.033956974704 7.72176985819e-24)
(-0.169855461867 0.0404637290223 5.18385497196e-23)
(-0.177117052947 0.0476993713152 2.96409966962e-24)
(-0.185445854481 0.0559268450519 5.13186703729e-25)
(-0.194789971112 0.0648671216755 4.19632464886e-24)
(-0.20595808229 0.0753332353632 -9.63314044016e-24)
(-0.218134633887 0.0879739679138 -1.34854314378e-23)
(-0.231389074437 0.102429841034 -9.28191345464e-23)
(-0.246018492663 0.119178627397 -2.66918264287e-21)
(-0.26282990566 0.138901325683 7.51099202016e-21)
(-0.272013054174 0.145938603796 6.3495130891e-21)
(-0.302686243796 0.150066390775 -1.82243027324e-21)
(-0.209588248 0.189523248642 1.0771325285e-20)
(1.25406815795 -0.321396915029 9.772227266e-21)
(-0.149275956787 0.00216617761617 2.82109329753e-22)
(-0.150874125295 0.0057805398911 1.05961443008e-22)
(-0.152645497899 0.00985533516861 7.14896594189e-23)
(-0.155298280147 0.0140179917142 3.61695258945e-23)
(-0.158908726283 0.0183636171875 5.86463666798e-23)
(-0.163522054787 0.0229835272959 3.98911582428e-23)
(-0.169195541998 0.0279526428335 1.20236931683e-24)
(-0.175987057702 0.0334086674883 -1.7453649543e-23)
(-0.183941262705 0.0394820573707 4.39409711869e-23)
(-0.193193351844 0.0463271510634 -5.63313978671e-24)
(-0.203934264044 0.0539748214886 1.01071496087e-23)
(-0.215856032086 0.0630897959015 8.50536030159e-23)
(-0.230186262955 0.0742559259698 -5.41935058238e-23)
(-0.24532094352 0.0870673574011 -1.35642091851e-22)
(-0.262011955762 0.101475599564 2.42004795019e-21)
(-0.279789133189 0.117884728322 2.22993476845e-21)
(-0.297974649925 0.130482199229 -1.87991212544e-20)
(-0.341695685171 0.136588337047 5.21700305076e-21)
(-0.159324667029 0.0942159662506 4.54527393459e-20)
(3.25718725993 -1.11335149977 -4.22529257513e-20)
(-0.152608999799 0.00171303708689 1.15521741505e-22)
(-0.154306796784 0.00440133262081 -5.6643381481e-23)
(-0.15616492138 0.00753881939626 7.21649960707e-25)
(-0.158966690786 0.0107402081278 3.84027434506e-23)
(-0.162759256628 0.0140924928891 2.53772123377e-23)
(-0.167644398705 0.017647477278 6.06595701731e-24)
(-0.173687098235 0.021483404025 2.20000428568e-24)
(-0.18094762934 0.0257197782532 -3.61225738549e-24)
(-0.189548482484 0.0304999078668 8.7601484462e-24)
(-0.199575015901 0.0359454948621 -9.59688799263e-24)
(-0.211144275677 0.0422160246596 2.62422696554e-23)
(-0.224189668963 0.0490605090838 7.13400679146e-23)
(-0.23908126857 0.0583581598337 -1.99429478545e-23)
(-0.25725667093 0.069842149417 4.88152310303e-22)
(-0.276163763683 0.082435500219 -8.0786314818e-23)
(-0.295393612791 0.0982988081262 3.50655919451e-21)
(-0.321778103503 0.117620856564 -1.9158856321e-20)
(-0.361341439569 0.121365812954 -1.89622561516e-21)
(-0.374754870713 0.145616726201 -1.12086924278e-19)
(3.38702247077 2.17927144948 -2.43078081115e-20)
(-0.155022302382 0.00124022409034 -3.44945627663e-23)
(-0.156792315601 0.00295952261168 -2.20961926696e-22)
(-0.158710791205 0.00511701872048 -4.1345752438e-23)
(-0.16161321119 0.00731202717779 2.15613499014e-23)
(-0.165564300586 0.00959246648219 7.03608417453e-23)
(-0.170671130703 0.0120024543294 2.65761972538e-25)
(-0.176995097842 0.0146244718044 9.8683214322e-23)
(-0.184635007091 0.017540685174 -1.01516962583e-22)
(-0.193721062988 0.0208606974206 5.33530362234e-23)
(-0.204422106181 0.0247480649381 2.78385379852e-23)
(-0.216878814122 0.0293747020126 -2.4038645326e-22)
(-0.231245883186 0.0351248163919 1.00198239203e-22)
(-0.247194535732 0.0409898811855 1.67964455673e-22)
(-0.266554380131 0.0489601370427 7.62698004041e-22)
(-0.288342735484 0.0603266490266 -2.93721754357e-21)
(-0.311855771193 0.075165306025 8.41675835039e-21)
(-0.341892767205 0.102792251308 -2.097472403e-20)
(-0.387572104103 0.109117665662 3.12331251945e-20)
(-1.09955145218 0.224394824891 1.85613862311e-19)
(-2.76548031805 5.71675380001 -7.08232406652e-20)
(-0.156489987944 0.000754454898974 -4.00623743442e-23)
(-0.158322138552 0.00149446660601 -1.29585185456e-22)
(-0.160270728024 0.00263416919477 -8.08311260174e-24)
(-0.163229467352 0.00376418347398 7.30339231681e-23)
(-0.167280713836 0.00493063998644 4.95285399378e-23)
(-0.172514229951 0.00615810499848 -4.10177719039e-24)
(-0.179021468932 0.00749481268695 7.80875372594e-23)
(-0.186912928286 0.00899028022688 2.67570727523e-24)
(-0.196341972746 0.0107209026064 2.11088424982e-23)
(-0.207507347339 0.0127990311117 1.68191006072e-23)
(-0.220671041418 0.0154011460406 -5.20833249968e-23)
(-0.236101153178 0.0186989078618 1.20097785929e-23)
(-0.254279061266 0.0228028758241 -2.29886234172e-23)
(-0.274187081085 0.0275616896716 6.39455286915e-22)
(-0.297574294321 0.0339788417708 -3.55394313063e-21)
(-0.323832635781 0.0459637670826 -6.4362481095e-22)
(-0.361156911218 0.0788821945535 1.63619012793e-20)
(-0.413902850137 0.0861679656392 2.4421154011e-20)
(-1.21613840786 0.100360893644 1.31312336982e-19)
(-4.95157269027 -3.29031358467 -6.27511135636e-19)
(-0.156981984045 0.000255239882256 1.65439235092e-22)
(-0.158865318067 1.66004545795e-06 -1.71783868818e-23)
(-0.160824682619 0.000118446338171 2.38143417916e-23)
(-0.163793429929 0.000173052249721 -4.59869416373e-23)
(-0.167860424805 0.000206316438857 6.26203980442e-23)
(-0.173131391288 0.000211491576679 3.93608202458e-23)
(-0.179698953608 0.000207331932589 9.41323076116e-24)
(-0.187691500588 0.000217068802469 -6.30621843325e-23)
(-0.197274951257 0.000270605041245 2.54345273312e-22)
(-0.208672304933 0.000425067043628 1.84627316983e-23)
(-0.222163094065 0.000779736359978 1.73152107667e-23)
(-0.238124719903 0.00146407812448 4.11469904549e-22)
(-0.256928847973 0.00263640698047 -5.10055095664e-23)
(-0.278908765322 0.00461993829223 6.58581625479e-22)
(-0.303968458416 0.0083008980938 -3.88184699695e-21)
(-0.334076906951 0.0118657694342 9.47715291004e-22)
(-0.37454105789 0.043859007824 1.19881512454e-21)
(-0.429840309286 0.0607182157017 2.31295075102e-20)
(-1.1922276337 0.0834447975285 -6.57481630584e-20)
(-3.56984147492 0.197280433795 -1.66883718192e-20)
(-0.15651424182 -0.000244547419908 2.34413236951e-22)
(-0.158413754809 -0.00148118657087 4.9803724292e-24)
(-0.160350879048 -0.0023893476018 -5.55921917932e-23)
(-0.163276224746 -0.00340396845574 2.58250868892e-25)
(-0.167288880436 -0.00451065996493 1.24295090685e-22)
(-0.172498789219 -0.00573238650487 3.46774293923e-23)
(-0.178997889607 -0.00708692083492 2.18312000836e-23)
(-0.186920124119 -0.00859266325185 6.41071103302e-24)
(-0.1964353706 -0.0102597233591 -7.53633583753e-24)
(-0.207779874374 -0.0120851418343 4.34649143693e-23)
(-0.221242362652 -0.0140559025622 1.15615357831e-23)
(-0.237207204846 -0.0161216550682 2.76172528383e-22)
(-0.256116666529 -0.0182246247688 1.4568204743e-22)
(-0.278521055313 -0.0203401634075 3.08653768096e-22)
(-0.305347827738 -0.0223869490058 2.26621406886e-21)
(-0.339088326596 -0.0266130400804 5.85374236354e-21)
(-0.380879618445 0.0021558560031 -1.71254021793e-20)
(-0.42871426205 0.0232084769595 -1.1962705641e-21)
(-1.20785247982 0.110489681007 -5.91732457976e-20)
(-9.34629256597 5.50964808348 9.66803958797e-20)
(-0.155083359653 -0.000734501060036 1.8106756675e-22)
(-0.15699164805 -0.00292617644694 1.92223581006e-23)
(-0.158865396032 -0.00484018141761 -4.06329045251e-23)
(-0.161691201117 -0.00690077284912 8.8585820278e-23)
(-0.165568676383 -0.00912206627501 3.17217652265e-23)
(-0.170607373066 -0.0115504981433 7.1828435461e-24)
(-0.176906197188 -0.0142374483975 -3.48578799469e-25)
(-0.184585543341 -0.0172299716994 -3.96206293478e-24)
(-0.193805212825 -0.0205883778383 1.40550688603e-22)
(-0.204771559123 -0.0243739275609 -2.31567371338e-26)
(-0.217765826151 -0.0286459558986 1.08626827845e-22)
(-0.2331607921 -0.0334577972184 5.42717144097e-22)
(-0.251401384633 -0.0388862697264 -1.14638833741e-22)
(-0.273020068371 -0.0452312542978 3.28854916788e-22)
(-0.299011553453 -0.0528352650737 -5.62150999557e-21)
(-0.330814737617 -0.0661477541553 -4.64908890808e-22)
(-0.371798327597 -0.0464261040711 -4.22306511828e-21)
(-0.404259229408 -0.0283380079927 -3.1384557267e-20)
(-0.554676522359 -0.188178984555 2.09345443505e-19)
(-7.40168899555 -3.02471179122 -3.35088751156e-19)
(-0.152729974462 -0.00120718398065 1.8956650331e-22)
(-0.154628206752 -0.00430811883719 -7.50333297456e-23)
(-0.15640238894 -0.00718419809017 -2.27696348057e-23)
(-0.159071611156 -0.0102459793063 -2.06979827475e-23)
(-0.162733308624 -0.0135360309317 2.99361200696e-23)
(-0.167497495646 -0.0171231673035 5.73474089416e-24)
(-0.173456071559 -0.0210830907171 2.63744003534e-23)
(-0.180709023191 -0.0254944983046 -9.47897439e-23)
(-0.189399631334 -0.0304420006494 5.39045964272e-24)
(-0.199667345099 -0.0360389893421 2.52988383338e-22)
(-0.211767503658 -0.0424437309111 -1.65604971909e-22)
(-0.226027352504 -0.0497939815837 1.89704501602e-22)
(-0.242830227457 -0.05826085442 1.13191170395e-23)
(-0.262567741802 -0.0682749026056 -1.68726105855e-22)
(-0.286032942823 -0.0806102358633 -2.6758930886e-21)
(-0.313626398008 -0.100389797777 2.83817932407e-21)
(-0.348219219267 -0.089162358965 -6.23432841072e-21)
(-0.384067182491 -0.0658462585432 3.05482235014e-20)
(-0.510933767447 -0.328405200898 1.06857315617e-18)
(8.45798527329 -11.5996699263 8.30897441347e-19)
(-0.149509032632 -0.0016585780323 8.71551316365e-23)
(-0.151375975375 -0.00560262684498 1.02973315401e-23)
(-0.153015008455 -0.0093756283969 1.91552006306e-23)
(-0.155475143717 -0.0133722831109 6.1182854959e-23)
(-0.15884654064 -0.0176581505833 -6.00933976028e-25)
(-0.163231508407 -0.0223234044068 1.67821375119e-23)
(-0.168703258813 -0.0274606488455 5.03714943854e-24)
(-0.175349263157 -0.0331648481196 3.39369733431e-24)
(-0.183280079081 -0.0395290047714 3.85920349235e-24)
(-0.19256272824 -0.0467255238067 2.52026031152e-23)
(-0.203394999176 -0.0550002507246 -1.04025428947e-22)
(-0.216013381523 -0.064550335953 7.18467304312e-23)
(-0.230766080856 -0.0755735975671 -1.52310689828e-22)
(-0.247876890775 -0.0885012119912 1.47357871111e-22)
(-0.267882320197 -0.104142489395 -1.37681520917e-21)
(-0.28946296585 -0.128321166916 2.96438153775e-21)
(-0.3114888279 -0.132139903187 -4.12868648032e-23)
(-0.312084511988 -0.112756355052 1.09135759599e-20)
(0.103750685528 -0.163746311605 -1.84859842817e-19)
(15.44843744 -0.946544284342 -2.25199625627e-20)
(-0.145486508241 -0.00208176697691 1.54944548134e-22)
(-0.147302265245 -0.00678218002824 -6.33144265417e-23)
(-0.148776283376 -0.0113719835203 1.26256577151e-22)
(-0.150976340799 -0.0162219504058 -1.9742730812e-23)
(-0.153980802552 -0.0214114573052 3.47840340194e-23)
(-0.157877909479 -0.0270444071035 8.0672833796e-23)
(-0.162722530573 -0.0332341106787 7.85901609427e-23)
(-0.168591635463 -0.0400909589631 8.6631268232e-24)
(-0.175559012277 -0.0476688630416 5.79827782173e-23)
(-0.183655893002 -0.056169626841 1.0294540683e-22)
(-0.192995151055 -0.065918805937 -6.22717003565e-23)
(-0.203679059938 -0.0772109057808 2.50386691093e-22)
(-0.216149739809 -0.0902614291676 -4.75268547666e-23)
(-0.230617019564 -0.105271392038 -1.30343543988e-22)
(-0.247626904342 -0.122158438568 -4.93137490828e-22)
(-0.26570478225 -0.143525792381 -1.43852438155e-21)
(-0.281920702411 -0.137844440568 -1.07190129974e-20)
(-0.255355262352 -0.0959303635995 2.52516231377e-21)
(0.614163536037 -0.153687782222 -6.66191786342e-20)
(26.0426467704 -9.42408778932 -1.6944325375e-18)
(-0.140743412185 -0.00246240171546 1.22512528028e-22)
(-0.14249439347 -0.00782926809192 -2.44630115869e-23)
(-0.143780036412 -0.0131354689485 2.75246189602e-23)
(-0.145676014582 -0.0187246546301 3.74456355972e-23)
(-0.148249530958 -0.0246867521579 2.45815426823e-23)
(-0.151570495018 -0.0311397630084 -5.53182290593e-24)
(-0.155675137921 -0.0382199430572 8.68819512471e-24)
(-0.160606827768 -0.0460385355118 2.70933861712e-24)
(-0.166387047488 -0.0546267076796 2.55695045827e-23)
(-0.173081641934 -0.0641874803271 5.09602013776e-23)
(-0.180785558219 -0.075048020109 1.14930220937e-23)
(-0.189466622949 -0.0877479173994 1.30228939099e-22)
(-0.199623793434 -0.102628669259 -2.28883278201e-23)
(-0.211626897805 -0.119730162185 -1.18091081346e-22)
(-0.226468823145 -0.138834220398 -8.0981982751e-22)