/*--------------------------------*- C++ -*----------------------------------*\
| =========                 |                                                 |
| \\      /  F ield         | OpenFOAM: The Open Source CFD Toolbox           |
|  \\    /   O peration     | Version:  v2012                                 |
|   \\  /    A nd           | Website:  www.openfoam.com                      |
|    \\/     M anipulation  |                                                 |
\*---------------------------------------------------------------------------*/
FoamFile
{
    version     2.0;
    format      ascii;
    class       surfaceVectorField;
    location    "3.9";
    object      Uf_0;
}
// * * * * * * * * * * * * * * * * * * * * * * * * * * * * * * * * * * * * * //

dimensions      [0 1 -1 0 0 0 0];


internalField   nonuniform List<vector> 
3840
(
(-0.000516169130384 0.00123258435053 7.82660905526e-22)
(-0.00123256430087 0.000497413500477 7.6170133178e-22)
(-0.0003092856863 0.00210270060706 6.19750074324e-22)
(-0.000870089853484 0.00152829685618 1.03177250383e-21)
(-0.000268203605663 0.00282758217689 -3.11617876712e-23)
(-0.000724834870411 0.00225043862648 3.81350047832e-22)
(-0.000289457149706 0.0035492571565 -5.9406189724e-22)
(-0.00072157532864 0.0029676762689 -3.53063709159e-22)
(-0.000316163196905 0.00429828767207 -8.09854714775e-22)
(-0.000748852464891 0.0036801645075 -9.32606864521e-22)
(-0.0003322393026 0.00507805140203 -6.41121967582e-22)
(-0.000778904800011 0.00440232681065 -8.66392989672e-22)
(-0.000346005798142 0.00587965392511 -5.24928609726e-23)
(-0.00079996546091 0.00514279440868 -6.14579278314e-22)
(-0.00036282214013 0.00671184218652 5.85585858063e-22)
(-0.000829941132019 0.00589996870358 1.22067748137e-22)
(-0.000390609203354 0.00758963463502 7.69337059001e-22)
(-0.000874680479348 0.00668850698082 5.12671518233e-22)
(-0.000448316861562 0.00854003714986 4.39728736684e-22)
(-0.000947956982223 0.00753061492459 3.30996479492e-22)
(-0.000546442972766 0.00959565409228 5.12785640871e-23)
(-0.00105276212564 0.00844850621256 -4.35561308764e-23)
(-0.000713276210197 0.0108411953323 -1.86251141793e-22)
(-0.00124249683217 0.00949659964532 -1.61057354413e-22)
(-0.000991834391723 0.01241514373 -8.24631981748e-22)
(-0.00157107780126 0.0107621745213 -4.73469225244e-22)
(-0.00134639281949 0.014480230422 -1.76034407754e-21)
(-0.00206256432339 0.0123637972003 -1.56629695564e-21)
(-0.0014460566319 0.0170019871858 -2.24680283292e-21)
(-0.00251989360138 0.0134447851621 -3.34189527528e-21)
(-0.000953993771193 0.0192036159022 -1.53219127951e-22)
(-0.00220059659371 0.0193067475434 -5.50976858731e-21)
(0.00170197984774 0.0216229132572 3.62452240356e-21)
(-0.00241901161936 0.0119625218188 -1.64713013146e-21)
(-0.00483995345475 0.0239722513991 5.26692479513e-21)
(-0.00234991272949 0.0207282610137 2.45936941432e-22)
(-0.0131935633519 0.0349687824763 3.41542521858e-21)
(-0.0109978023383 0.0262164633195 3.15235935081e-22)
(-0.0251484517864 0.0364438158695 3.7233681513e-21)
(-0.00153096032075 0.000847390783259 1.01081293008e-21)
(-0.00207994066269 0.000279937143416 1.1573765343e-21)
(-0.00124692335685 0.0016283011499 7.93372477337e-22)
(-0.00165097783292 0.00121011867483 1.45749858303e-21)
(-0.00115707174413 0.00237496741241 5.94481263438e-23)
(-0.00147144370058 0.00190003796986 6.77427822852e-22)
(-0.00115330088381 0.00308021979121 -6.9160867644e-22)
(-0.00142671206342 0.0025996653033 -1.71264341043e-22)
(-0.00117588441392 0.00376509292242 -9.89145139418e-22)
(-0.00143352145284 0.0032673523997 -7.66483682817e-22)
(-0.00120046185144 0.00444441714851 -8.39850300404e-22)
(-0.00145740106002 0.00391927748372 -7.41978700281e-22)
(-0.00123156711145 0.00513158602237 -4.40018669205e-22)
(-0.0014853128978 0.00456822893641 -5.51122409192e-22)
(-0.00128114878443 0.00583455834656 4.91534083062e-23)
(-0.00153124855822 0.0052206192071 -1.02355775416e-22)
(-0.00136426507163 0.00657051907941 7.43309387235e-23)
(-0.00160645200362 0.00588817079583 1.49341456779e-22)
(-0.00150429197565 0.00736137610544 -1.52288388068e-22)
(-0.00173610354091 0.00658565802796 -1.06260320407e-22)
(-0.00172807868392 0.00825037944429 -2.55892049377e-22)
(-0.00193875777006 0.00734115842725 -1.99556155313e-22)
(-0.00207499321974 0.00927869447732 -4.48275437865e-22)
(-0.00226764270858 0.00819523615068 -2.65663319767e-22)
(-0.00259390540945 0.0105097789543 -1.21513419914e-21)
(-0.00279911903781 0.00917344928806 -6.14626534265e-22)
(-0.00322277208559 0.0120272908465 -3.14784815338e-21)
(-0.00357754452637 0.0103451423575 -1.64789348305e-21)
(-0.00342366775255 0.01402426233 -6.60486102966e-21)
(-0.00451497153308 0.0109575194769 -3.30807356973e-21)
(-0.00348716976319 0.0165853503292 -7.00367959081e-21)
(-0.00476068747917 0.0161314039127 -8.77653970022e-21)
(-0.00541206702444 0.018118688401 -5.02571559359e-21)
(-0.00395207817078 0.00980911897285 -4.30630284021e-21)
(-0.00793110189276 0.0219105579011 -4.70575191862e-21)
(-0.00614277187857 0.0180035957182 -1.15143475881e-20)
(-0.0136720051304 0.0219283260059 6.23178867798e-22)
(-0.0110163767982 0.0212658590275 -1.16067471325e-20)
(-0.0192720577343 0.0179144006149 1.92643321074e-21)
(-0.00223385203954 0.000683198873905 1.60406218725e-21)
(-0.00276314446664 0.000229234569417 1.43387260605e-21)
(-0.00193634822515 0.00141284808229 1.34155392854e-21)
(-0.00238062002703 0.00109406029611 1.74850351158e-21)
(-0.00180095032288 0.00211604435851 4.46715355465e-22)
(-0.00217459985169 0.00172726913674 9.68289372602e-22)
(-0.00176188888865 0.00277778230752 -2.46139347419e-22)
(-0.00208834869844 0.00239446396376 1.58804299601e-22)
(-0.00177000519671 0.00340869303443 -5.1931724368e-22)
(-0.00206425826817 0.00302082657193 -3.09350679158e-22)
(-0.00179506309062 0.00402156102378 -4.53250809069e-22)
(-0.00206948233885 0.00362313218365 -3.73918536835e-22)
(-0.00183505085075 0.00463197033499 -2.13459515403e-22)
(-0.00209479921027 0.00421085374799 -2.56492332204e-22)
(-0.00190366757348 0.00524267294026 -2.1677269437e-24)
(-0.00213883584536 0.00478756837343 -3.06803459078e-23)
(-0.00202012358795 0.00585756866556 -3.12498023516e-23)
(-0.00221888982207 0.00536215512786 2.88718114353e-23)
(-0.00221020895982 0.00650359288579 -1.53528087651e-22)
(-0.00237804785643 0.00593900299098 -7.99257222709e-23)
(-0.00251969462669 0.00719860322555 -2.09327425703e-22)
(-0.00263051476891 0.00652740437052 -1.44839546308e-22)
(-0.00301637887926 0.00797668481099 -4.32014416168e-22)
(-0.00304243621426 0.00715317728594 -1.76847482507e-22)
(-0.00377680557721 0.00885094697299 -1.04738581818e-21)
(-0.00367035263439 0.00782330975638 -5.17690412658e-22)
(-0.00482563014352 0.00998291726839 -1.8081188994e-21)
(-0.00470692384456 0.00855575506763 -1.09492293817e-21)
(-0.00555508249029 0.0115964522942 -5.47975224028e-21)
(-0.00612666205676 0.00876376227564 -1.57419021569e-21)
(-0.00526660657817 0.013351677091 -6.07916294961e-21)
(-0.00651491471712 0.0129931378945 -4.66843800973e-21)
(-0.00626397821647 0.0154264637384 -1.07949348347e-20)
(-0.00602659416353 0.00708752940091 -4.61222782197e-21)
(-0.00852419639365 0.0195295808707 -1.84153428019e-20)
(-0.0102464587029 0.0149911879057 -1.60023006382e-20)
(-0.0128843208649 0.0170608942162 -1.03034927895e-20)
(-0.00854881407113 0.0180187321658 -1.61766217915e-20)
(-0.00860826549066 0.0119283543728 -1.68086553496e-21)
(-0.00291337270172 0.000666656136475 1.57831393038e-21)
(-0.00342982687753 0.000244935316591 1.24494017931e-21)
(-0.0026183161637 0.0013530424254 1.37523895564e-21)
(-0.00306702284342 0.00108044288397 1.6931016771e-21)
(-0.00245373129381 0.00200745509928 6.80378316738e-22)
(-0.00282900137469 0.00167928733032 1.07713207352e-21)
(-0.00238177737957 0.00263103981055 9.55929678621e-23)
(-0.00271187631818 0.00231868449246 3.86922089241e-22)
(-0.00236124554443 0.00322420456975 -1.63951972313e-22)
(-0.00265732508957 0.00291662432847 -1.38585281492e-23)
(-0.00236561893717 0.00379639981217 -1.7716005997e-22)
(-0.00264132195498 0.00348523178678 -1.17997852754e-22)
(-0.00239107403511 0.00434560649465 -7.37131627092e-23)
(-0.00264272314944 0.00403069134519 -8.80200146398e-23)
(-0.00244970040424 0.00488007864407 3.59192471269e-25)
(-0.00267212669863 0.00455053415175 6.44102582888e-24)
(-0.00256595798946 0.0054105410527 -1.9804108484e-23)
(-0.00274320823163 0.00504678885641 1.03964411244e-23)
(-0.00277180759084 0.00591722780144 -7.1237180928e-23)
(-0.00288108811305 0.00551520044062 -3.24674164188e-23)
(-0.00310814906725 0.0064082501979 -1.12359603112e-22)
(-0.00311751565942 0.00595145573589 -7.32294767768e-23)
(-0.0036520461364 0.00690455420508 -2.62523478997e-22)
(-0.00353529735303 0.00635273753084 -1.34352060862e-22)
(-0.0045082106511 0.00742325072669 -5.6522753265e-22)
(-0.00418592529792 0.00672159742442 -5.22736816739e-22)
(-0.00577449711041 0.00794116812939 -8.6099425446e-22)
(-0.00522227801363 0.00705201659953 -9.97708046739e-22)
(-0.00691308054324 0.00851362997304 -7.62875985142e-22)
(-0.00669725323679 0.0069625136717 -1.06028540954e-21)
(-0.00716372106084 0.00987682344334 -3.20150288209e-21)
(-0.00787709910822 0.00995810347223 -1.07943652556e-21)
(-0.00916628678556 0.0113810957151 -9.81959362542e-21)
(-0.00753058643203 0.0039527051669 -5.22941434425e-21)
(-0.00990768475738 0.0133679197785 -1.37635796278e-20)
(-0.0122338608249 0.0107846994555 -1.26136204653e-20)
(-0.00665287894402 0.0127042521757 -7.55399453697e-21)
(-0.00788631396051 0.012426555006 -1.26376095426e-20)
(-0.00230248246507 0.00937877643217 -1.56375860561e-21)
(-0.00358646770777 0.000692040223385 1.35972792602e-21)
(-0.00412191060595 0.000271516369934 9.29077395802e-22)
(-0.00327395211683 0.00136776407537 1.39499479497e-21)
(-0.00374278377376 0.00111029721747 1.5379801235e-21)
(-0.00307605419166 0.00200025427288 7.83675846023e-22)
(-0.00346150796575 0.00170521343258 1.0378700742e-21)
(-0.00297406913663 0.00259860381748 2.7747059323e-22)
(-0.00331021020786 0.00232472004076 4.5687172448e-22)
(-0.00292451072923 0.00317175146081 3.20955914106e-23)
(-0.00323044116329 0.00290806264664 1.1813364938e-22)
(-0.00290047393899 0.00371301559025 -2.88578074231e-23)
(-0.00318247296296 0.00345803815062 -5.40195067345e-25)
(-0.00289792352498 0.00422379443031 -7.86582610176e-24)
(-0.00315290243357 0.00397565920622 -1.50658989904e-23)
(-0.00292788145353 0.00470156427884 1.64782744821e-23)
(-0.00314810508235 0.00445132235145 9.09912843641e-24)
(-0.00301443877291 0.00513538232802 -2.26686681039e-24)
(-0.00317433887423 0.00487902035119 6.64251424524e-24)
(-0.00319015725215 0.00552581032647 -3.44597122676e-23)
(-0.00326470581884 0.00525211906375 -1.47995814294e-23)
(-0.00349860145739 0.00587066783318 -9.52219345269e-23)
(-0.00345689105683 0.00555532808429 -5.26284418642e-23)
(-0.00400033915286 0.00610467347692 -3.94565398605e-22)
(-0.00376573770792 0.00577401032692 -1.8582360177e-22)
(-0.00481259287004 0.00629885892335 -9.55217330828e-22)
(-0.00437697585024 0.00589178930837 -7.77157065937e-22)
(-0.00609314317371 0.00640419693842 -1.19699920182e-21)
(-0.00532501141781 0.00586815091526 -1.72404863271e-21)
(-0.00751239991105 0.00657041052745 -1.37684594996e-21)
(-0.006861564792 0.00548387763285 -1.96389119869e-21)
(-0.00810718887908 0.00668663003752 -3.10734798773e-21)
(-0.00799227896031 0.00723986888898 -2.71661790471e-21)
(-0.0104726663733 0.00699081477209 -8.02344118412e-21)
(-0.00783447821437 0.000977806289852 -4.70792954884e-21)
(-0.010522220969 0.00798725757083 -1.14876503801e-20)
(-0.0132309444107 0.00615176127148 -1.16247751429e-20)
(-0.00487757199506 0.00825992230829 -6.64737361122e-21)
(-0.00816029180037 0.00799463494193 -1.15706154481e-20)
(-0.00117854972304 0.00635413069379 -1.57815320845e-21)
(-0.00427325135228 0.000730291330521 1.10732959328e-21)
(-0.0048522565426 0.000293315403449 7.90920175976e-22)
(-0.00392100773301 0.00139750029817 1.18085540273e-21)
(-0.00441004447154 0.0011518859737 1.25915766673e-21)
(-0.00368957447794 0.00203263470896 7.1106595266e-22)
(-0.00409668026303 0.00176190349448 8.93139968029e-22)
(-0.00355554792143 0.00262988558723 2.9753478063e-22)
(-0.00390748057253 0.00237634763182 4.13081434213e-22)
(-0.0034728159933 0.00319539969051 8.54978629024e-23)
(-0.00379595707177 0.00295823899208 1.26744897812e-22)
(-0.00341111370639 0.0037183879079 1.32517133654e-23)
(-0.00370543338734 0.00350250997497 2.66291782374e-23)
(-0.00336718082254 0.00420068878692 1.89905554772e-24)
(-0.00363490680211 0.00400278827555 -4.67862772682e-24)
(-0.00335004218794 0.00462781584945 -7.36631800406e-25)
(-0.00357373433086 0.0044462786121 -6.85499398127e-24)
(-0.00337474549937 0.00499548598706 -5.8902003738e-24)
(-0.0035390909538 0.00482355000261 -9.83460389218e-24)
(-0.0034710368178 0.00528195167067 -3.2968311026e-23)
(-0.00354713047179 0.00512055070239 -1.79858908422e-23)
(-0.0036893755598 0.00547106413599 -1.43230109107e-22)
(-0.00364013642738 0.00530907543758 -6.80688283176e-23)
(-0.00409135593039 0.00555540722721 -5.68415269102e-22)
(-0.00384646827887 0.00537233643189 -2.69147726528e-22)
(-0.00478569579805 0.00546617328644 -1.54598836782e-21)
(-0.0042845359995 0.00528590011269 -9.82417588945e-22)
(-0.00591331082385 0.00520328367545 -2.49094062958e-21)
(-0.00505945749106 0.0049903167728 -2.48605190549e-21)
(-0.00724562168561 0.00458673463771 -3.30366315343e-21)
(-0.00624305096143 0.00443460060351 -4.14595001766e-21)
(-0.00790076822247 0.00397083321014 -4.31719946582e-21)
(-0.00737528664488 0.0050761002532 -7.94245232041e-21)
(-0.01057432858 0.00357297101587 -8.30926350759e-21)
(-0.00743630171505 -0.00163951400329 -6.28661349691e-21)
(-0.0109221671268 0.00325546003721 -1.17077402109e-20)
(-0.0129146024671 0.00166717749665 -1.11914423503e-20)
(-0.00508418341085 0.00403156627714 -6.50139504534e-21)
(-0.00893732588291 0.00516188398923 -1.11597608354e-20)
(-0.00151349830799 0.00276758433687 -9.91657989782e-22)
(-0.00498537807193 0.000768882208419 9.42748249419e-22)
(-0.00562119932857 0.000316114946358 8.13779915806e-22)
(-0.00457661930769 0.00145241667543 9.71442232023e-22)
(-0.00509363941421 0.00119913907932 1.23690791902e-21)
(-0.00430846194567 0.00209816511405 5.95155449582e-22)
(-0.00474248278871 0.00183275700364 8.57739774886e-22)
(-0.00413684547931 0.00270259225591 2.42291551396e-22)
(-0.00451195807223 0.00246057657677 3.99272461597e-22)
(-0.00401533566463 0.00326584283733 6.78762131474e-23)
(-0.00435925189272 0.00305223125929 1.22084431746e-22)
(-0.00390831347595 0.0037916008154 8.69883714526e-24)
(-0.00423118336598 0.00360244634336 3.13017385061e-23)
(-0.00380868405297 0.00425540879943 -1.34326772558e-23)
(-0.00409849863602 0.00409911162891 -3.90090876033e-24)
(-0.00372205648428 0.00465097226685 -1.5952966073e-23)
(-0.00396794546235 0.00452647840815 -1.7326284575e-23)
(-0.00366034816658 0.00496770251939 -2.19302943606e-23)
(-0.00385302411814 0.00487141994262 -8.83417920015e-24)
(-0.00364927256999 0.00517354382726 -5.30864081337e-23)
(-0.00374888988874 0.00511271506774 -2.69557665196e-23)
(-0.00372773862623 0.00524392522909 -1.93986445739e-22)
(-0.00370468450579 0.00522045815198 -8.96173506341e-23)
(-0.00396918171017 0.00515630362741 -6.83150046371e-22)
(-0.00375518924991 0.00515858779748 -3.53729521397e-22)
(-0.0044792905062 0.00486069434695 -1.92248112661e-21)
(-0.0039856517839 0.00490179304652 -1.02212282294e-21)
(-0.00532664694618 0.00430426696945 -4.14106129358e-21)
(-0.00450027504272 0.00442832513659 -2.43255916622e-21)
(-0.00637331150468 0.00329392437336 -8.78473918463e-21)
(-0.00523064947847 0.00375965263813 -4.92227488922e-21)
(-0.00693021094243 0.00221525196124 -9.91186635149e-21)
(-0.00629545435345 0.0034285161818 -1.12355763576e-20)
(-0.0098483314363 0.00101748801649 -9.16879233967e-21)
(-0.00623821475954 -0.00376620075165 -8.78107421944e-21)
(-0.0108667930944 0.000379623935909 -1.06434629749e-20)
(-0.0122773672876 -0.00211176437273 -1.48341038793e-20)
(-0.00535756824178 0.000341180250608 -5.65002377985e-21)
(-0.00890021761025 0.003163602383 -1.4451337023e-20)
(-0.00178904488134 -0.000463189304853 -1.32376204651e-21)
(-0.00573060926417 0.000804020178842 1.1079395854e-21)
(-0.00642528393265 0.000342685783232 8.92482958692e-22)
(-0.00525540950437 0.00152011694264 1.12320546188e-21)
(-0.0058098029721 0.00125589199566 1.28960035036e-21)
(-0.00494189833011 0.00218739083287 6.61856786901e-22)
(-0.00540982356981 0.00191917047267 8.97949536425e-22)
(-0.0047282781545 0.00281118630382 2.79065341947e-22)
(-0.00513583349175 0.00257519156132 4.29654024818e-22)
(-0.00456176801318 0.00338976726867 8.55099571044e-23)
(-0.00493792262837 0.00318940384543 1.45276648658e-22)
(-0.00440254962656 0.00391945606348 1.87019926005e-23)
(-0.0047609209402 0.00375641946729 5.54535647621e-23)
(-0.00423553164642 0.00438405382319 -7.79451607947e-24)
(-0.00456291210034 0.00426575376773 6.22068867063e-24)
(-0.00406147606131 0.00476956977253 -1.02074977021e-23)
(-0.00435227435084 0.00469678264798 -7.38323474042e-24)
(-0.00389251637154 0.00504693235161 -1.38596513592e-23)
(-0.00412750809976 0.00503088487636 -8.56934974015e-25)
(-0.00374799974513 0.00519949431296 -6.348670902e-23)
(-0.00389752661605 0.00524458801726 -2.20718671772e-23)
(-0.00366253405856 0.00519479328847 -2.49360426292e-22)
(-0.003694028721 0.00530370500983 -8.16890335757e-23)
(-0.00369629061969 0.00499059647464 -6.92702297971e-22)
(-0.00354725610682 0.00516478886283 -3.44931702652e-22)
(-0.00393520678707 0.0045420524679 -1.53220086256e-21)
(-0.00353372237203 0.00479921732148 -8.24902583838e-22)
(-0.00443871571332 0.00376913343767 -3.21377276186e-21)
(-0.00372447377312 0.00420163160042 -1.67023095848e-21)
(-0.00519184506722 0.00265255209676 -7.37311206221e-21)
(-0.00411188809833 0.00338294652032 -3.25278483673e-21)
(-0.00557821425725 0.0011692584148 -1.01047842256e-20)
(-0.00481092105083 0.00234112339112 -7.54192690614e-21)
(-0.0086490496719 -0.000452162996255 -1.44463857591e-20)
(-0.00461642740575 -0.00512118662924 -9.27760145107e-21)
(-0.0102251095619 -0.00181406670703 -1.86419779274e-20)
(-0.0109160732116 -0.00487353760331 -1.69409622619e-20)
(-0.00523172450016 -0.00251921268615 -1.01250752896e-20)
(-0.0081963696375 0.00158375110407 -1.64583553086e-20)
(-0.00159652396787 -0.00341756491073 -2.7136746608e-21)
(-0.00651024130932 0.000836021244813 1.07414372365e-21)
(-0.00726137564797 0.000372402427582 7.94863719823e-22)
(-0.00596703860774 0.00159792011067 1.0643444249e-21)
(-0.00657177716544 0.00132297715767 1.15570170597e-21)
(-0.00560324772531 0.00230157606195 6.65746774342e-22)
(-0.00611356131261 0.00202386738566 8.28105642317e-22)
(-0.00534414556967 0.00295723140762 2.95865331529e-22)
(-0.00579159780034 0.00272121684186 4.10165417848e-22)
(-0.00512719776402 0.00356632098544 1.15220256316e-22)
(-0.0055471573554 0.00337294463555 1.4046749282e-22)
(-0.00490627779597 0.00411422812938 4.29722608322e-23)
(-0.00530893316847 0.00397157268249 5.20120260331e-23)
(-0.00466267359256 0.00459647325117 6.63197000968e-24)
(-0.00504504054568 0.00450875636028 9.5121692834e-24)
(-0.00439183847576 0.00498384526406 1.96732798763e-24)
(-0.00473848427086 0.00496372755853 3.77651426406e-24)
(-0.00409978972801 0.00526637612533 -9.06915079203e-24)
(-0.00440732903955 0.00531394443471 7.54078356829e-24)
(-0.00379898695287 0.00539982260458 -4.02741917329e-23)
(-0.00402693816337 0.00553401401691 -1.50155854312e-23)
(-0.00352162097889 0.00534690450001 -1.77260309935e-22)
(-0.0036352441169 0.00558132570314 -6.70782703795e-23)
(-0.00332182169311 0.0050736438311 -4.77131988519e-22)
(-0.00327019589931 0.00540950269983 -2.80881443376e-22)
(-0.0032631594905 0.00453937118341 -9.6293267976e-22)
(-0.00299595474758 0.00499528278666 -5.71550609298e-22)
(-0.00337303384235 0.00367925601428 -1.70924303334e-21)
(-0.00286133886438 0.00434386663598 -1.00146879384e-21)
(-0.00370287555415 0.00239030898464 -3.42159968065e-21)
(-0.00282062826686 0.00340748892529 -1.79689894993e-21)
(-0.00377878354324 0.000551706725135 -6.71474413163e-21)
(-0.00297098828213 0.00194213939143 -4.09042105696e-21)
(-0.00684803965728 -0.00157854929915 -1.17721779539e-20)
(-0.0024857749623 -0.00548061515231 -8.23976398172e-21)
(-0.00890761002057 -0.00354010553436 -1.47573396431e-20)
(-0.00895526541017 -0.0063439182047 -1.36802885916e-20)
(-0.00453914236655 -0.00482348705805 -9.04695467974e-21)
(-0.00691399308307 0.00054777321979 -1.34748885462e-20)
(-0.000941901992361 -0.00589273836033 -2.53799998854e-21)
(-0.00733211316144 0.000878270587962 8.76421702147e-22)
(-0.00813972830842 0.000400896322926 4.07928016954e-22)
(-0.00672348593514 0.00169208106994 9.19462923382e-22)
(-0.00738567837423 0.00139814140449 7.87282569847e-22)
(-0.00630401667211 0.00244070092071 5.72524285823e-22)
(-0.0068622852099 0.00215197984554 6.12101931249e-22)
(-0.00599676956435 0.00314204673815 2.54767579138e-22)
(-0.00649308926388 0.00290067504178 3.27165272893e-22)
(-0.00572838835042 0.00379232249279 7.72592625368e-23)
(-0.00619763134011 0.00360312279872 1.08810580282e-22)
(-0.00544136392585 0.00438393586955 1.85519344842e-23)
(-0.00590073550541 0.00425190532027 1.86574276534e-23)
(-0.00511245408363 0.00489810629664 6.65671353778e-24)
(-0.00555915389182 0.00483681292151 5.54144343312e-24)
(-0.00473548013142 0.00532043148235 9.34996984472e-24)
(-0.00515978346734 0.0053362673771 6.70760978731e-25)
(-0.00431202504467 0.0056137782232 1.59434892908e-24)
(-0.00469785545601 0.00572689955467 9.69843949518e-25)
(-0.00384191309569 0.00577603864904 -4.18196640778e-23)
(-0.00418533506998 0.00599114122622 -1.71116969447e-23)
(-0.00335349258403 0.00572368868789 -1.7069940382e-22)
(-0.00357689970989 0.00606909583987 -7.41541689637e-23)
(-0.00290266976516 0.00543835572994 -3.75300064155e-22)
(-0.0029809691368 0.00590531873078 -2.72652467728e-22)
(-0.00254296605988 0.00486721028477 -6.1008672338e-22)
(-0.00242117432547 0.00548432934161 -4.93571991654e-22)
(-0.00225561812386 0.00396765915088 -1.08912471043e-21)
(-0.0019586068462 0.00481702184046 -6.74300323757e-22)
(-0.00203796496902 0.00260023692809 -2.46572032623e-21)
(-0.00145074167745 0.00381902127829 -1.04755322408e-21)
(-0.00160260582068 0.00057599205734 -5.61544090705e-21)
(-0.000945306332783 0.00217588242223 -2.48986619168e-21)
(-0.00450281638077 -0.00196164003691 -1.01478746194e-20)
(5.22918317841e-05 -0.00496887955616 -7.32628714425e-21)
(-0.00692159436334 -0.00445186762721 -1.23978374947e-20)
(-0.00646569985433 -0.00660940427485 -1.27189392764e-20)
(-0.00327098582654 -0.00634140814517 -6.96593385502e-21)
(-0.00502523581042 0.000221510990875 -1.27201509154e-20)
(5.00262988479e-05 -0.00740863551303 -1.32609986415e-21)
(-0.00820477546015 0.000948770276354 3.18788884654e-22)
(-0.00908859872879 0.000433184153701 5.62834112582e-23)
(-0.00752807909198 0.00180616899108 4.79921577714e-22)
(-0.00824318996308 0.00148487041237 5.44812608535e-22)
(-0.00705252117426 0.00260716464645 3.6674291832e-22)
(-0.00766341537737 0.0023040189424 4.67066868271e-22)
(-0.00669660271585 0.00336687720231 1.81208274037e-22)
(-0.00725298904013 0.00311430800296 2.70374473483e-22)
(-0.00637757994711 0.00407396074074 5.02087453985e-23)
(-0.00690497447432 0.0038794486783 8.42877885017e-23)
(-0.00602551726095 0.00472442833215 5.6469366023e-24)
(-0.00655144740521 0.00459603797426 1.01728845127e-23)
(-0.00560976973498 0.00529977469628 -4.44509125924e-25)
(-0.00613451564971 0.00525136831576 -5.8281382827e-24)
(-0.0051201015559 0.005774318128 -7.70936491647e-24)
(-0.00563327031952 0.00582187247057 -1.27074929321e-23)
(-0.00455413715394 0.00612835764564 -1.77362019243e-23)
(-0.00504925275432 0.00628310308957 -3.02901113741e-23)
(-0.00391284400392 0.00630089668191 -4.94462018307e-23)
(-0.0043538357409 0.00661991820127 -3.79293318696e-23)
(-0.00320965331993 0.00632304423689 -1.76107232872e-22)
(-0.00359316895638 0.00677111204238 -6.58854769322e-23)
(-0.00248900484994 0.00607352440158 -3.90924395228e-22)
(-0.00272746471906 0.00666901161642 -2.66328455675e-22)
(-0.00180757540927 0.00551024463943 -5.57785592032e-22)
(-0.00185410952284 0.00627962182173 -4.28935856501e-22)
(-0.00111175240544 0.0045707784772 -6.32728837413e-22)
(-0.0010157738057 0.00561115529353 -6.19398034433e-22)
(-0.000330634840463 0.00315940838582 -1.07169908953e-21)
(-3.67291783988e-05 0.00455735122198 -1.05175222345e-21)
(0.000740991008476 0.00115340566769 -4.20071242888e-21)
(0.00106226540665 0.00297550582436 -2.37311534637e-21)
(-0.00180248592906 -0.00153480594126 -9.89735180131e-21)
(0.00274098341541 -0.00364680431544 -7.69892627741e-21)
(-0.00446692505339 -0.00446113333243 -1.30412526971e-20)
(-0.00353986425731 -0.00572720957781 -1.25852393433e-20)
(-0.00166802406787 -0.00685012556014 -7.08031692451e-21)
(-0.00263662863104 0.000509627516482 -1.26365709097e-20)
(0.00109401139335 -0.00811853763022 -2.59074957991e-21)
(-0.00913858451302 0.00100046517133 2.82307135139e-22)
(-0.0100891846865 0.000472004233354 -5.56672918113e-25)
(-0.00839369261242 0.00193390888111 5.31957899092e-22)
(-0.00917676972901 0.0015843475114 6.42100344097e-22)
(-0.00786652324819 0.00280908772629 3.70698423434e-22)
(-0.00853875680581 0.00247571293645 5.10566711246e-22)
(-0.00746320445761 0.00362868459926 1.73453987948e-22)
(-0.00807280761963 0.00336053683954 2.78182690548e-22)
(-0.00709266338135 0.00441134180796 4.4251927616e-23)
(-0.00768792185236 0.00420228618073 6.83258230292e-23)
(-0.00667660445604 0.00513734202745 -1.30219037229e-24)
(-0.00727773200194 0.00500282995818 6.62947542419e-24)
(-0.00617822070561 0.00579421838273 -1.80911220889e-23)
(-0.00679139777099 0.00574855830622 -1.02299451795e-23)
(-0.00557912683537 0.00636119981843 -3.52882393897e-23)
(-0.00619925047555 0.00641771439845 -2.58835338102e-23)
(-0.00486720348525 0.00680514990754 -5.04832413194e-23)
(-0.00549031401589 0.00698718064679 -5.42479964372e-23)
(-0.00404759539651 0.0071063512716 -5.43686069712e-23)
(-0.00465108505825 0.00742986037164 -4.67253136424e-23)
(-0.00312068537387 0.00717670987525 -1.56106699735e-22)
(-0.00365735554257 0.00769914648082 -6.41491696708e-23)
(-0.00210811851838 0.00699600199811 -3.04339916947e-22)
(-0.0025425677703 0.00772336509349 -2.50227391309e-22)
(-0.00105635988308 0.00647344466515 -4.90548298902e-22)
(-0.00132752850686 0.00743302438024 -3.28714912808e-22)
(8.06480191372e-05 0.00549995650793 -1.03842142047e-21)
(-3.86531355088e-05 0.00682117387072 -6.3601838685e-22)
(0.0013304260593 0.00406990008661 -2.3531684803e-21)
(0.00139620243168 0.00576450912128 -2.37148213268e-21)
(0.00301356514381 0.00231971869295 -5.8713291949e-21)
(0.00281419082693 0.00454859712791 -5.60245944128e-21)
(0.00109328497275 -0.000252060185874 -1.03868138194e-20)
(0.00531329180979 -0.00141817569156 -9.85205165357e-21)
(-0.00161803335649 -0.00382253577142 -1.21805575559e-20)
(3.05169152567e-05 -0.00377981482579 -1.27059673403e-20)
(0.000150614136895 -0.00667093548254 -8.1470035651e-21)
(0.000212022173133 0.00126805210455 -1.2506111147e-20)
(0.00231321751251 -0.00864372574869 -2.86569285081e-21)
(-0.0101440882613 0.00107853745986 3.5923653604e-22)
(-0.011167856582 0.000515732939431 -8.05017665192e-23)
(-0.0093332727628 0.00208150800889 6.2070915625e-22)
(-0.0101798851416 0.0016945671019 5.22644217588e-22)
(-0.00875602997004 0.0030290683569 4.18050978359e-22)
(-0.00948648478125 0.00266558780031 4.55014212279e-22)
(-0.00830796681885 0.00393152397781 1.73054525629e-22)
(-0.0089754786506 0.00363685585918 2.56474674305e-22)
(-0.00788977663616 0.00480252624324 3.07033708374e-23)
(-0.00855919338908 0.00456729434391 5.91696003636e-23)
(-0.00741683007847 0.00562475345616 -2.298279383e-24)
(-0.00810017114491 0.00546470562549 -1.58824614029e-24)
(-0.00684178189971 0.00638785272343 -1.80223569007e-23)
(-0.0075544248867 0.00632264273156 -1.22432629565e-23)
(-0.00614217927348 0.00706875104028 -4.48432908576e-23)
(-0.00687893783226 0.00711633832537 -2.02469836772e-23)
(-0.00529963022203 0.00763819772745 -5.04900687602e-23)
(-0.00605684424775 0.00782581978903 -5.06592710051e-23)
(-0.00430032440444 0.00807271671163 -5.65058763421e-23)
(-0.00508115901929 0.00842364547211 -3.73685333391e-23)
(-0.00313639928967 0.00831191350088 -1.58269861245e-22)
(-0.00389016383844 0.00886750352628 -6.3056045536e-23)
(-0.00181421232165 0.00827583997244 -2.74602387169e-22)
(-0.00250197072596 0.00908935513766 -2.0460156488e-22)
(-0.000358094668022 0.00787312620919 -4.74185000756e-22)
(-0.000920405764222 0.00899857786701 -3.10986208769e-22)
(0.00125239697992 0.00701640261314 -1.96907909906e-21)
(0.000822097676836 0.00857607316774 -4.81880179874e-22)
(0.00297828116917 0.00564602965641 -5.62077309367e-21)
(0.00276980057545 0.00771182212073 -2.26090688084e-21)
(0.00515089554569 0.00369468528093 -9.58318189995e-21)
(0.00476752072399 0.00704160505308 -5.29678687162e-21)
(0.00421907068985 0.00145903048393 -1.21712051745e-20)
(0.00754953604596 0.0016674042014 -8.71936998773e-21)
(0.00183144364601 -0.00269136496343 -1.30315209314e-20)
(0.00418085221017 -0.000737238601242 -1.2042179585e-20)
(0.00238981918458 -0.00594759696021 -7.2248004327e-21)
(0.00347004163797 0.00246560024139 -1.18258588807e-20)
(0.00429906807941 -0.00869327909999 -1.14084281079e-21)
(-0.0112233411696 0.00114742530981 8.29059150291e-23)
(-0.0123154067241 0.000560485418076 -2.802377114e-22)
(-0.0103511179875 0.00223302240062 3.56949273617e-22)
(-0.0112656015707 0.00181156825838 1.82107034354e-22)
(-0.00972607583044 0.00326918036633 2.93437908225e-22)
(-0.0105227648498 0.00287042313095 1.88539443671e-22)
(-0.00924133271586 0.00426907356056 1.4258974904e-22)
(-0.00997551240662 0.00393403742243 1.4015324582e-22)
(-0.00878559884034 0.00523156259345 2.68779833859e-23)
(-0.00952183218387 0.0049643177521 3.71547936802e-23)
(-0.0082653739565 0.00616750003747 -1.15332297138e-23)
(-0.00903618791208 0.00597379600353 -6.80864884052e-24)
(-0.00762892272687 0.00705165245423 -1.4467889733e-23)
(-0.00843832688285 0.00696105725077 -1.57653026391e-23)
(-0.00684531726529 0.0078855962115 -2.60629638247e-23)
(-0.00771125826907 0.00790327858843 -8.12881618181e-24)
(-0.00588814002341 0.00863382088921 -3.75377355839e-23)
(-0.00680103551434 0.00878342289609 -2.89011187598e-23)
(-0.00473015436259 0.00925272578926 -4.39187025329e-23)