/*--------------------------------*- C++ -*----------------------------------*\
| =========                 |                                                 |
| \\      /  F ield         | OpenFOAM: The Open Source CFD Toolbox           |
|  \\    /   O peration     | Version:  v2012                                 |
|   \\  /    A nd           | Website:  www.openfoam.com                      |
|    \\/     M anipulation  |                                                 |
\*---------------------------------------------------------------------------*/
FoamFile
{
    version     2.0;
    format      ascii;
    class       volScalarField;
    location    "0.4";
    object      ddt0(k);
}
// * * * * * * * * * * * * * * * * * * * * * * * * * * * * * * * * * * * * * //

dimensions      [0 2 -3 0 0 0 0];


internalField   nonuniform List<scalar> 
164
(
-0.075606161179
-0.0755671062818
-0.0755238681196
-0.0754765288722
-0.0754240957804
-0.0753558750234
-0.0751899542735
-0.0744314974665
-0.070816829016
-0.0573909938898
-0.0253581074916
0.00423020116336
-0.0755629553756
-0.0755203147707
-0.0754729354255
-0.075420783531
-0.0753625548508
-0.0752855229128
-0.0750954159532
-0.0742411719592
-0.0702995672061
-0.0562023210715
-0.0239165958675
0.00492713599843
-0.0754235789479
-0.0753660167947
-0.0753011775955
-0.0752139533388
-0.0749958582593
-0.0740334900771
-0.0697377560576
-0.0549600343244
-0.0224501090338
0.00572676364574
-0.0753767512529
-0.0753131417599
-0.0752408967247
-0.0751420662928
-0.0748919970784
-0.0738090253738
-0.0691348805115
-0.053677880359
-0.0210832357618
0.00617366845216
-0.0753333648931
-0.0752631886186
-0.0751828083846
-0.0750710152298
-0.0747850645515
-0.0735699584928
-0.0684997438913
-0.0523913906847
-0.0198688880953
0.00637249771823
-0.0752945477159
-0.0752174044934
-0.0751283019809
-0.0750023963582
-0.0746771985615
-0.073321039198
-0.0678477373426
-0.0511360356819
-0.0187847317301
0.00664919508621
-0.0752615914195
-0.0751772876907
-0.0750791374899
-0.0749384127783
-0.0745719232074
-0.073070955129
-0.067203810314
-0.049968604065
-0.0179876962378
0.00670619290157
-0.0752359642626
-0.0751446176197
-0.0750375266426
-0.0748820834944
-0.0744748001508
-0.0728345019904
-0.066610357715
-0.048998782175
-0.0177401525052
0.00610020717545
-0.0752193091808
-0.0751214788755
-0.0750062019127
-0.0748374589481
-0.0743941679755
-0.0726353178794
-0.0661358435038
-0.0483956925723
-0.0185002234793
0.00331756705986
-0.0752134271463
-0.0751102640966
-0.0749884632453
-0.0748097921809
-0.0743417720994
-0.0725083423778
-0.0658867582712
-0.0485608478688
-0.0229774010197
-0.0169257173157
-0.0752203550809
-0.0751136577047
-0.0749881724261
-0.0748055324737
-0.0743326486702
-0.0724978623502
-0.0660035646279
-0.0500812722745
-0.0294264435974
-0.0169382417186
-0.0752491564246
-0.0751350421802
-0.0750099744054
-0.0748322374722
-0.0743852339165
-0.0726646446552
-0.0666765241823
-0.0526614204854
-0.0335123435584
-0.0122571298792
-0.0752802192235
-0.0751823682184
-0.0750750398394
-0.0748985811797
-0.0745178956614
-0.0730705966797
-0.068097132371
-0.0566120011206
-0.0395395313415
-0.0136446805505
-0.0753282975212
-0.07523666291
-0.0751389351424
-0.075021728656
-0.0747744506728
-0.0737336441341
-0.070354684327
-0.062135905612
-0.04853694694
-0.0198193493381
-0.075392044567
-0.0753120289877
-0.0752336649789
-0.0751464647079
-0.074985124135
-0.0747057500663
-0.0734046751528
-0.0694551417652
-0.06095569014
-0.0280618979829
-0.075471834655
-0.0754085983297
-0.0753567263651
-0.0753124309879
-0.0752375397066
-0.0750744092898
-0.0753973494076
-0.0794034486475
-0.0756589197589
-0.0365068951911
)
;

boundaryField
{
    back
    {
        type            calculated;
        value           nonuniform List<scalar> 
164
(
-0.075606161179
-0.0755671062818
-0.0755238681196
-0.0754765288722
-0.0754240957804
-0.0753558750234
-0.0751899542735
-0.0744314974665
-0.070816829016
-0.0573909938898
-0.0253581074916
0.00423020116336
-0.0755629553756
-0.0755203147707
-0.0754729354255
-0.075420783531
-0.0753625548508
-0.0752855229128
-0.0750954159532
-0.0742411719592
-0.0702995672061
-0.0562023210715
-0.0239165958675
0.00492713599843
-0.0754235789479
-0.0753660167947
-0.0753011775955
-0.0752139533388
-0.0749958582593
-0.0740334900771
-0.0697377560576
-0.0549600343244
-0.0224501090338
0.00572676364574
-0.0753767512529
-0.0753131417599
-0.0752408967247
-0.0751420662928
-0.0748919970784
-0.0738090253738
-0.0691348805115
-0.053677880359
-0.0210832357618
0.00617366845216
-0.0753333648931
-0.0752631886186
-0.0751828083846
-0.0750710152298
-0.0747850645515
-0.0735699584928
-0.0684997438913
-0.0523913906847
-0.0198688880953
0.00637249771823
-0.0752945477159
-0.0752174044934
-0.0751283019809
-0.0750023963582
-0.0746771985615
-0.073321039198
-0.0678477373426
-0.0511360356819
-0.0187847317301
0.00664919508621
-0.0752615914195
-0.0751772876907
-0.0750791374899
-0.0749384127783
-0.0745719232074
-0.073070955129
-0.067203810314
-0.049968604065
-0.0179876962378
0.00670619290157
-0.0752359642626
-0.0751446176197
-0.0750375266426
-0.0748820834944
-0.0744748001508
-0.0728345019904
-0.066610357715
-0.048998782175
-0.0177401525052
0.00610020717545
-0.0752193091808
-0.0751214788755
-0.0750062019127
-0.0748374589481
-0.0743941679755
-0.0726353178794
-0.0661358435038
-0.0483956925723
-0.0185002234793
0.00331756705987
-0.0752134271463
-0.0751102640966
-0.0749884632453
-0.0748097921809
-0.0743417720994
-0.0725083423778
-0.0658867582712
-0.0485608478688
-0.0229774010196
-0.0169257173157
-0.0752203550809
-0.0751136577047
-0.0749881724261
-0.0748055324737
-0.0743326486702
-0.0724978623502
-0.0660035646279
-0.0500812722745
-0.0294264435974
-0.0169382417186
-0.0752491564246
-0.0751350421802
-0.0750099744054
-0.0748322374722
-0.0743852339165
-0.0726646446552
-0.0666765241823
-0.0526614204854
-0.0335123435584
-0.0122571298792
-0.0752802192235
-0.0751823682184
-0.0750750398394
-0.0748985811797
-0.0745178956614
-0.0730705966797
-0.068097132371
-0.0566120011206
-0.0395395313415
-0.0136446805505
-0.0753282975212
-0.07523666291
-0.0751389351424
-0.075021728656
-0.0747744506728
-0.0737336441341
-0.070354684327
-0.062135905612
-0.04853694694
-0.0198193493381
-0.075392044567
-0.0753120289877
-0.0752336649789
-0.0751464647079
-0.074985124135
-0.0747057500663
-0.0734046751528
-0.0694551417652
-0.06095569014
-0.0280618979829
-0.075471834655
-0.0754085983297
-0.0753567263651
-0.0753124309879
-0.0752375397066
-0.0750744092898
-0.0753973494076
-0.0794034486475
-0.0756589197589
-0.0365068951911
)
;
    }
    sides
    {
        type            calculated;
        value           nonuniform List<scalar> 0();
    }
    bottom
    {
        type            calculated;
        value           nonuniform List<scalar> 0();
    }
    front
    {
        type            calculated;
        value           nonuniform List<scalar> 
164
(
-0.075606161179
-0.0755671062818
-0.0755238681196
-0.0754765288722
-0.0754240957804
-0.0753558750234
-0.0751899542735
-0.0744314974665
-0.070816829016
-0.0573909938898
-0.0253581074916
0.00423020116336
-0.0755629553756
-0.0755203147707
-0.0754729354255
-0.075420783531
-0.0753625548508
-0.0752855229128
-0.0750954159532
-0.0742411719592
-0.0702995672061
-0.0562023210715
-0.0239165958675
0.00492713599843
-0.0754235789479
-0.0753660167947
-0.0753011775955
-0.0752139533388
-0.0749958582593
-0.0740334900771
-0.0697377560576
-0.0549600343244
-0.0224501090338
0.00572676364574
-0.0753767512529
-0.0753131417599
-0.0752408967247
-0.0751420662928
-0.0748919970784
-0.0738090253738
-0.0691348805115
-0.053677880359
-0.0210832357618
0.00617366845216
-0.0753333648931
-0.0752631886186
-0.0751828083846
-0.0750710152298
-0.0747850645515
-0.0735699584928
-0.0684997438913
-0.0523913906847
-0.0198688880953
0.00637249771823
-0.0752945477159
-0.0752174044934
-0.0751283019809
-0.0750023963582
-0.0746771985615
-0.073321039198
-0.0678477373426
-0.0511360356819
-0.0187847317301
0.00664919508621
-0.0752615914195
-0.0751772876907
-0.0750791374899
-0.0749384127783
-0.0745719232074
-0.073070955129
-0.067203810314
-0.049968604065
-0.0179876962378
0.00670619290157
-0.0752359642626
-0.0751446176197
-0.0750375266426
-0.0748820834944
-0.0744748001508
-0.0728345019904
-0.066610357715
-0.048998782175
-0.0177401525052
0.00610020717545
-0.0752193091808
-0.0751214788755
-0.0750062019127
-0.0748374589481
-0.0743941679755
-0.0726353178794
-0.0661358435038
-0.0483956925723
-0.0185002234793
0.00331756705987
-0.0752134271463
-0.0751102640966
-0.0749884632453
-0.0748097921809
-0.0743417720994
-0.0725083423778
-0.0658867582712
-0.0485608478688
-0.0229774010196
-0.0169257173157
-0.0752203550809
-0.0751136577047
-0.0749881724261
-0.0748055324737
-0.0743326486702
-0.0724978623502
-0.0660035646279
-0.0500812722745
-0.0294264435974
-0.0169382417186
-0.0752491564246
-0.0751350421802
-0.0750099744054
-0.0748322374722
-0.0743852339165
-0.0726646446552
-0.0666765241823
-0.0526614204854
-0.0335123435584
-0.0122571298792
-0.0752802192235
-0.0751823682184
-0.0750750398394
-0.0748985811797
-0.0745178956614
-0.0730705966797
-0.068097132371
-0.0566120011206
-0.0395395313415
-0.0136446805505
-0.0753282975212
-0.07523666291
-0.0751389351424
-0.075021728656
-0.0747744506728
-0.0737336441341
-0.070354684327
-0.062135905612
-0.04853694694
-0.0198193493381
-0.075392044567
-0.0753120289877
-0.0752336649789
-0.0751464647079
-0.074985124135
-0.0747057500663
-0.0734046751528
-0.0694551417652
-0.06095569014
-0.0280618979829
-0.075471834655
-0.0754085983297
-0.0753567263651
-0.0753124309879
-0.0752375397066
-0.0750744092898
-0.0753973494076
-0.0794034486475
-0.0756589197589
-0.0365068951911
)
;
    }
    atmosphere
    {
        type            calculated;
        value           uniform 0;
    }
    floatingObject
    {
        type            calculated;
        value           nonuniform List<scalar> 0();
    }
    procBoundary5to0
    {
        type            processor;
        value           nonuniform List<scalar> 
12
(
-0.0756514904754
-0.0756155604177
-0.0755759789592
-0.0755328569902
-0.0754854472699
-0.0754247557881
-0.0752795069903
-0.0746050307201
-0.0712883419634
-0.0585106523069
-0.0267672334654
0.00364906415644
)
;
    }
    procBoundary5to3
    {
        type            processor;
        value           nonuniform List<scalar> 10(-0.0755666878261 -0.0755259491783 -0.0755090193114 -0.0755205847909 -0.0755490570776 -0.0756329017433 -0.076630793845 -0.0834067454663 -0.0981289433579 -0.0669718555073);
    }
    procBoundary5to4
    {
        type            processor;
        value           nonuniform List<scalar> 
18
(
-0.0756410315929
-0.0756008670879
-0.0755222535485
-0.0754756114291
-0.0754756114291
-0.0754339779983
-0.0753961589068
-0.0753632080625
-0.0753362476271
-0.0753165019108
-0.0753052814799
-0.0753039628531
-0.0753141432653
-0.0753391985004
-0.075370533828
-0.0754149369731
-0.0754725541273
-0.0755429023495
)
;
    }
}


// ************************************************************************* //
