/*--------------------------------*- C++ -*----------------------------------*\
| =========                 |                                                 |
| \\      /  F ield         | OpenFOAM: The Open Source CFD Toolbox           |
|  \\    /   O peration     | Version:  v2012                                 |
|   \\  /    A nd           | Website:  www.openfoam.com                      |
|    \\/     M anipulation  |                                                 |
\*---------------------------------------------------------------------------*/
FoamFile
{
    version     2.0;
    format      ascii;
    class       volVectorField;
    location    "4.4";
    object      U;
}
// * * * * * * * * * * * * * * * * * * * * * * * * * * * * * * * * * * * * * //

dimensions      [0 1 -1 0 0 0 0];


internalField   nonuniform List<vector> 
164
(
(-0.0432409821314 -0.000542454343715 -2.07345689424e-22)
(-0.0424586810047 -0.00169827391366 -6.4825964221e-23)
(-0.0417378867713 -0.00289709170012 -2.88730472258e-23)
(-0.0416073293136 -0.00416273543503 3.75786523713e-23)
(-0.0419526022779 -0.00550619445635 1.89948863141e-23)
(-0.0425930668014 -0.00693447692741 5.49916612185e-24)
(-0.0434201424766 -0.00846752725905 -4.89553538383e-24)
(-0.0443874871163 -0.0101308386484 -3.15026811686e-24)
(-0.042058011298 -0.00061694079346 -1.42670085247e-22)
(-0.0412226433468 -0.00190445723886 -7.78255986779e-23)
(-0.04043898828 -0.00323715617675 -3.07066265393e-23)
(-0.0402401040505 -0.00463663063048 5.3551350116e-24)
(-0.0405087466746 -0.00611059877337 4.85046373535e-25)
(-0.0410574083059 -0.00766441457921 -3.73987222691e-24)
(-0.0417727374368 -0.00931486080061 -1.21207795942e-23)
(-0.0426036520329 -0.0110817815416 9.77224264665e-25)
(-0.0407458859179 -0.000690381382159 -1.31858419095e-22)
(-0.0398586221982 -0.00209093650009 -9.25246049802e-24)
(-0.0390149367032 -0.00353858441456 3.4325006242e-23)
(-0.038750970258 -0.00505241616372 3.89061662404e-23)
(-0.0389470496348 -0.00663497691286 1.58626644435e-23)
(-0.0394103839911 -0.00829062527794 5.73091824973e-24)
(-0.0400245352781 -0.0100335634234 -6.09713203362e-25)
(-0.0407361586379 -0.0118792864189 5.76584058621e-24)
(-0.0415158007067 -0.0138424938677 2.50669481383e-23)
(-0.0423388801051 -0.0159432843574 1.94007018718e-23)
(-0.0393149095834 -0.000753334907711 -4.18566851734e-23)
(-0.0383805262881 -0.00225525241324 7.58091063403e-23)
(-0.0374837180488 -0.00380309014736 1.11589338193e-22)
(-0.0371596314906 -0.00541571331799 1.01727653702e-22)
(-0.0372888903876 -0.00709035464926 4.69560764177e-23)
(-0.0376751557259 -0.00883092002189 2.36540580316e-23)
(-0.038199794942 -0.0106497899038 5.09863097813e-24)
(-0.0388078770032 -0.0125596016794 5.32166679566e-24)
(-0.0394729374663 -0.014569313349 2.06066982567e-23)
(-0.0401681225255 -0.016684024233 2.54542925411e-23)
(-0.0377800326008 -0.000805986080683 1.29016394245e-22)
(-0.0368001150243 -0.00239789333956 1.28426343981e-22)
(-0.0358575616134 -0.00403353190626 1.86929797034e-22)
(-0.0354807029954 -0.00573131093889 1.43593549682e-22)
(-0.0355499582356 -0.0074844861499 7.74257882477e-23)
(-0.0358679546773 -0.00929662348552 4.4367767569e-23)
(-0.0363139782266 -0.0111776228178 1.64032051774e-23)
(-0.0368326509934 -0.0131374386004 1.71848964622e-23)
(-0.0374028555156 -0.0151808396106 1.29909230017e-23)
(-0.0380061318585 -0.017304596303 2.61401422788e-23)
(-0.0361544890716 -0.000859792921126 1.96821283663e-22)
(-0.035132518309 -0.00252559528733 2.30095747642e-22)
(-0.034148589781 -0.00423657892448 2.1370279545e-22)
(-0.0337254105367 -0.0060051732099 1.7919482084e-22)
(-0.0337404421848 -0.00782437557328 1.031044008e-22)
(-0.0339954817032 -0.00969689769814 6.64616761801e-23)
(-0.0343701332518 -0.0116300021837 4.01820241223e-23)
(-0.0348142334229 -0.0136341235182 2.53626241413e-23)
(-0.0353078009395 -0.0157131415172 1.87853952852e-23)
(-0.0358459414019 -0.0178592168809 3.47342210945e-23)
(-0.0344453773342 -0.000910787974025 1.88364599238e-22)
(-0.0333913578472 -0.00263683010453 1.7032530186e-22)
(-0.0323722688264 -0.00441260747178 1.92982506445e-22)
(-0.0319063243733 -0.00624000018924 1.72277239786e-22)
(-0.0318707423472 -0.00811113946193 1.253547557e-22)
(-0.0320663892796 -0.0100340188677 1.07559854454e-22)
(-0.0323743960228 -0.0120162873814 7.85948822108e-23)
(-0.0327505344289 -0.0140664652198 5.42914446737e-23)
(-0.0331775806536 -0.016191911157 3.85713636073e-23)
(-0.0336604652207 -0.018386533212 5.42777131933e-23)
(-0.032670334797 -0.000947975419828 1.89455550163e-22)
(-0.0315892649228 -0.00272711207354 1.30914049075e-22)
(-0.0305417553686 -0.00455670053259 1.68262666395e-22)
(-0.0300363448246 -0.00643306291883 1.75889012974e-22)
(-0.0299531355665 -0.00834609419648 1.49193964572e-22)
(-0.0300924901893 -0.0103099868 1.15593066971e-22)
(-0.0303368081398 -0.0123362315773 9.14835532871e-23)
(-0.0306404746876 -0.0144342037586 8.36469446796e-23)
(-0.0309918431347 -0.016614142499 8.21421441715e-23)
(-0.0313973807812 -0.0188769933277 8.89151757107e-23)
(-0.0308399713367 -0.000979997986468 1.75745777356e-22)
(-0.02973679827 -0.00279877173837 4.29241197659e-23)
(-0.0286669625587 -0.0046689386949 1.43881882178e-22)
(-0.0281266162638 -0.00658289639065 1.60281857747e-22)
(-0.0279992986668 -0.00852793631515 1.34311641919e-22)
(-0.0280849973334 -0.0105249750548 9.92272436461e-23)
(-0.0282634883021 -0.0125861824123 1.14118377251e-22)
(-0.0284810575001 -0.0147209730292 1.23983023383e-22)
(-0.0287331531798 -0.0169464418973 1.5575340314e-22)
(-0.0290277587535 -0.0192836028842 9.42856646762e-23)
(-0.0289649865901 -0.00101444606148 2.3377169741e-22)
(-0.0278440331063 -0.00285744650856 1.19931200522e-22)
(-0.0267603942401 -0.00475284246067 1.25886050595e-22)
(-0.0261912350316 -0.00669356434473 1.32545575624e-22)
(-0.0260228666811 -0.00866181204267 1.23886288739e-22)
(-0.0260538866662 -0.0106793376644 1.07100283915e-22)
(-0.0261550344931 -0.012753077 1.28110901966e-22)
(-0.0262799974054 -0.0149030197753 8.8763528819e-23)
(-0.026416638686 -0.0171572362422 1.27238062039e-22)
(-0.0265668835461 -0.019543987448 9.19898800002e-23)
(-0.0270549098502 -0.00104325669697 1.53541907784e-22)
(-0.025921798295 -0.00290348932568 -6.34483369453e-23)
(-0.0248326184699 -0.00481510339658 -2.36144382895e-24)
(-0.0242415734735 -0.00677013778979 7.03204270031e-23)
(-0.0240316509672 -0.00874651148444 1.23397534757e-22)
(-0.0240035029871 -0.0107609148937 1.07679490287e-22)
(-0.0240324224741 -0.0128307964762 9.65970411866e-23)
(-0.0240700568543 -0.0149776911336 8.72522420403e-23)
(-0.0240880364258 -0.0172241740421 8.33746765994e-23)
(-0.0240773682954 -0.0196113765435 1.02371437338e-22)
(-0.0251143536137 -0.00106440819569 3.39828921136e-23)
(-0.0239805388215 -0.00293644267719 -3.29867567602e-22)
(-0.0228910422417 -0.00485846879495 -2.25657669033e-22)
(-0.0222808150221 -0.00681144593403 -7.24526579153e-24)
(-0.0220356970748 -0.00877679090149 1.33397733239e-22)
(-0.0219584852501 -0.0107806850727 1.64717289836e-22)
(-0.0219290578584 -0.0128326370097 1.30027148183e-22)
(-0.0218856261235 -0.0149477883122 1.23067123782e-22)
(-0.0217996405562 -0.0171522854024 1.27155658963e-22)
(-0.021645314839 -0.0194762933629 2.02567094234e-22)
(-0.0231552059799 -0.00108971449289 3.04529781352e-23)
(-0.0220294197218 -0.00295868895083 -4.53198153203e-22)
(-0.0209483540174 -0.00487781636746 -4.07908340236e-22)
(-0.0203259573453 -0.00682384880109 -1.07480399244e-22)
(-0.0200562235719 -0.0087723921082 1.13865560347e-22)
(-0.019942695594 -0.0107499561266 1.49017876846e-22)
(-0.0198624532884 -0.012765326115 1.48565521136e-22)
(-0.0197538341556 -0.0148325693631 1.35413403286e-22)
(-0.019583920633 -0.0169669834701 1.91365153996e-22)
(-0.0193081249429 -0.0191688300195 2.2694325377e-22)
(-0.0211852412522 -0.00111013798037 1.46874249507e-22)
(-0.0200766534166 -0.00297184598201 -5.08949750827e-22)
(-0.0190171310331 -0.00488301094466 -5.10963224909e-22)
(-0.018394401905 -0.00681323473778 -1.90268106427e-22)
(-0.0181062553093 -0.00873527999077 8.54863116641e-23)
(-0.0179654931407 -0.010674928365 1.7074089471e-22)
(-0.0178499834015 -0.012639072116 1.94334199093e-22)
(-0.0176987607512 -0.0146362230837 1.94734106644e-22)
(-0.0174639771401 -0.0166671233609 2.68704718778e-22)
(-0.0171031325553 -0.0187356869631 2.17397747546e-22)
(-0.0192026819961 -0.00111995821567 5.51994715181e-22)
(-0.0181289009273 -0.00297421370168 -2.98215011689e-22)
(-0.017102329484 -0.00487528959524 -3.96196786047e-22)
(-0.0164889909776 -0.00678278262711 -1.51152236604e-22)
(-0.0161918224948 -0.00867180728782 9.84695452056e-23)
(-0.0160374064309 -0.0105682386776 1.78912161274e-22)
(-0.0159107590579 -0.0124772217414 2.33529590418e-22)
(-0.0157474287441 -0.0143930735558 3.23973836294e-22)
(-0.0154790214522 -0.0163019374353 4.22670208635e-22)
(-0.015087630735 -0.0182105308812 4.5606280245e-22)
(-0.01721324889 -0.00113118477999 1.28060461501e-21)
(-0.0161901995036 -0.00296789280477 1.53959672306e-22)
(-0.015206460969 -0.00485177148029 -1.1558316328e-22)
(-0.0146110825255 -0.00673455260994 -2.9142262472e-24)
(-0.0143150926298 -0.0085910613212 1.80884703115e-22)
(-0.0141623817908 -0.0104520160061 3.31255655383e-22)
(-0.0140445725845 -0.0123109586658 6.50752106277e-22)
(-0.0138833842582 -0.0141318853475 1.20483230155e-21)
(-0.0136293375595 -0.0159199088105 1.68026447783e-21)
(-0.013274479298 -0.017691106112 1.87188110884e-21)
(-0.0152264150872 -0.0011377954873 1.46625299308e-21)
(-0.0142652790327 -0.00295146862362 4.16658644166e-22)
(-0.0133313073746 -0.00481454451759 8.03564472819e-23)
(-0.0127595042874 -0.0066708859125 1.54965798649e-22)
(-0.012475959032 -0.00850181081344 4.80923946251e-22)
(-0.0123331380448 -0.0103326457434 1.2610930006e-21)
(-0.0122255259342 -0.012134086458 3.1723392486e-21)
(-0.0106668825931 -0.00839723174461 1.96814585966e-21)
)
;

boundaryField
{
    back
    {
        type            noSlip;
    }
    sides
    {
        type            noSlip;
    }
    bottom
    {
        type            noSlip;
    }
    front
    {
        type            noSlip;
    }
    atmosphere
    {
        type            pressureInletOutletVelocity;
        value           nonuniform List<vector> 0();
    }
    floatingObject
    {
        type            movingWallVelocity;
        value           nonuniform List<vector> 0();
    }
    procBoundary4to0
    {
        type            processor;
        value           nonuniform List<vector> 8((-0.0442821843833 -0.000460920991459 -2.17915246976e-22) (-0.0435491403834 -0.00146674997914 -8.29426049281e-23) (-0.0428926879792 -0.00251233602725 9.15680770048e-24) (-0.0428335095942 -0.00362583819095 7.275078149e-23) (-0.0432590284144 -0.00482072591241 3.1324138169e-23) (-0.0439967206029 -0.00610396387146 4.7316089279e-24) (-0.044944530873 -0.00749709605191 -1.27852431118e-23) (-0.0460617088745 -0.0090291567744 -5.27336769471e-24));
    }
    procBoundary4to3
    {
        type            processor;
        value           nonuniform List<vector> 
13
(
(-0.0120946870062 -0.0138839445626 6.34663883965e-21)
(-0.0118838408454 -0.0156115908606 9.35347245538e-21)
(-0.0116179700836 -0.0173535335262 1.04772789244e-20)
(-0.0132565174989 -0.00114043670051 1.43970000633e-21)
(-0.0123614343524 -0.00292050211363 4.81660699809e-22)
(-0.0114820063038 -0.00475658499593 2.34538435725e-22)
(-0.0109362551625 -0.00659263364813 5.79548270509e-22)
(-0.0105375189299 -0.0101970305754 6.21284915999e-21)
(-0.0120946870062 -0.0138839445626 6.34663883965e-21)
(-0.0104594627814 -0.0119766210928 1.66292490439e-20)
(-0.0109362551625 -0.00659263364813 5.79548270509e-22)
(-0.0105375189299 -0.0101970305754 6.21284915999e-21)
(-0.00886637601866 -0.00828393411546 8.67219097349e-21)
)
;
    }
    procBoundary4to5
    {
        type            processor;
        value           nonuniform List<vector> 
18
(
(-0.0454757721748 -0.0119533051714 -7.16636803918e-25)
(-0.0435248960937 -0.0129887568489 9.32402725428e-24)
(-0.0435248960937 -0.0129887568489 9.32402725428e-24)
(-0.0445172332605 -0.0150649499729 2.07946102598e-23)
(-0.0431806139636 -0.0182038843812 4.40945016816e-23)
(-0.0408653720734 -0.0189078110088 4.81703154067e-23)
(-0.0386183526291 -0.019498011556 5.57020390453e-23)
(-0.0364190944106 -0.0200514200384 6.36891376454e-23)
(-0.0342038045106 -0.0206269771702 5.50358746221e-23)
(-0.0318812370295 -0.0212201191038 -2.87882845325e-23)
(-0.0293937877756 -0.0217552874515 7.51349478526e-23)
(-0.0267445252332 -0.0221101026767 1.71639851727e-22)
(-0.0240219802155 -0.022184317967 3.31514493092e-22)
(-0.0213610935898 -0.0219400348193 4.25910250239e-22)
(-0.0188769910524 -0.0214714024598 1.49170338259e-22)
(-0.0165883402863 -0.0208640292908 3.68234818439e-22)
(-0.0145395712972 -0.0201141140343 4.89496964848e-22)
(-0.0128215120353 -0.0193600164994 2.06263385662e-21)
)
;
    }
}


// ************************************************************************* //
