/*--------------------------------*- C++ -*----------------------------------*\
| =========                 |                                                 |
| \\      /  F ield         | OpenFOAM: The Open Source CFD Toolbox           |
|  \\    /   O peration     | Version:  v2012                                 |
|   \\  /    A nd           | Website:  www.openfoam.com                      |
|    \\/     M anipulation  |                                                 |
\*---------------------------------------------------------------------------*/
FoamFile
{
    version     2.0;
    format      ascii;
    class       volVectorField;
    location    "4.5";
    object      ddt0(rho,U);
}
// * * * * * * * * * * * * * * * * * * * * * * * * * * * * * * * * * * * * * //

dimensions      [1 -2 -2 0 0 0 0];


internalField   nonuniform List<vector> 
164
(
(48.8674175835 46.0503686566 8.46372223068e-18)
(50.6516920767 52.4875607245 1.12671189494e-17)
(52.7704801666 58.8650538749 1.2277139453e-17)
(55.1289378894 65.3368747824 1.4657902595e-17)
(57.7323952605 71.7393097313 1.87418678818e-17)
(60.3513530256 78.3125886049 1.34605434723e-17)
(62.5118869975 85.2074468287 1.06516783265e-17)
(64.6955220659 93.4412075636 3.91391191023e-18)
(67.2441497093 108.310626009 -7.74363670965e-18)
(60.1813210781 115.902134356 -5.37198692761e-18)
(21.4253776347 62.5155830417 6.7423908994e-18)
(0.0662437211525 0.123119163454 3.29961103545e-20)
(0.040552253638 0.191293218611 1.81419720309e-20)
(39.6577055437 2.9174879286 -1.81918501892e-19)
(39.3399624577 8.98192232017 4.77727921905e-19)
(39.24417499 14.8821768073 2.71722186109e-19)
(39.3199773999 21.0035733517 8.04542925126e-19)
(40.0018513628 33.8811062275 8.81936255201e-18)
(40.8011331755 40.6604409137 2.06132306781e-17)
(42.1297214594 47.5453144677 3.60783870201e-17)
(43.9764725835 54.3399127694 4.65897328892e-17)
(46.0959578996 60.9692403431 5.0977289662e-17)
(48.4648493931 67.8476392891 5.89566934254e-17)
(51.3066159452 74.1614558852 6.66454224045e-17)
(53.8946754351 80.4364058179 7.11923061309e-17)
(55.9106721146 86.3095709842 3.66239147919e-17)
(56.529072372 92.7472909342 1.64077100852e-17)
(55.5842057224 107.177901877 1.40953806947e-17)
(44.7400970278 118.80386136 5.32803056688e-18)
(13.196952379 63.238424799 4.39845350142e-18)
(0.0526433163219 0.121754759205 1.96198094592e-20)
(0.0265765339069 0.162760117667 2.18124641853e-21)
(33.7298145226 2.92645824682 -5.87001707516e-19)
(33.386343094 8.97413967085 5.15380544024e-19)
(33.167875072 14.8823589461 7.98416109253e-19)
(33.0392617297 21.0705633031 3.15201511099e-18)
(32.9863847798 27.5312772749 1.13924734253e-17)
(33.0909049915 34.355388356 3.41212437433e-17)
(33.6282138629 41.5909623496 7.60969517815e-17)
(34.9435395822 48.9931560565 1.2692421699e-16)
(36.9798603299 56.1824732054 1.58389025147e-16)
(39.0457571291 63.1887989826 1.76213224447e-16)
(41.518436662 70.4980961445 2.30316960283e-16)
(45.3038320348 76.8955232843 2.92481160735e-16)
(48.2546317895 82.4702115739 2.44501217377e-16)
(50.9665397169 86.6274228448 1.30003039893e-16)
(51.2509846886 91.0675209246 4.91929949204e-17)
(47.0909167383 103.445377059 2.51803129137e-17)
(35.6489418881 115.909572045 -1.84985874174e-18)
(9.00045270711 60.8678777537 -1.47572951519e-18)
(0.0341836063402 0.11776676291 -1.29916664116e-20)
(0.0144838098791 0.124270493076 -1.04223715116e-21)
(27.8679503103 2.89025428654 -5.32213522141e-19)
(27.474177013 8.85036938759 6.3257953101e-19)
(27.1072785409 14.6892729944 2.5319360199e-18)
(26.726491305 20.8456667482 1.05790373948e-17)
(26.3066203367 27.3364265978 3.83459341136e-17)
(25.8366320407 34.3984495392 1.12890364195e-16)
(25.7474224203 42.2338793182 2.36600365003e-16)
(26.9622016323 50.3914891986 3.65541604108e-16)
(29.6907738951 58.1100855453 4.09156298122e-16)
(32.0619755554 65.7712607797 3.94301956896e-16)
(34.5096245535 74.1519426351 6.01889337262e-16)
(39.4930322372 80.8528081744 8.98115331086e-16)
(43.2963167905 85.0716103199 6.32487940002e-16)
(47.6814353121 87.6253317215 2.25200487691e-16)
(46.7442985563 88.9486947109 1.02180945126e-16)
(41.4419601517 98.023547949 3.40367900632e-17)
(31.3759910612 110.274938481 8.35305298689e-18)
(8.31106669355 57.2019530568 -5.92208427938e-18)
(0.0320936164803 0.0945242967397 1.62985351591e-20)
(0.00412147928761 0.097824245024 1.92796116521e-21)
(22.1305715475 2.80617729103 -3.28820044082e-19)
(21.6884624797 8.59409079542 1.66001054424e-18)
(21.1460627175 14.2703362421 7.29429498764e-18)
(20.5148439716 20.2670871921 2.93317390723e-17)
(19.8215042375 26.5259852092 1.02795150192e-16)
(18.9955821218 33.544611302 2.87894320682e-16)
(17.9187505743 42.204490182 5.68139529559e-16)
(18.4905024028 52.2749559378 7.99364777292e-16)
(22.4006181714 61.7899521826 5.39559609783e-16)
(23.7641721157 70.1797140641 4.47608367945e-16)
(22.8061702775 79.9509459442 6.69955854744e-16)
(30.3331682371 88.2416806021 7.92360357673e-16)
(39.6577343151 88.860019344 7.60318847536e-16)
(46.0574375824 87.3075489466 -1.10033242281e-16)
(43.4273097665 87.2430739964 8.23972624568e-17)
(38.1316284692 94.6978589176 6.12548565264e-17)
(29.5179163869 105.535426366 2.49637701775e-17)
(9.38416649982 54.0109536002 -3.14879477226e-17)
(0.0329244252644 0.0787614712505 7.43957864788e-20)
(-0.00382742444897 0.0792230030443 -1.61510351839e-20)
(16.6253484234 2.68386445027 2.89934662534e-19)
(16.1339491019 8.19690473511 3.84422197316e-18)
(15.360922753 13.6295938705 1.67187738953e-17)
(14.1726059233 19.5119471214 6.57934195027e-17)
(12.5399599077 25.7134690268 2.19071200595e-16)
(10.6370916195 32.1873846008 5.94949305061e-16)
(9.04964829182 41.3063686435 9.78388784667e-16)
(10.1109264723 55.321804647 8.80000152796e-16)
(14.6792441573 66.3550854944 4.03073197996e-16)
(16.4089281667 72.1005502447 4.83798670556e-18)
(5.85936063694 84.6586173934 4.71462276444e-16)
(26.5942084349 101.566181537 4.33489510273e-17)
(49.7776224541 97.0993838264 -9.94592104173e-16)
(49.1290487113 85.7991726281 -8.34824830735e-16)
(43.0419825801 86.2661643141 -3.5153334745e-16)
(35.7470756463 93.6075639763 -8.35736781417e-17)
(28.6910613118 103.188515804 -4.39875601488e-17)
(11.4005599236 52.6289993071 -8.70443340114e-17)
(0.0300779988717 0.0794707150149 7.15006079596e-20)
(-0.00543491037451 0.0735882837371 -2.2241233922e-20)
(11.4421483709 2.52544751808 1.35593118804e-18)
(10.9659718759 7.61973443551 7.17705986151e-18)
(10.1448275141 12.4080257665 2.98291900781e-17)
(8.70616588933 17.4621338221 1.08644770019e-16)
(5.83843974828 23.1137306984 3.55018687608e-16)
(0.87386204893 30.2289885423 9.56381094681e-16)
(-9.87317212679 42.6307404793 1.20617820031e-15)
(-20.1701449428 60.4272309045 -3.01199949096e-16)
(6.13092749014 74.0612671248 1.72036461341e-15)
(7.93759500943 70.3570309114 3.89487881291e-16)
(-0.153191390272 95.1252134135 -6.13594220622e-16)
(30.9857427429 122.838306137 1.80544353387e-15)
(74.0509232928 88.5580324261 -2.66587708204e-16)
(54.5738881328 80.9153458498 -1.35493365596e-15)
(38.7976080678 82.5023379496 -5.28650420932e-16)
(30.312450165 94.1281977116 -1.09431604768e-16)
(25.9981909891 105.620357506 -1.53934286125e-16)
(13.0810176675 54.5426381713 -1.64402761435e-16)
(0.0251345033435 0.0907754764553 4.69265624113e-20)
(-0.00429349700053 0.079387394808 -1.00931780201e-19)
(6.56342521288 2.39943727778 2.50356123642e-18)
(6.19540452413 7.14686937811 1.12254352833e-17)
(5.49764594749 11.4676092108 4.0955721147e-17)
(4.24275910882 15.2586515781 1.28857038508e-16)
(1.95612452107 18.3449713532 3.39324921571e-16)
(-3.08233913694 18.2726629214 6.1988591586e-16)
(-13.4288540268 17.0772831873 6.20371394367e-16)
(-28.1967805336 10.5733685296 4.38200952092e-16)
(1.93823558086 2.29772744612 3.00238028424e-18)
(1.78617582943 6.73048209393 1.49589088216e-17)
(1.45633989495 10.5341790145 5.73896789342e-17)
(0.80696623869 14.0308940115 1.4719373729e-16)
(0.12861021215 16.2595656851 3.42564778304e-16)
(-1.47802659506 16.1118290692 5.96053615395e-16)
(-2.84789886852 16.9056284474 -1.27047986138e-16)
(-3.66045015707 8.92958868435 6.52714219717e-16)
(-2.55631530628 2.29623324096 2.77389447459e-18)
(-2.41203252432 6.72302273325 1.46683148481e-17)
(-2.10979636087 10.5198844546 5.72355168648e-17)
(-1.49751714667 13.986678945 1.48379451023e-16)
(-0.85850642215 16.1987266684 3.41853033144e-16)
(0.686231858186 16.0595036504 5.99212225552e-16)
(1.93760324808 16.833254474 -1.18415116011e-16)
(2.46763246605 8.88327612731 6.78971944784e-16)
(-7.16746365264 2.3940850956 1.81458094798e-18)
(-6.80257977882 7.12021571066 1.03732218451e-17)
(-6.1216790285 11.4134778995 4.08198221804e-17)
(-4.88921025558 15.2060557369 1.29336876831e-16)
(-2.62000227904 18.2716102124 3.4107467664e-16)
(2.39371446481 18.0966948089 6.25424479273e-16)
(12.6002167712 16.72281974 6.27845764862e-16)
(27.2622930411 10.3920109917 4.62674454504e-16)
)
;

boundaryField
{
    back
    {
        type            calculated;
        value           uniform (0 0 0);
    }
    sides
    {
        type            calculated;
        value           nonuniform List<vector> 0();
    }
    bottom
    {
        type            calculated;
        value           uniform (0 0 0);
    }
    front
    {
        type            calculated;
        value           uniform (0 0 0);
    }
    atmosphere
    {
        type            calculated;
        value           nonuniform List<vector> 7((-6.21065727653e-10 0.1912932185 2.40959166566e-29) (-5.4042548026e-11 0.162760117667 -2.15701353602e-28) (1.55016306368e-12 0.124270493066 -1.22735343665e-30) (-1.01723545216e-10 0.0978242451818 -1.3260129199e-29) (-1.71791580987e-10 0.079223003469 -8.41090456125e-28) (5.5102467436e-10 0.0735882901771 5.32392259816e-27) (-3.7108437665e-08 0.0793874008822 -8.80191445558e-26));
    }
    floatingObject
    {
        type            calculated;
        value           nonuniform List<vector> 8((0 -8.31167909918e-12 1.0389598874e-12) (0 0 1.03895949022e-12) (0 0 0) (0 -1.66232886156e-11 1.03895553848e-12) (2.07792128143e-12 0 0) (0 0 1.03896155463e-12) (0 0 1.03896295995e-12) (0 0 0));
    }
    procBoundary3to4
    {
        type            processor;
        value           nonuniform List<vector> 
13
(
(55.2468981926 44.5035788488 1.74115308972e-18)
(56.9958874139 50.593268236 2.42627597066e-18)
(59.106456226 56.6623090018 2.59561776149e-18)
(45.5873122249 2.88341556187 -5.63572925169e-19)
(45.2676551054 8.90189459462 3.75985060653e-19)
(45.2660080339 14.7320021486 1.09847100031e-19)
(45.4889165306 20.7270822752 1.89139915543e-19)
(46.5598417669 33.1618468203 1.96443938222e-18)
(47.5213589255 39.576929727 4.6815291816e-18)
(47.5213589255 39.576929727 4.6815291816e-18)
(39.5536241282 27.3278435152 2.90264950487e-18)
(39.5536241282 27.3278435152 2.90264950487e-18)
(39.5536241282 27.3278435152 2.90264950487e-18)
)
;
    }
    procBoundary3to5
    {
        type            processor;
        value           nonuniform List<vector> 10((61.5346951195 62.7803281938 2.89633065876e-18) (64.2866788174 69.0533106715 3.54081698735e-18) (67.1578736245 75.5906163255 2.82112916501e-18) (69.9077805358 82.840517349 1.92233694651e-18) (73.8203367599 91.7094235312 9.78673608384e-19) (80.2144660556 105.374283347 -5.45883725042e-18) (79.3340658481 107.709709497 -7.34165766622e-18) (31.2943041025 59.7133651386 2.79740416835e-18) (0.0687301819786 0.160212652782 -1.26293133543e-20) (0.0377221978086 0.183693006214 -1.04842777286e-20));
    }
    procBoundary3to6
    {
        type            processor;
        value           nonuniform List<vector> 8((73.148446937 30.5118066775 -2.3675801401e-15) (41.1505885598 63.029803436 -7.39475235709e-16) (27.0321717894 77.4518490106 -3.78138899786e-16) (20.7134309099 95.4377837532 -1.10472795387e-16) (19.5122414841 111.973763679 -2.69555755727e-16) (13.6992330265 58.7808245208 -2.37860508049e-16) (0.0249303497931 0.114012120459 -1.74551259105e-20) (0.0050692994079 0.0917302802717 7.76707689066e-19));
    }
    procBoundary3to8
    {
        type            processor;
        value           nonuniform List<vector> 8((-12.0160088357 2.5161111557 1.06009217795e-18) (-11.5323457506 7.58364007407 7.22740264044e-18) (-10.7161897428 12.3444943281 2.95765205021e-17) (-9.29741494748 17.3624790137 1.0894756084e-16) (-6.49935173447 22.9762930237 3.57448659328e-16) (-1.63201524497 29.9668895351 9.55686593151e-16) (9.07252100416 42.2774009193 1.23749623673e-15) (19.2033982983 59.6462425884 -2.93076559034e-16));
    }
}


// ************************************************************************* //
