/*--------------------------------*- C++ -*----------------------------------*\
| =========                 |                                                 |
| \\      /  F ield         | OpenFOAM: The Open Source CFD Toolbox           |
|  \\    /   O peration     | Version:  v2012                                 |
|   \\  /    A nd           | Website:  www.openfoam.com                      |
|    \\/     M anipulation  |                                                 |
\*---------------------------------------------------------------------------*/
FoamFile
{
    version     2.0;
    format      ascii;
    class       volScalarField;
    location    "4.5";
    object      k_0;
}
// * * * * * * * * * * * * * * * * * * * * * * * * * * * * * * * * * * * * * //

dimensions      [0 2 -2 0 0 0 0];


internalField   nonuniform List<scalar> 
164
(
0.00239445586419
0.00241106081321
0.00242996103315
0.00245380737667
0.00249202940876
0.00257531902114
0.00279519701801
0.00341985165455
0.00519938967713
0.00972874736477
0.0192311705316
0.0371655549122
0.0746557725565
0.0016966400688
0.00211433183314
0.00225224897029
0.00230901406719
0.00235507642254
0.00237103144705
0.00238740973354
0.00240532907419
0.002425713397
0.00245085836416
0.00248936508428
0.00257135451607
0.00279272703315
0.00344633287164
0.00532766387358
0.00997967703321
0.0194464998524
0.0370789013553
0.0744799357341
0.00168606699093
0.00210276392419
0.00224056568986
0.00229770681978
0.00232609127091
0.0023449573089
0.00236153198096
0.00237861683616
0.00239773442757
0.0024200334333
0.0024474769899
0.00248854774998
0.00257433310253
0.00280448835369
0.00348543438185
0.00544199623166
0.0101870589936
0.0195659057082
0.0368124330534
0.0742678442424
0.001675168266
0.00209114776705
0.0022288019839
0.0022860756496
0.00231452576656
0.00233307626596
0.00234875445935
0.00236477005808
0.00238425157652
0.00240882635334
0.00243911350308
0.00248427977584
0.0025802943968
0.00283149270335
0.00354022726574
0.00554521030366
0.010381931283
0.0197871261205
0.0368289932008
0.0742020121019
0.00166437916715
0.00207985659869
0.00221728988006
0.00227419719105
0.00230149199491
0.00231716269428
0.00232751280896
0.00233687723605
0.00235301059014
0.00237946815245
0.00241188079152
0.00246194499037
0.0025836122515
0.00288393323476
0.00364562485586
0.00569926528032
0.0105544620821
0.0198463258867
0.0365789611067
0.0740708880344
0.00165391104805
0.0020693206022
0.00220637561109
0.00226206348191
0.00228575923471
0.00229239941182
0.00228459251058
0.00226686990009
0.00225988642492
0.00228584383968
0.00232283966042
0.00239231447906
0.00259087748838
0.00298341944138
0.00382784402549
0.00593011377504
0.0107348243439
0.0198241101558
0.0362132917704
0.0738632539273
0.00164421223611
0.00205991476475
0.00219636743152
0.00224973307087
0.0022664047337
0.0022525552623
0.0021921526217
0.00207134371692
0.00191121809473
0.0019193517645
0.00198269083448
0.00221910341058
0.00262304189988
0.00317799985777
0.00412208074062
0.00625703196342
0.0109114242738
0.019627768333
0.0355134027647
0.0733423231233
0.00163556830886
0.00205204474151
0.00218794013197
0.0022386526016
0.00224881533239
0.00222192515267
0.00212744063859
0.00181738025536
0.00162980637191
0.00204758698589
0.00218353013362
0.00223300721149
0.00223945747512
0.00220351759881
0.00208727424194
0.00170975026988
0.00162977066512
0.00204755422531
0.0021835112131
0.00223300178029
0.0022394663442
0.00220355959113
0.00208737765967
0.00171004536533
0.00163550705659
0.00205199838559
0.00218792160851
0.0022386630135
0.00224885667627
0.00222200352385
0.00212756509782
0.00181778185596
)
;

boundaryField
{
    back
    {
        type            kqRWallFunction;
        value           nonuniform List<scalar> 
164
(
0.00239445586419
0.00241106081321
0.00242996103315
0.00245380737667
0.00249202940876
0.00257531902114
0.00279519701801
0.00341985165455
0.00519938967713
0.00972874736477
0.0192311705316
0.0371655549122
0.0746557725565
0.0016966400688
0.00211433183314
0.00225224897029
0.00230901406719
0.00235507642254
0.00237103144705
0.00238740973354
0.00240532907419
0.002425713397
0.00245085836416
0.00248936508428
0.00257135451607
0.00279272703315
0.00344633287164
0.00532766387358
0.00997967703321
0.0194464998524
0.0370789013553
0.0744799357341
0.00168606699093
0.00210276392419
0.00224056568986
0.00229770681978
0.00232609127091
0.0023449573089
0.00236153198096
0.00237861683616
0.00239773442757
0.0024200334333
0.0024474769899
0.00248854774998
0.00257433310253
0.00280448835369
0.00348543438185
0.00544199623166
0.0101870589936
0.0195659057082
0.0368124330534
0.0742678442424
0.001675168266
0.00209114776705
0.0022288019839
0.0022860756496
0.00231452576656
0.00233307626596
0.00234875445935
0.00236477005808
0.00238425157652
0.00240882635334
0.00243911350308
0.00248427977584
0.0025802943968
0.00283149270335
0.00354022726574
0.00554521030366
0.010381931283
0.0197871261205
0.0368289932008
0.0742020121019
0.00166437916715
0.00207985659869
0.00221728988006
0.00227419719105
0.00230149199491
0.00231716269428
0.00232751280896
0.00233687723605
0.00235301059014
0.00237946815245
0.00241188079152
0.00246194499037
0.0025836122515
0.00288393323476
0.00364562485586
0.00569926528032
0.0105544620821
0.0198463258867
0.0365789611067
0.0740708880344
0.00165391104805
0.0020693206022
0.00220637561109
0.00226206348191
0.00228575923471
0.00229239941182
0.00228459251058
0.00226686990009
0.00225988642492
0.00228584383968
0.00232283966042
0.00239231447906
0.00259087748838
0.00298341944138
0.00382784402549
0.00593011377504
0.0107348243439
0.0198241101558
0.0362132917704
0.0738632539273
0.00164421223611
0.00205991476475
0.00219636743152
0.00224973307087
0.0022664047337
0.0022525552623
0.0021921526217
0.00207134371692
0.00191121809473
0.0019193517645
0.00198269083448
0.00221910341058
0.00262304189988
0.00317799985777
0.00412208074062
0.00625703196342
0.0109114242738
0.019627768333
0.0355134027647
0.0733423231233
0.00163556830886
0.00205204474151
0.00218794013197
0.0022386526016
0.00224881533239
0.00222192515267
0.00212744063859
0.00181738025536
0.00162980637191
0.00204758698589
0.00218353013362
0.00223300721149
0.00223945747512
0.00220351759881
0.00208727424194
0.00170975026988
0.00162977066512
0.00204755422531
0.0021835112131
0.00223300178029
0.0022394663442
0.00220355959113
0.00208737765967
0.00171004536533
0.00163550705659
0.00205199838559
0.00218792160851
0.0022386630135
0.00224885667627
0.00222200352385
0.00212756509782
0.00181778185596
)
;
    }
    sides
    {
        type            kqRWallFunction;
        value           nonuniform List<scalar> 0();
    }
    bottom
    {
        type            kqRWallFunction;
        value           nonuniform List<scalar> 10(0.0016966400688 0.00168606699093 0.001675168266 0.00166437916715 0.00165391104805 0.00164421223611 0.00163556830886 0.00162980637191 0.00162977066512 0.00163550705659);
    }
    front
    {
        type            kqRWallFunction;
        value           nonuniform List<scalar> 
164
(
0.00239445586419
0.00241106081321
0.00242996103315
0.00245380737667
0.00249202940876
0.00257531902114
0.00279519701801
0.00341985165455
0.00519938967713
0.00972874736477
0.0192311705316
0.0371655549122
0.0746557725565
0.0016966400688
0.00211433183314
0.00225224897029
0.00230901406719
0.00235507642254
0.00237103144705
0.00238740973354
0.00240532907419
0.002425713397
0.00245085836416
0.00248936508428
0.00257135451607
0.00279272703315
0.00344633287164
0.00532766387358
0.00997967703321
0.0194464998524
0.0370789013553
0.0744799357341
0.00168606699093
0.00210276392419
0.00224056568986
0.00229770681978
0.00232609127091
0.0023449573089
0.00236153198096
0.00237861683616
0.00239773442757
0.0024200334333
0.0024474769899
0.00248854774998
0.00257433310253
0.00280448835369
0.00348543438185
0.00544199623166
0.0101870589936
0.0195659057082
0.0368124330534
0.0742678442424
0.001675168266
0.00209114776705
0.0022288019839
0.0022860756496
0.00231452576656
0.00233307626596
0.00234875445935
0.00236477005808
0.00238425157652
0.00240882635334
0.00243911350308
0.00248427977584
0.0025802943968
0.00283149270335
0.00354022726574
0.00554521030366
0.010381931283
0.0197871261205
0.0368289932008
0.0742020121019
0.00166437916715
0.00207985659869
0.00221728988006
0.00227419719105
0.00230149199491
0.00231716269428
0.00232751280896
0.00233687723605
0.00235301059014
0.00237946815245
0.00241188079152
0.00246194499037
0.0025836122515
0.00288393323476
0.00364562485586
0.00569926528032
0.0105544620821
0.0198463258867
0.0365789611067
0.0740708880344
0.00165391104805
0.0020693206022
0.00220637561109
0.00226206348191
0.00228575923471
0.00229239941182
0.00228459251058
0.00226686990009
0.00225988642492
0.00228584383968
0.00232283966042
0.00239231447906
0.00259087748838
0.00298341944138
0.00382784402549
0.00593011377504
0.0107348243439
0.0198241101558
0.0362132917704
0.0738632539273
0.00164421223611
0.00205991476475
0.00219636743152
0.00224973307087
0.0022664047337
0.0022525552623
0.0021921526217
0.00207134371692
0.00191121809473
0.0019193517645
0.00198269083448
0.00221910341058
0.00262304189988
0.00317799985777
0.00412208074062
0.00625703196342
0.0109114242738
0.019627768333
0.0355134027647
0.0733423231233
0.00163556830886
0.00205204474151
0.00218794013197
0.0022386526016
0.00224881533239
0.00222192515267
0.00212744063859
0.00181738025536
0.00162980637191
0.00204758698589
0.00218353013362
0.00223300721149
0.00223945747512
0.00220351759881
0.00208727424194
0.00170975026988
0.00162977066512
0.00204755422531
0.0021835112131
0.00223300178029
0.0022394663442
0.00220355959113
0.00208737765967
0.00171004536533
0.00163550705659
0.00205199838559
0.00218792160851
0.0022386630135
0.00224885667627
0.00222200352385
0.00212756509782
0.00181778185596
)
;
    }
    atmosphere
    {
        type            inletOutlet;
        inletValue      uniform 0.1;
        value           uniform 0.1;
    }
    floatingObject
    {
        type            kqRWallFunction;
        value           nonuniform List<scalar> 8(0.00191121809473 0.0019193517645 0.00198269083448 0.00221910341058 0.00181738025536 0.00170975026988 0.00171004536533 0.00181778185596);
    }
    procBoundary3to4
    {
        type            processor;
        value           nonuniform List<scalar> 
13
(
0.00240080130611
0.00241620397087
0.00243397170187
0.00170660625958
0.00212554603643
0.00226358757748
0.00231988429818
0.00236428373157
0.00237921971852
0.00237921971852
0.00233683482615
0.00233683482615
0.00233683482615
)
;
    }
    procBoundary3to5
    {
        type            processor;
        value           nonuniform List<scalar> 10(0.00245729806354 0.00249697247232 0.00258517036382 0.00280917667045 0.00340886348778 0.00508115453896 0.0094729337194 0.0190118241217 0.0371929400985 0.0747851749906);
    }
    procBoundary3to6
    {
        type            processor;
        value           nonuniform List<scalar> 8(0.00263900575272 0.00348921992539 0.00455529297549 0.00665544792332 0.0110740577784 0.0194460366505 0.0348506417513 0.0664877015655);
    }
    procBoundary3to8
    {
        type            processor;
        value           nonuniform List<scalar> 8(0.00164413609913 0.00205987594011 0.00219636175749 0.00224976331233 0.00226646009797 0.00225256591192 0.00219205866817 0.00207131588512);
    }
}


// ************************************************************************* //
