/*--------------------------------*- C++ -*----------------------------------*\
| =========                 |                                                 |
| \\      /  F ield         | OpenFOAM: The Open Source CFD Toolbox           |
|  \\    /   O peration     | Version:  v2012                                 |
|   \\  /    A nd           | Website:  www.openfoam.com                      |
|    \\/     M anipulation  |                                                 |
\*---------------------------------------------------------------------------*/
FoamFile
{
    version     2.0;
    format      ascii;
    class       volScalarField;
    location    "4";
    object      alpha.water;
}
// * * * * * * * * * * * * * * * * * * * * * * * * * * * * * * * * * * * * * //

dimensions      [0 0 0 0 0 0 0];


internalField   nonuniform List<scalar> 
167
(
0.999996377523
0.999996331775
0.999995419702
0.999994345044
0.9999931403
0.999993481711
0.999994956239
0.999999422774
0.986424726539
0.359447910047
2.18241457385e-05
2.30411679553e-05
0.999995165415
0.999995344329
0.999994644262
0.999992817965
0.999992550695
0.999992831845
0.999997837364
0.999999442332
0.981542985987
0.357763993849
1.73660287829e-07
5.71076654835e-07
0.999994277897
0.999993645269
0.999994443047
0.999993268967
0.999992550695
0.999992604888
0.999997822916
0.999999465132
0.980577769079
0.354361058114
1.73649457013e-07
3.24549750812e-08
0.999990019383
0.999992238724
0.999992348538
0.999993258077
0.999995139324
0.999997761381
0.999999511475
0.978728931434
0.350505946682
8.27950849275e-07
-1.34091022187e-12
0.999988658383
0.999991339084
0.999994817913
0.999996075908
0.999997869962
0.999999588819
0.977250690484
0.346879707215
4.47089954724e-05
8.31130223296e-07
0.999988658865
0.999992481961
0.999995322786
0.999996692481
0.999997924891
0.999999674419
0.976666246851
0.344277576019
3.24861733853e-05
9.94382471306e-07
0.999989642479
0.999994370661
0.999995988553
0.999997031684
0.999998390154
0.999999740796
0.976788108693
0.343824990837
3.2845785547e-07
9.46939536009e-07
0.999993005541
0.999995816402
0.999996539118
0.999997103025
0.999999220668
0.999999796772
0.977693685635
0.345783391537
2.39072493018e-07
5.18649345476e-06
0.999994375878
0.999996893854
0.999997519614
0.999997324202
0.999999175672
0.999999880995
0.979535148075
0.350846882411
3.45618361299e-05
1.83430147632e-05
0.999996445912
0.99999828303
0.999998579361
0.999997754032
0.999999682613
0.999999967557
0.982024802076
0.359128030818
0.000117185450996
7.41989058855e-05
0.999998484382
0.999999795763
0.999999662895
0.999998205183
0.999999745691
1
0.98501450311
0.370662908091
3.64622046271e-05
2.20563105075e-05
1.00000034473
1.00000133385
1.00000078157
0.999998771911
0.999999069623
1
0.988623375431
0.385508374552
3.35345622345e-06
6.38354919298e-06
1.00000194214
1.00000263437
1.00000190754
0.999999397333
0.999999068921
1.00000002579
0.993285928358
0.404187959244
3.63106179612e-06
1.06931324332e-05
1.00000324579
1.00000381196
1.00000312068
1.00000008331
0.99999919748
1.00000015305
0.998202695115
0.427653106154
1.68646546276e-05
5.71826144203e-06
1.00000395277
1.00000529664
1.00000453226
1.00000129681
0.99999959085
1.00000018771
1
0.459831130935
0.000339983259776
2.89638288741e-07
1.00000540988
1.00000662938
1.00000639266
1.00000248646
1.0000000281
1.00000021052
1
0.497830470111
0.00191020798008
6.57575289585e-06
)
;

boundaryField
{
    back
    {
        type            zeroGradient;
    }
    sides
    {
        type            zeroGradient;
    }
    bottom
    {
        type            zeroGradient;
    }
    front
    {
        type            zeroGradient;
    }
    atmosphere
    {
        type            inletOutlet;
        inletValue      uniform 0;
        value           nonuniform List<scalar> 
16
(
2.30411679553e-05
0
0
0
8.31130223296e-07
9.94382471306e-07
0
0
1.83430147632e-05
7.41989058855e-05
2.20563105075e-05
0
0
0
0
6.57575289585e-06
)
;
    }
    floatingObject
    {
        type            zeroGradient;
    }
    procBoundary1to0
    {
        type            processor;
        value           nonuniform List<scalar> 10(1.00000585476 1.0000078875 1.00000783911 1.00000371634 1.00000041013 1.00000069438 1.00000029002 0.537170726938 0.00534889297954 0.000116989872415);
    }
    procBoundary1to2
    {
        type            processor;
        value           nonuniform List<scalar> 
18
(
0.99999803539
0.999997725972
0.99999674133
0.999991395232
0.999991395232
0.999988658807
0.999988658807
0.999991740767
0.999993858746
0.999995286895
0.999996503269
0.999998072003
0.999999704545
1.00000111228
1.00000231276
1.00000289056
1.00000363162
1.00000319755
)
;
    }
}


// ************************************************************************* //
