/*--------------------------------*- C++ -*----------------------------------*\
| =========                 |                                                 |
| \\      /  F ield         | OpenFOAM: The Open Source CFD Toolbox           |
|  \\    /   O peration     | Version:  v2012                                 |
|   \\  /    A nd           | Website:  www.openfoam.com                      |
|    \\/     M anipulation  |                                                 |
\*---------------------------------------------------------------------------*/
FoamFile
{
    version     2.0;
    format      ascii;
    class       volVectorField;
    location    "4";
    object      ddt0(rho,U);
}
// * * * * * * * * * * * * * * * * * * * * * * * * * * * * * * * * * * * * * //

dimensions      [1 -2 -2 0 0 0 0];


internalField   nonuniform List<vector> 
167
(
(-5.01747234427 85.4624693848 -1.80446720543e-19)
(-4.72690989084 94.4982767809 -2.5750112123e-20)
(-4.26062521751 102.807198792 1.4237855293e-19)
(-3.53975916858 109.946633144 5.9330057691e-21)
(-2.39172471795 115.235078786 1.71073196285e-19)
(-0.551165717194 117.761272653 -3.10181274946e-19)
(2.80624254807 116.896638521 -5.36732927579e-20)
(8.3954139346 106.222897748 -7.29550642808e-19)
(6.60436871538 99.8426105289 -7.69635265289e-18)
(-6.687930573 40.0938511285 -1.25082031344e-18)
(-0.207840470896 -0.206529607299 -8.49956450438e-20)
(-1.309572161 1.45686357149 1.5206887047e-20)
(-14.3467722569 86.5447026583 1.57185301818e-20)
(-13.5166671643 95.9420577797 5.13697244848e-20)
(-12.2248157474 104.734062775 2.91785804059e-20)
(-10.2435086441 112.572727178 8.42667171666e-20)
(-7.2479448058 119.01567757 1.61246653536e-19)
(-2.69788132268 123.518804262 8.43178909749e-19)
(4.21565718585 126.841734947 1.66729673912e-18)
(14.4415219627 125.26315384 -6.45319999697e-19)
(19.6827100143 122.483178437 -2.02510597023e-18)
(6.02267116977 50.8338632498 -2.7131356088e-18)
(-0.00772602146222 0.0381430263157 1.16334506255e-21)
(-0.74476735477 -1.45845332896 -3.5228712806e-20)
(-24.4094664846 87.4782983485 -3.62883373264e-20)
(-23.2050810458 97.3916987794 3.97012894107e-20)
(-21.3171977931 106.927246241 5.3211241339e-20)
(-18.3965364337 115.860698812 2.25124805905e-19)
(-13.9939304168 123.903511232 2.39385277277e-19)
(-7.48236908548 130.669259975 -2.11670635901e-18)
(1.88735390214 137.041023544 5.2964232159e-18)
(14.5350179831 138.322938777 -1.60194287498e-17)
(21.976407371 131.723206178 -1.19420304163e-17)
(10.8889156905 53.6619323343 3.21872693895e-18)
(0.183358564272 0.28445102481 -6.05125200896e-20)
(0.316458001519 -0.0948799425453 -1.62012518607e-20)
(-33.6723721476 99.158399645 9.08466499257e-20)
(-31.474516265 109.670671123 2.77968872339e-20)
(-28.0874999422 120.021666279 -6.30784739793e-21)
(-22.9231312609 130.050141382 -7.1451520784e-20)
(-15.3230199439 139.624895534 -1.89364148743e-19)
(-4.49421725019 149.313636463 -9.38752823221e-20)
(10.6827682224 156.742616995 1.3065550939e-18)
(21.2949101513 149.983438459 2.21799614513e-18)
(13.9845471721 60.6624348292 -5.21259183782e-19)
(0.170896797908 0.266261762272 5.61610200898e-21)
(0.0903615552494 0.276352951656 -1.45672467949e-19)
(-42.8751187406 112.572514541 -4.98040914976e-21)
(-39.4700564985 124.461051819 1.79124613983e-20)
(-34.2495079126 136.657429824 1.52058659699e-19)
(-26.4987288531 149.114971301 -7.12095423658e-19)
(-15.4051166663 162.781451255 -7.20465808788e-19)
(0.242044913927 176.281096389 -1.54105802111e-18)
(12.3729534936 167.962101685 -1.28136566114e-17)
(10.9043152528 67.3948102547 -9.82598910447e-19)
(0.0757230346638 0.266980630942 -1.22097944767e-20)
(0.16492991495 0.206598777659 6.00804388889e-22)
(-55.6084967501 115.226671593 5.33487686389e-21)
(-52.6850989085 128.635412095 1.28989273268e-19)
(-48.0362213958 142.941207517 2.50079447155e-19)
(-40.9834689366 158.398345413 1.51036057725e-19)
(-30.7980343258 175.284509494 -5.02241618073e-19)
(-17.0196586728 193.536741115 -3.44353662355e-18)
(-4.1967883237 183.676450117 -1.58478868385e-17)
(3.84446190115 73.4631259786 -2.45010163987e-19)
(0.0752650455263 0.249347803933 -1.95995835597e-20)
(0.286151906209 0.0350040520537 -4.17642992847e-21)
(-69.5579069775 117.14306778 -9.20931581169e-23)
(-67.6438334608 131.987256951 5.94124391854e-20)
(-64.18613655 148.261551013 4.4029823105e-19)
(-58.6242170552 166.229235818 9.04204794022e-19)
(-50.4572833199 185.713325397 4.16523968002e-18)
(-38.9268266745 207.670707949 -2.35102420323e-17)
(-27.0463639769 195.443535244 -2.4874827133e-17)
(-5.53169468107 77.2873590801 -2.46003418488e-18)
(0.204146127078 0.205320374951 2.93274253517e-20)
(0.952582994309 -0.502368924572 8.97665389189e-20)
(-84.5773843108 117.926948284 3.31290665981e-20)
(-84.0880234518 133.94668306 4.9094207032e-20)
(-82.4052182222 151.852646813 3.28569922097e-19)
(-79.077979417 172.000333101 7.18426962161e-19)
(-73.6874213966 194.011941487 3.63809934987e-18)
(-65.2179711092 218.231677769 -6.67006165452e-18)
(-54.2343681709 205.124276569 -3.96534293969e-17)
(-16.8229366199 81.1454596231 -3.0467793207e-18)
(0.398766108413 0.237066482652 4.09038859254e-20)
(2.1517145827 -0.418146981652 -8.2497484576e-21)
(-100.416442131 117.237750731 7.06481212556e-21)
(-101.713557335 134.092473411 6.9058803064e-20)
(-102.219752669 153.154265868 1.65869148337e-19)
(-101.61960907 174.799046978 3.78914221874e-19)
(-99.6227632237 198.665657537 1.76982472435e-18)
(-95.0699255654 224.548428265 -9.42979192538e-19)
(-84.6742454838 211.253799378 -7.46666880903e-20)
(-31.2705288768 84.1632896202 -1.03511010887e-18)
(0.395018278579 0.400955657845 -1.7302285511e-20)
(2.90447375294 0.55701266999 1.76502035054e-19)
(-116.757914156 114.773144276 1.3414689849e-20)
(-120.109110831 132.076295659 2.5695399846e-20)
(-123.116739588 151.827391139 6.44325849189e-20)
(-125.529978872 174.410213246 2.54317664212e-19)
(-127.093127808 199.602092778 2.02679109971e-19)
(-126.605500983 226.927078558 5.47819289539e-19)
(-117.548973696 215.105177188 -1.72879784888e-17)
(-48.5415658852 87.3983678052 -1.6092152789e-18)
(-0.210741514738 0.675588094421 -8.08152736323e-22)
(0.164435071595 4.59626734093 -3.42720290537e-20)
(-133.212466248 110.327736059 2.11048206205e-20)
(-138.825092963 127.660993127 3.02885741232e-20)
(-144.566436889 147.612574202 9.57157782784e-20)
(-150.253330944 170.632074035 1.49146979091e-19)
(-155.676063364 196.754981433 -2.05046916554e-19)
(-159.622081306 225.522023235 3.73346894802e-18)
(-151.538531632 215.883867789 7.52477084771e-18)
(-66.3581103173 90.0003054023 -3.23561653843e-19)
(-0.811765226463 0.460355452815 2.5638594292e-20)
(-2.70471685653 0.819965273972 1.67702882254e-19)
(-149.388552181 103.766600779 -1.83245513893e-20)
(-157.389354709 120.643792137 -3.58380509264e-20)
(-166.04303749 140.278906228 4.5382654872e-20)
(-175.295871711 163.164241597 3.13157845259e-19)
(-185.002724826 189.733323689 -2.29866742178e-19)
(-193.948715016 220.539815639 5.20099359777e-19)
(-187.230796117 215.161425415 1.13034143442e-18)
(-83.4649249398 92.8853740539 -2.03085341921e-18)
(-0.876489795991 0.355630001776 2.51633364799e-21)
(-2.38336304955 0.0355581543134 -4.65030790826e-20)
(-164.865825096 95.0140652392 1.49730139329e-20)
(-175.279791511 110.931377541 2.78030952874e-20)
(-186.935326517 129.606193597 2.29792359444e-20)
(-199.896407151 151.59434932 6.43671788865e-19)
(-214.16349613 177.639832712 4.7981713053e-18)
(-228.640884651 209.246613972 -1.29473121017e-18)
(-226.155044443 210.660680334 -1.94604531276e-17)
(-102.181210618 96.1596144019 -4.39634220784e-18)
(-0.781355545931 0.299425784974 -5.24837360761e-21)
(-1.34640206637 -0.479252604032 -1.62066422658e-21)
(-179.158505865 84.0733082217 1.02176244314e-20)
(-191.949159994 98.5033742017 6.57121844594e-20)
(-206.553966856 115.570380532 1.40242246272e-19)
(-223.234422178 135.847998923 3.08454415468e-19)
(-242.223683748 160.247959741 -1.23643702161e-18)
(-262.918025577 191.309061935 7.36046421832e-18)
(-269.023874105 203.566218854 1.96966829627e-17)
(-126.674057045 100.694254441 -1.85181437939e-17)
(-0.817222353041 0.376410435376 1.49566199528e-20)
(-0.483477775363 0.279060212067 -1.79697152848e-19)
(-191.822439549 71.0546267141 -7.19458122409e-20)
(-206.801542178 83.4760354967 -2.11739195354e-20)
(-224.135127636 98.2222637824 -9.42663956039e-20)
(-244.245828891 115.718674798 -1.33145656328e-19)
(-267.581188632 136.602657906 7.02150923511e-19)
(-293.780894697 163.157792377 6.86174520961e-18)
(-317.504631294 185.464469152 -7.34720605003e-18)
(-166.085314071 101.493824224 1.41461043141e-19)
(-1.22158752586 0.524982574387 -5.20876843938e-20)
(-0.387139616879 0.815017140266 3.26549881466e-19)
(-202.432134941 56.1787847142 -1.09954013647e-19)
(-219.251640937 66.1281456711 4.86778859907e-22)
(-238.907272567 77.9797116346 -4.33308731979e-21)
(-261.825153959 91.9899265541 -1.79631220964e-20)
(-288.528302125 108.794494904 -1.15086773028e-18)
(-318.724554055 130.034596116 1.21515835596e-17)
(-357.49234494 150.32886514 1.06584581312e-17)
(-212.509607068 98.7864401222 -1.52158319051e-18)
(-3.14298484971 1.51892234655 -1.52422771701e-19)
(-1.00519534594 0.827088910373 8.25082684936e-20)
)
;

boundaryField
{
    back
    {
        type            calculated;
        value           uniform (0 0 0);
    }
    sides
    {
        type            calculated;
        value           uniform (0 0 0);
    }
    bottom
    {
        type            calculated;
        value           nonuniform List<vector> 0();
    }
    front
    {
        type            calculated;
        value           uniform (0 0 0);
    }
    atmosphere
    {
        type            calculated;
        value           nonuniform List<vector> 
16
(
(-1.29518951443 1.45686357073 1.81418930905e-20)
(7.60963131227 -1.45222295842 -1.88079839341e-19)
(0.265808455126 -0.0990838057438 2.37099877316e-20)
(0.0836809865873 0.276309630461 1.53565500711e-20)
(-1.14358349422 0.207098911283 -1.56625377619e-19)
(0.289346032195 0.0345424969376 2.39973552601e-21)
(-0.697431422276 -0.503307259473 8.90891639049e-20)
(2.12925565015 -0.418146981652 -3.13495247734e-20)
(2.88680276019 0.55701266999 1.42163346683e-19)
(0.156875802126 4.59626734093 -5.32819437191e-20)
(-2.70008362672 0.819965273982 1.58835386239e-19)
(-2.36610296099 0.0355581543823 -9.34104751462e-20)
(-0.323350108189 -0.479148877025 1.0518307649e-19)
(-0.41875917827 0.273579434155 -1.86797548352e-19)
(2.44031437887 0.801858523041 3.22834717852e-19)
(5.45303538269 0.811726999344 -4.64618810043e-19)
)
;
    }
    floatingObject
    {
        type            calculated;
        value           nonuniform List<vector> 0();
    }
    procBoundary1to0
    {
        type            processor;
        value           nonuniform List<vector> 10((-210.556522738 39.8002172774 1.12207152478e-20) (-228.882601808 46.9483530289 4.31700825995e-20) (-250.387226901 55.4943562901 1.44345272608e-20) (-275.480315355 65.7039694005 -3.75538959724e-20) (-304.657959801 78.107087738 -2.90138163739e-18) (-338.285049788 93.800702246 -2.34476605586e-18) (-385.169137932 115.447850234 1.04313818171e-18) (-240.432362558 85.2392528311 -8.43519038027e-19) (-7.59200312255 2.998508307 8.21974797412e-19) (-2.61128613449 -0.374817590393 2.36100498531e-19));
    }
    procBoundary1to2
    {
        type            processor;
        value           nonuniform List<vector> 
18
(
(-5.19726215483 75.9263615016 -3.16849194397e-19)
(-14.8514243996 76.7392540819 -1.03800767671e-19)
(-25.1424086687 77.3081107398 3.20780253306e-20)
(-35.043197949 88.5837628741 -1.66468571337e-20)
(-35.043197949 88.5837628741 -1.66468571337e-20)
(-45.0269118409 101.007799996 1.30551610522e-20)
(-45.0269118409 101.007799996 1.30551610522e-20)
(-57.2950852493 102.532092648 -3.91321328968e-21)
(-70.3902113561 103.436265907 -7.81802245976e-21)
(-84.2284955379 103.4076206 6.94177874353e-21)
(-98.6034459919 102.158094795 -3.77725219956e-21)
(-113.244708157 99.4635489886 -1.9372280402e-21)
(-127.860698653 95.141069865 4.14813772329e-20)
(-142.115172738 89.1051870551 3.57582583863e-20)
(-155.619610377 81.2757440934 -1.41090875528e-20)
(-168.011801147 71.6919862546 1.9914638825e-21)
(-178.923913666 60.4506024139 3.16271082587e-20)
(-187.995377616 47.7190561576 4.18879848628e-20)
)
;
    }
}


// ************************************************************************* //
