/*--------------------------------*- C++ -*----------------------------------*\
| =========                 |                                                 |
| \\      /  F ield         | OpenFOAM: The Open Source CFD Toolbox           |
|  \\    /   O peration     | Version:  v2012                                 |
|   \\  /    A nd           | Website:  www.openfoam.com                      |
|    \\/     M anipulation  |                                                 |
\*---------------------------------------------------------------------------*/
FoamFile
{
    version     2.0;
    format      ascii;
    class       volScalarField;
    location    "5.6";
    object      ddt0(epsilon);
}
// * * * * * * * * * * * * * * * * * * * * * * * * * * * * * * * * * * * * * //

dimensions      [0 2 -4 0 0 0 0];


internalField   nonuniform List<scalar> 
164
(
-0.000296782770303
-0.000298214754544
-0.00029984450178
-0.000301576169549
-0.000302426782334
-0.000297696200742
-0.000277297019679
-0.00028021632676
-0.000406295833825
0.00403043466194
0.0614532215907
0.146748110162
-0.000296623877403
-0.000298107719478
-0.000299838196809
-0.000301811621007
-0.00030347069707
-0.000301655296431
-0.000292757787357
-0.000351261228157
-0.000865972136335
-0.000137558639127
0.0491675444362
0.733891607967
-0.000299744762867
-0.000301977309045
-0.000304475916444
-0.000305617712409
-0.00030474184405
-0.000367750225407
-0.000769373761353
0.000669643364222
0.0422706336125
0.356938710932
-0.000299577283501
-0.000302108610833
-0.000305621970357
-0.000310166175552
-0.00031838296765
-0.000389375654985
-0.000542749902911
0.00305500456977
0.0354141928075
0.0392535265141
-0.00029937030811
-0.000302273876132
-0.000307038110151
-0.000315657895868
-0.000333652216733
-0.000410020815976
-0.000481615833256
0.00413037652241
0.0339460315942
0.0156230823087
-0.000299157107695
-0.000302583460407
-0.000309045738943
-0.00032288926694
-0.000356437200468
-0.000464480686086
-0.000611467222892
0.00397222077057
0.0333993069043
0.0143183079118
-0.000298926653227
-0.00030305181294
-0.000311770718207
-0.000332821572825
-0.000382805333484
-0.000546461300219
-0.000949668723398
0.00225258247458
0.0278652972886
0.0119421721562
-0.000298654746866
-0.000303596420996
-0.000314801169164
-0.00034258648217
-0.00041823897696
-0.000685153770137
-0.00147437553386
0.000369546523247
0.0448185304692
0.0495365688911
-0.000298356888561
-0.000304256756811
-0.000318385999557
-0.000354031579895
-0.000449231630099
-0.000765098815741
-0.0017730773565
-0.00107615932787
0.0420796439664
0.125192601911
-0.000297953306934
-0.000304723976753
-0.000321483753292
-0.00036416660965
-0.000477007087075
-0.000832208375074
-0.00193658687491
-0.00269084166492
0.0342012611378
0.326730474956
-0.000297365672954
-0.000304686668088
-0.000323064125304
-0.00037012740408
-0.000494963063649
-0.000877745259509
-0.00199915081827
-0.00370510865465
0.0241803426082
0.510586500009
-0.000296624192081
-0.000304178697137
-0.000323170705302
-0.000372104796355
-0.000504656890651
-0.000914661205749
-0.00204668708411
-0.00341081603481
0.00647622412246
0.320819051084
-0.000295866395038
-0.00030360797494
-0.00032291834916
-0.000372906699032
-0.000511870660484
-0.00095436240478
-0.00216777556271
-0.00294984406861
0.0153996119806
0.200575304398
-0.000295132979472
-0.000303089287702
-0.000322787856402
-0.000374252832905
-0.000521334896867
-0.00100274106627
-0.00236513536438
-0.00370792165854
0.0184517016938
0.524142013256
-0.000294290394059
-0.000302226670464
-0.000321740994167
-0.000374194500524
-0.000530401345409
-0.00105396399724
-0.00257989508752
-0.00453257534524
0.0151686808552
1.08544666578
-0.000293488814257
-0.000300991199326
-0.000319536687288
-0.000372175724813
-0.000539201239464
-0.00110999505637
-0.00278694917824
-0.0053219039262
0.00766128854373
0.478905562185
)
;

boundaryField
{
    back
    {
        type            calculated;
        value           nonuniform List<scalar> 
164
(
-0.000296782770303
-0.000298214754544
-0.00029984450178
-0.000301576169549
-0.000302426782334
-0.000297696200742
-0.000277297019679
-0.00028021632676
-0.000406295833825
0.00403043466194
0.0614532215907
0.146748110162
-0.000296623877403
-0.000298107719478
-0.000299838196809
-0.000301811621007
-0.00030347069707
-0.000301655296431
-0.000292757787357
-0.000351261228157
-0.000865972136335
-0.000137558639127
0.0491675444362
0.733891607967
-0.000299744762867
-0.000301977309045
-0.000304475916444
-0.000305617712409
-0.00030474184405
-0.000367750225407
-0.000769373761353
0.000669643364221
0.0422706336125
0.356938710932
-0.000299577283501
-0.000302108610833
-0.000305621970357
-0.000310166175552
-0.00031838296765
-0.000389375654985
-0.000542749902911
0.00305500456977
0.0354141928075
0.0392535265141
-0.00029937030811
-0.000302273876132
-0.000307038110151
-0.000315657895868
-0.000333652216733
-0.000410020815976
-0.000481615833256
0.00413037652241
0.0339460315942
0.0156230823087
-0.000299157107695
-0.000302583460407
-0.000309045738943
-0.00032288926694
-0.000356437200468
-0.000464480686086
-0.000611467222892
0.00397222077057
0.0333993069043
0.0143183079118
-0.000298926653227
-0.00030305181294
-0.000311770718207
-0.000332821572825
-0.000382805333484
-0.000546461300219
-0.000949668723398
0.00225258247458
0.0278652972886
0.0119421721562
-0.000298654746866
-0.000303596420996
-0.000314801169164
-0.00034258648217
-0.00041823897696
-0.000685153770137
-0.00147437553386
0.000369546523247
0.0448185304692
0.0495365688911
-0.000298356888561
-0.000304256756811
-0.000318385999557
-0.000354031579895
-0.000449231630099
-0.000765098815741
-0.0017730773565
-0.00107615932787
0.0420796439664
0.125192601911
-0.000297953306934
-0.000304723976753
-0.000321483753292
-0.00036416660965
-0.000477007087075
-0.000832208375074
-0.00193658687491
-0.00269084166492
0.0342012611378
0.326730474956
-0.000297365672954
-0.000304686668088
-0.000323064125304
-0.00037012740408
-0.000494963063649
-0.000877745259509
-0.00199915081827
-0.00370510865465
0.0241803426082
0.510586500009
-0.00029662419208
-0.000304178697137
-0.000323170705302
-0.000372104796355
-0.000504656890651
-0.000914661205749
-0.00204668708411
-0.00341081603481
0.00647622412246
0.320819051084
-0.000295866395038
-0.00030360797494
-0.00032291834916
-0.000372906699032
-0.000511870660484
-0.00095436240478
-0.00216777556271
-0.00294984406861
0.0153996119806
0.200575304398
-0.000295132979472
-0.000303089287702
-0.000322787856402
-0.000374252832905
-0.000521334896867
-0.00100274106627
-0.00236513536438
-0.00370792165854
0.0184517016938
0.524142013256
-0.000294290394059
-0.000302226670464
-0.000321740994167
-0.000374194500524
-0.000530401345409
-0.00105396399724
-0.00257989508752
-0.00453257534524
0.0151686808552
1.08544666578
-0.000293488814257
-0.000300991199326
-0.000319536687288
-0.000372175724813
-0.000539201239464
-0.00110999505637
-0.00278694917824
-0.0053219039262
0.00766128854373
0.478905562185
)
;
    }
    sides
    {
        type            calculated;
        value           nonuniform List<scalar> 0();
    }
    bottom
    {
        type            calculated;
        value           nonuniform List<scalar> 0();
    }
    front
    {
        type            calculated;
        value           nonuniform List<scalar> 
164
(
-0.000296782770303
-0.000298214754544
-0.00029984450178
-0.000301576169549
-0.000302426782334
-0.000297696200742
-0.000277297019679
-0.00028021632676
-0.000406295833825
0.00403043466194
0.0614532215907
0.146748110162
-0.000296623877403
-0.000298107719478
-0.000299838196809
-0.000301811621007
-0.00030347069707
-0.000301655296431
-0.000292757787357
-0.000351261228157
-0.000865972136335
-0.000137558639127
0.0491675444362
0.733891607967
-0.000299744762867
-0.000301977309045
-0.000304475916444
-0.000305617712409
-0.00030474184405
-0.000367750225407
-0.000769373761353
0.000669643364221
0.0422706336125
0.356938710932
-0.000299577283501
-0.000302108610833
-0.000305621970357
-0.000310166175552
-0.00031838296765
-0.000389375654985
-0.000542749902911
0.00305500456977
0.0354141928075
0.0392535265141
-0.00029937030811
-0.000302273876132
-0.000307038110151
-0.000315657895868
-0.000333652216733
-0.000410020815976
-0.000481615833256
0.00413037652241
0.0339460315942
0.0156230823087
-0.000299157107695
-0.000302583460407
-0.000309045738943
-0.00032288926694
-0.000356437200468
-0.000464480686086
-0.000611467222892
0.00397222077057
0.0333993069043
0.0143183079118
-0.000298926653227
-0.00030305181294
-0.000311770718207
-0.000332821572825
-0.000382805333484
-0.000546461300219
-0.000949668723398
0.00225258247458
0.0278652972886
0.0119421721562
-0.000298654746866
-0.000303596420996
-0.000314801169164
-0.00034258648217
-0.00041823897696
-0.000685153770137
-0.00147437553386
0.000369546523247
0.0448185304692
0.0495365688911
-0.000298356888561
-0.000304256756811
-0.000318385999557
-0.000354031579895
-0.000449231630099
-0.000765098815741
-0.0017730773565
-0.00107615932787
0.0420796439664
0.125192601911
-0.000297953306934
-0.000304723976753
-0.000321483753292
-0.00036416660965
-0.000477007087075
-0.000832208375074
-0.00193658687491
-0.00269084166492
0.0342012611378
0.326730474956
-0.000297365672954
-0.000304686668088
-0.000323064125304
-0.00037012740408
-0.000494963063649
-0.000877745259509
-0.00199915081827
-0.00370510865465
0.0241803426082
0.510586500009
-0.00029662419208
-0.000304178697137
-0.000323170705302
-0.000372104796355
-0.000504656890651
-0.000914661205749
-0.00204668708411
-0.00341081603481
0.00647622412246
0.320819051084
-0.000295866395038
-0.00030360797494
-0.00032291834916
-0.000372906699032
-0.000511870660484
-0.00095436240478
-0.00216777556271
-0.00294984406861
0.0153996119806
0.200575304398
-0.000295132979472
-0.000303089287702
-0.000322787856402
-0.000374252832905
-0.000521334896867
-0.00100274106627
-0.00236513536438
-0.00370792165854
0.0184517016938
0.524142013256
-0.000294290394059
-0.000302226670464
-0.000321740994167
-0.000374194500524
-0.000530401345409
-0.00105396399724
-0.00257989508752
-0.00453257534524
0.0151686808552
1.08544666578
-0.000293488814257
-0.000300991199326
-0.000319536687288
-0.000372175724813
-0.000539201239464
-0.00110999505637
-0.00278694917824
-0.0053219039262
0.00766128854373
0.478905562185
)
;
    }
    atmosphere
    {
        type            calculated;
        value           nonuniform List<scalar> 
16
(
0.000282112149394
-0.200188241346
-0.038799619122
-4.11973904165e-08
5.8549165818e-08
5.89631199759e-07
0.000116898416736
0.000452167156227
-0.00416231030848
-0.0120693254592
0.0298675370858
0.0816069507745
0.427014502272
0.305118322488
-0.207034966104
0.00305935763127
)
;
    }
    floatingObject
    {
        type            calculated;
        value           nonuniform List<scalar> 0();
    }
    procBoundary5to0
    {
        type            processor;
        value           nonuniform List<scalar> 
12
(
-0.00029684030865
-0.000298222212245
-0.000299756478598
-0.00030125816527
-0.000301377992631
-0.000293931383979
-0.000262176792943
-0.000206751401898
6.24009797351e-05
0.00699343753734
0.0638543229632
0.0480757517368
)
;
    }
    procBoundary5to3
    {
        type            processor;
        value           nonuniform List<scalar> 10(-0.000292900919417 -0.000300073366229 -0.000318028577398 -0.000372245260621 -0.000554808497336 -0.00117929150523 -0.00295304761087 -0.00601090107806 -0.00537807141057 -0.0150666840282);
    }
    procBoundary5to4
    {
        type            processor;
        value           nonuniform List<scalar> 
18
(
-0.000295524971293
-0.000295334094134
-0.000296382508885
-0.000297919295075
-0.000297919295075
-0.000297651949334
-0.000297315627331
-0.000296922186273
-0.000296461784984
-0.000295926664859
-0.000295325883994
-0.000294644186972
-0.000293874655668
-0.000293039786814
-0.000292186252991
-0.000291333885069
-0.00029051269452
-0.000289716566624
)
;
    }
}


// ************************************************************************* //
