/*--------------------------------*- C++ -*----------------------------------*\
| =========                 |                                                 |
| \\      /  F ield         | OpenFOAM: The Open Source CFD Toolbox           |
|  \\    /   O peration     | Version:  v2012                                 |
|   \\  /    A nd           | Website:  www.openfoam.com                      |
|    \\/     M anipulation  |                                                 |
\*---------------------------------------------------------------------------*/
FoamFile
{
    version     2.0;
    format      ascii;
    class       volVectorField;
    location    "5.6";
    object      U;
}
// * * * * * * * * * * * * * * * * * * * * * * * * * * * * * * * * * * * * * //

dimensions      [0 1 -1 0 0 0 0];


internalField   nonuniform List<vector> 
164
(
(0.018903634073 -0.00623114449612 3.72909215483e-25)
(0.0195682084686 -0.00719694442151 2.56890240371e-24)
(0.0202931033159 -0.00822876754626 2.79262975621e-23)
(0.0210883956035 -0.00932981786764 3.72798157099e-23)
(0.021916963809 -0.010504611314 -2.26220314446e-23)
(0.0228088673426 -0.0117939565196 -2.62965472549e-22)
(0.023979460697 -0.0133325791224 -6.50165046619e-22)
(0.0256641422203 -0.0152728778216 5.46492789608e-22)
(0.0272036331854 -0.0181485509389 -3.41832592502e-21)
(0.0282734998238 -0.0137141995336 -6.01150362222e-21)
(-0.0367558643363 -0.0232798644953 -3.3034289268e-21)
(-0.0115049687772 -0.0450153086826 -1.5138960606e-21)
(0.0197917387784 -0.00554286953014 5.62746573913e-24)
(0.0205253710363 -0.00642107039471 1.93372420011e-23)
(0.02130825539 -0.00736446664213 2.45331101272e-23)
(0.0221749127811 -0.00837596970666 4.88733420377e-23)
(0.0231236570784 -0.00948324956937 5.86220516935e-23)
(0.0241811788068 -0.0107073059162 -8.06920687568e-23)
(0.0255953196697 -0.0121128306969 -2.20897046619e-22)
(0.0274691566155 -0.0136483572083 1.02300883807e-21)
(0.0289578264593 -0.0159276491514 -2.34056694465e-21)
(0.0305503467758 -0.0110179288235 -2.04429921816e-21)
(-0.0197802121996 -0.021688769334 1.83563014175e-20)
(-0.00407396422092 -0.0465801922012 2.0182520335e-20)
(0.022249580756 -0.00638314734886 4.04813729012e-23)
(0.0231934975029 -0.0073201096446 7.36829783365e-23)
(0.0242556957442 -0.00835807625406 7.65757147625e-23)
(0.02548890442 -0.00951920056178 -1.85919372794e-22)
(0.0271734967531 -0.0109484138127 -7.31392231512e-22)
(0.0292788063577 -0.0123668337334 -8.50316852812e-22)
(0.030763974725 -0.0160691841331 -5.38229428629e-21)
(0.0331987119084 -0.0109764386602 -1.01686577722e-20)
(-0.0052159115979 -0.0215693610509 -1.56683741727e-20)
(0.0013717339407 -0.0375479681955 -1.058893543e-20)
(0.0230843600154 -0.00536733997672 4.53112065878e-23)
(0.0241232104687 -0.00619241545551 7.30876327752e-23)
(0.0252996384781 -0.00711681412052 -6.1343429358e-24)
(0.0267348896727 -0.00816524346772 -5.25235724251e-22)
(0.0288270682069 -0.00961658092911 -2.50546197549e-21)
(0.0314109171402 -0.0109651960989 -3.6925717057e-21)
(0.0333668350856 -0.0159377619039 -5.90769073371e-21)
(0.0361990429132 -0.0105957022216 -8.09926330341e-21)
(0.00235483577464 -0.0221433827066 -2.45558437443e-20)
(0.00579325844861 -0.0290641750337 -1.98835989579e-20)
(0.0237886172598 -0.00427692585836 4.27862898431e-23)
(0.0249184791994 -0.00495991817343 4.25508159973e-23)
(0.0262090219214 -0.00573944898666 -1.53282151993e-22)
(0.0278776166168 -0.0066144546655 -9.6063056626e-22)
(0.0305598539486 -0.00810713837099 -2.62036347954e-21)
(0.0337872397336 -0.00909932588304 1.46688300049e-22)
(0.0364706513148 -0.014987663577 -7.87409361724e-21)
(0.0392315632626 -0.00954586525855 -1.9722564783e-20)
(0.00577051015019 -0.0218097028713 -4.14583272132e-20)
(0.00915813411443 -0.0233893188807 -3.39419627833e-20)
(0.0243545514904 -0.00312390534784 4.78816241515e-23)
(0.0255489508153 -0.00367217036685 1.75513342014e-23)
(0.0269253447366 -0.00428258553011 -2.53835980345e-22)
(0.0288077428287 -0.00489777263058 -9.93137229564e-22)
(0.032123250864 -0.00641548694926 -2.80981237054e-21)
(0.0363837932137 -0.00696145393105 -1.09056654894e-21)
(0.0397709090267 -0.013462492882 -8.39261431436e-21)
(0.0423624839225 -0.00810115679173 -1.75116882265e-20)
(0.00695371662919 -0.0204786386191 -3.89879014922e-20)
(0.0124787065988 -0.0192289336579 -2.92362949965e-20)
(0.0248041188443 -0.00196401538538 6.28113897949e-23)
(0.0260344713737 -0.00240866841477 6.78162714271e-23)
(0.0274633164794 -0.00290211102717 1.77607791403e-22)
(0.0295504655894 -0.00331897572418 -1.64993883075e-22)
(0.0333640750187 -0.00472052311129 1.39993723924e-21)
(0.0388459422955 -0.00473186371644 -5.03467620157e-21)
(0.042962652834 -0.0110347144587 -2.3411075634e-21)
(0.0453382127598 -0.00564970045056 2.47521382328e-21)
(0.00845770862558 -0.0169039810732 -6.30151356458e-21)
(0.0155164736145 -0.0200726037144 -1.84654393927e-21)
(0.0251792702545 -0.000820049973726 2.928841501e-23)
(0.0264497467786 -0.00121793549117 1.03348308122e-22)
(0.0279339698134 -0.00169239130832 7.10811683421e-22)
(0.0302270117926 -0.00217575808823 2.58061482895e-21)
(0.0344649286555 -0.0035225502461 7.46467941134e-21)
(0.0406272138908 -0.00289338332045 1.19426882806e-20)
(0.0450241779128 -0.00760447977338 1.62324431854e-20)
(0.0480858335118 -0.00190127217413 2.52089096751e-20)
(0.0179714389274 -0.0125488286166 2.49583526339e-20)
(0.0217103621481 -0.0325184856673 2.041177371e-20)
(0.0255208951756 0.000367903782328 1.14553896085e-22)
(0.0268908847943 -2.74050043018e-05 4.89048899225e-22)
(0.028521928247 -0.00059940826175 2.61741727653e-21)
(0.0310183343666 -0.00127506926056 9.33525754582e-21)
(0.0353557225755 -0.00259503699611 2.40827427444e-20)
(0.041303431234 -0.00156073240886 3.35539836696e-20)
(0.0454052018295 -0.0045534167702 4.43954752426e-20)
(0.0494900593463 0.00201001574785 4.56893240369e-20)
(0.0313616868225 -0.00699231197476 6.67475622552e-20)
(0.0315651718066 -0.0267078234257 5.6614462813e-20)
(0.0258495187482 0.00170120058076 2.28285433594e-22)
(0.0274170070631 0.00129474862891 1.10861311535e-21)
(0.0293032660726 0.000618142009546 5.23672290506e-21)
(0.0319678413558 -0.000273071938067 1.75512505761e-20)
(0.0360438271374 -0.00156673208582 4.21048361554e-20)
(0.0412109139166 -0.000453430065655 6.67179806293e-20)
(0.044695299154 -0.00317776461844 8.29823833156e-20)
(0.0497509298054 0.00408111464313 8.29477970618e-20)
(0.0416670971875 -0.00463342261199 9.7396361622e-20)
(0.0423496850604 -0.0183165061751 7.76368452475e-20)
(0.0261263933035 0.00323720354025 3.3895710157e-22)
(0.0279743148741 0.00291252930123 1.48046238239e-21)
(0.030164235739 0.00227109203479 6.41121782573e-21)
(0.032960809194 0.00136754061815 2.12093476167e-20)
(0.0366776237202 0.000214850327212 5.13758876251e-20)
(0.0409737768942 0.00114022840317 8.36800245872e-20)
(0.0442347889919 -0.00192602989079 9.98197425819e-20)
(0.0505071302298 0.00558688174124 1.01948645073e-19)
(0.0507649955347 -0.00582238885047 1.03022154638e-19)
(0.0542687186695 -0.0200179168738 8.79347320434e-20)
(0.026245764282 0.00503441475527 4.35527067504e-22)
(0.0283754451553 0.00494539307154 1.21048243342e-21)
(0.030864805365 0.00457145121968 4.90606511595e-21)
(0.0337991102425 0.00393707393588 1.63788563893e-20)
(0.0371584432898 0.00308390302115 4.34452996342e-20)
(0.0407350830548 0.00396162303013 6.42436750651e-20)
(0.0443191403162 0.00120500672559 8.7794672611e-20)
(0.0519541517957 0.0088314984976 1.00576723471e-19)
(0.0615122923938 -0.00301219199552 6.72341067504e-20)
(0.0658218081902 -0.0255606245421 6.87214747089e-20)
(0.0260862190107 0.00708505815354 2.61145043575e-22)
(0.0284266323887 0.00732931456499 5.90443877559e-22)
(0.0311486756667 0.00736035875579 2.41561710626e-21)
(0.0341925885901 0.00719741442598 8.36474044463e-21)
(0.0373171015056 0.00682519344037 2.27459584295e-20)
(0.0404532540385 0.00791596579098 4.0826131533e-20)
(0.0444515185615 0.00625009251074 5.292867321e-20)
(0.0528631626724 0.0140567672019 5.14679194091e-20)
(0.0723297913719 0.00640790792672 3.73095717578e-20)
(0.0858890254119 -0.0200119683819 1.69061755118e-20)
(0.0255902613604 0.00933304557958 3.25860662179e-22)
(0.0280777972675 0.0099582071032 4.37367438891e-22)
(0.0309484480913 0.0104422058106 1.33230041613e-21)
(0.0340572876423 0.0108179322307 3.96595721135e-21)
(0.0370694080608 0.0109988096084 1.16594177611e-20)
(0.0400484537397 0.0123783700744 2.04234132338e-20)
(0.0442911459004 0.0115141926568 2.36615496447e-20)
(0.0526614724484 0.0190156263124 3.00776989974e-20)
(0.0818406403293 0.0138478327781 7.07253109245e-21)
(0.108943370866 -0.0175554951559 3.34466369671e-20)
(0.0247209961117 0.011747771126 5.13976631565e-22)
(0.027294070716 0.012817659326 6.46449810124e-22)
(0.0302561568747 0.0138387485089 1.15561479308e-21)
(0.0334259920075 0.0148098404387 2.45871160186e-21)
(0.0364015185639 0.0154907918145 5.09885962252e-21)
(0.0395711567207 0.0170608897106 1.05554464977e-20)
(0.0442138022652 0.0161948798127 7.52191251176e-21)
(0.0526153916429 0.022475648482 9.52411575846e-21)
(0.09467279241 0.0185989054154 7.77384277588e-21)
(0.145880375042 -0.0205475716008 -3.18851533499e-22)
(0.0234165710804 0.0142322551384 2.1828969813e-21)
(0.025965776816 0.0158065498431 2.44609171611e-21)
(0.0289466149977 0.0174789901399 2.82059992112e-21)
(0.0322319144634 0.0191560868779 3.13601878923e-21)
(0.0353787970265 0.0203977421721 3.72969818424e-21)
(0.0390742278385 0.0221337867786 3.29606189136e-21)
(0.044045718641 0.0218679972688 3.00497323206e-21)
(0.0523068872642 0.0266048591451 4.94396643631e-21)
(0.106300270823 0.0258377085142 1.7299778137e-20)
(0.159368208997 0.00590935736188 3.81688854241e-20)
)
;

boundaryField
{
    back
    {
        type            noSlip;
    }
    sides
    {
        type            noSlip;
    }
    bottom
    {
        type            noSlip;
    }
    front
    {
        type            noSlip;
    }
    atmosphere
    {
        type            pressureInletOutletVelocity;
        value           nonuniform List<vector> 
16
(
(0 -0.0450153086826 0)
(0 -0.0465801922012 0)
(0 -0.0375479681955 0)
(0 -0.0290641750337 0)
(0 -0.0233893188807 0)
(0 -0.0192289336579 0)
(0 -0.0200726037144 0)
(0 -0.0325184856673 0)
(0 -0.0267078234257 0)
(0 -0.0183165061751 0)
(0 -0.0200179168738 0)
(0 -0.0255606245421 0)
(0 -0.0200119683819 0)
(0 -0.0175554951559 0)
(0 -0.0205475716008 0)
(0.159368208997 0.00590935736188 3.81688854241e-20)
)
;
    }
    floatingObject
    {
        type            movingWallVelocity;
        value           nonuniform List<vector> 0();
    }
    procBoundary5to0
    {
        type            processor;
        value           nonuniform List<vector> 
12
(
(0.0179286518006 -0.00688583323218 -4.44723162956e-25)
(0.0185339981121 -0.00792839197799 -5.99325306581e-24)
(0.0192014288535 -0.00904059582426 1.95360740212e-23)
(0.0199186804922 -0.0102085686278 1.05386354997e-23)
(0.0206425549641 -0.0114372334437 -1.1110924902e-22)
(0.0213741962057 -0.0127787699932 -5.96508878797e-22)
(0.0222262715954 -0.0144368156044 -6.8705468959e-22)
(0.0234481286565 -0.016633712642 3.02973775659e-22)
(0.0248178870141 -0.0193787494388 -1.10345793213e-21)
(0.0257966995008 -0.0152786453387 -6.44878270949e-21)
(-0.0514696817426 -0.0249569693188 -1.18305311899e-20)
(-0.0174341239683 -0.0504118078176 -5.71754851356e-21)
)
;
    }
    procBoundary5to3
    {
        type            processor;
        value           nonuniform List<vector> 10((0.0216859959006 0.0165844606138 1.23087885725e-20) (0.0240494164216 0.0185977159741 1.40642775256e-20) (0.0268922550475 0.0209578450635 1.45261601071e-20) (0.0303473666898 0.0234326273287 1.27755182063e-20) (0.0340185111219 0.0253102422502 8.13350688268e-21) (0.0385201859375 0.0270270788621 2.20181796546e-21) (0.0435383593883 0.0269076652093 5.18726979894e-22) (0.0504588432725 0.0303339326359 8.28477763995e-21) (0.103793708269 0.0283571443951 2.39994248403e-20) (0.205652810274 0.0614328198754 -4.64148272765e-21));
    }
    procBoundary5to4
    {
        type            processor;
        value           nonuniform List<vector> 
18
(
(0.0182894815751 -0.00532842988591 -5.01325776085e-24)
(0.0191101574747 -0.00473440523516 -1.32129580978e-24)
(0.0205759929205 -0.00477436884771 2.33512622353e-23)
(0.0213875166573 -0.00553548486698 2.91973573186e-23)
(0.0213875166573 -0.00553548486698 2.91973573186e-23)
(0.0221275789554 -0.00463203254324 2.73270747972e-23)
(0.0227583104639 -0.00366846788242 4.47115892207e-23)
(0.0232745248188 -0.00262973391221 4.03449618221e-23)
(0.0236783117238 -0.00156963896059 4.41127356877e-23)
(0.0239948126699 -0.000496667407568 8.30179810541e-23)
(0.0242497228775 0.000637246650324 1.12435975446e-22)
(0.0244351271651 0.00190418076189 1.26454194124e-22)
(0.0245062277033 0.00331927335979 1.1613259465e-22)
(0.0244101598843 0.004906199417 1.63466019476e-22)
(0.0240813477692 0.00667465801742 2.28799516722e-22)
(0.0234620249854 0.00859835140747 2.36860748891e-22)
(0.0225129273963 0.0106444356192 4.68331811338e-22)
(0.0212051977682 0.0127476944101 2.0118804025e-21)
)
;
    }
}


// ************************************************************************* //
