/*--------------------------------*- C++ -*----------------------------------*\
| =========                 |                                                 |
| \\      /  F ield         | OpenFOAM: The Open Source CFD Toolbox           |
|  \\    /   O peration     | Version:  v2012                                 |
|   \\  /    A nd           | Website:  www.openfoam.com                      |
|    \\/     M anipulation  |                                                 |
\*---------------------------------------------------------------------------*/
FoamFile
{
    version     2.0;
    format      ascii;
    class       volVectorField;
    location    "5.6";
    object      U_0;
}
// * * * * * * * * * * * * * * * * * * * * * * * * * * * * * * * * * * * * * //

dimensions      [0 1 -1 0 0 0 0];


internalField   nonuniform List<vector> 
164
(
(0.0227895574784 -0.00559001558737 5.41337159595e-25)
(0.0235581300659 -0.0064460499139 2.50947668667e-24)
(0.0243969852502 -0.00735476484394 2.70242133946e-23)
(0.0253158516191 -0.00831652944651 3.86242016561e-23)
(0.0262763642952 -0.00933169285053 -1.89345288687e-23)
(0.0273065133858 -0.0104359299234 -2.57020226233e-22)
(0.0286222394209 -0.0117606288284 -6.64728486963e-22)
(0.0304627402414 -0.013414711202 5.83226527456e-22)
(0.0321733345273 -0.0160107243567 -3.29749532313e-21)
(0.0337128729712 -0.0116395013842 -6.11008078074e-21)
(-0.0248756685892 -0.0201070537888 -3.54718130702e-21)
(-0.00447263724327 -0.0401157689804 -1.70783365192e-21)
(0.0235694529533 -0.00480946450398 5.80245390876e-24)
(0.0243950759836 -0.00556906757651 1.95631021319e-23)
(0.0252777289665 -0.00638127871253 2.44213238296e-23)
(0.0262502655483 -0.00724648829903 4.92080857308e-23)
(0.027309194309 -0.00818880771452 6.06278668595e-23)
(0.0284774326977 -0.0092235381299 -7.90467977382e-23)
(0.0300033325112 -0.0104129005177 -2.24583506936e-22)
(0.0319932011144 -0.0116660907113 1.07411848348e-21)
(0.0335899335303 -0.0136635389542 -2.63830246669e-21)
(0.0353258647443 -0.00883440213445 -2.17852342587e-21)
(-0.0105986915391 -0.0183595295502 2.1445472769e-20)
(0.002408136697 -0.0388144027414 2.41113787468e-20)
(0.0260789968428 -0.00530704861997 4.05047991291e-23)
(0.0271124899434 -0.00609353987523 7.49496536836e-23)
(0.0282644715734 -0.00696442603057 7.83843796619e-23)
(0.0295833610674 -0.00793607508636 -1.82735694041e-22)
(0.0313505310644 -0.00915628217557 -7.41741992916e-22)
(0.0335399119332 -0.0102881097184 -8.16932511276e-22)
(0.0350435211594 -0.0137404950292 -5.59149839589e-21)
(0.0373407487587 -0.00870886051773 -1.03441367876e-20)
(0.00117641042294 -0.0182995720646 -1.58514485392e-20)
(0.0064618029338 -0.0311130830871 -1.09604021104e-20)
(0.0267693295863 -0.00421132333503 4.46080683643e-23)
(0.0278839172432 -0.0048850311399 7.49650430274e-23)
(0.0291331169865 -0.00564469515601 -5.0179248824e-24)
(0.0306323347578 -0.00650922848669 -5.17270161618e-22)
(0.0327780833985 -0.00775753534015 -2.49443482111e-21)
(0.0354160651451 -0.00884295305942 -3.64802872033e-21)
(0.0373483120792 -0.0136021280647 -5.96023057157e-21)
(0.0399414116496 -0.00828164219328 -7.85736951523e-21)
(0.00798555372462 -0.0194062576238 -2.55057639006e-20)
(0.0107141732863 -0.0261471228304 -2.08823821091e-20)
(0.0273286457971 -0.00305253574157 4.24503752395e-23)
(0.0285226967549 -0.00358644266414 4.46316571264e-23)
(0.0298727841244 -0.00420724764824 -1.52443324709e-22)
(0.0315902292475 -0.00491241061018 -9.3135295461e-22)
(0.0343044104601 -0.00621908938014 -2.60434829777e-21)
(0.0375711349228 -0.0069635908088 2.42880092746e-22)
(0.0402213390821 -0.0127131769273 -8.07683785853e-21)
(0.0428091242669 -0.00731643016946 -1.99763735963e-20)
(0.0119877764801 -0.019717405351 -4.33909314302e-20)
(0.0142627001518 -0.0226176922621 -3.51720459067e-20)
(0.0277508049243 -0.00184025440166 4.81771151082e-23)
(0.0290005477628 -0.00224303687323 1.98483406952e-23)
(0.0304265454004 -0.00270104085242 -2.50479223552e-22)
(0.0323476222989 -0.00316346772714 -9.70385510398e-22)
(0.0356596839811 -0.00450690472487 -2.80700515517e-21)
(0.0400202063139 -0.00483754472076 -1.0341561504e-21)
(0.0433567531341 -0.0112701603783 -8.45617006729e-21)
(0.0460552190334 -0.00598507574987 -1.73781246106e-20)
(0.0149121375797 -0.018903521602 -3.93188043384e-20)
(0.0181065800242 -0.0203256251921 -3.01972717802e-20)
(0.0280587208411 -0.000627647092091 6.29888291262e-23)
(0.0293390902901 -0.000931464193098 6.92836447159e-23)
(0.0308107559892 -0.00128108253445 1.79772859816e-22)
(0.0329296170818 -0.00158835156813 -1.33124178267e-22)
(0.0367467599934 -0.00277604783445 1.46573097489e-21)
(0.04237222825 -0.00259771915086 -4.89191383637e-21)
(0.0463336888604 -0.00883509577551 -2.27445589492e-21)
(0.0491628040688 -0.00351447089522 3.13831523412e-21)
(0.0177886813802 -0.0149814636094 -6.72385364189e-21)
(0.0218145796917 -0.0177367160557 -2.48949305144e-21)
(0.0282946300312 0.000567249276272 2.83594825935e-23)
(0.0296136029098 0.000305080089799 1.02958225459e-22)
(0.0311411040421 -3.53483847287e-05 7.15910035305e-22)
(0.0334686442979 -0.000416948149001 2.62215328732e-21)
(0.0377277675965 -0.00152340271477 7.6212816519e-21)
(0.0439833354732 -0.000891667773478 1.22447520354e-20)
(0.0480578581121 -0.00539105752993 1.66812826901e-20)
(0.0516611328628 0.000443288860903 2.59442542044e-20)
(0.0272440291799 -0.00972440091565 2.51987136795e-20)
(0.0285443247819 -0.0301136372315 2.08791312304e-20)
(0.0284993433365 0.00180613834816 1.13871455241e-22)
(0.0299200912763 0.00154419757456 4.87151107189e-22)
(0.0315976449967 0.00110278256079 2.62211412247e-21)
(0.0341286314036 0.000504891875648 9.40823221743e-21)
(0.0385091580098 -0.000582617449377 2.43406758351e-20)
(0.0444289726181 0.000231135498548 3.41490680709e-20)
(0.0483134166908 -0.00245412376509 4.52761096442e-20)
(0.0526282462485 0.004424235577 4.63889423809e-20)
(0.0393874335296 -0.0042990343476 6.95737299042e-20)
(0.0394684215095 -0.0228634699321 6.08333861763e-20)
(0.0286920702688 0.00319323776874 2.26891115221e-22)
(0.0303159391357 0.00291933267359 1.10417340482e-21)
(0.0322560178906 0.00236502646499 5.24027242851e-21)
(0.0349643743501 0.0015693330823 1.76319613625e-20)
(0.0391164109308 0.000431905194755 4.24158128713e-20)
(0.0441925753551 0.00125780658737 6.73012392222e-20)
(0.0478359207505 -0.00112950689917 8.36039094484e-20)
(0.0527017383139 0.00639079365549 8.37250970966e-20)
(0.0483881365656 -0.00270464492313 9.97889012886e-20)
(0.05246245073 -0.0161336216293 7.82167273254e-20)
(0.0288303561055 0.00478926542532 3.37663161411e-22)
(0.030742191163 0.00460169933393 1.47238029173e-21)
(0.0329992347811 0.00408662942518 6.39239092748e-21)
(0.035864329914 0.0032891655989 2.12205686857e-20)
(0.0396588380979 0.00223388849855 5.15204357546e-20)
(0.0439493927643 0.00302590151368 8.40586747808e-20)
(0.0476025991342 0.000357670749818 1.00138517609e-19)
(0.0535384362364 0.00803882668674 1.02490960882e-19)
(0.057937818476 -0.00349081508025 1.05428837776e-19)
(0.0698867695239 -0.0231829377134 9.21281636116e-20)
(0.028805269904 0.00665310225995 4.35955983157e-22)
(0.031005330718 0.00670907376085 1.19898676408e-21)
(0.0335731991057 0.00647190132239 4.86529060129e-21)
(0.0365938719435 0.00595973685663 1.62598290578e-20)
(0.0400482402061 0.00521165657549 4.33009925006e-20)
(0.0437174967585 0.00613336230306 6.41637692794e-20)
(0.047665229799 0.00397411214048 8.76270572887e-20)
(0.0549057637996 0.0119017235698 1.01177073305e-19)
(0.0681482561761 0.00176897568915 6.61346250123e-20)
(0.089778596372 -0.0266492651169 7.93021531812e-20)
(0.028493462437 0.00877423325696 2.58607056123e-22)
(0.0309083205376 0.00917284821484 5.80195265722e-22)
(0.0337151752876 0.00935366454663 2.3745562595e-21)
(0.0368553617922 0.00933354789232 8.2402904906e-21)
(0.0400901873093 0.00909731774443 2.24604642741e-20)
(0.0433583567373 0.0103360885488 4.04106239309e-20)
(0.0476262254966 0.00925917697614 5.16090494049e-20)
(0.0555515760778 0.0170914578385 5.03312668224e-20)
(0.0791034286028 0.0107832795155 3.75398504562e-20)
(0.132694616435 -0.0355666582693 4.63181103048e-21)
(0.0278368829854 0.0110948704164 3.28060995405e-22)
(0.0304010490465 0.0118840545478 4.34665747437e-22)
(0.0333582795917 0.0125303608641 1.32092503472e-21)
(0.0365646696132 0.0130688149974 3.91179445394e-21)
(0.0396880479294 0.0134180251827 1.14787299966e-20)
(0.0428048416153 0.0150015637616 2.01165179567e-20)
(0.0472513539737 0.0145909684146 2.2923394285e-20)
(0.0551324675358 0.021947529903 2.94594077674e-20)
(0.0896298748222 0.0180155683019 6.54081269203e-21)
(0.197282734396 -0.0449371222362 5.64826255319e-20)
(0.0267983590144 0.0135843818261 5.18780008162e-22)
(0.0294485695683 0.0148275146056 6.53571049883e-22)
(0.0324956738803 0.0160226608959 1.16094297106e-21)
(0.0357573185118 0.0171736329144 2.45012098664e-21)
(0.0388306800458 0.0180458307854 5.01871146928e-21)
(0.0421311672085 0.0198485840687 1.0445007743e-20)
(0.0469803894382 0.0192669605731 6.82708777406e-21)
(0.0550927477804 0.025167247526 9.22070082668e-21)
(0.104313465668 0.0222048483174 7.818301015e-21)
(0.31843190147 -0.0915941732197 3.05746346836e-22)
(0.0253162132644 0.0161435218289 2.21504077953e-21)
(0.0279422707253 0.01789767014 2.49066981136e-21)
(0.0310040586117 0.0197520129616 2.87479408377e-21)
(0.0343697295587 0.0216200237156 3.17944827763e-21)
(0.0375876460748 0.0230749384076 3.72666566197e-21)
(0.0413754999399 0.0251032204022 3.16104841953e-21)
(0.0464661672064 0.0251661509654 2.66849850651e-21)
(0.0545480024 0.0294526367549 4.63153699559e-21)
(0.116327865706 0.029756722293 1.4927779827e-20)
(0.483126337204 -0.0591894834942 2.14987753292e-20)
)
;

boundaryField
{
    back
    {
        type            noSlip;
    }
    sides
    {
        type            noSlip;
    }
    bottom
    {
        type            noSlip;
    }
    front
    {
        type            noSlip;
    }
    atmosphere
    {
        type            pressureInletOutletVelocity;
        value           nonuniform List<vector> 
16
(
(0 -0.0401157689804 0)
(0 -0.0388144027414 0)
(0 -0.0311130830871 0)
(0 -0.0261471228304 0)
(0 -0.0226176922621 0)
(0 -0.0203256251921 0)
(0 -0.0177367160557 0)
(0 -0.0301136372315 0)
(0 -0.0228634699321 0)
(0 -0.0161336216293 0)
(0 -0.0231829377134 0)
(0 -0.0266492651169 0)
(0 -0.0355666582693 0)
(0 -0.0449371222362 0)
(0 -0.0915941732197 0)
(0 -0.0591894834942 0)
)
;
    }
    floatingObject
    {
        type            movingWallVelocity;
        value           nonuniform List<vector> 0();
    }
    procBoundary5to0
    {
        type            processor;
        value           nonuniform List<vector> 
12
(
(0.0219124108515 -0.00634781540943 -5.35926116467e-25)
(0.022634004231 -0.00729209247126 -5.32934877427e-24)
(0.0234303332901 -0.00829257413889 1.88530151045e-23)
(0.0242896460096 -0.00933185605661 1.16423274704e-23)
(0.0251681288791 -0.0104111281537 -1.06052436623e-22)
(0.0260672939552 -0.0115781265875 -5.91432130478e-22)
(0.0271016625116 -0.0130327353168 -7.04519439264e-22)
(0.0285190938606 -0.0149527784025 3.252281829e-22)
(0.030103762272 -0.0173880422157 -1.33811706064e-21)
(0.031821009583 -0.0132956839335 -6.49742916597e-21)
(-0.0380347381144 -0.0216769457789 -1.27424570361e-20)
(-0.0101440752673 -0.0459501676297 -8.14843580912e-21)
)
;
    }
    procBoundary5to3
    {
        type            processor;
        value           nonuniform List<vector> 10((0.0234018350473 0.0185699809366 1.2471546372e-20) (0.0258438178904 0.020765572826 1.43005789666e-20) (0.0287651650678 0.023306404653 1.48013163188e-20) (0.0322909661344 0.0259640992334 1.30379105962e-20) (0.0360046614529 0.028038241971 8.248165585e-21) (0.0405353045161 0.0300068116474 2.14782158189e-21) (0.0455334612609 0.030019195107 4.93069957968e-22) (0.0522781843344 0.0328018414739 8.50366341199e-21) (0.113192943173 0.0313241144174 3.2626299638e-20) (0.636431892658 0.0893178999904 -1.70431616201e-20));
    }
    procBoundary5to4
    {
        type            processor;
        value           nonuniform List<vector> 
18
(
(0.0220822708191 -0.00478573198029 -5.03797555581e-24)
(0.0228049073273 -0.00410886096001 -1.30564683586e-24)
(0.0242378050898 -0.00395949694425 2.36040793977e-23)
(0.025130255413 -0.0045958471138 2.9484064246e-23)
(0.025130255413 -0.0045958471138 2.9484064246e-23)
(0.0257379745169 -0.00361552357041 2.78244636544e-23)
(0.0262336607744 -0.00258409621233 4.61328004805e-23)
(0.0266134143606 -0.00148561841791 4.05696158973e-23)
(0.0268802889201 -0.000371720256034 4.41670590478e-23)
(0.0270594848858 0.00075296000569 8.40325847768e-23)
(0.0271763315167 0.00193836813932 1.12687906279e-22)
(0.0272223090537 0.00325768622903 1.26295916499e-22)
(0.0271506819323 0.00472833609849 1.15952843148e-22)
(0.0269064467401 0.00637482759943 1.63263820804e-22)
(0.0264224981265 0.00820585210937 2.29982709904e-22)
(0.0256404723177 0.0101939565093 2.37132714891e-22)
(0.0245203700718 0.0123064893852 4.72728009361e-22)
(0.0230333845029 0.0144772035617 2.0361112862e-21)
)
;
    }
}


// ************************************************************************* //
