/*--------------------------------*- C++ -*----------------------------------*\
| =========                 |                                                 |
| \\      /  F ield         | OpenFOAM: The Open Source CFD Toolbox           |
|  \\    /   O peration     | Version:  v2012                                 |
|   \\  /    A nd           | Website:  www.openfoam.com                      |
|    \\/     M anipulation  |                                                 |
\*---------------------------------------------------------------------------*/
FoamFile
{
    version     2.0;
    format      ascii;
    class       surfaceVectorField;
    location    "5.6";
    object      Uf;
}
// * * * * * * * * * * * * * * * * * * * * * * * * * * * * * * * * * * * * * //

dimensions      [0 1 -1 0 0 0 0];


internalField   nonuniform List<vector> 
300
(
(0.0192359212708 -0.00669789992217 1.4709058096e-24)
(0.0193571764011 -0.00588700701313 3.00018747731e-24)
(0.0199306558923 -0.00769617453137 1.52475999829e-23)
(0.0200522947365 -0.00680900740811 1.09530722024e-23)
(0.0206907494597 -0.00875265593559 3.2603056636e-23)
(0.0208048834504 -0.0077966170942 2.62297038447e-23)
(0.0215026797063 -0.00987319352943 7.32889213268e-24)
(0.021630396547 -0.00885289378715 4.30765788738e-23)
(0.0223629155758 -0.0111235200538 -1.42793751997e-22)
(0.0225268083749 -0.00999393044169 1.80000101244e-23)
(0.0233941640198 -0.0125338301498 -4.56565259584e-22)
(0.0234985991435 -0.0112506312179 -1.71828770653e-22)
(0.0248218014587 -0.0142416959726 -5.18361285057e-23)
(0.0248086987315 -0.0127227049096 -4.35531046619e-22)
(0.0264338877029 -0.0163375785681 -1.4359165677e-21)
(0.0266656643555 -0.0144606175149 7.8475081384e-22)
(0.0277385665046 -0.0186004117701 -4.71491477362e-21)
(0.0283301946831 -0.0170381000452 -2.87944643483e-21)
(-0.00424118225627 -0.0209421539606 -4.65746627451e-21)
(0.0293848698995 -0.0123660641786 -4.02790142019e-21)
(-0.0241304165567 -0.0350250973739 -2.4086624937e-21)
(-0.029569990545 -0.0224843169147 7.52643624537e-21)
(-0.00732057380792 -0.0457977504419 9.33431213721e-21)
(0.0201585549073 -0.00596118161814 1.24823538701e-23)
(0.0209168132131 -0.00687832465666 2.19351760642e-23)
(0.0217415840855 -0.0078528737863 3.67032260825e-23)
(0.0217795590176 -0.0068738069955 3.25072415142e-23)
(0.0226492849297 -0.00889981586204 5.37476968656e-23)
(0.0226775331049 -0.00784803967563 6.12781601871e-23)
(0.0236524179426 -0.010048251083 -1.10350085316e-23)
(0.023675521265 -0.00892066291172 6.7598883228e-23)
(0.0248882492383 -0.0113706084845 -1.50794557688e-22)
(0.0248213073018 -0.010113253239 -1.33305720775e-22)
(0.0265322381426 -0.0129108836126 4.01055895727e-22)
(0.026349348763 -0.0115306222548 -4.76144639066e-22)
(0.0282134915374 -0.014504666839 -6.58779053287e-22)
(0.0282597475356 -0.0130075954708 8.63459926303e-23)
(0.0297540866176 -0.0158343312477 -2.1924330814e-21)
(0.0296599988147 -0.0159984166422 -3.86143061547e-21)
(0.00538506728811 -0.0184748911437 8.15600109969e-21)
(0.0320254060438 -0.0109971837419 -6.10647849519e-21)
(-0.0119270882103 -0.0365792964335 1.92694108763e-20)
(-0.011464561212 -0.0216290651924 1.34396362244e-21)
(-0.00171420153217 -0.0420640801983 4.79679245251e-21)
(0.0227215391294 -0.00683144022218 5.70821756188e-23)
(0.0226791554631 -0.00587524366279 4.28962897445e-23)
(0.0237245966235 -0.00781750200315 7.51293465495e-23)
(0.0236638084687 -0.00675626255005 7.33853055558e-23)
(0.0248723000821 -0.00891369789097 -5.46718290158e-23)
(0.0247720136719 -0.00773744518729 3.52206859133e-23)
(0.0263312005866 -0.0101753194808 -4.58655802153e-22)
(0.0260832937338 -0.00884222201475 -3.55577548522e-22)
(0.0282261515554 -0.0117706288133 -7.90854542162e-22)
(0.0279450401023 -0.0102824973709 -1.6184271035e-21)
(0.0300213905414 -0.0138095052465 -3.11630556955e-21)
(0.0302989306122 -0.0116660149162 -2.27144427926e-21)
(0.0319813433167 -0.016004781854 -7.77547602925e-21)
(0.0318554234789 -0.0160034730185 -5.64499251e-21)
(0.0139914001553 -0.0186851088074 -1.29185159724e-20)
(0.0347057256844 -0.0107860704409 -9.13396053782e-21)
(-0.0019220888286 -0.0297547924253 -1.31286548013e-20)
(-0.000395521025056 -0.0218563718787 -2.01121089585e-20)
(0.00322038215245 -0.0333060716146 -1.5236267194e-20)
(0.023603785242 -0.00575594212917 5.91994196815e-23)
(0.0234561021244 -0.00482213291754 4.40487482154e-23)
(0.0247114244734 -0.00662598774704 3.34766449197e-23)
(0.0245341062823 -0.00557616681447 5.78192243862e-23)
(0.0260172640754 -0.00761232445693 -2.65685033593e-22)
(0.0257586918103 -0.00642813155359 -7.97082474643e-23)
(0.0277809789398 -0.00882604489492 -1.51534884987e-21)
(0.0272974240623 -0.00738984906661 -7.42933145255e-22)
(0.0301189926736 -0.0105226130489 -3.0990168406e-21)
(0.0296420295697 -0.00886185965005 -2.56291272752e-21)
(0.0323888761129 -0.0127231563306 -4.8001312197e-21)
(0.0324998116945 -0.010032260991 -1.77294170283e-21)
(0.0347829389994 -0.0157823735568 -7.00347701856e-21)
(0.0349148086864 -0.0154627127405 -6.89089217547e-21)
(0.0192769393439 -0.0187656794472 -1.63275535239e-20)
(0.0376890302623 -0.0100707837401 -1.39109140432e-20)
(0.00407404711162 -0.0238936247191 -2.22197213511e-20)
(0.00473075213335 -0.0219765427889 -3.30070854788e-20)
(0.00727438626531 -0.0262267469572 -2.69127808706e-20)
(0.0243535482296 -0.00458844122269 4.26685529202e-23)
(0.024093230004 -0.0037004156031 4.53339569973e-23)
(0.0255637505604 -0.00531349459793 -5.53656679978e-23)
(0.0252594619781 -0.00431604427014 3.00510750993e-23)
(0.0270433192691 -0.00614968697495 -5.56956359126e-22)
(0.0265952862315 -0.00501101725839 -2.03559066169e-22)
(0.0292187352827 -0.00722335220275 -1.7904970229e-21)
(0.0283715636515 -0.00575611364804 -9.76883897912e-22)
(0.0321735468411 -0.00896958076616 -1.23683758975e-21)
(0.0313887393577 -0.00726131266013 -2.71508792504e-21)
(0.0351289455242 -0.011492314427 -3.8637026586e-21)
(0.0350229292538 -0.00803038990704 -4.71939124448e-22)
(0.0378511072887 -0.0146327837861 -1.37983292001e-20)
(0.0380554715049 -0.0142250782295 -8.1333539658e-21)
(0.0225010367064 -0.0177637067068 -3.05904459981e-20)
(0.0408199630131 -0.00882351102514 -1.86171265048e-20)
(0.00746432213231 -0.0201755371832 -3.77001449983e-20)
(0.00714076214101 -0.0211441707452 -4.02231143527e-20)
(0.0103410203011 -0.0213091262693 -3.15891288899e-20)
(0.0249517511529 -0.00337211450751 3.27164791764e-23)
(0.0246091472947 -0.00254396036661 5.53465069732e-23)
(0.0262371477759 -0.00394101760556 -1.18142323072e-22)
(0.0258287255867 -0.00304041939081 4.26838028143e-23)
(0.0278665437826 -0.00458281188695 -6.23486604954e-22)
(0.0272375542971 -0.00359234827864 -3.8114094471e-23)
(0.0304654968463 -0.00543168243157 -1.90147480005e-21)
(0.0292209865431 -0.00410837417738 -5.7906555632e-22)
(0.0342535220388 -0.00685999775009 -1.95018945974e-21)
(0.0328176093186 -0.00556800503027 -7.04937565652e-22)
(0.0380773511202 -0.0095318322689 -4.74159043165e-21)
(0.0376952066259 -0.00584665882374 -3.06262137526e-21)
(0.0410666964746 -0.01293374501 -1.29521512704e-20)
(0.0414576131934 -0.0122486036703 -5.36686093888e-21)
(0.0246581002758 -0.0160795729767 -2.82497948593e-20)
(0.0439658434264 -0.00687542862114 -7.51823720159e-21)
(0.00971621161397 -0.0165092306069 -3.41120982444e-20)
(0.00756394226983 -0.0186913098461 -2.26447075284e-20)
(0.0143520330799 -0.0196507686861 -1.55414194679e-20)
(0.025419295109 -0.00216540946249 6.5313830611e-23)
(0.0250278547894 -0.00139203267955 4.60499024024e-23)
(0.0267488939265 -0.00262164117995 1.22712031415e-22)
(0.0262853794964 -0.00181330195297 8.55822897743e-23)
(0.0285068910344 -0.00314202539316 6.30695416353e-24)
(0.0277584904693 -0.00229725116774 4.44209737412e-22)
(0.031457270304 -0.00390941303542 6.17471678082e-22)
(0.0299890128602 -0.00274736690621 1.20781047294e-21)
(0.0361050086571 -0.00510953232895 -1.81736948116e-21)
(0.034018366374 -0.00412153667869 4.43230832529e-21)
(0.0409042975648 -0.00737346256298 -3.68789188249e-21)
(0.0399596434795 -0.00381262351845 3.45400603953e-21)
(0.0441504327969 -0.010242023941 6.70531299398e-23)
(0.0443264316307 -0.00931959711604 6.94566781098e-21)
(0.0268979606927 -0.0127391042146 -1.91314987065e-21)
(0.0464629624795 -0.00377548631234 1.38420617492e-20)
(0.01198709112 -0.0155506481252 -4.07402875192e-21)
(0.0103727051419 -0.0147264048449 9.32841953465e-21)
(0.0195521795889 -0.0262955446909 9.28261488535e-21)
(0.0258145085166 -0.00100478652787 6.63183615657e-23)
(0.0253906036365 -0.000226073095699 7.19211555476e-23)
(0.027191858296 -0.00143453634496 4.07079995771e-22)
(0.0267156077085 -0.000622670247736 2.96198603673e-22)
(0.029080490803 -0.00194776671417 1.64571325619e-21)
(0.0282723498076 -0.00114589978503 1.66411447998e-21)
(0.032345970224 -0.00263175375031 5.02264712015e-21)
(0.0306737265741 -0.0017254136744 5.95793618739e-21)
(0.0375460712732 -0.00364230643924 9.70368384598e-21)
(0.0350296432046 -0.0030587936211 1.57737110779e-20)
(0.0428256959018 -0.00485342020133 1.4087565733e-20)
(0.0411713322376 -0.00222705786466 2.27483359751e-20)
(0.0465550057123 -0.00597369645844 2.07206764302e-20)
(0.045446989919 -0.00607894827179 3.0313959214e-20)
(0.0330286362196 -0.00839008809567 2.50836311545e-20)
(0.0488793760635 5.43717868599e-05 3.5449116856e-20)
(0.0198409005378 -0.0232342295653 2.26850631719e-20)
(0.0252203999271 -0.00977057029569 4.58529574446e-20)
(0.0263390575737 -0.0296131545465 3.85131182615e-20)
(0.0262058899849 0.000184407569366 3.01801397655e-22)
(0.0257199627772 0.00103455218154 1.7141966484e-22)
(0.0277064065206 -0.000287830084589 1.55323308788e-21)
(0.0271883626158 0.000633671812302 7.9883100729e-22)
(0.0297701313068 -0.000968162339469 5.97633741117e-21)
(0.0289533783879 9.36687389804e-06 3.9270700908e-21)
(0.0331870284711 -0.0018338543297 1.67090001451e-20)
(0.0315402289858 -0.000774070599315 1.34432540609e-20)
(0.0383295769048 -0.00250364320389 2.8818363207e-20)
(0.035700241607 -0.00208088454096 3.30937894499e-20)
(0.0433543165318 -0.00255337222647 3.89747294561e-20)
(0.0412217067419 -0.00100708123726 5.01359821495e-20)
(0.0474476305879 -0.00207166799477 4.50423996397e-20)
(0.0449656081262 -0.00386559069432 6.36889292791e-20)
(0.0404258730844 -0.0028771727602 5.6218443146e-20)
(0.0496849459959 0.00304556519549 6.43185605493e-20)
(0.0314634293146 -0.0154280340139 6.16810125341e-20)
(0.0377716578844 -0.00581286729337 8.20719619386e-20)
(0.0363531113449 -0.0225121648004 6.71256540302e-20)
(0.0266332629056 0.00151523630926 6.68449274474e-22)
(0.0260241890475 0.00246920206051 2.83621267582e-22)
(0.0283601365678 0.00097284250719 3.17266801021e-21)
(0.0277312874869 0.00210363896507 1.29453774887e-21)
(0.0306355537142 0.000160446128568 1.13939867406e-20)
(0.0297665258711 0.00144461702217 5.8239703654e-21)
(0.0340058342466 -0.000776262179704 2.98280433658e-20)
(0.0324778278195 0.00054723434004 1.93802990964e-20)
(0.038627370527 -0.00141739514661 5.44114083924e-20)
(0.0363422722361 -0.000675940879303 4.67403618903e-20)
(0.0429531065353 -0.00121694061788 7.48501819725e-20)
(0.0410219743879 0.00034339916876 7.51990026083e-20)
(0.0472231144797 -0.000420468306176 8.29650901887e-20)
(0.0441695058568 -0.00255189725461 9.14010629488e-20)
(0.0457090134964 -0.000639437805976 9.01720793419e-20)
(0.0499040366705 0.00483399819219 9.24482210675e-20)
(0.042008391124 -0.00895930482327 8.75166034348e-20)
(0.0460875566787 -0.00522790573123 1.0020925813e-19)
(0.0472980751389 -0.0191672115245 8.27857886455e-20)
(0.0270503540888 0.00309105944201 9.09709741978e-22)
(0.0262304271745 0.00413580914776 3.87242084537e-22)
(0.0290692753065 0.00260789926682 3.94584010406e-21)
(0.0282149749786 0.00392896118639 1.3454724079e-21)
(0.0315625224665 0.0018261220684 1.38102827212e-20)
(0.0305491077694 0.00342127162723 5.65864147084e-21)
(0.0348192164571 0.000918903805424 3.62926176209e-20)
(0.0333860284423 0.00265230727701 1.8794102003e-20)
(0.0388257003072 0.000354255444149 6.75279561062e-20)
(0.0369079268428 0.00164937667418 4.74105936296e-20)
(0.042604282943 0.000564914918338 9.17498835846e-20)
(0.0408121351362 0.00255092571665 7.39618498262e-20)
(0.0473709596108 0.000593522021936 1.00884193827e-19)
(0.0441413177191 -0.0003605115826 9.38072075965e-20)
(0.0506360628822 -0.000534384421773 1.02485399856e-19)
(0.05103228148 0.00720919011942 1.01262684272e-19)
(0.0525168571021 -0.00937043213447 9.54784433408e-20)
(0.0549115736664 -0.00441729042299 8.51281306943e-20)
(0.0604023237412 -0.0227892707079 7.83281033761e-20)
(0.0273106047187 0.0050037681596 8.2300475046e-22)
(0.0262082206839 0.00605973645441 3.4833605554e-22)
(0.0296201252602 0.00477836673117 3.05827377468e-21)
(0.0284409159374 0.00613735381827 9.00463155487e-22)
(0.0323319578038 0.00428263395988 1.06424607526e-20)
(0.0310457333331 0.00596590498773 3.66084111111e-21)
(0.0354787767661 0.00364186023503 2.99120780118e-20)
(0.0340279228972 0.00556724418093 1.2371798417e-20)
(0.0389467631723 0.00329144869381 5.38444873496e-20)
(0.0372595068464 0.00495454823076 3.30956290318e-20)
(0.0425271116855 0.0034956447537 7.60191738381e-20)
(0.0406089040341 0.00593879441056 5.2534903299e-20)
(0.0481366460559 0.00314233213149 9.41856980408e-20)
(0.0444951339946 0.00372754961816 7.03616729105e-20)
(0.0567332220948 0.00129821360508 8.39054151105e-20)
(0.0528765178244 0.0114441328498 7.60223214398e-20)
(0.063667050292 -0.0119949076293 6.79777907296e-20)
(0.068208209297 0.0016978579656 5.22718392541e-20)
(0.074409978548 -0.022786296462 4.28138251103e-20)
(0.0272564256997 0.00721820480659 4.25794460567e-22)
(0.0258813679947 0.00820905186656 2.93502852877e-22)
(0.0297876540277 0.00736498967932 1.50303049191e-21)
(0.0282947602457 0.0086437608341 5.13905658225e-22)
(0.0326706321284 0.00731432443496 5.39017877545e-21)
(0.0310974617548 0.00890128228319 1.8739587612e-21)
(0.0357548450478 0.0071735919536 1.5555349437e-20)
(0.0341700170245 0.00900767332833 6.16534882799e-21)
(0.0388851777721 0.00719022266282 3.17860449812e-20)
(0.0372443126054 0.00891200152437 1.72026880953e-20)
(0.0424523863 0.00747461332484 4.68774023715e-20)
(0.0403257172696 0.0101471679327 3.06247723834e-20)
(0.0486573406169 0.00744446139589 5.21982963095e-20)
(0.0445259541249 0.00888214258377 3.82951114273e-20)
(0.0625964770222 0.00737735528558 4.43887455834e-20)
(0.0529436851459 0.0165361967572 4.07728092032e-20)
(0.0791094083919 -0.00243940971552 2.71078736348e-20)
(0.0780217990137 0.0101278703524 2.21910514251e-20)
(0.0980562645996 -0.0187837317689 2.51764062394e-20)
(0.0268340293139 0.00965212378129 3.81614050535e-22)
(0.0252050168893 0.0105404083528 4.19918646872e-22)
(0.0295131226794 0.0102207074994 8.84833927512e-22)
(0.027727318405 0.0113879332146 5.41908624507e-22)
(0.0325028678668 0.0106555962759 2.64912881374e-21)
(0.0306643470685 0.0121404771597 1.24395760461e-21)
(0.0355633478516 0.011023759978 7.81268748622e-21)
(0.0338040652554 0.0128138863347 3.21233440661e-21)
(0.0385589309003 0.0114775904243 1.60414154974e-20)
(0.0367928281849 0.0132448007114 8.3791386918e-21)
(0.04216979982 0.0119376744042 2.20424814392e-20)
(0.0398676401827 0.0147196298925 1.54894298657e-20)
(0.0484763091744 0.012219395469 2.6869624321e-20)
(0.0442453916777 0.0138545362348 1.55917310782e-20)
(0.0672510563889 0.0125872546089 1.85751150449e-20)
(0.0525760864831 0.0207456373972 1.98009073779e-20)
(0.0953920055977 0.0034782580665 2.02595840298e-20)
(0.087132037815 0.0162233690968 7.42318693417e-21)
(0.126981071768 -0.0190515333784 1.65638927168e-20)
(0.0260075334139 0.0122891492036 5.80213220844e-22)
(0.0241202401208 0.0129900131322 1.34843680643e-21)
(0.0287751137953 0.0133370424786 9.01032301601e-22)
(0.0266814899744 0.0143121045846 1.54627076312e-21)
(0.0318410744411 0.0143518715771 1.80716319747e-21)
(0.0296525312238 0.0156588693244 1.9881073571e-21)
(0.0349137552857 0.0152798803651 3.77878561219e-21)
(0.0328797367136 0.0169829636583 2.79736519555e-21)
(0.0379863376423 0.0161165626951 7.82715306009e-21)
(0.0359599007343 0.0179442669933 4.41427890338e-21)
(0.0418924794929 0.0165335092459 9.03867950471e-21)
(0.0394537480333 0.0195973382446 6.92575419451e-21)
(0.048414596954 0.0163592825803 8.52301413511e-21)
(0.044421211824 0.0190314385408 5.26344287191e-21)
(0.0736440920264 0.0163316830354 8.64897926717e-21)
(0.0526039085935 0.0245402538136 7.23404109739e-21)
(0.120276583726 0.00260133201786 3.72749562119e-21)
(0.100856791464 0.0222183069648 1.25368104564e-20)
(0.15491386161 -0.00731910711948 1.89250169453e-20)
(0.0246911739482 0.0150198964372 2.31449434871e-21)
(0.0274561959068 0.0166449216181 2.63334581862e-21)
(0.0305892647305 0.0183330377917 2.97830935518e-21)
(0.0338053557449 0.0198758718108 3.43285848674e-21)
(0.0372265124325 0.0210677702856 3.5128800378e-21)
(0.0415599732397 0.0216046011367 3.15051756171e-21)
(0.0481763029526 0.0220701234039 3.97446983418e-21)
(0.0793035790436 0.0229988396431 1.11218722867e-20)
(0.13283423991 0.0167817160582 2.77343317805e-20)
)
;

boundaryField
{
    back
    {
        type            calculated;
        value           uniform (0 0 0);
    }
    sides
    {
        type            calculated;
        value           nonuniform List<vector> 0();
    }
    bottom
    {
        type            calculated;
        value           nonuniform List<vector> 0();
    }
    front
    {
        type            calculated;
        value           uniform (0 0 0);
    }
    atmosphere
    {
        type            calculated;
        value           nonuniform List<vector> 
16
(
(0 -0.0422827342917 0)
(0 -0.0421861320356 0)
(0 -0.034688562608 0)
(0 -0.0279457976136 0)
(0 -0.02323997975 0)
(0 -0.0205139176845 0)
(0 -0.0207478747808 0)
(0 -0.0300240253315 0)
(0 -0.025442145148 0)
(0 -0.0198999544966 0)
(0 -0.0224632017485 0)
(0 -0.0260049968487 0)
(0 -0.0260821995778 0)
(0 -0.0254514363873 0)
(0 -0.0253064072436 0)
(0.159368208997 0.0068079921447 3.81688854241e-20)
)
;
    }
    floatingObject
    {
        type            calculated;
        value           nonuniform List<vector> 0();
    }
    procBoundary5to0
    {
        type            processor;
        value           nonuniform List<vector> 
12
(
(0.0184205916747 -0.00655848886415 -3.59069737365e-26)
(0.0190538847891 -0.00756266819975 -1.71217533105e-24)
(0.0197481974965 -0.00863468168526 2.37311857916e-23)
(0.0205095426765 -0.00976919324771 2.39092256048e-23)
(0.0212760277919 -0.0109709223789 -6.68656402322e-23)
(0.0220877058204 -0.0122863632564 -4.29737175673e-22)
(0.0231001908575 -0.0138846973634 -6.68609868105e-22)
(0.0245692333075 -0.0159532952318 4.24733282634e-22)
(0.0260670721954 -0.0187636501889 -2.26089192857e-21)
(0.0270431008238 -0.0144964224362 -6.23014316586e-21)
(-0.0436475028692 -0.024118416907 -7.56698005836e-21)
(-0.0145832635537 -0.0477135582501 -3.61572228708e-21)
)
;
    }
    procBoundary5to3
    {
        type            processor;
        value           nonuniform List<vector> 10((0.0225969680352 0.0154083578761 7.24584277692e-21) (0.0250591943542 0.0172021329086 8.25518462088e-21) (0.0279683382611 0.0192184176017 8.6733800141e-21) (0.0313415135936 0.0212943571033 7.95576849778e-21) (0.0347725726446 0.0228539922112 5.93160253346e-21) (0.0389205357781 0.0245804328203 2.74893992841e-21) (0.0439575476547 0.0243878312391 1.76185010598e-21) (0.051675723665 0.0284693958905 6.61437203813e-21) (0.107075694142 0.0270974264547 2.06496014886e-20) (0.164886108405 0.0336710886186 1.67637013482e-20));
    }
    procBoundary5to4
    {
        type            processor;
        value           nonuniform List<vector> 
18
(
(0.0185965578241 -0.00576141866594 -2.32017427268e-24)
(0.0194509481265 -0.00512066382153 2.15308496467e-24)
(0.0201977415867 -0.00515861918893 1.44893639872e-23)
(0.0209695159506 -0.00597827763085 2.42672996598e-23)
(0.0218185487066 -0.00593202274933 3.48393651099e-23)
(0.0226059694854 -0.00497921374318 3.63191406925e-23)
(0.0232734638619 -0.00395157801133 4.37489395319e-23)
(0.0238145381546 -0.00285651160613 4.41132929868e-23)
(0.0242412152841 -0.00174706351813 5.34620627413e-23)
(0.0245870414622 -0.000642429706519 5.6153198032e-23)
(0.0248853090265 0.000513383099894 1.13494935766e-22)
(0.0251423229566 0.00181914527657 1.77369813859e-22)
(0.0253163105034 0.00329709993164 2.2754484811e-22)
(0.0253279620832 0.00498148665752 2.9949654349e-22)
(0.02508378339 0.0068912919947 2.44972280148e-22)
(0.0245261431729 0.00897535345589 2.81360705535e-22)
(0.023616961754 0.0112037840409 4.91154221451e-22)
(0.0223108844243 0.0134949164331 2.0973886919e-21)
)
;
    }
}


// ************************************************************************* //
