/*--------------------------------*- C++ -*----------------------------------*\
| =========                 |                                                 |
| \\      /  F ield         | OpenFOAM: The Open Source CFD Toolbox           |
|  \\    /   O peration     | Version:  v2012                                 |
|   \\  /    A nd           | Website:  www.openfoam.com                      |
|    \\/     M anipulation  |                                                 |
\*---------------------------------------------------------------------------*/
FoamFile
{
    version     2.0;
    format      ascii;
    class       volScalarField;
    location    "3.1";
    object      ddt0(epsilon);
}
// * * * * * * * * * * * * * * * * * * * * * * * * * * * * * * * * * * * * * //

dimensions      [0 2 -4 0 0 0 0];


internalField   nonuniform List<scalar> 
167
(
-0.00169116210329
-0.00170627999379
-0.0017121080228
-0.00171571480296
-0.0017190428102
-0.00172243634193
-0.00172548932553
-0.00172702264724
-0.00150474634228
-0.00164108002776
-0.00168758798714
-0.00170287457738
-0.0017088169033
-0.00171250280228
-0.00171589657429
-0.00171932997892
-0.00172237400236
-0.0017237538478
-0.0017212612999
-0.00150066352939
-0.00163699568588
-0.00168371092527
-0.00169917674375
-0.00170524920162
-0.00170904256653
-0.00171253234383
-0.00171604328293
-0.00171911900738
-0.00172038430024
-0.0017176430778
-0.00149633748397
-0.00163264239987
-0.00167954153757
-0.00169519005458
-0.0017014126344
-0.00170534284994
-0.00170896691273
-0.00171258685493
-0.00171572303662
-0.00171695827595
-0.00143574779007
-0.00149175378489
-0.00162798921643
-0.00167507753618
-0.00169092344738
-0.0016973247584
-0.00170142603841
-0.00170521385284
-0.00170899656716
-0.00171229111405
-0.00171355010984
-0.00143127318026
-0.00148695014319
-0.00162307478442
-0.00167034077889
-0.00168640155869
-0.00169300684898
-0.00169730964968
-0.00170130882228
-0.00170535806053
-0.00170878856586
-0.00171030471969
-0.00142655244264
-0.00148194967431
-0.00161792683088
-0.0016653640711
-0.00168164822929
-0.00168848256309
-0.00169302505294
-0.00169731579502
-0.00170158234549
-0.00170536320257
-0.00142154166003
-0.00147676816969
-0.00161256752311
-0.00166016761249
-0.00167669351438
-0.00168379104989
-0.00168863084887
-0.00169321012196
-0.00169782499407
-0.00141625077374
-0.00147137229072
-0.00160700992192
-0.00165478745749
-0.00167157867422
-0.00167898295182
-0.00168414931555
-0.00168907456698
-0.00169408581721
-0.00141065705119
-0.00146581390952
-0.00160129405248
-0.00164925275005
-0.00166634457747
-0.00167409358983
-0.00167962507435
-0.00168495223356
-0.00169038903332
-0.00169558557198
-0.0014047505957
-0.00146009026655
-0.00159538646845
-0.00164353466779
-0.0016609598541
-0.0016690920298
-0.0016750331889
-0.00168078022105
-0.00168667777165
-0.00169238925023
-0.0013984128862
-0.00145388263037
-0.00158893639293
-0.00163726195914
-0.0016550446117
-0.00166358912045
-0.00166994395013
-0.0016761166196
-0.00168244487784
-0.00168869178999
-0.00139085989788
-0.00144610063948
-0.00158045638678
-0.00162880878923
-0.00164690462813
-0.00165584055661
-0.0016625732613
-0.00166909164526
-0.00167576036293
-0.00168237535911
-0.00137915090424
-0.00143226785252
-0.00156451939451
-0.0016123369985
-0.00163055184092
-0.00163976522764
-0.00164675249072
-0.00165344434646
-0.00166019752185
-0.00166693116238
-0.00135242298498
-0.00139741205267
-0.00152370782289
-0.00156948539929
-0.00158727153969
-0.00159648932601
-0.00160353430392
-0.0016101494489
-0.00161669531788
-0.00127591714538
-0.00129697539731
-0.00140702841528
-0.00144698123108
-0.0014630034842
-0.00147179395353
-0.0014786580994
-0.00148502103068
-0.00149121067056
-0.00114900396701
-0.00126901890636
-0.00135282159608
-0.00138421256902
-0.00139879234323
-0.00140866787447
-0.00141764299501
-0.00142675225466
-0.00143638644743
)
;

boundaryField
{
    back
    {
        type            calculated;
        value           nonuniform List<scalar> 
167
(
-0.00169116210329
-0.00170627999379
-0.0017121080228
-0.00171571480296
-0.0017190428102
-0.00172243634193
-0.00172548932553
-0.00172702264724
-0.00150474634228
-0.00164108002776
-0.00168758798714
-0.00170287457738
-0.0017088169033
-0.00171250280228
-0.00171589657429
-0.00171932997892
-0.00172237400236
-0.0017237538478
-0.0017212612999
-0.00150066352939
-0.00163699568588
-0.00168371092527
-0.00169917674375
-0.00170524920162
-0.00170904256653
-0.00171253234383
-0.00171604328293
-0.00171911900738
-0.00172038430024
-0.0017176430778
-0.00149633748397
-0.00163264239987
-0.00167954153757
-0.00169519005458
-0.0017014126344
-0.00170534284994
-0.00170896691273
-0.00171258685493
-0.00171572303662
-0.00171695827595
-0.00143574779007
-0.00149175378489
-0.00162798921643
-0.00167507753618
-0.00169092344738
-0.0016973247584
-0.00170142603841
-0.00170521385284
-0.00170899656716
-0.00171229111405
-0.00171355010984
-0.00143127318026
-0.00148695014319
-0.00162307478442
-0.00167034077889
-0.00168640155869
-0.00169300684898
-0.00169730964968
-0.00170130882228
-0.00170535806053
-0.00170878856586
-0.00171030471969
-0.00142655244264
-0.00148194967431
-0.00161792683088
-0.0016653640711
-0.00168164822929
-0.00168848256309
-0.00169302505294
-0.00169731579501
-0.00170158234549
-0.00170536320257
-0.00142154166003
-0.00147676816969
-0.00161256752311
-0.00166016761249
-0.00167669351438
-0.00168379104989
-0.00168863084887
-0.00169321012196
-0.00169782499407
-0.00141625077374
-0.00147137229072
-0.00160700992192
-0.00165478745749
-0.00167157867422
-0.00167898295182
-0.00168414931555
-0.00168907456698
-0.00169408581721
-0.00141065705119
-0.00146581390952
-0.00160129405248
-0.00164925275005
-0.00166634457747
-0.00167409358983
-0.00167962507435
-0.00168495223356
-0.00169038903332
-0.00169558557198
-0.0014047505957
-0.00146009026655
-0.00159538646845
-0.00164353466779
-0.0016609598541
-0.0016690920298
-0.0016750331889
-0.00168078022105
-0.00168667777165
-0.00169238925023
-0.0013984128862
-0.00145388263037
-0.00158893639293
-0.00163726195914
-0.0016550446117
-0.00166358912045
-0.00166994395013
-0.0016761166196
-0.00168244487784
-0.00168869178999
-0.00139085989788
-0.00144610063948
-0.00158045638678
-0.00162880878923
-0.00164690462813
-0.00165584055661
-0.0016625732613
-0.00166909164526
-0.00167576036293
-0.00168237535911
-0.00137915090424
-0.00143226785252
-0.00156451939451
-0.0016123369985
-0.00163055184092
-0.00163976522764
-0.00164675249072
-0.00165344434646
-0.00166019752185
-0.00166693116238
-0.00135242298498
-0.00139741205267
-0.00152370782289
-0.00156948539929
-0.00158727153969
-0.00159648932601
-0.00160353430392
-0.0016101494489
-0.00161669531788
-0.00127591714538
-0.00129697539731
-0.00140702841528
-0.00144698123108
-0.0014630034842
-0.00147179395353
-0.0014786580994
-0.00148502103068
-0.00149121067056
-0.00114900396701
-0.00126901890636
-0.00135282159608
-0.00138421256902
-0.00139879234323
-0.00140866787447
-0.00141764299501
-0.00142675225466
-0.00143638644743
)
;
    }
    sides
    {
        type            calculated;
        value           nonuniform List<scalar> 9(-0.00114900396701 -0.00126901890636 -0.00135282159608 -0.00138421256902 -0.00139879234323 -0.00140866787447 -0.00141764299501 -0.00142675225466 -0.00143638644743);
    }
    bottom
    {
        type            calculated;
        value           nonuniform List<scalar> 
13
(
-0.00143574779007
-0.00143127318026
-0.00142655244264
-0.00142154166003
-0.00141625077374
-0.00141065705119
-0.0014047505957
-0.0013984128862
-0.00139085989788
-0.00137915090424
-0.00135242298498
-0.00127591714538
-0.00114900396701
)
;
    }
    front
    {
        type            calculated;
        value           nonuniform List<scalar> 
167
(
-0.00169116210329
-0.00170627999379
-0.0017121080228
-0.00171571480296
-0.0017190428102
-0.00172243634193
-0.00172548932553
-0.00172702264724
-0.00150474634228
-0.00164108002776
-0.00168758798714
-0.00170287457738
-0.0017088169033
-0.00171250280228
-0.00171589657429
-0.00171932997892
-0.00172237400236
-0.0017237538478
-0.0017212612999
-0.00150066352939
-0.00163699568588
-0.00168371092527
-0.00169917674375
-0.00170524920162
-0.00170904256653
-0.00171253234383
-0.00171604328293
-0.00171911900738
-0.00172038430024
-0.0017176430778
-0.00149633748397
-0.00163264239987
-0.00167954153757
-0.00169519005458
-0.0017014126344
-0.00170534284994
-0.00170896691273
-0.00171258685493
-0.00171572303662
-0.00171695827595
-0.00143574779007
-0.00149175378489
-0.00162798921643
-0.00167507753618
-0.00169092344738
-0.0016973247584
-0.00170142603841
-0.00170521385284
-0.00170899656716
-0.00171229111405
-0.00171355010984
-0.00143127318026
-0.00148695014319
-0.00162307478442
-0.00167034077889
-0.00168640155869
-0.00169300684898
-0.00169730964968
-0.00170130882228
-0.00170535806053
-0.00170878856586
-0.00171030471969
-0.00142655244264
-0.00148194967431
-0.00161792683088
-0.0016653640711
-0.00168164822929
-0.00168848256309
-0.00169302505294
-0.00169731579501
-0.00170158234549
-0.00170536320257
-0.00142154166003
-0.00147676816969
-0.00161256752311
-0.00166016761249
-0.00167669351438
-0.00168379104989
-0.00168863084887
-0.00169321012196
-0.00169782499407
-0.00141625077374
-0.00147137229072
-0.00160700992192
-0.00165478745749
-0.00167157867422
-0.00167898295182
-0.00168414931555
-0.00168907456698
-0.00169408581721
-0.00141065705119
-0.00146581390952
-0.00160129405248
-0.00164925275005
-0.00166634457747
-0.00167409358983
-0.00167962507435
-0.00168495223356
-0.00169038903332
-0.00169558557198
-0.0014047505957
-0.00146009026655
-0.00159538646845
-0.00164353466779
-0.0016609598541
-0.0016690920298
-0.0016750331889
-0.00168078022105
-0.00168667777165
-0.00169238925023
-0.0013984128862
-0.00145388263037
-0.00158893639293
-0.00163726195914
-0.0016550446117
-0.00166358912045
-0.00166994395013
-0.0016761166196
-0.00168244487784
-0.00168869178999
-0.00139085989788
-0.00144610063948
-0.00158045638678
-0.00162880878923
-0.00164690462813
-0.00165584055661
-0.0016625732613
-0.00166909164526
-0.00167576036293
-0.00168237535911
-0.00137915090424
-0.00143226785252
-0.00156451939451
-0.0016123369985
-0.00163055184092
-0.00163976522764
-0.00164675249072
-0.00165344434646
-0.00166019752185
-0.00166693116238
-0.00135242298498
-0.00139741205267
-0.00152370782289
-0.00156948539929
-0.00158727153969
-0.00159648932601
-0.00160353430392
-0.0016101494489
-0.00161669531788
-0.00127591714538
-0.00129697539731
-0.00140702841528
-0.00144698123108
-0.0014630034842
-0.00147179395353
-0.0014786580994
-0.00148502103068
-0.00149121067056
-0.00114900396701
-0.00126901890636
-0.00135282159608
-0.00138421256902
-0.00139879234323
-0.00140866787447
-0.00141764299501
-0.00142675225466
-0.00143638644743
)
;
    }
    atmosphere
    {
        type            calculated;
        value           nonuniform List<scalar> 0();
    }
    floatingObject
    {
        type            calculated;
        value           nonuniform List<scalar> 0();
    }
    procBoundary10to9
    {
        type            processor;
        value           nonuniform List<scalar> 
15
(
-0.00169442497154
-0.00170938960638
-0.00171513028666
-0.00171867722142
-0.00172197007515
-0.00172534831642
-0.00172848046637
-0.00173019348193
-0.00150859487639
-0.00164488058639
-0.00164488058639
-0.00144722202944
-0.00144369212087
-0.0014398697916
-0.0014398697916
)
;
    }
    procBoundary10to11
    {
        type            processor;
        value           nonuniform List<scalar> 
23
(
-0.00172474354267
-0.00172474354267
-0.00171346023069
-0.00170966837615
-0.00171401767225
-0.00171401767225
-0.0017106388899
-0.00170778230952
-0.00170731092789
-0.00170731092789
-0.00170204223262
-0.00170204223262
-0.00169871224051
-0.00169871224051
-0.00169961947439
-0.0016973905433
-0.00169457007685
-0.00168893376598
-0.00167378798777
-0.00162312411841
-0.00162312411841
-0.00149714272566
-0.00144658379334
)
;
    }
}


// ************************************************************************* //
