/*--------------------------------*- C++ -*----------------------------------*\
| =========                 |                                                 |
| \\      /  F ield         | OpenFOAM: The Open Source CFD Toolbox           |
|  \\    /   O peration     | Version:  v2012                                 |
|   \\  /    A nd           | Website:  www.openfoam.com                      |
|    \\/     M anipulation  |                                                 |
\*---------------------------------------------------------------------------*/
FoamFile
{
    version     2.0;
    format      ascii;
    class       volScalarField;
    location    "3.1";
    object      nut;
}
// * * * * * * * * * * * * * * * * * * * * * * * * * * * * * * * * * * * * * //

dimensions      [0 2 -1 0 0 0 0];


internalField   nonuniform List<scalar> 
167
(
0.000719886959276
0.000722402478872
0.000723516012702
0.000724292452295
0.00072506157189
0.000725937075064
0.00072702718015
0.000728611643696
0.000691132009862
0.00071193112746
0.000719049561993
0.000721578747745
0.000722707138111
0.000723499218558
0.000724285883985
0.000725182283964
0.000726302536106
0.000727942776639
0.000730912639635
0.000690254509879
0.000711045289199
0.000718174293088
0.000720720580201
0.000721867224982
0.000722678128978
0.000723484671452
0.000724404286048
0.00072555731608
0.000727256527264
0.000730344764727
0.000689336493716
0.000710122117609
0.00071726550596
0.000719832183653
0.000721000200317
0.000721832835625
0.000722662156055
0.000723607162544
0.000724795760442
0.000726557501977
0.0004625040323
0.000688376691068
0.000709164567211
0.000716326968418
0.000718917600546
0.000720110364499
0.000720967874138
0.00072182234808
0.000722796065463
0.00072402202732
0.000725847728028
0.000461769383296
0.000687386798021
0.000708178546526
0.00071536306419
0.000717981513038
0.00071920269358
0.000720088521265
0.000720972275727
0.00072197749691
0.000723241450055
0.00072512952869
0.000460999420481
0.000686368036492
0.000707168417873
0.000714379057874
0.000717029241187
0.000718283257529
0.000719202209612
0.000720118868612
0.000721156487795
0.00072246037173
0.00046020621911
0.000685324117164
0.000706137494301
0.000713378940086
0.000716066083857
0.000717358562683
0.000718315352423
0.000719267368702
0.000720341186928
0.000459393939515
0.000684254322907
0.00070508789522
0.000712365710292
0.000715096247915
0.000716433244771
0.000717431619348
0.000718423580884
0.000719535273829
0.000458556797969
0.000683160060941
0.000704015802
0.000711335198416
0.000714115563244
0.000715502291605
0.000716548292757
0.000717584548388
0.000718738172836
0.000720166392256
0.000457684355649
0.000682015582737
0.000702891349231
0.00071025584236
0.000713092067354
0.000714535612522
0.000715635320819
0.000716719085813
0.000717914612719
0.000719383997894
0.000456745257914
0.000680723904603
0.000701605115902
0.00070901223865
0.000711908585113
0.000713414988174
0.000714571644253
0.000715705673528
0.000716944102955
0.00071845367765
0.000455585174418
0.000678996391877
0.0006998155595
0.000707241897801
0.000710194685867
0.000711765880989
0.00071298185629
0.00071416527504
0.000715443907835
0.000716988622615
0.000453751016064
0.000675918216268
0.000696499329399
0.000703877674471
0.000706868138569
0.000708499537097
0.000709774234991
0.000711004751171
0.000712318311462
0.000713889523988
0.000449833253675
0.000668827305372
0.000688729902879
0.000695896644903
0.000698875489366
0.000700553797731
0.000701883469313
0.000703160041295
0.000704505470856
0.000439537828279
0.000649837848203
0.000667990143018
0.000674579349231
0.000677433585234
0.000679133632794
0.000680513037269
0.000681839674746
0.000683225514672
0.00036133443626
0.000438904575957
0.000448845245919
0.000452559851356
0.000454329936291
0.000455524439934
0.000456568369278
0.000457591278905
0.000458647582162
)
;

boundaryField
{
    back
    {
        type            nutkWallFunction;
        blending        stepwise;
        Cmu             0.09;
        kappa           0.41;
        E               9.8;
        value           nonuniform List<scalar> 
167
(
7.40839640065e-05
7.43176807511e-05
7.44205173034e-05
7.44919138704e-05
7.45624670733e-05
7.46425086517e-05
7.47413000046e-05
7.48828154972e-05
7.13927257505e-05
7.33424771673e-05
7.40072568026e-05
7.42423393141e-05
7.43465860514e-05
7.4419431396e-05
7.44916009077e-05
7.45735372934e-05
7.46750361806e-05
7.48214204798e-05
7.50829399488e-05
7.13116043287e-05
7.32609859361e-05
7.39269678974e-05
7.41637240141e-05
7.42696908592e-05
7.43442855344e-05
7.44182907742e-05
7.45023467313e-05
7.46067941148e-05
7.47583615558e-05
7.50303306499e-05
7.12266595542e-05
7.31759675952e-05
7.38434765342e-05
7.4082202773e-05
7.41901775863e-05
7.42667963291e-05
7.43429152402e-05
7.4429300639e-05
7.45369431157e-05
7.46940708164e-05
6.43658246323e-05
7.11377794886e-05
7.30876564501e-05
7.37571166557e-05
7.39981404308e-05
7.41084409391e-05
7.41873820346e-05
7.42658401865e-05
7.43548782725e-05
7.44659441074e-05
7.46287502267e-05
6.42745766857e-05
7.10460171569e-05
7.29966046473e-05
7.3668291694e-05
7.39119703729e-05
7.40249379104e-05
7.41065245564e-05
7.41877164484e-05
7.4279727576e-05
7.43942206317e-05
7.4562737869e-05
6.41788570138e-05
7.09515020051e-05
7.29032192958e-05
7.35774933013e-05
7.38241825134e-05
7.39402258555e-05
7.40249089605e-05
7.41092129111e-05
7.42042120301e-05
7.43224790125e-05
6.40801052115e-05
7.08545772056e-05
7.28078114807e-05
7.34850911661e-05
7.37352699204e-05
7.38549124288e-05
7.39431502145e-05
7.40307686813e-05
7.41291952983e-05
6.39788356402e-05
7.07551548689e-05
7.27105819926e-05
7.3391378903e-05
7.36456384872e-05
7.37694491791e-05
7.38615915505e-05
7.39529660525e-05
7.40550010762e-05
6.38743368935e-05
7.06534090414e-05
7.26112241468e-05
7.32960124023e-05
7.3554951923e-05
7.36834196143e-05
7.37800273617e-05
7.38755900416e-05
7.39815918095e-05
7.4111703915e-05
6.37653525965e-05
7.05470488684e-05
7.25070674135e-05
7.3196175785e-05
7.34603583256e-05
7.35941425581e-05
7.36957905482e-05
7.37958379153e-05
7.39058397093e-05
7.40398878816e-05
6.36480574299e-05
7.04271927235e-05
7.23881416757e-05
7.30813676195e-05
7.33512006023e-05
7.34908675623e-05
7.35978544077e-05
7.37026436197e-05
7.3816725911e-05
7.39546576226e-05
6.35033493508e-05
7.02672797402e-05
7.22230070065e-05
7.29182387835e-05
7.31933993223e-05
7.33391297399e-05
7.34516656844e-05
7.35610902043e-05
7.36789836086e-05
7.38202638281e-05
6.32746418904e-05
6.998219286e-05
7.19166201885e-05
7.26077279929e-05
7.28865196192e-05
7.3037893659e-05
7.31559019793e-05
7.32697104274e-05
7.33908319948e-05
7.3534630884e-05
6.27842542566e-05
6.93221638745e-05
7.1195108143e-05
7.18671866072e-05
7.21451545988e-05
7.23009885139e-05
7.24241608034e-05
7.25422419327e-05
7.26663106219e-05
6.14869645865e-05
6.75424701874e-05
6.92558017527e-05
6.98754797211e-05
7.01424850233e-05
7.03007812765e-05
7.04289372966e-05
7.055197136e-05
7.06800925523e-05
5.72770178351e-05
6.14052708234e-05
6.26662677239e-05
6.31360324546e-05
6.33591733595e-05
6.35095453175e-05
6.36410606842e-05
6.37700293154e-05
6.3903234444e-05
)
;
    }
    sides
    {
        type            nutkWallFunction;
        blending        stepwise;
        Cmu             0.09;
        kappa           0.41;
        E               9.8;
        value           nonuniform List<scalar> 9(3.04346421543e-05 3.26402324357e-05 3.33137412865e-05 3.35646234249e-05 3.36837895252e-05 3.37640925534e-05 3.38343245789e-05 3.39031956613e-05 3.39743281275e-05);
    }
    bottom
    {
        type            nutkWallFunction;
        blending        stepwise;
        Cmu             0.09;
        kappa           0.41;
        E               9.8;
        value           nonuniform List<scalar> 
13
(
3.42213469199e-05
3.41726223082e-05
3.41215093926e-05
3.40687768361e-05
3.4014699257e-05
3.39588967176e-05
3.3900698243e-05
3.38380609642e-05
3.37607837508e-05
3.36386466932e-05
3.33767542379e-05
3.26838685119e-05
3.04346421543e-05
)
;
    }
    front
    {
        type            nutkWallFunction;
        blending        stepwise;
        Cmu             0.09;
        kappa           0.41;
        E               9.8;
        value           nonuniform List<scalar> 
167
(
7.40839640065e-05
7.43176807511e-05
7.44205173034e-05
7.44919138704e-05
7.45624670733e-05
7.46425086517e-05
7.47413000046e-05
7.48828154972e-05
7.13927257505e-05
7.33424771673e-05
7.40072568026e-05
7.42423393141e-05
7.43465860514e-05
7.4419431396e-05
7.44916009077e-05
7.45735372934e-05
7.46750361806e-05
7.48214204798e-05
7.50829399488e-05
7.13116043287e-05
7.32609859361e-05
7.39269678974e-05
7.41637240141e-05
7.42696908592e-05
7.43442855344e-05
7.44182907742e-05
7.45023467313e-05
7.46067941148e-05
7.47583615558e-05
7.50303306499e-05
7.12266595542e-05
7.31759675952e-05
7.38434765342e-05
7.4082202773e-05
7.41901775863e-05
7.42667963291e-05
7.43429152402e-05
7.4429300639e-05
7.45369431157e-05
7.46940708164e-05
6.43658246323e-05
7.11377794886e-05
7.30876564501e-05
7.37571166557e-05
7.39981404308e-05
7.41084409391e-05
7.41873820346e-05
7.42658401865e-05
7.43548782725e-05
7.44659441074e-05
7.46287502267e-05
6.42745766857e-05
7.10460171569e-05
7.29966046473e-05
7.3668291694e-05
7.39119703729e-05
7.40249379104e-05
7.41065245564e-05
7.41877164484e-05
7.4279727576e-05
7.43942206317e-05
7.4562737869e-05
6.41788570138e-05
7.09515020051e-05
7.29032192958e-05
7.35774933013e-05
7.38241825134e-05
7.39402258555e-05
7.40249089605e-05
7.41092129111e-05
7.42042120301e-05
7.43224790125e-05
6.40801052115e-05
7.08545772056e-05
7.28078114807e-05
7.34850911661e-05
7.37352699204e-05
7.38549124288e-05
7.39431502145e-05
7.40307686813e-05
7.41291952983e-05
6.39788356402e-05
7.07551548689e-05
7.27105819926e-05
7.3391378903e-05
7.36456384872e-05
7.37694491791e-05
7.38615915505e-05
7.39529660525e-05
7.40550010762e-05
6.38743368935e-05
7.06534090414e-05
7.26112241468e-05
7.32960124023e-05
7.3554951923e-05
7.36834196143e-05
7.37800273617e-05
7.38755900416e-05
7.39815918095e-05
7.4111703915e-05
6.37653525965e-05
7.05470488684e-05
7.25070674135e-05
7.3196175785e-05
7.34603583256e-05
7.35941425581e-05
7.36957905482e-05
7.37958379153e-05
7.39058397093e-05
7.40398878816e-05
6.36480574299e-05
7.04271927235e-05
7.23881416757e-05
7.30813676195e-05
7.33512006023e-05
7.34908675623e-05
7.35978544077e-05
7.37026436197e-05
7.3816725911e-05
7.39546576226e-05
6.35033493508e-05
7.02672797402e-05
7.22230070065e-05
7.29182387835e-05
7.31933993223e-05
7.33391297399e-05
7.34516656844e-05
7.35610902043e-05
7.36789836086e-05
7.38202638281e-05
6.32746418904e-05
6.998219286e-05
7.19166201885e-05
7.26077279929e-05
7.28865196192e-05
7.3037893659e-05
7.31559019793e-05
7.32697104274e-05
7.33908319948e-05
7.3534630884e-05
6.27842542566e-05
6.93221638745e-05
7.1195108143e-05
7.18671866072e-05
7.21451545988e-05
7.23009885139e-05
7.24241608034e-05
7.25422419327e-05
7.26663106219e-05
6.14869645865e-05
6.75424701874e-05
6.92558017527e-05
6.98754797211e-05
7.01424850233e-05
7.03007812765e-05
7.04289372966e-05
7.055197136e-05
7.06800925523e-05
5.72770178351e-05
6.14052708234e-05
6.26662677239e-05
6.31360324546e-05
6.33591733595e-05
6.35095453175e-05
6.36410606842e-05
6.37700293154e-05
6.3903234444e-05
)
;
    }
    atmosphere
    {
        type            calculated;
        value           nonuniform List<scalar> 0();
    }
    floatingObject
    {
        type            nutkWallFunction;
        blending        stepwise;
        Cmu             0.09;
        kappa           0.41;
        E               9.8;
        value           nonuniform List<scalar> 0();
    }
    procBoundary10to9
    {
        type            processor;
        value           nonuniform List<scalar> 
15
(
0.000720684171105
0.000723188460854
0.0007242894884
0.000725053291356
0.000725807870392
0.000726665311932
0.000727726897857
0.00072925651682
0.000691967227104
0.000712777460195
0.000712777460195
0.000464523769133
0.000463887098014
0.000463211051719
0.000463211051719
)
;
    }
    procBoundary10to11
    {
        type            processor;
        value           nonuniform List<scalar> 
23
(
0.000731469341861
0.000731469341861
0.000737135109673
0.00073678521343
0.000729775014306
0.000729775014306
0.000729194048168
0.000728595455135
0.000724407736907
0.000724407736907
0.00072168483882
0.00072168483882
0.000720920194367
0.000720920194367
0.00072228102868
0.000721553000262
0.000720670742093
0.000719247957168
0.000716173534384
0.000706091586819
0.000706091586819
0.00068482153211
0.000459811747973
)
;
    }
}


// ************************************************************************* //
