/*--------------------------------*- C++ -*----------------------------------*\
| =========                 |                                                 |
| \\      /  F ield         | OpenFOAM: The Open Source CFD Toolbox           |
|  \\    /   O peration     | Version:  v2012                                 |
|   \\  /    A nd           | Website:  www.openfoam.com                      |
|    \\/     M anipulation  |                                                 |
\*---------------------------------------------------------------------------*/
FoamFile
{
    version     2.0;
    format      ascii;
    class       volScalarField;
    location    "1.1";
    object      nut;
}
// * * * * * * * * * * * * * * * * * * * * * * * * * * * * * * * * * * * * * //

dimensions      [0 2 -1 0 0 0 0];


internalField   nonuniform List<scalar> 
167
(
0.000778740663594
0.000935729156517
0.000949439073021
0.000953367137214
0.000955376109031
0.00095708091875
0.000958755687628
0.000960439794827
0.000937337741982
0.00137018718618
0.00139707855197
0.00140430841656
0.00140714516174
0.00140916841506
0.00141107534725
0.00141297810794
0.000954597826719
0.00140374603636
0.00143355689279
0.00144143569148
0.00144430879869
0.00144626511524
0.00144811256326
0.00144997652391
0.000960316236146
0.00141468857103
0.00144546639187
0.00145349499272
0.00145629566213
0.00145815694156
0.00145993035607
0.00146174358248
0.00146360568533
0.000962820393878
0.00141887787466
0.00144989447397
0.00145788162146
0.00146056466599
0.00146230989655
0.00146398684163
0.00146572436381
0.00146752813935
0.00146940364402
0.000964478479283
0.00142117098817
0.00145219911043
0.00146009350525
0.00146265260841
0.00146427814284
0.0014658500774
0.0014674982996
0.00146922770287
0.00147104180169
0.000965920938146
0.00142296931475
0.00145395824486
0.00146176079294
0.0014642066303
0.00146571941012
0.00146718785595
0.00146874439363
0.00147039416381
0.00147213978707
0.00096730157226
0.00142464450929
0.00145559575661
0.00146332183149
0.00146566998697
0.00146708136675
0.00146845307545
0.00146992099245
0.00147149148916
0.00147316708915
0.000968653194345
0.00142628512573
0.00145721223368
0.00146487874642
0.00146714469785
0.00146846701993
0.00146975091948
0.00147113614112
0.00147263086261
0.00147423821351
0.000969979992234
0.00142790779949
0.00145882540799
0.0014664474487
0.0014686450317
0.00146989013078
0.00147109573455
0.0014724054887
0.00147382972029
0.00147537243651
0.000971279834786
0.00142951230053
0.00146043387054
0.00146802433585
0.00147016553237
0.00147134422817
0.00147248086967
0.00147372288753
0.00147508277084
0.00147656570577
0.000972549277322
0.00143109484643
0.00146203258123
0.0014696025319
0.00147169767631
0.00147281967269
0.00147389619329
0.00147507821628
0.00147638040577
0.00147780899532
0.000973784548643
0.00143265101685
0.00146361620571
0.00147117530988
0.00147323337701
0.00147430734682
0.00147533196871
0.00147646157399
0.00147771278388
0.0014790929924
0.000974981681201
0.00143417625624
0.00146517962031
0.00147273652858
0.00147476541351
0.00147579911768
0.00147677946428
0.00147786393591
0.00147907098392
0.00148040882076
0.000976136488539
0.00143566588182
0.00146671784808
0.00147428048746
0.00147628724324
0.00147728775822
0.00147823104417
0.00147927738301
0.00148044682398
0.00148174848876
0.000977244566034
0.00143711505734
0.00146822594179
0.00147580174859
0.00147779301849
0.00147876697413
0.00147968006888
0.00148069528016
0.00148183361619
0.00148310542414
0.000978301239275
0.00143851872791
0.0014696989345
0.00147729536102
0.00147927730685
0.00148023120789
0.00148112041587
0.000979301610638
0.00143987165786
0.00147113207599
0.00147875603714
0.00148073451495
0.00147252013163
0.00148017760601
)
;

boundaryField
{
    back
    {
        type            nutkWallFunction;
        blending        stepwise;
        Cmu             0.09;
        kappa           0.41;
        E               9.8;
        value           nonuniform List<scalar> 
167
(
0.000115376851758
0.000122454461692
0.000124055079182
0.000124504899465
0.000124731852585
0.000124923814788
0.000125112160426
0.000125301284934
0.00012263838889
0.000133314441471
0.000135665006845
0.000136286229441
0.000136525666201
0.000136695295907
0.000136855026394
0.000137014322067
0.000124642245524
0.000136229559863
0.000138830321301
0.000139506514591
0.00013974855302
0.000139911992716
0.000140066126466
0.000140221513215
0.000125292473941
0.000137160463989
0.000139842301791
0.00014053065228
0.000140766220684
0.000140921308313
0.0001410688183
0.000141219490306
0.000141373969188
0.000125574350858
0.000137510990843
0.000140211889047
0.000140896321182
0.00014112178956
0.000141266954858
0.00014140617076
0.000141550259231
0.00014169958861
0.000141854233395
0.00012576188887
0.000137702493724
0.000140403539726
0.000141079904959
0.000141294875255
0.000141429939926
0.000141560285441
0.000141696808257
0.000141839810425
0.00014198921176
0.000125926179277
0.000137853707254
0.000140550834601
0.000141219309678
0.000141424747475
0.000141550359827
0.000141672033489
0.00014180087147
0.000141937196805
0.000142080862067
0.000126084084436
0.000137995304941
0.000140688714039
0.000141350623825
0.000141547864005
0.000141665006445
0.000141778608025
0.000141900055641
0.000142029775573
0.000142167623851
0.000126239085415
0.000138134385311
0.000140825217686
0.000141481982255
0.000141672330312
0.000141782050799
0.000141888345733
0.000142002918722
0.000142126349193
0.000142258553236
0.000126391588469
0.000138272225714
0.000140961689779
0.000141614564173
0.000141799179716
0.000141902476457
0.000142002271871
0.000142110588619
0.000142228185733
0.000142355067388
0.000126541339361
0.000138408778919
0.000141097979254
0.00014174803175
0.000141927916399
0.000142025699493
0.000142119784715
0.000142222502078
0.000142334793583
0.000142456772486
0.000126687947357
0.000138543727206
0.000141233665435
0.000141881811159
0.000142057828
0.000142150913301
0.000142240035037
0.000142337810868
0.000142445363559
0.000142562912238
0.00012683098392
0.000138676704513
0.000141368310776
0.000142015350142
0.000142188249006
0.000142277365818
0.000142362219222
0.00014245569631
0.000142559085901
0.00014267271608
0.000126969993953
0.000138807331915
0.000141501494955
0.000142148145717
0.000142318587035
0.000142404389311
0.000142485619477
0.000142575416569
0.000142675223209
0.000142785457801
0.000127104492321
0.000138935216391
0.000141632807239
0.000142279729527
0.000142448304748
0.000142531387477
0.000142609601216
0.000142696319082
0.000142793108007
0.000142900483533
0.000127233961967
0.000139059946343
0.000141761835406
0.000142409651656
0.000142576910603
0.000142657836085
0.000142733632684
0.000142817861073
0.000142912193308
0.00014301725335
0.000127357851347
0.000139181091362
0.00014188816048
0.000142537484204
0.000142703970486
0.000142783291897
0.000142857190652
0.000127475580062
0.000139298194366
0.000142011371469
0.000142662821181
0.000142828996565
0.000142131040075
0.000142785092345
)
;
    }
    sides
    {
        type            nutkWallFunction;
        blending        stepwise;
        Cmu             0.09;
        kappa           0.41;
        E               9.8;
        value           nonuniform List<scalar> 8(6.14048074696e-05 6.51696683335e-05 6.60209203442e-05 6.62601354464e-05 6.63808275407e-05 6.64829107088e-05 6.6583069742e-05 6.66836420812e-05);
    }
    bottom
    {
        type            nutkWallFunction;
        blending        stepwise;
        Cmu             0.09;
        kappa           0.41;
        E               9.8;
        value           nonuniform List<scalar> 
18
(
6.14048074696e-05
6.52674891238e-05
6.63331752806e-05
6.66789566043e-05
6.68288510962e-05
6.69285776332e-05
6.70159411478e-05
6.70999086003e-05
6.71823311342e-05
6.72634248096e-05
6.73430544648e-05
6.74210123628e-05
6.74970706673e-05
6.75709874256e-05
6.76425047178e-05
6.77113476537e-05
6.77772230126e-05
6.78398222326e-05
)
;
    }
    front
    {
        type            nutkWallFunction;
        blending        stepwise;
        Cmu             0.09;
        kappa           0.41;
        E               9.8;
        value           nonuniform List<scalar> 
167
(
0.000115376851758
0.000122454461692
0.000124055079182
0.000124504899465
0.000124731852585
0.000124923814788
0.000125112160426
0.000125301284934
0.00012263838889
0.000133314441471
0.000135665006845
0.000136286229441
0.000136525666201
0.000136695295907
0.000136855026394
0.000137014322067
0.000124642245524
0.000136229559863
0.000138830321301
0.000139506514591
0.00013974855302
0.000139911992716
0.000140066126466
0.000140221513215
0.000125292473941
0.000137160463989
0.000139842301791
0.00014053065228
0.000140766220684
0.000140921308313
0.0001410688183
0.000141219490306
0.000141373969188
0.000125574350858
0.000137510990843
0.000140211889047
0.000140896321182
0.00014112178956
0.000141266954858
0.00014140617076
0.000141550259231
0.00014169958861
0.000141854233395
0.00012576188887
0.000137702493724
0.000140403539726
0.000141079904959
0.000141294875255
0.000141429939926
0.000141560285441
0.000141696808257
0.000141839810425
0.00014198921176
0.000125926179277
0.000137853707254
0.000140550834601
0.000141219309678
0.000141424747475
0.000141550359827
0.000141672033489
0.00014180087147
0.000141937196805
0.000142080862067
0.000126084084436
0.000137995304941
0.000140688714039
0.000141350623825
0.000141547864005
0.000141665006445
0.000141778608025
0.000141900055641
0.000142029775573
0.000142167623851
0.000126239085415
0.000138134385311
0.000140825217686
0.000141481982255
0.000141672330312
0.000141782050799
0.000141888345733
0.000142002918722
0.000142126349193
0.000142258553236
0.000126391588469
0.000138272225714
0.000140961689779
0.000141614564173
0.000141799179716
0.000141902476457
0.000142002271871
0.000142110588619
0.000142228185733
0.000142355067388
0.000126541339361
0.000138408778919
0.000141097979254
0.00014174803175
0.000141927916399
0.000142025699493
0.000142119784715
0.000142222502078
0.000142334793583
0.000142456772486
0.000126687947357
0.000138543727206
0.000141233665435
0.000141881811159
0.000142057828
0.000142150913301
0.000142240035037
0.000142337810868
0.000142445363559
0.000142562912238
0.00012683098392
0.000138676704513
0.000141368310776
0.000142015350142
0.000142188249006
0.000142277365818
0.000142362219222
0.00014245569631
0.000142559085901
0.00014267271608
0.000126969993953
0.000138807331915
0.000141501494955
0.000142148145717
0.000142318587035
0.000142404389311
0.000142485619477
0.000142575416569
0.000142675223209
0.000142785457801
0.000127104492321
0.000138935216391
0.000141632807239
0.000142279729527
0.000142448304748
0.000142531387477
0.000142609601216
0.000142696319082
0.000142793108007
0.000142900483533
0.000127233961967
0.000139059946343
0.000141761835406
0.000142409651656
0.000142576910603
0.000142657836085
0.000142733632684
0.000142817861073
0.000142912193308
0.00014301725335
0.000127357851347
0.000139181091362
0.00014188816048
0.000142537484204
0.000142703970486
0.000142783291897
0.000142857190652
0.000127475580062
0.000139298194366
0.000142011371469
0.000142662821181
0.000142828996565
0.000142131040075
0.000142785092345
)
;
    }
    atmosphere
    {
        type            calculated;
        value           nonuniform List<scalar> 0();
    }
    floatingObject
    {
        type            nutkWallFunction;
        blending        stepwise;
        Cmu             0.09;
        kappa           0.41;
        E               9.8;
        value           nonuniform List<scalar> 0();
    }
    procBoundary2to0
    {
        type            processor;
        value           nonuniform List<scalar> 
14
(
0.00148211211961
0.00148322549376
0.00148447429386
0.00148167369162
0.00148211211961
0.00148254311404
0.000980240614463
0.00144116893809
0.00148167369162
0.00148215812661
0.00144116893809
0.00147385641039
0.00148215812661
0.00148155473246
)
;
    }
    procBoundary2to1
    {
        type            processor;
        value           nonuniform List<scalar> 
18
(
0.000962139126268
0.00141489339905
0.00145187000145
0.00145187000145
0.00146552385763
0.00146552385763
0.00147143601183
0.00147302415693
0.00147406270759
0.00147502762123
0.00147603666092
0.00147711106288
0.00147824790079
0.00147943904006
0.00148067556554
0.00148194905383
0.00148325170766
0.00148457722392
)
;
    }
}


// ************************************************************************* //
