/*--------------------------------*- C++ -*----------------------------------*\
| =========                 |                                                 |
| \\      /  F ield         | OpenFOAM: The Open Source CFD Toolbox           |
|  \\    /   O peration     | Version:  v2012                                 |
|   \\  /    A nd           | Website:  www.openfoam.com                      |
|    \\/     M anipulation  |                                                 |
\*---------------------------------------------------------------------------*/
FoamFile
{
    version     2.0;
    format      ascii;
    class       volScalarField;
    location    "0.8";
    object      alpha.water;
}
// * * * * * * * * * * * * * * * * * * * * * * * * * * * * * * * * * * * * * //

dimensions      [0 0 0 0 0 0 0];


internalField   nonuniform List<scalar> 
164
(
0.999999082759
0.999999083654
0.999999473084
1
1.00000035584
1.00000041686
1
0.00354502497736
0.999999487855
0.999999670279
0.999999973651
1.00000029164
1.00000051501
1.00000055557
1
0.411457393293
0.999999651786
0.999999927499
1.00000020348
1.00000044408
1.00000058178
1.0000005032
1
0.411460568375
0.999999679657
0.999999928931
1.00000022229
1.00000048784
1.00000058239
1.00000032766
1
0.00354578197209
1.00000009566
1.00000051492
1.00000061211
1
0.894807995864
-2.59818395645e-22
1.00000039863
1.00000066817
1.00000068914
1
0.911547789177
0
1.00000070166
1.00000087309
1.00000080704
1
1
0.299596646068
1.00000098473
1.00000104965
1.00000087269
1.00000043712
1
0.259037647048
1.00000119641
1.00000112826
1.00000081762
1.00000036923
0.859948265342
2.11758236814e-23
1.00000130646
1.00000109915
1.00000069198
1.00000018453
0.738771898828
5.29395592034e-24
1.00000130366
1.00000097615
1.00000053009
1.00000009598
0.753235801574
0.0105920192488
1.00000119694
1.00000079088
1.00000036231
1.00000003521
0.763732244104
0.0102046759351
1.00000101175
1.00000058011
1.00000020804
1
0.911119725597
0.114823788362
1.00000078801
1.00000037805
1.00000009643
1
0.567536265013
0
1.00000057549
1.00000020616
1.00000003656
1
0.553073308259
0.00556666351862
1.00000041918
1.00000008708
1.00000000513
1
0.504061564879
0.00307343744715
1.00000030082
1.00000003976
0.99999999685
1
0.438849957865
0.000365882135288
1.00000014629
1.0000000099
1
0.994485879727
0.385791559193
-2.6765910261e-21
1.00000007465
0.999999999465
1
0.98229019608
0.354847694143
-4.4428646182e-24
1.00000003362
1.00000000076
1
0.974548824891
0.335902072023
6.7777369935e-22
1.00000003123
1
1
0.970763136924
0.327782223732
0
1.0000000299
1
1
0.969884662885
0.32597537855
0
1.00000000958
1
1.0000000001
0.970925560803
0.330647922835
-1.36467250167e-30
1
1.00000000047
1.00000000389
0.973536007395
0.341139818023
6.01853107621e-37
0.999999996958
0.977248382132
0.356887635848
-3.85185988877e-35
0.999999979804
0.981558967287
0.377239288425
0
0.999999970871
0.985972460497
0.401559434133
0
)
;

boundaryField
{
    back
    {
        type            zeroGradient;
    }
    sides
    {
        type            zeroGradient;
    }
    bottom
    {
        type            zeroGradient;
    }
    front
    {
        type            zeroGradient;
    }
    atmosphere
    {
        type            inletOutlet;
        inletValue      uniform 0;
        value           nonuniform List<scalar> 
27
(
0
0.411457393293
0.411460568375
0
0
0
0.299596646068
0.259037647048
0
0
0
0
0.114823788362
0
0
0
0.000365882135288
0
0
0
0
0
0
0
0
0
0
)
;
    }
    floatingObject
    {
        type            zeroGradient;
    }
    procBoundary6to3
    {
        type            processor;
        value           nonuniform List<scalar> 8(0.999999082743 0.999999082441 0.999999529063 0.999999983683 1.00000021497 1.00000022926 0.894802237719 -1.5156659257e-22);
    }
    procBoundary6to7
    {
        type            processor;
        value           nonuniform List<scalar> 
11
(
1.00000023253
1.00000018174
1.00000016803
1.0000001479
1.00000012159
1.00000009279
1
1.00000000434
1.00000000434
1.00000000316
1.00000000063
)
;
    }
    procBoundary6to8
    {
        type            processor;
        value           nonuniform List<scalar> 
16
(
0.999999584467
0.999999745035
0.999999745035
1.00000018699
1.00000043536
1.00000067883
1.0000008778
1.00000100524
1.00000104659
1.00000100208
1.00000088822
1.00000073768
1.00000059223
1.00000047106
1.00000038379
1.00000038175
)
;
    }
    procBoundary6to9
    {
        type            processor;
        value           nonuniform List<scalar> 4(0.999999965115 0.990086892897 0.429245809405 0);
    }
}


// ************************************************************************* //
