/*--------------------------------*- C++ -*----------------------------------*\
| =========                 |                                                 |
| \\      /  F ield         | OpenFOAM: The Open Source CFD Toolbox           |
|  \\    /   O peration     | Version:  v2012                                 |
|   \\  /    A nd           | Website:  www.openfoam.com                      |
|    \\/     M anipulation  |                                                 |
\*---------------------------------------------------------------------------*/
FoamFile
{
    version     2.0;
    format      ascii;
    class       volScalarField;
    location    "4.2";
    object      nut;
}
// * * * * * * * * * * * * * * * * * * * * * * * * * * * * * * * * * * * * * //

dimensions      [0 2 -1 0 0 0 0];


internalField   nonuniform List<scalar> 
166
(
0.000365306681335
0.000543298990892
0.000560434042213
0.000566642766239
0.00056901290159
0.000570126433153
0.000570906425863
0.00057166665609
0.000572518608916
0.000573539133818
0.000574887991972
0.000577020991373
0.000581247431225
0.000591438931398
0.000619560452569
0.000698447778461
0.00088389223622
0.00126360499611
0.0020660913303
0.00315586344195
0.000365091402499
0.000542963898388
0.000560091491171
0.000566296225348
0.000568661196686
0.000569766492528
0.000570535120103
0.000571281471564
0.000572118538897
0.000573127312558
0.000574477149336
0.000576641060369
0.000580946325924
0.000591249190288
0.00061937092178
0.000696861787783
0.000872732642151
0.00121966457717
0.00200412700265
0.00310512796729
0.000364844370451
0.000542560961305
0.000559682838617
0.000565887567606
0.000568250214883
0.000569349628308
0.00057010925477
0.000570844362625
0.000571669611829
0.00057267030825
0.000574026273212
0.000576229732598
0.000580630968845
0.000591079493456
0.000619255471167
0.000696034147734
0.000866459199108
0.0011816811967
0.0019142027198
0.00312731507959
0.000364562985691
0.000542095277835
0.000559213131874
0.000565419404653
0.000567783095437
0.000568879652763
0.000569632872757
0.000570359313963
0.000571175759888
0.000572172595923
0.00057354187696
0.000575797313165
0.000580328604299
0.000591007983014
0.000619438907788
0.00069605820625
0.000864154240797
0.0011641201547
0.00178348466352
0.00329205188267
0.000364234073354
0.000541575440556
0.000558691387331
0.000564899988709
0.000567265367922
0.000568360466117
0.000569109375953
0.00056982980289
0.000570640874851
0.000571638723572
0.000573029896163
0.000575363551439
0.000580082224664
0.000591147601059
0.000620192972023
0.000696823942981
0.000862140336867
0.00115066203749
0.00170770099452
0.00308503849293
0.000363860570048
0.000541007099415
0.000558121585083
0.000564332117991
0.000566699865994
0.000567795027126
0.00056854182583
0.00056925890495
0.000570067422415
0.000571069534625
0.000572488787668
0.000574909969399
0.000579844198783
0.000591385272515
0.000621295688364
0.000698660743836
0.000862394265013
0.00114323926634
0.00165319630305
0.00253991907658
0.000363448536871
0.00054039603568
0.00055750546124
0.000563718333419
0.000566089502075
0.00056718668442
0.000567933604494
0.000568650005877
0.00056945879645
0.000570469261465
0.000571922701283
0.000574434165391
0.000579583283847
0.000591565083879
0.000622238803374
0.000700154345005
0.000861750026964
0.00113256339138
0.00162934998446
0.00270425718345
0.00036299679009
0.000539741126103
0.000556846536969
0.000563061073774
0.00056543731961
0.000566538206874
0.00056728767637
0.000568005451202
0.000568817909659
0.000569842182119
0.000571328331192
0.000573928050395
0.000579261717349
0.00059159050001
0.000622830360351
0.00070119635437
0.000861586703289
0.00111976164623
0.00157656771194
0.00360176863105
0.000362505347968
0.00053904539361
0.000556144983811
0.000361979045154
0.000361418802733
0.000360828971018
)
;

boundaryField
{
    back
    {
        type            nutkWallFunction;
        blending        stepwise;
        Cmu             0.09;
        kappa           0.41;
        E               9.8;
        value           nonuniform List<scalar> 
166
(
5.19103897821e-05
5.73506805262e-05
5.89947252503e-05
5.95875552364e-05
5.981238912e-05
5.99169067224e-05
5.9989369113e-05
6.00596114573e-05
6.01381099839e-05
6.02319297075e-05
6.03556398491e-05
6.0550531277e-05
6.09334846352e-05
6.18400427153e-05
6.42817478741e-05
7.10621195906e-05
8.68311204601e-05
0.000116124731809
0.000174998004887
0.000338634104526
5.18837499069e-05
5.73182193237e-05
5.89607752411e-05
5.9552721293e-05
5.97768009124e-05
5.98803903871e-05
5.99516724823e-05
6.00205109533e-05
6.00975229729e-05
6.01902209449e-05
6.03142953261e-05
6.05134425314e-05
6.09086015464e-05
6.18424387154e-05
6.43450823269e-05
7.1212400119e-05
8.67293335817e-05
0.000114389299274
0.000172019415533
0.000339492496668
5.18520975337e-05
5.72802164328e-05
5.89212642284e-05
5.95124918317e-05
5.97359955884e-05
5.98388506413e-05
5.99091698988e-05
5.99768610037e-05
6.00526970929e-05
6.01446681123e-05
6.0269734629e-05
6.04742473812e-05
6.08839310234e-05
6.18498927848e-05
6.44209739687e-05
7.14043417887e-05
8.68792491759e-05
0.000113313721976
0.000166316220549
0.00033318916657
5.18147865163e-05
5.72370336684e-05
5.8876746949e-05
5.94673241706e-05
5.96903902808e-05
5.97926853234e-05
5.98622479374e-05
5.99290288185e-05
6.00039797038e-05
6.00956371788e-05
6.02223906637e-05
6.04335758007e-05
6.08609504943e-05
6.18666950024e-05
6.45211365509e-05
7.16365351816e-05
8.71691114579e-05
0.00011324998137
0.000161108300509
0.000304379241089
5.17717739364e-05
5.71891509599e-05
5.88277166795e-05
5.94176790777e-05
5.96403721105e-05
5.97422410966e-05
5.98112453854e-05
5.98773650228e-05
5.99517510081e-05
6.0043510928e-05
6.01725469568e-05
6.03920074586e-05
6.08406989338e-05
6.18950351792e-05
6.46505355292e-05
7.18995010697e-05
8.74274174177e-05
0.000113289207574
0.00015985574373
0.000301598844804
5.17234806364e-05
5.71371013069e-05
5.8774526229e-05
5.93638330487e-05
5.95862279729e-05
5.96878290743e-05
5.97565007925e-05
5.98222375166e-05
5.98963476859e-05
5.99885347237e-05
6.01204767631e-05
6.0349180178e-05
6.08211988554e-05
6.19288586353e-05
6.47902995144e-05
7.21733659377e-05
8.76745217048e-05
0.000113169532825
0.000159584062405
0.000297538015724
5.16707917169e-05
5.70813324214e-05
5.87172942789e-05
5.93060171871e-05
5.95282391969e-05
5.96297828859e-05
5.96983575772e-05
5.9763978687e-05
5.98380954748e-05
5.99311202535e-05
6.00665445265e-05
6.03048227197e-05
6.08001151857e-05
6.19572427983e-05
6.49134464159e-05
7.24146360216e-05
8.78821702279e-05
0.000112757975849
0.000157513335198
0.000297993472747
5.1613395011e-05
5.70216842033e-05
5.86563502863e-05
5.92444702701e-05
5.94667013382e-05
5.95683722939e-05
5.96370998988e-05
5.97028230483e-05
5.97772987104e-05
5.98716626403e-05
6.00105488106e-05
6.02581548147e-05
6.07736323184e-05
6.19703628893e-05
6.50006575062e-05
7.26110034477e-05
8.81618324317e-05
0.000112496548108
0.000152221986673
0.00028766088154
5.15513114575e-05
5.69584633543e-05
5.85917084803e-05
5.1485307598e-05
5.14154048144e-05
5.13420437637e-05
)
;
    }
    sides
    {
        type            nutkWallFunction;
        blending        stepwise;
        Cmu             0.09;
        kappa           0.41;
        E               9.8;
        value           nonuniform List<scalar> 0();
    }
    bottom
    {
        type            nutkWallFunction;
        blending        stepwise;
        Cmu             0.09;
        kappa           0.41;
        E               9.8;
        value           nonuniform List<scalar> 
12
(
2.7565810058e-05
2.75515643278e-05
2.75346380878e-05
2.75146857729e-05
2.7491684387e-05
2.74658589294e-05
2.74376826694e-05
2.74069886191e-05
2.7373787918e-05
2.73384904358e-05
2.73011075514e-05
2.72618748654e-05
)
;
    }
    front
    {
        type            nutkWallFunction;
        blending        stepwise;
        Cmu             0.09;
        kappa           0.41;
        E               9.8;
        value           nonuniform List<scalar> 
166
(
5.19103897821e-05
5.73506805262e-05
5.89947252503e-05
5.95875552364e-05
5.981238912e-05
5.99169067224e-05
5.9989369113e-05
6.00596114573e-05
6.01381099839e-05
6.02319297075e-05
6.03556398491e-05
6.0550531277e-05
6.09334846352e-05
6.18400427153e-05
6.42817478741e-05
7.10621195906e-05
8.68311204601e-05
0.000116124731809
0.000174998004887
0.000338634104526
5.18837499069e-05
5.73182193237e-05
5.89607752411e-05
5.9552721293e-05
5.97768009124e-05
5.98803903871e-05
5.99516724823e-05
6.00205109533e-05
6.00975229729e-05
6.01902209449e-05
6.03142953261e-05
6.05134425314e-05
6.09086015464e-05
6.18424387154e-05
6.43450823269e-05
7.1212400119e-05
8.67293335817e-05
0.000114389299274
0.000172019415533
0.000339492496668
5.18520975337e-05
5.72802164328e-05
5.89212642284e-05
5.95124918317e-05
5.97359955884e-05
5.98388506413e-05
5.99091698988e-05
5.99768610037e-05
6.00526970929e-05
6.01446681123e-05
6.0269734629e-05
6.04742473812e-05
6.08839310234e-05
6.18498927848e-05
6.44209739687e-05
7.14043417887e-05
8.68792491759e-05
0.000113313721976
0.000166316220549
0.00033318916657
5.18147865163e-05
5.72370336684e-05
5.8876746949e-05
5.94673241706e-05
5.96903902808e-05
5.97926853234e-05
5.98622479374e-05
5.99290288185e-05
6.00039797038e-05
6.00956371788e-05
6.02223906637e-05
6.04335758007e-05
6.08609504943e-05
6.18666950024e-05
6.45211365509e-05
7.16365351816e-05
8.71691114579e-05
0.00011324998137
0.000161108300509
0.000304379241089
5.17717739364e-05
5.71891509599e-05
5.88277166795e-05
5.94176790777e-05
5.96403721105e-05
5.97422410966e-05
5.98112453854e-05
5.98773650228e-05
5.99517510081e-05
6.0043510928e-05
6.01725469568e-05
6.03920074586e-05
6.08406989338e-05
6.18950351792e-05
6.46505355292e-05
7.18995010697e-05
8.74274174177e-05
0.000113289207574
0.00015985574373
0.000301598844804
5.17234806364e-05
5.71371013069e-05
5.8774526229e-05
5.93638330487e-05
5.95862279729e-05
5.96878290743e-05
5.97565007925e-05
5.98222375166e-05
5.98963476859e-05
5.99885347237e-05
6.01204767631e-05
6.0349180178e-05
6.08211988554e-05
6.19288586353e-05
6.47902995144e-05
7.21733659377e-05
8.76745217048e-05
0.000113169532825
0.000159584062405
0.000297538015724
5.16707917169e-05
5.70813324214e-05
5.87172942789e-05
5.93060171871e-05
5.95282391969e-05
5.96297828859e-05
5.96983575772e-05
5.9763978687e-05
5.98380954748e-05
5.99311202535e-05
6.00665445265e-05
6.03048227197e-05
6.08001151857e-05
6.19572427983e-05
6.49134464159e-05
7.24146360216e-05
8.78821702279e-05
0.000112757975849
0.000157513335198
0.000297993472747
5.1613395011e-05
5.70216842033e-05
5.86563502863e-05
5.92444702701e-05
5.94667013382e-05
5.95683722939e-05
5.96370998988e-05
5.97028230483e-05
5.97772987104e-05
5.98716626403e-05
6.00105488106e-05
6.02581548147e-05
6.07736323184e-05
6.19703628893e-05
6.50006575062e-05
7.26110034477e-05
8.81618324317e-05
0.000112496548108
0.000152221986673
0.00028766088154
5.15513114575e-05
5.69584633543e-05
5.85917084803e-05
5.1485307598e-05
5.14154048144e-05
5.13420437637e-05
)
;
    }
    atmosphere
    {
        type            calculated;
        value           uniform 0.009;
    }
    floatingObject
    {
        type            nutkWallFunction;
        blending        stepwise;
        Cmu             0.09;
        kappa           0.41;
        E               9.8;
        value           nonuniform List<scalar> 0();
    }
    procBoundary9to6
    {
        type            processor;
        value           nonuniform List<scalar> 4(0.000892109076924 0.00129821378003 0.00212374583712 0.0031576531479);
    }
    procBoundary9to7
    {
        type            processor;
        value           nonuniform List<scalar> 
16
(
0.000365475937243
0.000543569841323
0.000560711985973
0.000566926214241
0.000569303836068
0.000570428053057
0.000571221807192
0.000571998293263
0.000572867644971
0.000573902924892
0.000575255039923
0.000577363155601
0.000581520076058
0.000591592162723
0.000619592610681
0.000699022520843
)
;
    }
    procBoundary9to10
    {
        type            processor;
        value           nonuniform List<scalar> 
15
(
0.000562362535632
0.000564744958428
0.000565852006571
0.000566606386663
0.000567329337418
0.000568150023246
0.000569187203628
0.000570712278811
0.000538304779392
0.000562362535632
0.000555402193647
0.000538304779392
0.000537526293362
0.000536716433261
0.000360208493726
)
;
    }
    procBoundary9to11
    {
        type            processor;
        value           nonuniform List<scalar> 9(0.000573393242567 0.000578866306892 0.000591401375281 0.00062291871531 0.000701752896558 0.000863280945959 0.00111844856344 0.00151207744684 0.00308645048481);
    }
}


// ************************************************************************* //
