/*--------------------------------*- C++ -*----------------------------------*\
| =========                 |                                                 |
| \\      /  F ield         | OpenFOAM: The Open Source CFD Toolbox           |
|  \\    /   O peration     | Version:  v2012                                 |
|   \\  /    A nd           | Website:  www.openfoam.com                      |
|    \\/     M anipulation  |                                                 |
\*---------------------------------------------------------------------------*/
FoamFile
{
    version     2.0;
    format      ascii;
    class       volScalarField;
    location    "3.4";
    object      ddt0(epsilon);
}
// * * * * * * * * * * * * * * * * * * * * * * * * * * * * * * * * * * * * * //

dimensions      [0 2 -4 0 0 0 0];


internalField   nonuniform List<scalar> 
166
(
-0.000738548641977
-0.000740778630065
-0.000743146145439
-0.000745533375939
-0.000748073307421
-0.00075133404969
-0.00074727747568
-0.000663408913875
-0.000200226475642
0.00110164851011
0.00114135839208
-0.00672665129457
-0.00609598003694
-0.000736482231649
-0.000738423023429
-0.000740388225886
-0.000742557959854
-0.000744838420957
-0.000747041068517
-0.000749047316526
-0.000750569758088
-0.000741877748403
-0.00064448923826
-0.000113971224011
0.00154904466161
0.00256633903498
-0.00572406123156
-0.00765745856673
-0.00062681802238
-0.000650169434464
-0.0007355022753
-0.000738246177292
-0.00074017787136
-0.00074210617198
-0.000744209678579
-0.000746407690603
-0.000748449884291
-0.000749996213629
-0.000750056797374
-0.000737775273784
-0.0006308152744
-3.41542249364e-05
0.00206494492551
0.00437950150978
-0.00313969078951
-0.00748821991692
-0.000628666635359
-0.000651960632201
-0.000710696590398
-0.000730564906013
-0.000737169210499
-0.000739920317193
-0.000741809206679
-0.000743685830582
-0.000745724358965
-0.000747846942079
-0.000749771245011
-0.000751000565981
-0.000750050294307
-0.000735375503754
-0.000622329030854
3.12014650475e-05
0.00258937331623
0.0066244021391
0.000818268981132
-0.00637444682208
-0.000630487568664
-0.000653678066729
-0.000712382001306
-0.000732184485771
-0.000738756644544
-0.000741462159264
-0.00074331167253
-0.000745140371934
-0.000747117225692
-0.000749164595647
-0.00075100407645
-0.000752040463365
-0.000750456189233
-0.000734229496829
-0.000617193402716
8.0064265962e-05
0.00302647588788
0.00856192985116
0.00374104449996
-0.00602885245763
-0.000632129296553
-0.000655308091079
-0.000714000232313
-0.000733713795765
-0.000740221564987
-0.000742886736397
-0.000744696615694
-0.000746478982985
-0.000748400203763
-0.000750385832829
-0.000752160521088
-0.000753090518851
-0.000751153937328
-0.000733999764416
-0.000614339097142
0.00011232796935
0.00330895691139
0.00991471221184
0.00656741592269
-0.00520053931532
-0.000633730742286
-0.000656839093279
-0.000715509192495
-0.000735125141879
-0.00074156813613
-0.000744194980124
-0.000745973065412
-0.000747717524885
-0.000749591535995
-0.000751528466013
-0.000753265206746
-0.000754157692831
-0.000752079954081
-0.000734588982311
-0.000614552282896
0.000122871099786
0.00342796525099
0.0107465255953
0.0105121936003
-0.00239951178513
-0.000635211185608
-0.000658278899643
-0.000716914007924
-0.000736427407337
-0.000742805201819
-0.000745394476559
-0.000747150217512
-0.000748871061563
-0.000750711112898
-0.000752616946634
-0.000754349246922
-0.000755292478812
-0.000753355780898
-0.00073647671638
-0.000620408930721
0.000104339045035
0.00347831364822
0.0117469857307
0.0135410028353
-0.00106033770953
-0.000636587643096
-0.000659621875897
-0.000718204709643
-0.00073761506418
-0.00074393349195
-0.000746497322688
-0.000748242913772
-0.000749949850158
-0.000751779348437
-0.00075367901574
-0.00075544836537
-0.000756558552817
-0.000755148530442
-0.000740505441152
-0.000636436509632
4.5793435053e-05
0.00352622810816
0.0131072655796
0.0132289270504
-0.00359714798594
)
;

boundaryField
{
    back
    {
        type            calculated;
        value           nonuniform List<scalar> 
166
(
-0.000738548641977
-0.000740778630065
-0.000743146145439
-0.000745533375939
-0.000748073307421
-0.00075133404969
-0.00074727747568
-0.000663408913875
-0.000200226475642
0.00110164851011
0.00114135839208
-0.00672665129457
-0.00609598003694
-0.000736482231649
-0.000738423023429
-0.000740388225886
-0.000742557959854
-0.000744838420957
-0.000747041068517
-0.000749047316526
-0.000750569758088
-0.000741877748403
-0.00064448923826
-0.000113971224011
0.00154904466161
0.00256633903498
-0.00572406123156
-0.00765745856673
-0.00062681802238
-0.000650169434464
-0.0007355022753
-0.000738246177292
-0.00074017787136
-0.00074210617198
-0.000744209678579
-0.000746407690603
-0.000748449884291
-0.000749996213629
-0.000750056797374
-0.000737775273784
-0.0006308152744
-3.41542249364e-05
0.00206494492551
0.00437950150978
-0.00313969078951
-0.00748821991691
-0.000628666635359
-0.000651960632201
-0.000710696590398
-0.000730564906013
-0.000737169210499
-0.000739920317193
-0.000741809206679
-0.000743685830582
-0.000745724358965
-0.000747846942079
-0.000749771245011
-0.000751000565981
-0.000750050294307
-0.000735375503754
-0.000622329030854
3.12014650475e-05
0.00258937331623
0.0066244021391
0.000818268981131
-0.00637444682208
-0.000630487568664
-0.000653678066729
-0.000712382001306
-0.000732184485771
-0.000738756644544
-0.000741462159264
-0.00074331167253
-0.000745140371934
-0.000747117225692
-0.000749164595647
-0.00075100407645
-0.000752040463365
-0.000750456189233
-0.000734229496829
-0.000617193402716
8.0064265962e-05
0.00302647588788
0.00856192985116
0.00374104449996
-0.00602885245763
-0.000632129296553
-0.000655308091079
-0.000714000232313
-0.000733713795765
-0.000740221564987
-0.000742886736397
-0.000744696615694
-0.000746478982985
-0.000748400203762
-0.000750385832829
-0.000752160521088
-0.000753090518851
-0.000751153937328
-0.000733999764416
-0.000614339097142
0.00011232796935
0.00330895691139
0.00991471221184
0.00656741592269
-0.00520053931532
-0.000633730742286
-0.000656839093279
-0.000715509192495
-0.000735125141879
-0.00074156813613
-0.000744194980124
-0.000745973065412
-0.000747717524885
-0.000749591535995
-0.000751528466013
-0.000753265206746
-0.000754157692831
-0.000752079954081
-0.000734588982311
-0.000614552282896
0.000122871099786
0.00342796525099
0.0107465255953
0.0105121936003
-0.00239951178513
-0.000635211185608
-0.000658278899643
-0.000716914007924
-0.000736427407337
-0.000742805201819
-0.000745394476559
-0.000747150217512
-0.000748871061563
-0.000750711112898
-0.000752616946634
-0.000754349246922
-0.000755292478812
-0.000753355780898
-0.00073647671638
-0.000620408930721
0.000104339045035
0.00347831364822
0.0117469857307
0.0135410028353
-0.00106033770953
-0.000636587643096
-0.000659621875897
-0.000718204709643
-0.00073761506418
-0.00074393349195
-0.000746497322688
-0.000748242913772
-0.000749949850158
-0.000751779348437
-0.00075367901574
-0.00075544836537
-0.000756558552817
-0.000755148530442
-0.000740505441152
-0.000636436509632
4.5793435053e-05
0.00352622810816
0.0131072655796
0.0132289270504
-0.00359714798594
)
;
    }
    sides
    {
        type            calculated;
        value           nonuniform List<scalar> 0();
    }
    bottom
    {
        type            calculated;
        value           nonuniform List<scalar> 7(-0.00062681802238 -0.000628666635359 -0.000630487568664 -0.000632129296553 -0.000633730742286 -0.000635211185608 -0.000636587643096);
    }
    front
    {
        type            calculated;
        value           nonuniform List<scalar> 
166
(
-0.000738548641977
-0.000740778630065
-0.000743146145439
-0.000745533375939
-0.000748073307421
-0.00075133404969
-0.00074727747568
-0.000663408913875
-0.000200226475642
0.00110164851011
0.00114135839208
-0.00672665129457
-0.00609598003694
-0.000736482231649
-0.000738423023429
-0.000740388225886
-0.000742557959854
-0.000744838420957
-0.000747041068517
-0.000749047316526
-0.000750569758088
-0.000741877748403
-0.00064448923826
-0.000113971224011
0.00154904466161
0.00256633903498
-0.00572406123156
-0.00765745856673
-0.00062681802238
-0.000650169434464
-0.0007355022753
-0.000738246177292
-0.00074017787136
-0.00074210617198
-0.000744209678579
-0.000746407690603
-0.000748449884291
-0.000749996213629
-0.000750056797374
-0.000737775273784
-0.0006308152744
-3.41542249364e-05
0.00206494492551
0.00437950150978
-0.00313969078951
-0.00748821991691
-0.000628666635359
-0.000651960632201
-0.000710696590398
-0.000730564906013
-0.000737169210499
-0.000739920317193
-0.000741809206679
-0.000743685830582
-0.000745724358965
-0.000747846942079
-0.000749771245011
-0.000751000565981
-0.000750050294307
-0.000735375503754
-0.000622329030854
3.12014650475e-05
0.00258937331623
0.0066244021391
0.000818268981131
-0.00637444682208
-0.000630487568664
-0.000653678066729
-0.000712382001306
-0.000732184485771
-0.000738756644544
-0.000741462159264
-0.00074331167253
-0.000745140371934
-0.000747117225692
-0.000749164595647
-0.00075100407645
-0.000752040463365
-0.000750456189233
-0.000734229496829
-0.000617193402716
8.0064265962e-05
0.00302647588788
0.00856192985116
0.00374104449996
-0.00602885245763
-0.000632129296553
-0.000655308091079
-0.000714000232313
-0.000733713795765
-0.000740221564987
-0.000742886736397
-0.000744696615694
-0.000746478982985
-0.000748400203762
-0.000750385832829
-0.000752160521088
-0.000753090518851
-0.000751153937328
-0.000733999764416
-0.000614339097142
0.00011232796935
0.00330895691139
0.00991471221184
0.00656741592269
-0.00520053931532
-0.000633730742286
-0.000656839093279
-0.000715509192495
-0.000735125141879
-0.00074156813613
-0.000744194980124
-0.000745973065412
-0.000747717524885
-0.000749591535995
-0.000751528466013
-0.000753265206746
-0.000754157692831
-0.000752079954081
-0.000734588982311
-0.000614552282896
0.000122871099786
0.00342796525099
0.0107465255953
0.0105121936003
-0.00239951178513
-0.000635211185608
-0.000658278899643
-0.000716914007924
-0.000736427407337
-0.000742805201819
-0.000745394476559
-0.000747150217512
-0.000748871061563
-0.000750711112898
-0.000752616946634
-0.000754349246922
-0.000755292478812
-0.000753355780898
-0.00073647671638
-0.000620408930721
0.000104339045035
0.00347831364822
0.0117469857307
0.0135410028353
-0.00106033770953
-0.000636587643096
-0.000659621875897
-0.000718204709643
-0.00073761506418
-0.00074393349195
-0.000746497322688
-0.000748242913772
-0.000749949850158
-0.000751779348437
-0.00075367901574
-0.00075544836537
-0.000756558552817
-0.000755148530442
-0.000740505441152
-0.000636436509632
4.5793435053e-05
0.00352622810816
0.0131072655796
0.0132289270504
-0.00359714798594
)
;
    }
    atmosphere
    {
        type            calculated;
        value           nonuniform List<scalar> 9(1.62499014615e-10 3.67946724405e-10 3.95391825939e-09 7.28778987097e-10 3.95395652327e-10 -4.96688568899e-12 -1.5716659739e-12 3.00049778648e-15 2.72078251494e-06);
    }
    floatingObject
    {
        type            calculated;
        value           nonuniform List<scalar> 0();
    }
    procBoundary0to1
    {
        type            processor;
        value           nonuniform List<scalar> 10(-0.000743757560358 -0.000746763675372 -0.000751505023492 -0.000751718560178 -0.000682143226622 -0.00028233975165 0.000716846994966 -0.000223085951092 -0.00769282185969 -0.00448713330008);
    }
    procBoundary0to2
    {
        type            processor;
        value           nonuniform List<scalar> 
14
(
-0.000736546509282
-0.000738805099817
-0.000741243310251
-0.000734515349534
-0.000736523552049
-0.000736523552049
-0.000624795581011
-0.000648237391917
-0.000733631490019
-0.000733631490019
-0.000708853218575
-0.000708853218575
-0.000728787640717
-0.000728787640717
)
;
    }
    procBoundary0to4
    {
        type            processor;
        value           nonuniform List<scalar> 8(-0.000637960596127 -0.000660859995726 -0.000719376023386 -0.000738690331516 -0.00074496175062 -0.000747517395585 -0.000749267988872 -0.000750991054371);
    }
    procBoundary0to5
    {
        type            processor;
        value           nonuniform List<scalar> 
12
(
-0.000752849146914
-0.000754756598794
-0.000756617969199
-0.000758031457463
-0.000757658657347
-0.000747569633502
-0.000666255040944
-6.47305617041e-05
0.00344997343397
0.0136407103657
0.00900149118419
-0.00776076088073
)
;
    }
}


// ************************************************************************* //
