/*--------------------------------*- C++ -*----------------------------------*\
| =========                 |                                                 |
| \\      /  F ield         | OpenFOAM: The Open Source CFD Toolbox           |
|  \\    /   O peration     | Version:  v2012                                 |
|   \\  /    A nd           | Website:  www.openfoam.com                      |
|    \\/     M anipulation  |                                                 |
\*---------------------------------------------------------------------------*/
FoamFile
{
    version     2.0;
    format      ascii;
    class       volScalarField;
    location    "3.4";
    object      k;
}
// * * * * * * * * * * * * * * * * * * * * * * * * * * * * * * * * * * * * * //

dimensions      [0 2 -2 0 0 0 0];


internalField   nonuniform List<scalar> 
166
(
0.00374462507011
0.00375410739261
0.00376621071952
0.00378457507642
0.00381896877341
0.00389286750738
0.00406041832763
0.00446997773261
0.00562802887551
0.00908804637278
0.0179217766348
0.0363004214847
0.0745016342153
0.00373655572575
0.00374471685602
0.0037528172458
0.00376211111635
0.00377390819472
0.00379167686754
0.00382485771665
0.00389672487621
0.00406235087767
0.00447250752671
0.0056312411686
0.00908603887915
0.0180233751935
0.0368329907291
0.0747819514763
0.00275094572436
0.00342367619531
0.00373305632105
0.00374466702051
0.00375273701503
0.00376072720017
0.00376986644731
0.00378138816337
0.0037985408624
0.00383031664127
0.00389930683706
0.00406011172364
0.00446214454884
0.00560294766824
0.00905192136522
0.0181749630635
0.037445364443
0.0751171308795
0.00275693109061
0.00343082316962
0.00364110600007
0.00371461923908
0.00374083298468
0.00375240075003
0.00376040460049
0.00376831281743
0.00377733179356
0.00378862267917
0.00380517691562
0.0038354435722
0.00390105780328
0.00405533655916
0.00444499751132
0.00556085515822
0.008996584209
0.0182893479125
0.0379771665757
0.0754196384355
0.00276246938104
0.00343743536907
0.0036482376907
0.0037219216284
0.00374816552744
0.00375971405009
0.00376768606608
0.00377554988734
0.00378448719443
0.00379557890158
0.0038115920988
0.00384040547766
0.00390265062214
0.00405030045174
0.00442798473386
0.00552282538054
0.00895040218051
0.0184014661285
0.0384706498208
0.0756778979285
0.00276732538247
0.00344349196975
0.00365484029579
0.00372872114255
0.00375502247491
0.00376658620429
0.00377455734015
0.00378241539804
0.00379131639591
0.00380225989916
0.0038177928028
0.00384527345768
0.00390440665452
0.00404600138785
0.00441332973729
0.00549202562044
0.00891754164727
0.0184558095354
0.0387237500293
0.0757882061858
0.0027716375527
0.00344894695169
0.00366086941485
0.00373497365681
0.00376136162165
0.0037729766728
0.0037809875457
0.00378888322081
0.00379779711494
0.00380865079388
0.00382377720831
0.0038500487044
0.00390634189664
0.00404259791703
0.00440158358757
0.00546906339065
0.00888321717352
0.0183996673287
0.0386099790102
0.0756955015568
0.00277525844849
0.00345375263227
0.00366628230419
0.0037406432372
0.00376714716294
0.00377883806407
0.00378693239204
0.00379491361124
0.00380389516307
0.00381472583027
0.00382953267548
0.00385472385642
0.00390840391923
0.004039741051
0.00439111602932
0.00544353441378
0.00881217675111
0.018229694489
0.0384224199002
0.0756260136619
0.00277811781276
0.00345785370868
0.00367102502117
0.00374568406977
0.0037723424045
0.0037841477779
0.00379236202121
0.00380047104527
0.00380957606509
0.00382045534401
0.00383504124896
0.00385928793546
0.00391049987018
0.00403685194699
0.00437818151315
0.00539853460392
0.00866518094904
0.0180118697339
0.038558681893
0.0758013734011
)
;

boundaryField
{
    back
    {
        type            kqRWallFunction;
        value           nonuniform List<scalar> 
166
(
0.00374462507011
0.00375410739261
0.00376621071952
0.00378457507642
0.00381896877341
0.00389286750738
0.00406041832763
0.00446997773261
0.00562802887551
0.00908804637278
0.0179217766348
0.0363004214847
0.0745016342153
0.00373655572575
0.00374471685602
0.0037528172458
0.00376211111635
0.00377390819472
0.00379167686754
0.00382485771665
0.00389672487621
0.00406235087767
0.00447250752671
0.0056312411686
0.00908603887915
0.0180233751935
0.0368329907291
0.0747819514763
0.00275094572436
0.00342367619531
0.00373305632105
0.00374466702051
0.00375273701503
0.00376072720017
0.00376986644731
0.00378138816337
0.0037985408624
0.00383031664127
0.00389930683706
0.00406011172364
0.00446214454884
0.00560294766824
0.00905192136522
0.0181749630635
0.037445364443
0.0751171308795
0.00275693109061
0.00343082316962
0.00364110600007
0.00371461923908
0.00374083298468
0.00375240075003
0.00376040460049
0.00376831281743
0.00377733179356
0.00378862267917
0.00380517691562
0.0038354435722
0.00390105780328
0.00405533655916
0.00444499751132
0.00556085515822
0.008996584209
0.0182893479125
0.0379771665757
0.0754196384355
0.00276246938104
0.00343743536907
0.0036482376907
0.0037219216284
0.00374816552744
0.00375971405009
0.00376768606608
0.00377554988734
0.00378448719443
0.00379557890158
0.0038115920988
0.00384040547766
0.00390265062214
0.00405030045174
0.00442798473386
0.00552282538054
0.00895040218051
0.0184014661285
0.0384706498208
0.0756778979285
0.00276732538247
0.00344349196975
0.00365484029579
0.00372872114255
0.00375502247491
0.00376658620429
0.00377455734015
0.00378241539804
0.00379131639591
0.00380225989916
0.0038177928028
0.00384527345768
0.00390440665452
0.00404600138785
0.00441332973729
0.00549202562044
0.00891754164727
0.0184558095354
0.0387237500293
0.0757882061858
0.0027716375527
0.00344894695169
0.00366086941485
0.00373497365681
0.00376136162165
0.0037729766728
0.0037809875457
0.00378888322081
0.00379779711494
0.00380865079388
0.00382377720831
0.0038500487044
0.00390634189664
0.00404259791703
0.00440158358757
0.00546906339065
0.00888321717352
0.0183996673287
0.0386099790102
0.0756955015568
0.00277525844849
0.00345375263227
0.00366628230419
0.0037406432372
0.00376714716294
0.00377883806407
0.00378693239204
0.00379491361124
0.00380389516307
0.00381472583027
0.00382953267548
0.00385472385642
0.00390840391923
0.004039741051
0.00439111602932
0.00544353441378
0.00881217675111
0.018229694489
0.0384224199002
0.0756260136619
0.00277811781276
0.00345785370868
0.00367102502117
0.00374568406977
0.0037723424045
0.0037841477779
0.00379236202121
0.00380047104527
0.00380957606509
0.00382045534401
0.00383504124896
0.00385928793546
0.00391049987018
0.00403685194699
0.00437818151315
0.00539853460392
0.00866518094904
0.0180118697339
0.038558681893
0.0758013734011
)
;
    }
    sides
    {
        type            kqRWallFunction;
        value           nonuniform List<scalar> 0();
    }
    bottom
    {
        type            kqRWallFunction;
        value           nonuniform List<scalar> 7(0.00275094572436 0.00275693109061 0.00276246938104 0.00276732538247 0.0027716375527 0.00277525844849 0.00277811781276);
    }
    front
    {
        type            kqRWallFunction;
        value           nonuniform List<scalar> 
166
(
0.00374462507011
0.00375410739261
0.00376621071952
0.00378457507642
0.00381896877341
0.00389286750738
0.00406041832763
0.00446997773261
0.00562802887551
0.00908804637278
0.0179217766348
0.0363004214847
0.0745016342153
0.00373655572575
0.00374471685602
0.0037528172458
0.00376211111635
0.00377390819472
0.00379167686754
0.00382485771665
0.00389672487621
0.00406235087767
0.00447250752671
0.0056312411686
0.00908603887915
0.0180233751935
0.0368329907291
0.0747819514763
0.00275094572436
0.00342367619531
0.00373305632105
0.00374466702051
0.00375273701503
0.00376072720017
0.00376986644731
0.00378138816337
0.0037985408624
0.00383031664127
0.00389930683706
0.00406011172364
0.00446214454884
0.00560294766824
0.00905192136522
0.0181749630635
0.037445364443
0.0751171308795
0.00275693109061
0.00343082316962
0.00364110600007
0.00371461923908
0.00374083298468
0.00375240075003
0.00376040460049
0.00376831281743
0.00377733179356
0.00378862267917
0.00380517691562
0.0038354435722
0.00390105780328
0.00405533655916
0.00444499751132
0.00556085515822
0.008996584209
0.0182893479125
0.0379771665757
0.0754196384355
0.00276246938104
0.00343743536907
0.0036482376907
0.0037219216284
0.00374816552744
0.00375971405009
0.00376768606608
0.00377554988734
0.00378448719443
0.00379557890158
0.0038115920988
0.00384040547766
0.00390265062214
0.00405030045174
0.00442798473386
0.00552282538054
0.00895040218051
0.0184014661285
0.0384706498208
0.0756778979285
0.00276732538247
0.00344349196975
0.00365484029579
0.00372872114255
0.00375502247491
0.00376658620429
0.00377455734015
0.00378241539804
0.00379131639591
0.00380225989916
0.0038177928028
0.00384527345768
0.00390440665452
0.00404600138785
0.00441332973729
0.00549202562044
0.00891754164727
0.0184558095354
0.0387237500293
0.0757882061858
0.0027716375527
0.00344894695169
0.00366086941485
0.00373497365681
0.00376136162165
0.0037729766728
0.0037809875457
0.00378888322081
0.00379779711494
0.00380865079388
0.00382377720831
0.0038500487044
0.00390634189664
0.00404259791703
0.00440158358757
0.00546906339065
0.00888321717352
0.0183996673287
0.0386099790102
0.0756955015568
0.00277525844849
0.00345375263227
0.00366628230419
0.0037406432372
0.00376714716294
0.00377883806407
0.00378693239204
0.00379491361124
0.00380389516307
0.00381472583027
0.00382953267548
0.00385472385642
0.00390840391923
0.004039741051
0.00439111602932
0.00544353441378
0.00881217675111
0.018229694489
0.0384224199002
0.0756260136619
0.00277811781276
0.00345785370868
0.00367102502117
0.00374568406977
0.0037723424045
0.0037841477779
0.00379236202121
0.00380047104527
0.00380957606509
0.00382045534401
0.00383504124896
0.00385928793546
0.00391049987018
0.00403685194699
0.00437818151315
0.00539853460392
0.00866518094904
0.0180118697339
0.038558681893
0.0758013734011
)
;
    }
    atmosphere
    {
        type            inletOutlet;
        inletValue      uniform 0.1;
        value           uniform 0.1;
    }
    floatingObject
    {
        type            kqRWallFunction;
        value           nonuniform List<scalar> 0();
    }
    procBoundary0to1
    {
        type            processor;
        value           nonuniform List<scalar> 10(0.00377724666895 0.0038127458977 0.00388831738532 0.00405680149056 0.00446209240008 0.00560692727096 0.00906825686802 0.0179042595979 0.0360080138109 0.0743563508147);
    }
    procBoundary0to2
    {
        type            processor;
        value           nonuniform List<scalar> 
14
(
0.00373619564628
0.00374588415229
0.00375830022992
0.00372810575182
0.00373638630225
0.00373638630225
0.0027444368852
0.00341605320408
0.00372486937784
0.00372486937784
0.0036334656534
0.0036334656534
0.00370684117899
0.00370684117899
)
;
    }
    procBoundary0to4
    {
        type            processor;
        value           nonuniform List<scalar> 8(0.00278029809742 0.00346119398609 0.00367502931347 0.0037500353612 0.00377689573634 0.00378886148502 0.00379723849196 0.00380552669193);
    }
    procBoundary0to5
    {
        type            processor;
        value           nonuniform List<scalar> 
12
(
0.00381481500297
0.00382581201515
0.00384027283751
0.00386370298971
0.00391257021322
0.00403353198126
0.00436043625677
0.00532429084821
0.00843838536445
0.0178388312231
0.0390331533534
0.0761426767377
)
;
    }
}


// ************************************************************************* //
