/*--------------------------------*- C++ -*----------------------------------*\
| =========                 |                                                 |
| \\      /  F ield         | OpenFOAM: The Open Source CFD Toolbox           |
|  \\    /   O peration     | Version:  v2012                                 |
|   \\  /    A nd           | Website:  www.openfoam.com                      |
|    \\/     M anipulation  |                                                 |
\*---------------------------------------------------------------------------*/
FoamFile
{
    version     2.0;
    format      ascii;
    class       surfaceVectorField;
    location    "0.8";
    object      ddtCorrDdt0(Uf);
}
// * * * * * * * * * * * * * * * * * * * * * * * * * * * * * * * * * * * * * //

dimensions      [0 1 -2 0 0 0 0];


internalField   nonuniform List<vector> 
300
(
(-0.0506515440739 0.00746521254534 -8.25244223166e-22)
(-0.0522131752988 0.00385211203074 -8.96952413933e-22)
(-0.0540127344761 0.0149924267082 -1.24774378331e-22)
(-0.0568122714785 0.0109000399266 -1.5837297756e-22)
(-0.0560178568159 0.0227221835959 2.49671237791e-22)
(-0.0589051347717 0.017934331632 2.11580607731e-22)
(-0.0582983198024 0.0307922692996 8.83763150691e-23)
(-0.0610620215426 0.0255983819775 1.73043342653e-22)
(-0.0612425193134 0.0393335393997 -4.19757314582e-23)
(-0.0638481428832 0.0335227348489 -7.6020261447e-24)
(-0.0650101502965 0.0484725632297 -5.78647702075e-23)
(-0.0674554009551 0.0419333331297 -3.92546323509e-23)
(-0.0697336064302 0.0583381969199 -3.51140694206e-23)
(-0.0720095283444 0.0509459684696 -2.57495037327e-23)
(-0.0755688061127 0.0690617212606 -1.83992429598e-23)
(-0.0776511409016 0.0606778368199 -4.92153712748e-23)
(-0.0827084420449 0.0807766517571 -1.12247335313e-23)
(-0.0845530740438 0.071243896045 -3.70371518074e-23)
(-0.091391318973 0.0936164540932 -6.38356036964e-23)
(-0.0929286527702 0.0827574199592 1.47505529936e-23)
(-0.101910290908 0.107710795746 -8.99902929436e-23)
(-0.103040399453 0.0953248641399 -1.65425973946e-22)
(-0.114619362173 0.123180201117 -6.72528776369e-23)
(-0.115205837023 0.109035491359 -1.59591138701e-22)
(-0.129954813931 0.140123628067 1.13281966454e-22)
(-0.129801960552 0.123980768612 -5.08281542376e-23)
(-0.148351114324 0.158609336651 3.73509944893e-22)
(-0.147300462769 0.140186744073 2.31255226468e-22)
(-0.170137567552 0.178683574731 1.33429166485e-21)
(-0.168078647817 0.157753131093 1.21279698532e-22)
(-0.195251473481 0.20025899536 6.56643911117e-21)
(-0.192343162555 0.178039649979 -6.37094496223e-22)
(-0.213164385948 0.22352366313 1.14629733025e-20)
(-0.21979005761 0.195683271254 4.98270569195e-23)
(-0.231610822632 0.249651916314 3.85918190052e-21)
(-0.23045483787 0.183124186654 1.55908120253e-21)
(-0.209010326846 0.261485033459 1.09059280716e-20)
(-0.250008263257 0.18601287099 -1.95115940677e-20)
(-0.169784776888 0.260587180259 -1.5131766707e-21)
(-0.057838194841 0.00682263456143 -2.30081168328e-22)
(-0.0590394030241 0.00338662662358 -5.21241599063e-22)
(-0.0613150893674 0.0136867601111 1.77982008502e-22)
(-0.0636813574463 0.00989983796572 1.153611077e-21)
(-0.0635650478422 0.0207057792439 1.34952712594e-22)
(-0.065930437383 0.0161842569293 -9.4186074702e-24)
(-0.0662159590702 0.0280052932283 7.7065001439e-23)
(-0.0683692649242 0.0230355111975 1.88639119529e-23)
(-0.0696475140063 0.0356946303633 -4.88092703741e-24)
(-0.0715467447653 0.0301013777141 -3.0167431439e-23)
(-0.074015885041 0.0438749091179 -7.13936587611e-24)
(-0.0756463893713 0.0375606267194 -2.01831664329e-23)
(-0.0794529504239 0.0526449660647 -3.98508055869e-23)
(-0.0807914289678 0.0455001082053 -3.15710885146e-23)
(-0.0861137713714 0.0621015223098 -6.78532801224e-23)
(-0.0871201763871 0.0540057323119 -6.41075220587e-23)
(-0.0941883753861 0.0723374344125 -1.10618652825e-23)
(-0.0948014503555 0.0631562013235 -7.03392177928e-23)
(-0.103909407683 0.0834382063577 -8.68398172557e-23)
(-0.104041147602 0.0730226536098 4.23786934489e-24)
(-0.115558591513 0.095477118253 -2.35026819703e-22)
(-0.115089535335 0.0836624101498 -1.17865482558e-22)
(-0.129469272037 0.108508736641 -1.43166415301e-22)
(-0.128245484564 0.0951036079759 -1.0807351008e-22)
(-0.146044326698 0.122554493034 6.71451057766e-23)
(-0.143853086539 0.107372454293 1.14757288926e-24)
(-0.165688516968 0.137587200927 -2.09750198928e-23)
(-0.162335768583 0.120458252162 4.69439436923e-23)
(-0.188650848889 0.153553213008 -1.85010646254e-21)
(-0.184044902829 0.134268731467 -4.29469665337e-22)
(-0.214913247104 0.17025264411 -7.15370655048e-21)
(-0.209041424378 0.149677461508 -4.12467539997e-21)
(-0.234975163188 0.187683630636 -9.85406504303e-21)
(-0.237219893773 0.161966346076 -1.86395374308e-20)
(-0.246808167345 0.208607084393 -2.18116947656e-20)
(-0.251377763617 0.149868877814 -1.90734444592e-20)
(-0.213848863433 0.212277159437 -3.19306988099e-20)
(-0.253682523019 0.137909531626 -2.12903029371e-20)
(-0.0410094618145 0.20215686418 -2.57137949912e-20)
(-0.0643212133187 0.00608473078487 8.62450646264e-22)
(-0.0651291178426 0.00288249843706 -8.88216430787e-22)
(-0.0678783717221 0.0121842296483 9.66210461026e-22)
(-0.0697873040983 0.00876313185859 1.07308092218e-21)
(-0.0703207019065 0.0183973065763 -1.25507408111e-22)
(-0.0721511206152 0.014209908701 -2.7866397447e-22)
(-0.0732708264704 0.0248313574925 -8.83685209252e-23)
(-0.0748120236507 0.0201663421845 -1.82469364643e-22)
(-0.0770943648118 0.0315728137488 -4.54696708345e-23)
(-0.078298003974 0.0262892933797 -5.1905388725e-23)
(-0.0819408158186 0.0386979245126 -4.46148890714e-23)
(-0.082782271631 0.0327134486767 -5.39926185866e-23)
(-0.0879377827312 0.046277461812 -5.58278049864e-23)
(-0.0883824036432 0.0394985292297 -6.30777078179e-23)
(-0.0952347986416 0.0543760444095 -6.65934597291e-23)
(-0.0952304179833 0.0467015390864 -2.59468835278e-23)
(-0.104013367371 0.063049475414 -5.50394831655e-23)
(-0.103486198672 0.0543682703893 -1.03826322046e-22)
(-0.114493079417 0.0723404285921 -2.67877959573e-23)
(-0.113342486755 0.0625324529435 -7.9636815822e-23)
(-0.126936600254 0.0822726794428 9.08782706461e-24)
(-0.125030656688 0.0712090023105 1.45039939462e-23)
(-0.141647470178 0.0928437468003 3.62404781105e-23)
(-0.138823433549 0.0803734575862 -4.48540443625e-23)
(-0.158981793047 0.104009733146 -1.90535891951e-23)
(-0.155023685294 0.0899958329285 9.59001583983e-23)
(-0.179301118772 0.115663276138 -3.61550701752e-22)
(-0.173991675931 0.100054884502 1.25295683451e-22)
(-0.202765440603 0.127658135917 -2.70403860276e-21)
(-0.19604027238 0.110291011822 -4.00930402402e-22)
(-0.229353212667 0.139696318836 -1.56105062803e-20)
(-0.221079026281 0.121032536683 -4.67349252501e-21)
(-0.251433416782 0.151573418412 -2.7858916847e-20)
(-0.24909628368 0.128614482787 -2.70272391583e-20)
(-0.256470634451 0.167569990325 -1.85520526307e-20)
(-0.267374294869 0.118056096324 -2.16098708355e-20)
(-0.152292714425 0.167034888547 -1.50733991183e-20)
(-0.253140939433 0.097328726506 -2.3099893648e-21)
(-0.102935549042 0.166343038335 6.4363380834e-21)
(-0.0700143309569 0.00527009898361 -6.77586154875e-22)
(-0.070406113011 0.00234899106329 -1.22107198433e-21)
(-0.0736170421591 0.0105252700933 -1.71793513321e-22)
(-0.0750508692408 0.00751935641288 -1.68094541755e-22)
(-0.0762025652803 0.0158561894339 -3.35625931002e-22)
(-0.0774914177657 0.0120617914448 -5.06460102437e-23)
(-0.0793819689457 0.0213506010421 -1.46006232443e-22)
(-0.0803165798436 0.0170602785834 -2.47704494865e-22)
(-0.0835039933622 0.0270724980614 -6.04283364771e-23)
(-0.084030729706 0.0221780173097 -4.41733213405e-23)
(-0.0887092907342 0.0330743800225 -7.24554373331e-23)
(-0.0887955248945 0.0275087823963 -5.73086876931e-23)
(-0.095118145869 0.0394010080947 -3.31967863592e-23)
(-0.0947206489311 0.0330872657909 -7.17737642755e-23)
(-0.102870751697 0.0460879280889 -6.31797458449e-23)
(-0.101928823426 0.0389443206358 -6.92471679396e-25)
(-0.112135556083 0.0531582356993 -1.28423654703e-22)
(-0.110567362726 0.0450967137537 -1.20713418677e-22)
(-0.123113877282 0.0606177220148 -3.83450259185e-23)
(-0.120811743173 0.0515460688283 -1.39979416928e-22)
(-0.136043502673 0.0684487055121 -3.94378774809e-23)
(-0.132869856026 0.0582722282091 8.02852647455e-23)
(-0.151192291598 0.0766024571161 1.48056359254e-23)
(-0.146983548428 0.0652078739932 -1.19697253133e-22)
(-0.168861241692 0.0849854787435 2.40249431045e-22)
(-0.163411044686 0.0722773699484 1.70633132248e-22)
(-0.1893559729 0.0934340772688 8.59159828009e-23)
(-0.182442707492 0.0794729394789 3.25042822294e-22)
(-0.212741076189 0.101733292875 -2.37038432465e-21)
(-0.204340350811 0.0864129959035 4.45245086655e-22)
(-0.23889077654 0.109518850617 -1.6090225403e-20)
(-0.228864529211 0.0929107656185 -4.09693297212e-21)
(-0.262586940408 0.116216500919 -2.07781931468e-20)
(-0.255793636218 0.0964745364527 -2.18055878155e-20)
(-0.261960941729 0.126570667711 -5.36780756965e-21)
(-0.277728408236 0.0871553033969 -5.26183405288e-21)
(0.0313114539015 0.123540316538 1.91997478369e-20)
(-0.250093997435 0.0629991077431 2.29308655106e-20)
(-0.664361222946 -0.0850214115775 7.91712133333e-21)
(-0.0748494400201 0.00439702409934 -7.11580371214e-22)
(-0.0748120317219 0.00179532216462 -1.85494722828e-21)
(-0.0784638136748 0.00874866517196 -4.69470386777e-23)
(-0.0794128370173 0.00619677818226 -5.81971738763e-22)
(-0.0811461158408 0.0131409590976 3.72754258937e-23)
(-0.0818947922582 0.00978798494471 5.64771844243e-22)
(-0.0844878085319 0.0176423357863 -1.45871583762e-22)
(-0.0848294258069 0.0137846770989 -9.32052558201e-23)
(-0.0888191036948 0.0222958857298 -4.10536725564e-23)
(-0.0886960264532 0.017856014671 -4.47036074115e-23)
(-0.0942702732863 0.0271321733154 -5.66270146355e-23)
(-0.0936437303054 0.0220583915742 -5.96047595851e-23)
(-0.100952077588 0.0321724284858 -3.92694495957e-23)
(-0.0997727320129 0.0264039393941 -4.50599466865e-23)
(-0.108992642168 0.0374265971374 -5.82261445116e-23)
(-0.107194414489 0.0309004708945 -2.53675782358e-23)
(-0.118544233121 0.0428897746549 -1.32269180902e-22)
(-0.116041141461 0.0355399152332 -6.1495972245e-23)
(-0.129786491896 0.0485371700057 -2.13491262641e-23)
(-0.126468571429 0.0402972691546 -5.77058784773e-23)
(-0.142928882155 0.054317941174 2.58890934663e-26)
(-0.138658530659 0.0451245003268 6.55211661748e-23)
(-0.158201345038 0.0601482187405 3.61302431899e-23)
(-0.152820016643 0.0499210235244 -1.40935692891e-22)
(-0.175848643118 0.0659004704297 2.55426523497e-22)
(-0.169167675763 0.0545754986228 1.78703539998e-22)
(-0.196119398829 0.0713809782193 6.84371926148e-22)
(-0.18792595315 0.0591072119371 1.66562307732e-22)
(-0.218986244168 0.0763530080907 -1.28130356082e-21)
(-0.209313722305 0.0630731066473 8.15998830213e-22)
(-0.244096952409 0.0804515900156 -9.81229538462e-21)
(-0.232963574964 0.0658959202849 -2.52134711954e-21)
(-0.268248028537 0.082899821989 -6.28922872158e-21)
(-0.258241927068 0.0664831772051 -8.12619609124e-21)
(-0.260262587645 0.0859001507057 2.30368390274e-20)
(-0.280728728296 0.0583651669649 8.15673268849e-21)
(-1.00869496942 0.069065724332 1.16482390071e-20)
(-0.233269674511 0.0342265171798 3.01099423999e-20)
(0.7075549975 -0.27941047106 3.00799362852e-20)
(-0.0787768803676 0.00348319174559 -1.72533859583e-21)
(-0.0783058479259 0.00123038329151 -1.47526438544e-21)
(-0.0823704071404 0.00689110647364 2.97471441576e-23)
(-0.0828326059124 0.00482211270485 1.68296983135e-22)
(-0.0851064010664 0.0103073218594 4.34291162529e-22)
(-0.0853232670423 0.0074331817469 7.3290235936e-22)
(-0.0885481319688 0.0137818922265 7.96272053063e-24)
(-0.0883176244189 0.0104024154681 1.53338084779e-22)
(-0.0930059405594 0.0173394672729 -6.32546944401e-23)
(-0.0922673776382 0.0134058704433 -6.00524905693e-23)
(-0.0985987482677 0.0209908345422 -4.80376916361e-23)
(-0.0973088107055 0.0164659413359 -6.56956309736e-23)
(-0.105426436033 0.0247365073354 -3.11580753267e-23)
(-0.103531629665 0.0195748607108 -3.17474966011e-24)
(-0.113603378837 0.0285645248685 -2.86374059692e-23)
(-0.111035047387 0.0227207694083 -3.38973110581e-23)
(-0.123263826463 0.0324468260026 1.30673301802e-23)
(-0.119934913591 0.0258750604101 -5.08732456687e-23)
(-0.134563876355 0.036334185142 2.91644139616e-23)
(-0.130366098325 0.0289915165372 -1.35166002472e-23)
(-0.147683375025 0.0401503043789 -7.54404158095e-23)
(-0.142482926735 0.0320006979896 3.51602551273e-23)
(-0.162814712054 0.043785327228 1.63760391741e-24)
(-0.156462088299 0.0347774373793 -2.6051504044e-22)
(-0.180151319791 0.0470886893218 8.98393242329e-23)
(-0.172476412142 0.037181801796 7.90426583101e-23)
(-0.199895548061 0.0498542261484 2.98189211797e-22)
(-0.190695248283 0.0392578449344 -1.03935559653e-22)
(-0.221976441814 0.0518550610661 -4.2404472851e-22)
(-0.211316841766 0.0405310458046 3.37091371319e-22)
(-0.246075452443 0.0528950376573 -8.3524782615e-22)
(-0.234004737269 0.0398868080929 1.28625512764e-21)
(-0.270142662422 0.0534277533201 6.31976531883e-21)
(-0.258775206598 0.0382927495459 -8.88443454408e-22)
(-0.259354378355 0.0546766169919 1.5229836061e-20)
(-0.281977685622 0.0246488638489 1.51720363773e-20)
(0.952097412023 0.0646973666917 4.85416396781e-20)
(-0.243285132617 0.0143688373105 -2.41022011069e-20)
(0.369521362971 -0.735477479032 6.08447549911e-20)
(-0.081764609971 0.00254533410541 4.18371193522e-22)
(-0.0808629378171 0.000662273853998 -1.4055087699e-21)
(-0.0853077537938 0.00498676304542 8.71452198338e-22)
(-0.0852878214033 0.00341916040162 8.17813886251e-22)
(-0.0880584990392 0.00740585753199 4.5194928161e-22)
(-0.0877605144095 0.00503788434456 3.48857398128e-22)
(-0.0915432313122 0.00983847988837 8.53228736791e-23)
(-0.0907677006358 0.00697126946857 3.85244678823e-23)
(-0.0960523495108 0.0122917731887 -6.24934271028e-23)
(-0.0947378367042 0.00890291945304 -1.06613310165e-22)
(-0.101692784591 0.0147593738627 -2.08326889976e-23)
(-0.0997925774702 0.0108252788126 -3.76713384891e-23)
(-0.108552851597 0.0172236387628 -5.91398539151e-24)
(-0.106011740176 0.0127132057968 -1.27318402527e-23)
(-0.116732400029 0.0196551062546 -5.61331507575e-23)
(-0.113480824045 0.0145385859972 -3.22176614905e-23)
(-0.126346854022 0.0220067979783 -7.74571760961e-23)
(-0.122299944578 0.0162565888078 -1.02014380026e-22)
(-0.137528576889 0.0242114558177 -7.52075908156e-24)
(-0.1325815995 0.0178045892963 -6.71051245254e-23)
(-0.150427285895 0.0261729121044 -1.49914369504e-22)
(-0.14445563028 0.0190982787042 1.03393978383e-23)
(-0.165198285181 0.0277646926266 -1.83109986048e-22)
(-0.158062476086 0.0199961165988 -3.10441212183e-22)
(-0.181985393488 0.0288176427446 -1.14732225576e-22)
(-0.173536249903 0.0203368590763 4.15200572718e-23)
(-0.200934447477 0.0291000973836 -6.50334001315e-23)
(-0.190982523063 0.0201927288015 1.63563560161e-22)
(-0.221902453104 0.0282956312695 2.04739122747e-21)
(-0.210515695777 0.0191113550878 -7.85551877759e-22)
(-0.244517234996 0.0258663254679 1.23305949938e-21)
(-0.231577164048 0.0153175779449 1.5750258184e-21)
(-0.267686042354 0.0205858219664 7.96382760407e-21)
(-0.253495433448 0.0119122075365 -2.06398637457e-21)
(-0.252417907449 0.0157275237831 -2.41600007906e-20)
(-0.277119629203 -0.00638811677689 2.37179291773e-22)
(0.649885604456 -0.0129768819568 -1.17990857939e-20)
(-0.214584678565 -0.00607069223046 -1.66094534231e-20)
(3.3626316541 0.218922081391 -4.80837226399e-20)
(-0.0837988371692 0.00159797289912 -1.00606607717e-21)
(-0.0824778855084 9.81683603839e-05 -1.46456951477e-21)
(-0.087264114284 0.00306390987769 2.95219086041e-22)
(-0.0867752264132 0.00200992164604 1.45175646749e-21)
(-0.0899934692132 0.00448438152543 -6.45674156005e-23)
(-0.0892006834778 0.00263962970291 -1.17520643491e-22)
(-0.0934695137896 0.00587486529883 -1.53411715962e-22)
(-0.0979629091504 0.00723276412637 -8.17912215516e-23)
(-0.103567879768 0.00853451026379 -2.95704897443e-23)
(-0.110361292565 0.00974886168505 -3.90355163517e-23)
(-0.118428394831 0.0108310125456 -7.80988907585e-23)
(-0.127866231453 0.0117213203482 -9.16623284548e-23)
(-0.138783513823 0.0123370787696 -4.92449676056e-23)
(-0.15130081301 0.0125737428342 -1.50187444841e-22)
(-0.165538615175 0.0122912112841 -8.58111688634e-23)
(-0.181592322136 0.0113199478884 3.19815843009e-22)
(-0.199542753845 0.00943036763452 -5.56954917467e-22)
(-0.219153477239 0.00633554030309 -1.25791728682e-21)
(-0.239740976826 0.00172972493992 -1.72202005555e-21)
(-0.263541776896 -0.0049839778288 -9.79063468686e-21)
(-0.255618787008 -0.00626911518971 7.78772665926e-21)
(1.03453577892 0.0512405415784 -5.28940902691e-20)
(-0.0848776805421 0.00065420737486 9.93253029886e-22)
(-0.0831527524839 -0.000454306183824 -5.70448314191e-23)
(-0.0882394904074 0.00115318735717 1.03901673796e-21)
(-0.0829010764695 -0.000990381339515 5.16535015167e-23)
(-0.0817384221168 -0.0015065020504 7.08231631722e-23)
)
;

boundaryField
{
    back
    {
        type            calculated;
        value           uniform (0 0 0);
    }
    sides
    {
        type            calculated;
        value           nonuniform List<vector> 0();
    }
    bottom
    {
        type            calculated;
        value           uniform (0 0 0);
    }
    front
    {
        type            calculated;
        value           uniform (0 0 0);
    }
    atmosphere
    {
        type            calculated;
        value           nonuniform List<vector> 8((0 0.265719578481 0) (0 0.0835053452995 0) (0 0.228954580283 0) (0 0.684956676531 0) (0 -1.30284553915 0) (0 0.40271818231 0) (0 -3.00605786437 0) (0 2.62974187698 0));
    }
    floatingObject
    {
        type            calculated;
        value           nonuniform List<vector> 0();
    }
    procBoundary9to6
    {
        type            processor;
        value           nonuniform List<vector> 4((-0.196529068244 0.22900554893 -1.90330181315e-20) (-0.204328048058 0.217667746488 1.97605960254e-20) (-0.238183315025 0.241238131681 5.63480381907e-20) (-0.16554588022 0.317651938539 8.98550967775e-20));
    }
    procBoundary9to7
    {
        type            processor;
        value           nonuniform List<vector> 
16
(
(-0.0447422678146 0.004270016197 -1.41620444483e-21)
(-0.0492777813053 0.0117332130324 -1.14692234459e-22)
(-0.051165931388 0.0194079347284 -2.21439709033e-22)
(-0.0529797058564 0.0277866833436 1.48111518561e-22)
(-0.0552914521643 0.0364621057385 -2.07714510706e-24)
(-0.05829778388 0.0457123821894 -2.89253095591e-25)
(-0.0621225661166 0.0556847879893 2.26729975686e-23)
(-0.0669043703065 0.0665298403502 -6.41585061258e-23)
(-0.0728141321781 0.0784010605665 2.19365662406e-23)
(-0.0800654751718 0.0914576019505 4.30415649076e-23)
(-0.0889249306812 0.105860565638 -2.75297106878e-23)
(-0.099719210641 0.121766829593 1.49071819644e-23)
(-0.112846462932 0.139340607161 -3.68944141785e-23)
(-0.128808449065 0.158670141027 3.37071370784e-22)
(-0.148003711023 0.180053758801 -6.91923325219e-23)
(-0.170771087681 0.205287315804 -1.32634999798e-21)
)
;
    }
    procBoundary9to10
    {
        type            processor;
        value           nonuniform List<vector> 
15
(
(-0.0921786970793 0.00354355839971 -5.0178612552e-22)
(-0.0961136947983 0.00441434687732 -1.0975875326e-22)
(-0.101111732269 0.0052194494236 -1.80482555243e-23)
(-0.107241905414 0.0059178592904 -2.0455408902e-23)
(-0.114578175862 0.00646878873114 -4.34208267314e-23)
(-0.123203143948 0.00681500446355 -6.18358480403e-23)
(-0.133211335207 0.00688256084525 -2.12160943037e-23)
(-0.14470261874 0.00657772907911 2.91449517997e-23)
(-0.0872932963305 0.000614613066057 1.98696231902e-21)
(-0.0909187805656 0.00158540266138 -5.54739353411e-22)
(-0.0896533675123 0.000268332902544 -7.53465970334e-22)
(-0.0850122255859 -0.000269144381322 9.36664457712e-22)
(-0.0842184951715 -0.00117052399209 -1.98875054531e-22)
(-0.0825246168219 -0.00203766516749 1.39401980592e-21)
(-0.079709001278 -0.00199703693846 1.13195463816e-21)
)
;
    }
    procBoundary9to11
    {
        type            processor;
        value           nonuniform List<vector> 9((-0.157791102212 0.00574986393678 -2.10860383172e-22) (-0.172572357586 0.00422688892275 1.30469258216e-22) (-0.189098528461 0.00211412896599 2.45178855037e-22) (-0.207424277481 -0.0009421530533 -2.26370753105e-22) (-0.226973335984 -0.00725533915413 -1.17689762254e-22) (-0.246782448606 -0.0136834863027 -6.7193486001e-21) (-0.275834623766 -0.0246007835472 -1.9785111917e-20) (-0.272092510671 -0.0431893210553 5.23814205473e-21) (0.784111642499 1.22581280526 -1.45013617511e-19));
    }
}


// ************************************************************************* //
