/*--------------------------------*- C++ -*----------------------------------*\
| =========                 |                                                 |
| \\      /  F ield         | OpenFOAM: The Open Source CFD Toolbox           |
|  \\    /   O peration     | Version:  v2012                                 |
|   \\  /    A nd           | Website:  www.openfoam.com                      |
|    \\/     M anipulation  |                                                 |
\*---------------------------------------------------------------------------*/
FoamFile
{
    version     2.0;
    format      ascii;
    class       surfaceVectorField;
    location    "0.8";
    object      Uf_0;
}
// * * * * * * * * * * * * * * * * * * * * * * * * * * * * * * * * * * * * * //

dimensions      [0 1 -1 0 0 0 0];


internalField   nonuniform List<vector> 
300
(
(-0.150129563803 -0.00278002047116 -4.15321191563e-22)
(-0.146544895895 -0.00211762699101 -9.16188781646e-22)
(-0.152894102224 -0.00573064002202 -1.08085415037e-22)
(-0.150518657885 -0.00434875388553 -4.06415028293e-25)
(-0.154511963731 -0.00878874995249 -1.43256825372e-22)
(-0.152027698022 -0.00782808571555 -6.69929719721e-23)
(-0.156432145395 -0.0119817981003 -7.53215230503e-23)
(-0.153645190795 -0.0112633724361 -8.66748624375e-23)
(-0.158855857072 -0.0153528872687 -1.18939211321e-23)
(-0.155720802997 -0.0147909529447 -2.51166765202e-23)
(-0.161809629567 -0.0189499308071 -5.71507032204e-24)
(-0.158302414849 -0.0185189065132 -2.27844503592e-23)
(-0.165293192044 -0.0228237509898 -9.8616946651e-24)
(-0.161391774354 -0.0224985746434 -2.66416516367e-23)
(-0.169301877905 -0.0270282166548 -2.30291686775e-23)
(-0.164983826287 -0.0267790695113 -7.64011659466e-24)
(-0.173829036034 -0.0316208366123 -2.09968926813e-23)
(-0.169071139904 -0.0314149961333 -4.31631074996e-23)
(-0.178865992736 -0.0366635355806 1.89012092442e-23)
(-0.173643984364 -0.0364648918172 -2.6454726659e-23)
(-0.184401607292 -0.0422235772205 1.70429520131e-23)
(-0.178689994639 -0.0419915928378 2.71661814105e-23)
(-0.190420008915 -0.0483745854879 4.63391047177e-23)
(-0.184193477878 -0.0480666158832 -5.78837218181e-23)
(-0.196899214159 -0.0551979208083 8.70925798155e-23)
(-0.19013140014 -0.054767349522 5.15545859577e-23)
(-0.203808159361 -0.0627852440692 1.82952302874e-22)
(-0.196473817401 -0.0621407492379 6.16419468035e-23)
(-0.211043942471 -0.0712376658467 4.7152196013e-22)
(-0.203178269287 -0.0702691192098 2.12341425319e-22)
(-0.218371877798 -0.0806728775082 9.01242853448e-23)
(-0.210069249601 -0.0794383304997 5.56759698946e-22)
(-0.224649835727 -0.0912578742375 -5.98007049558e-22)
(-0.216818357348 -0.0900420944467 -9.22041884762e-22)
(-0.226104754512 -0.102636530815 -5.31436878965e-22)
(-0.221690048093 -0.103677009376 -2.66474574362e-21)
(-0.216014674644 -0.11469080256 -3.03585312786e-22)
(-0.219085322758 -0.117327760026 -3.62108299186e-21)
(-0.202341366499 -0.124195039235 -3.3541916641e-21)
(-0.146990066368 -0.00329195312367 -5.01274005111e-22)
(-0.143252978207 -0.00239869369322 -9.33069048644e-22)
(-0.149617733285 -0.00675860247356 4.06860280365e-23)
(-0.147052044861 -0.00508402870163 2.52280581766e-22)
(-0.151115214306 -0.0103324128296 -1.0411009038e-23)
(-0.148453920491 -0.00905684341771 2.0285215368e-23)
(-0.152880242748 -0.0140391731196 -3.64700159075e-23)
(-0.149938457947 -0.0129917474718 -3.90225446232e-23)
(-0.15510393211 -0.0179209610865 -3.60072057472e-23)
(-0.15183903734 -0.0170102047577 -2.06645309353e-23)
(-0.15780913003 -0.022024383116 -4.37110316739e-23)
(-0.154199011969 -0.0212238420961 -3.00457875495e-23)
(-0.160992746147 -0.0263987084959 -2.44200735663e-23)
(-0.157017468306 -0.0256829850846 -2.96350500518e-23)
(-0.16464696265 -0.0310959687209 -2.77740554167e-23)
(-0.16028658979 -0.0304348247367 -2.03240653338e-23)
(-0.168761358865 -0.0361714475104 -4.86209414772e-23)
(-0.163995693253 -0.0355316190176 -2.05836828303e-23)
(-0.173322727188 -0.0416843042649 -1.81897544927e-23)
(-0.168131170639 -0.0410290583084 -2.09951260461e-23)
(-0.178314535289 -0.0476982999407 -4.77604924208e-23)
(-0.17267605216 -0.0469864024253 5.31586766641e-24)
(-0.183714519684 -0.0542825471826 -5.26682405781e-23)
(-0.177609289087 -0.0534708357224 -8.3364796508e-23)
(-0.1894925611 -0.0615123836358 2.61039529457e-23)
(-0.182901619546 -0.060554826867 8.00056796645e-24)
(-0.195608845231 -0.0694714426716 9.10310692488e-23)
(-0.188514803359 -0.0682749076895 3.78484815648e-23)
(-0.201949979296 -0.0782505509757 2.97579164135e-22)
(-0.194399190658 -0.0766989233267 -2.4215507845e-24)
(-0.20824905243 -0.0879502745191 -4.55406471161e-22)
(-0.200369541002 -0.086168045498 9.87022232581e-23)
(-0.213591121093 -0.0987190306586 -2.98878057883e-21)
(-0.206049607239 -0.0969971324588 -1.92541217027e-21)
(-0.214427626574 -0.110214359581 -5.75439185652e-21)
(-0.210194721426 -0.109646526785 -6.83082975809e-21)
(-0.205309412119 -0.12197436036 -6.67168934318e-21)
(-0.207325260673 -0.122257248564 -1.13608246246e-20)
(-0.192836020754 -0.131633692263 -1.08334432944e-20)
(-0.143359332959 -0.00376225933444 -1.79514461767e-22)
(-0.139490757538 -0.00265311291891 -7.45580229187e-22)
(-0.145848572755 -0.00770241663746 2.31879769098e-22)
(-0.143111928163 -0.00575908860958 2.97679815621e-22)
(-0.147227613649 -0.0117478523459 -8.32632021718e-24)
(-0.144408523337 -0.010181668081 -6.71120003228e-23)
(-0.148840865923 -0.0159228024077 -2.3217059651e-23)
(-0.14576354272 -0.0145709406222 -7.51555124885e-23)
(-0.150869239377 -0.0202680337698 -1.47031127375e-23)
(-0.147493837351 -0.0190345958304 -2.63334436656e-23)
(-0.15333219769 -0.02482848298 -1.59698059274e-23)
(-0.149638592282 -0.0236864962722 -1.82258309507e-23)
(-0.156224147925 -0.0296514006166 -2.55390418193e-23)
(-0.152194580895 -0.0285754646529 -2.95011003488e-23)
(-0.159534505328 -0.0347864200631 -1.31336927474e-23)
(-0.155151604323 -0.0337463192395 -7.16334498649e-24)
(-0.163249584253 -0.0402859474269 7.04213260085e-24)
(-0.158496206255 -0.0392484370291 -2.69521273758e-23)
(-0.16735231839 -0.0462056388069 2.51049611309e-24)
(-0.162211527377 -0.0451340607411 -2.39740052123e-23)
(-0.17182168567 -0.0526049376252 -3.02884364208e-23)
(-0.166276808084 -0.0514582111918 1.34033232351e-23)
(-0.176630303118 -0.0595475837591 -2.26959879634e-23)
(-0.170666700408 -0.0582829655629 -6.35739823962e-23)
(-0.181741693002 -0.0671020323709 1.97450965856e-23)
(-0.175347225035 -0.0656753030215 1.82357366312e-23)
(-0.187109109098 -0.0753430351434 -5.56041384685e-23)
(-0.180273845241 -0.0736615461923 4.1167977215e-23)
(-0.192612178666 -0.0843512929815 -2.01298491661e-22)
(-0.185390964379 -0.0822919100131 -3.54595775792e-23)
(-0.197955379525 -0.0942126990394 -1.37130347585e-21)
(-0.190508153972 -0.0919531441028 -2.93126654084e-22)
(-0.202407966179 -0.105061174195 -5.76746134953e-21)
(-0.195201141562 -0.102908305352 -3.39704983188e-21)
(-0.202815349711 -0.116692555265 -1.24372625261e-20)
(-0.198563344047 -0.114677303853 -1.11177758804e-20)
(-0.19477652842 -0.128234387856 -1.55225785758e-20)
(-0.19578338558 -0.126018905994 -1.5434878666e-20)
(-0.183581014206 -0.137545933096 -1.48358862558e-20)
(-0.139278814321 -0.00419189034324 -2.68385951799e-22)
(-0.135298909337 -0.0028822170543 -8.1711053414e-22)
(-0.141629253606 -0.00856388944904 -1.31195379941e-24)
(-0.138739973801 -0.00637526691617 4.07052464553e-22)
(-0.14289307652 -0.0130382630082 -1.33941192594e-22)
(-0.139934193406 -0.011205362663 -2.77774151463e-22)
(-0.144359365715 -0.0176375388813 -7.82718965031e-23)
(-0.141164307802 -0.0160056078229 -1.48780720968e-22)
(-0.146198912377 -0.0224008229252 -2.98561618788e-23)
(-0.142730591903 -0.020870684606 -3.76156808308e-23)
(-0.148428148062 -0.0273710320041 -3.17571253721e-23)
(-0.144668420951 -0.0259155691064 -2.94402335831e-23)
(-0.151039356317 -0.032593017019 -1.1125403516e-23)
(-0.146972634882 -0.0311871656622 -3.56302953887e-23)
(-0.154019635585 -0.0381135800922 -2.09817796148e-23)
(-0.149631084001 -0.03672756618 2.56975730962e-23)
(-0.157352607175 -0.0439817664205 -5.79682651889e-23)
(-0.152628068171 -0.0425828729325 -5.22159775431e-23)
(-0.161018081049 -0.0502492047889 -1.30811780903e-23)
(-0.155944143567 -0.0488014602075 -4.35872052473e-23)
(-0.164991480238 -0.0569704679548 -1.98822227404e-23)
(-0.159555604183 -0.0554336698787 3.86400968073e-23)
(-0.169241553973 -0.0642033827216 -2.26422578016e-23)
(-0.163433846246 -0.0625359676026 -5.34429088022e-23)
(-0.173727180073 -0.072009079879 3.96586172606e-23)
(-0.167541584448 -0.0701694589622 4.36216161925e-23)
(-0.178396070652 -0.0804530484172 6.13125381043e-23)
(-0.171829924541 -0.0783507645085 7.25226475382e-23)
(-0.183123039893 -0.089605950392 -1.27287740001e-22)
(-0.176238097814 -0.0871106513374 1.12191015628e-22)
(-0.187590011422 -0.0995406269228 -2.31887301012e-21)
(-0.180573500895 -0.0968687542331 -1.63915612822e-22)
(-0.191196381656 -0.11036207494 -8.74736436278e-21)
(-0.184379706244 -0.107857802438 -4.34120059199e-21)
(-0.191369841611 -0.121918092574 -1.41153920203e-20)
(-0.187007330425 -0.118865859003 -1.36172342342e-20)
(-0.184714879993 -0.133038813381 -1.4748186346e-20)
(-0.184662643994 -0.128823114695 -1.34784241256e-20)
(-0.175120054548 -0.141439570029 -1.30369714616e-20)
(-0.134788852194 -0.00458220770451 -1.41672117788e-22)
(-0.130716746826 -0.00308743599826 -7.58602758884e-22)
(-0.137001100112 -0.00934574420462 1.30590266889e-22)
(-0.133976485453 -0.00693452242334 5.27870908366e-23)
(-0.138153887313 -0.0142080106978 -2.92613679837e-22)
(-0.135071974406 -0.0121317223519 -3.83384456181e-22)
(-0.139479230883 -0.0191896318079 -1.08124505296e-22)
(-0.136182731938 -0.0173015906399 -1.82010924153e-22)
(-0.141137974542 -0.0243277295205 -3.71997525351e-23)
(-0.137592537622 -0.0225264678832 -2.86544838805e-23)
(-0.143143875638 -0.0296628936792 -3.33134035997e-23)
(-0.139333299958 -0.0279215050067 -2.96434364371e-23)
(-0.145487496737 -0.0352372712707 1.19268122351e-24)
(-0.141398302086 -0.0335313496065 -2.40320704282e-23)
(-0.148154103371 -0.0410945147231 -5.53662483208e-24)
(-0.143773889153 -0.0393951066823 1.36537235871e-23)
(-0.151125225089 -0.0472799740063 -3.78349176015e-23)
(-0.146442662674 -0.0455553376801 -2.90764504738e-23)
(-0.154378301187 -0.0538409045202 8.13406965034e-24)
(-0.149383272615 -0.0520562832799 -2.41186914205e-23)
(-0.157886135311 -0.0608266660302 5.07941074549e-24)
(-0.152569906259 -0.0589433610101 2.96711263969e-23)
(-0.161614799501 -0.0682888401498 1.28209651919e-23)
(-0.155971736569 -0.0662671629774 -3.41620108367e-23)
(-0.165520133208 -0.0762809868756 7.648564647e-23)
(-0.159549497962 -0.0740826666332 4.52268686968e-23)
(-0.169545914323 -0.0848591755086 1.23401125062e-22)
(-0.163251788175 -0.082397486793 3.7974777055e-23)
(-0.173565043827 -0.0940830126532 7.55631428075e-23)
(-0.167014300653 -0.091222854929 1.42055070717e-22)
(-0.177247657952 -0.104009219673 -2.1862431947e-21)
(-0.1706473218 -0.100998758861 1.149310453e-22)
(-0.180077183093 -0.114708904907 -9.21107046337e-21)
(-0.173680036571 -0.111947056044 -2.95216030504e-21)
(-0.180187341825 -0.126129356584 -1.29802663395e-20)
(-0.1755868857 -0.12232730655 -8.62357965215e-21)
(-0.175230679469 -0.136880972279 -1.17672092412e-20)
(-0.173910943651 -0.130901981722 -5.3198966426e-21)
(-0.166906049738 -0.142661466886 -5.22401739372e-21)
(-0.12992827006 -0.00493486725239 -5.6414355026e-22)
(-0.125781927066 -0.00327026533763 -4.83747021126e-22)
(-0.132003765313 -0.0100513754854 -4.61187632234e-22)
(-0.128860027423 -0.00743929262158 -1.49038958129e-22)
(-0.133050435797 -0.0152624156117 -2.72781700497e-22)
(-0.129860983557 -0.0129653055312 -7.17456361462e-23)
(-0.134241817781 -0.0205865368781 -1.02540902738e-22)
(-0.130858663037 -0.0184657084383 -1.28080253729e-22)
(-0.135729023681 -0.0260586168351 -2.10981677826e-23)
(-0.13212050868 -0.0240111485928 -9.88015376233e-24)
(-0.137523485817 -0.0317166819007 -2.03621032656e-23)
(-0.133675285963 -0.0297161934444 -2.38831020693e-23)
(-0.139614447772 -0.0375999517628 -1.15710280646e-23)
(-0.135515084111 -0.0356229804184 -1.7595813485e-23)
(-0.141985828684 -0.0437487157489 -9.8861020546e-24)
(-0.137625181639 -0.0417674565737 -2.47268397872e-24)
(-0.14461766562 -0.0502044263631 -1.53602242928e-23)
(-0.139987013085 -0.0481884904597 -1.3572771773e-23)
(-0.147485768205 -0.0570097833719 -2.58163467392e-24)
(-0.142577983172 -0.0549260647816 -1.52066824361e-23)
(-0.15056123307 -0.064208793549 -9.57029518534e-24)
(-0.145370964178 -0.0620206039302 9.07452098207e-24)
(-0.153808571093 -0.0718467154717 -1.7561073318e-24)
(-0.148333893388 -0.0695167756678 -3.85788178396e-23)
(-0.15718212393 -0.0799696086639 6.7159992818e-24)
(-0.151426681447 -0.0774633914808 1.22483930433e-23)
(-0.160623608493 -0.088624315696 5.66287227099e-23)
(-0.154597149582 -0.0858600356128 -1.30486105282e-23)
(-0.164006367403 -0.0978592799993 1.81422973209e-22)
(-0.157779390415 -0.0946991988011 7.12556432858e-23)
(-0.16699706364 -0.107719079797 -6.50986065048e-22)
(-0.160787561266 -0.104430595914 2.3059409482e-22)
(-0.169127804168 -0.118255605641 -2.36466949382e-21)
(-0.163143533206 -0.115294218573 -1.25729908346e-21)
(-0.169231207474 -0.129418958274 -9.63209955256e-22)
(-0.1644235421 -0.125113794367 -2.73760708353e-21)
(-0.16688563101 -0.139949131214 1.22329520488e-21)
(-0.1633807275 -0.132427528536 1.91430688491e-21)
(-0.164770228477 -0.138574138513 1.62516604745e-21)
(-0.124734076826 -0.00525177112625 -6.86424289959e-23)
(-0.120530204143 -0.00343225008947 -4.03439457625e-22)
(-0.126674953545 -0.0106847006832 2.40403037958e-22)
(-0.123427152981 -0.00789238572278 5.17290748938e-22)
(-0.127620980559 -0.016207556948 7.29558106222e-23)
(-0.124338198176 -0.0137112378371 1.37519325726e-22)
(-0.128686116415 -0.02183667634 -3.54195047532e-23)
(-0.125229608006 -0.0195055266866 -8.90756686507e-23)
(-0.130011990653 -0.027604522495 -1.2665088049e-23)
(-0.126352725238 -0.0253348643006 -1.74747842574e-23)
(-0.13160804028 -0.0335463908906 -2.11168122886e-23)
(-0.127733476025 -0.0313126315248 -1.92412897916e-23)
(-0.133462574251 -0.039698434038 -8.49746939911e-24)
(-0.129363104342 -0.0374782883296 -1.54551256781e-23)
(-0.13555863246 -0.0460974592185 -6.15935369712e-24)
(-0.131226219876 -0.0438645396343 -1.74680949604e-23)
(-0.137875331185 -0.0527809395404 -1.34192299163e-23)
(-0.133303606261 -0.0505065120222 -3.20319916638e-23)
(-0.140387555161 -0.0597869972944 -3.55052678009e-24)
(-0.135571995241 -0.0574399317277 -1.49462627398e-23)
(-0.143065522817 -0.0671543134041 -1.99340016722e-23)
(-0.138003760079 -0.0647003073061 2.82653937693e-24)
(-0.145873187344 -0.0749219352096 -2.45743174645e-23)
(-0.140566371773 -0.0723265369324 -4.59638935562e-23)
(-0.148764765505 -0.0831287434604 -7.51621676669e-24)
(-0.143219975432 -0.0803614517495 5.61903073222e-24)
(-0.151681550094 -0.0918128244034 1.57831004766e-24)
(-0.14591315366 -0.0887977082753 2.18996207718e-23)
(-0.154498754965 -0.101012291012 1.20426764896e-22)
(-0.148579999964 -0.0976102734439 -7.14150453706e-23)
(-0.156883882924 -0.11075950065 -3.75718923597e-22)
(-0.151040398442 -0.107249737445 -2.571793825e-22)
(-0.158407545179 -0.121085934219 -1.63023667317e-21)
(-0.15281713151 -0.118010211714 -5.31610600355e-22)
(-0.158524448941 -0.131956256191 1.3990975664e-22)
(-0.153553228965 -0.127252599029 -2.05365536968e-21)
(-0.162541031191 -0.142217765036 2.31617772749e-21)
(-0.153119253825 -0.133592317882 -1.47496929264e-21)
(-0.174291929305 -0.135177548614 -1.53902099279e-21)
(-0.119241254052 -0.0055350061289 1.82493720309e-22)
(-0.114995266349 -0.0035749518682 -4.00090619976e-22)
(-0.121050197605 -0.0112500033962 4.14407036706e-22)
(-0.117712239322 -0.00829686824914 7.35549007101e-22)
(-0.121901437311 -0.017050040118 -2.45121535468e-23)
(-0.118538233877 -0.0143750459696 1.7049752252e-23)
(-0.12284855409 -0.0229491910867 -7.11309481549e-23)
(-0.124023951514 -0.0289773506652 -2.4050986e-23)
(-0.125435376542 -0.0351670072614 -1.35796031811e-23)
(-0.127070562773 -0.0415511778362 -2.44257512393e-23)
(-0.128912100469 -0.0481631713493 -4.3340732927e-23)
(-0.130938713746 -0.0550365120552 -3.35590244873e-23)
(-0.133124978207 -0.0622048090984 -8.56919658277e-24)
(-0.135440975119 -0.0697016128831 -2.32033525071e-23)
(-0.13785096138 -0.0775601829537 -1.57705453595e-23)
(-0.140310155281 -0.0858125938646 3.50348682707e-23)
(-0.142760909627 -0.0944891315848 -5.10937346465e-23)
(-0.145082303263 -0.103618535715 -4.49021192767e-22)
(-0.146948948747 -0.113221341581 -4.13071059259e-22)
(-0.14794637892 -0.123304278647 -9.55029296862e-22)
(-0.148131975334 -0.133894236612 -3.66853441896e-21)
(-0.16864221844 -0.143962063023 -5.33016801292e-21)
(-0.113482578216 -0.0057867567027 1.52964666816e-22)
(-0.109208588668 -0.00369994768629 -4.64808344317e-22)
(-0.115162696863 -0.011751813529 3.38191722648e-22)
(-0.103199318589 -0.00380878145305 -1.64180160227e-22)
(-0.0969943549448 -0.00390298645435 -1.84646537698e-22)
)
;

boundaryField
{
    back
    {
        type            calculated;
        value           uniform (0 0 0);
    }
    sides
    {
        type            calculated;
        value           nonuniform List<vector> 0();
    }
    bottom
    {
        type            calculated;
        value           uniform (0 0 0);
    }
    front
    {
        type            calculated;
        value           uniform (0 0 0);
    }
    atmosphere
    {
        type            calculated;
        value           nonuniform List<vector> 8((0 -0.124083196568 0) (0 -0.131479764248 0) (0 -0.137489438317 0) (0 -0.141499799343 0) (0 -0.145095065386 0) (0 -0.142084983055 0) (0 -0.132695996153 0) (0 -0.120416405251 0));
    }
    floatingObject
    {
        type            calculated;
        value           nonuniform List<vector> 0();
    }
    procBoundary9to6
    {
        type            processor;
        value           nonuniform List<vector> 4((-0.22740334667 -0.0819355080926 -3.0682385653e-21) (-0.233068703331 -0.0966053812835 -4.2598276621e-21) (-0.231139686037 -0.110921642142 -4.86078780358e-21) (-0.211733702568 -0.115253167365 -4.89044977459e-21));
    }
    procBoundary9to7
    {
        type            processor;
        value           nonuniform List<vector> 
16
(
(-0.14932486884 -0.00180863221554 -6.51485599589e-22)
(-0.153469231572 -0.00355265194341 1.16773744159e-22)
(-0.15508577142 -0.0064937695609 -2.79905680785e-22)
(-0.156838215391 -0.00938240679656 -2.02711807368e-22)
(-0.159091881181 -0.0123718201363 -4.28639115564e-23)
(-0.161899455692 -0.0155649562623 -1.96003554775e-23)
(-0.165265592333 -0.0190135615824 -2.5569900731e-23)
(-0.169188279746 -0.0227680923532 -2.87893159823e-24)
(-0.173663726951 -0.0268848194084 -5.11710224979e-23)
(-0.178686621952 -0.0314243372414 -2.79150628093e-23)
(-0.184249946121 -0.0364521519383 4.60843377089e-23)
(-0.190344377112 -0.0420430410311 -2.53664778129e-23)
(-0.196954624018 -0.0482783902657 8.05338203612e-23)
(-0.204061045591 -0.0552148846145 4.36800141103e-23)
(-0.211630625929 -0.0629447497372 2.86235218757e-22)
(-0.21950443442 -0.0716903166819 2.87688037335e-22)
)
;
    }
    procBoundary9to10
    {
        type            processor;
        value           nonuniform List<vector> 
15
(
(-0.119330532889 -0.0204291437022 -1.30917990703e-22)
(-0.120324628848 -0.0265084095836 -3.25931923126e-23)
(-0.121543883471 -0.0327245748502 -8.73016642467e-24)
(-0.122978993954 -0.0391143353534 -7.20070194764e-24)
(-0.124614296218 -0.0457071431233 -2.04981178724e-23)
(-0.126430333423 -0.0525344269883 -3.67200260476e-23)
(-0.128403816118 -0.0596277727881 -6.41691059128e-24)
(-0.130507048986 -0.0670179861045 4.91407141825e-24)
(-0.111747254262 -0.00865600214513 7.60247264454e-22)
(-0.115925264877 -0.0177968750667 -8.93560849042e-23)
(-0.112493249397 -0.014962522124 -1.67319126633e-22)
(-0.107488527327 -0.00600933631813 1.42474253321e-22)
(-0.1012872117 -0.0062049945452 -1.71085878459e-23)
(-0.0949043814351 -0.00637612810777 6.5393513883e-23)
(-0.0906182582041 -0.00398405027366 -2.7140231754e-23)
)
;
    }
    procBoundary9to11
    {
        type            processor;
        value           nonuniform List<vector> 9((-0.132707949026 -0.0747384719399 -2.63809129948e-23) (-0.134967673361 -0.0828264397463 1.41118293544e-23) (-0.137236721841 -0.0912688171423 5.44568370223e-23) (-0.13945066997 -0.100025264395 -2.06074742505e-23) (-0.141437654315 -0.109540100439 -2.38412503623e-22) (-0.142734223121 -0.120179933355 -7.22316738847e-22) (-0.142963281655 -0.128907078973 -3.02258794509e-21) (-0.143051406099 -0.134370847012 -6.24608739366e-21) (-0.197837642847 -0.145928893032 -4.64477690019e-21));
    }
}


// ************************************************************************* //
