/*--------------------------------*- C++ -*----------------------------------*\
| =========                 |                                                 |
| \\      /  F ield         | OpenFOAM: The Open Source CFD Toolbox           |
|  \\    /   O peration     | Version:  v2012                                 |
|   \\  /    A nd           | Website:  www.openfoam.com                      |
|    \\/     M anipulation  |                                                 |
\*---------------------------------------------------------------------------*/
FoamFile
{
    version     2.0;
    format      ascii;
    class       volScalarField;
    location    "3";
    object      p_rgh;
}
// * * * * * * * * * * * * * * * * * * * * * * * * * * * * * * * * * * * * * //

dimensions      [1 -1 -2 0 0 0 0];


internalField   nonuniform List<scalar> 
167
(
8694.27037666
8695.04363264
8696.00229313
8697.13975992
8698.44497472
8699.90490976
8701.49681401
8703.19901204
8696.05093773
8696.41212114
8696.96023239
8697.68558668
8698.5804573
8699.63471996
8700.83421722
8702.16057755
8703.58746286
8705.0783347
8706.58328743
8698.60483378
8698.94609868
8699.46442885
8700.14827873
8700.98828394
8701.97225579
8703.08381967
8704.30136921
8705.5962063
8706.92459176
8708.23202433
8700.97533575
8701.30033455
8701.79414732
8702.44431028
8703.24048852
8704.1695842
8705.21421385
8706.35192709
8707.55213586
8708.76974048
8703.02756004
8703.16910467
8703.48269742
8703.95803021
8704.58314092
8705.34763778
8706.2384812
8707.23881868
8708.32714532
8709.47546712
8710.62541819
8705.05623029
8705.19399416
8705.49939357
8705.96228023
8706.57114831
8707.31624333
8708.18550336
8709.163989
8710.23714995
8711.35636454
8712.5003865
8706.91813685
8707.05355598
8707.35432533
8707.81056002
8708.41160444
8709.14879703
8710.01181113
8710.99170314
8712.06111874
8713.20388302
8708.61541789
8708.75012863
8709.04947533
8709.50426751
8710.10486293
8710.8440139
8711.7145675
8712.70684379
8713.80410232
8710.14897988
8710.28449575
8710.58508843
8711.04276867
8711.64884608
8712.39793624
8713.2855559
8714.30235926
8715.44273555
8711.51859181
8711.65586699
8711.96009376
8712.42383036
8713.03990945
8713.80468798
8714.7152062
8715.76860188
8716.95805059
8718.28205958
8712.72303474
8712.8627902
8713.17212009
8713.64423152
8714.27321046
8715.05720579
8715.99519411
8717.08779137
8718.33142701
8719.72324283
8713.76040986
8713.90312961
8714.21831894
8714.69996169
8715.34313301
8716.14772236
8717.11462856
8718.247025
8719.54579789
8721.01250221
8714.62863745
8714.77447652
8715.09584241
8715.58689647
8716.24419834
8717.0687308
8718.06329147
8719.2333553
8720.58526922
8722.11460228
8715.32495203
8715.4740955
8715.80136815
8716.30118132
8716.97119583
8717.81369836
8718.8329136
8720.0373007
8721.42664842
8723.0195727
8715.8461485
8715.99922631
8716.33182943
8716.83874043
8717.51907203
8718.37609007
8719.41525708
8720.64378278
8722.07115563
8716.1884275
8716.34577481
8716.68167375
8717.19303676
8717.8800708
8718.74698563
8719.79937385
8721.0462333
8722.49318708
8716.3505991
8716.50964847
8716.84583393
8717.35883722
8718.04991724
8718.92228622
8719.98293477
8721.23655548
8722.69736717
)
;

boundaryField
{
    back
    {
        type            fixedFluxPressure;
        gradient        uniform 0;
        value           nonuniform List<scalar> 
167
(
8694.27037666
8695.04363264
8696.00229313
8697.13975992
8698.44497472
8699.90490976
8701.49681401
8703.19901204
8696.05093773
8696.41212114
8696.96023239
8697.68558668
8698.5804573
8699.63471996
8700.83421722
8702.16057755
8703.58746286
8705.0783347
8706.58328743
8698.60483378
8698.94609868
8699.46442885
8700.14827873
8700.98828394
8701.97225579
8703.08381967
8704.30136921
8705.5962063
8706.92459176
8708.23202433
8700.97533575
8701.30033455
8701.79414732
8702.44431028
8703.24048852
8704.1695842
8705.21421385
8706.35192709
8707.55213586
8708.76974048
8703.02756004
8703.16910467
8703.48269742
8703.95803021
8704.58314092
8705.34763778
8706.2384812
8707.23881868
8708.32714532
8709.47546712
8710.62541819
8705.05623029
8705.19399416
8705.49939357
8705.96228023
8706.57114831
8707.31624333
8708.18550336
8709.163989
8710.23714995
8711.35636454
8712.5003865
8706.91813685
8707.05355598
8707.35432533
8707.81056002
8708.41160444
8709.14879703
8710.01181113
8710.99170314
8712.06111874
8713.20388302
8708.61541789
8708.75012863
8709.04947533
8709.50426751
8710.10486293
8710.8440139
8711.7145675
8712.70684379
8713.80410232
8710.14897988
8710.28449575
8710.58508843
8711.04276867
8711.64884608
8712.39793624
8713.2855559
8714.30235926
8715.44273555
8711.51859181
8711.65586699
8711.96009376
8712.42383036
8713.03990945
8713.80468798
8714.7152062
8715.76860188
8716.95805059
8718.28205958
8712.72303474
8712.8627902
8713.17212009
8713.64423152
8714.27321046
8715.05720579
8715.99519411
8717.08779137
8718.33142701
8719.72324283
8713.76040986
8713.90312961
8714.21831894
8714.69996169
8715.34313301
8716.14772236
8717.11462856
8718.247025
8719.54579789
8721.01250221
8714.62863745
8714.77447652
8715.09584241
8715.58689647
8716.24419834
8717.0687308
8718.06329147
8719.2333553
8720.58526922
8722.11460228
8715.32495203
8715.4740955
8715.80136815
8716.30118132
8716.97119583
8717.81369836
8718.8329136
8720.0373007
8721.42664842
8723.0195727
8715.8461485
8715.99922631
8716.33182943
8716.83874043
8717.51907203
8718.37609007
8719.41525708
8720.64378278
8722.07115563
8716.1884275
8716.34577481
8716.68167375
8717.19303676
8717.8800708
8718.74698563
8719.79937385
8721.0462333
8722.49318708
8716.3505991
8716.50964847
8716.84583393
8717.35883722
8718.04991724
8718.92228622
8719.98293477
8721.23655548
8722.69736717
)
;
    }
    sides
    {
        type            fixedFluxPressure;
        gradient        uniform 0;
        value           nonuniform List<scalar> 9(8716.3505991 8716.50964847 8716.84583393 8717.35883722 8718.04991724 8718.92228622 8719.98293477 8721.23655548 8722.69736717);
    }
    bottom
    {
        type            fixedFluxPressure;
        gradient        uniform 0;
        value           nonuniform List<scalar> 
13
(
8703.02756004
8705.05623029
8706.91813685
8708.61541789
8710.14897988
8711.51859181
8712.72303474
8713.76040986
8714.62863745
8715.32495203
8715.8461485
8716.1884275
8716.3505991
)
;
    }
    front
    {
        type            fixedFluxPressure;
        gradient        uniform 0;
        value           nonuniform List<scalar> 
167
(
8694.27037666
8695.04363264
8696.00229313
8697.13975992
8698.44497472
8699.90490976
8701.49681401
8703.19901204
8696.05093773
8696.41212114
8696.96023239
8697.68558668
8698.5804573
8699.63471996
8700.83421722
8702.16057755
8703.58746286
8705.0783347
8706.58328743
8698.60483378
8698.94609868
8699.46442885
8700.14827873
8700.98828394
8701.97225579
8703.08381967
8704.30136921
8705.5962063
8706.92459176
8708.23202433
8700.97533575
8701.30033455
8701.79414732
8702.44431028
8703.24048852
8704.1695842
8705.21421385
8706.35192709
8707.55213586
8708.76974048
8703.02756004
8703.16910467
8703.48269742
8703.95803021
8704.58314092
8705.34763778
8706.2384812
8707.23881868
8708.32714532
8709.47546712
8710.62541819
8705.05623029
8705.19399416
8705.49939357
8705.96228023
8706.57114831
8707.31624333
8708.18550336
8709.163989
8710.23714995
8711.35636454
8712.5003865
8706.91813685
8707.05355598
8707.35432533
8707.81056002
8708.41160444
8709.14879703
8710.01181113
8710.99170314
8712.06111874
8713.20388302
8708.61541789
8708.75012863
8709.04947533
8709.50426751
8710.10486293
8710.8440139
8711.7145675
8712.70684379
8713.80410232
8710.14897988
8710.28449575
8710.58508843
8711.04276867
8711.64884608
8712.39793624
8713.2855559
8714.30235926
8715.44273555
8711.51859181
8711.65586699
8711.96009376
8712.42383036
8713.03990945
8713.80468798
8714.7152062
8715.76860188
8716.95805059
8718.28205958
8712.72303474
8712.8627902
8713.17212009
8713.64423152
8714.27321046
8715.05720579
8715.99519411
8717.08779137
8718.33142701
8719.72324283
8713.76040986
8713.90312961
8714.21831894
8714.69996169
8715.34313301
8716.14772236
8717.11462856
8718.247025
8719.54579789
8721.01250221
8714.62863745
8714.77447652
8715.09584241
8715.58689647
8716.24419834
8717.0687308
8718.06329147
8719.2333553
8720.58526922
8722.11460228
8715.32495203
8715.4740955
8715.80136815
8716.30118132
8716.97119583
8717.81369836
8718.8329136
8720.0373007
8721.42664842
8723.0195727
8715.8461485
8715.99922631
8716.33182943
8716.83874043
8717.51907203
8718.37609007
8719.41525708
8720.64378278
8722.07115563
8716.1884275
8716.34577481
8716.68167375
8717.19303676
8717.8800708
8718.74698563
8719.79937385
8721.0462333
8722.49318708
8716.3505991
8716.50964847
8716.84583393
8717.35883722
8718.04991724
8718.92228622
8719.98293477
8721.23655548
8722.69736717
)
;
    }
    atmosphere
    {
        type            totalPressure;
        rho             rho;
        psi             none;
        gamma           1;
        p0              nonuniform List<scalar> 0();
        value           nonuniform List<scalar> 0();
    }
    floatingObject
    {
        type            fixedFluxPressure;
        gradient        nonuniform List<scalar> 0();
        value           nonuniform List<scalar> 0();
    }
    procBoundary10to9
    {
        type            processor;
        value           nonuniform List<scalar> 
15
(
8691.38063041
8692.20557198
8693.2348346
8694.46425801
8695.88976845
8697.502043
8699.29122647
8701.23386844
8693.30394584
8693.68792721
8693.68792721
8695.88389599
8698.44787149
8700.82650599
8700.82650599
)
;
    }
    procBoundary10to11
    {
        type            processor;
        value           nonuniform List<scalar> 
23
(
8704.95560983
8704.95560983
8708.03306856
8709.44432148
8709.94523956
8709.94523956
8711.74014781
8713.60861704
8714.37914601
8714.37914601
8714.99364006
8714.99364006
8716.68529964
8716.68529964
8719.70839536
8721.26691952
8722.65501791
8723.84952468
8724.82098846
8723.70860909
8723.70860909
8724.16002714
8724.37628646
)
;
    }
}


// ************************************************************************* //
