/*--------------------------------*- C++ -*----------------------------------*\
| =========                 |                                                 |
| \\      /  F ield         | OpenFOAM: The Open Source CFD Toolbox           |
|  \\    /   O peration     | Version:  v2012                                 |
|   \\  /    A nd           | Website:  www.openfoam.com                      |
|    \\/     M anipulation  |                                                 |
\*---------------------------------------------------------------------------*/
FoamFile
{
    version     2.0;
    format      ascii;
    class       surfaceScalarField;
    location    "3";
    object      phi;
}
// * * * * * * * * * * * * * * * * * * * * * * * * * * * * * * * * * * * * * //

dimensions      [0 3 -1 0 0 0 0];
oriented        oriented;


internalField   nonuniform List<scalar> 
304
(
-3.8384844373e-05
-0.00016057906928
-4.87883685172e-05
-0.000162479251691
-5.95632439725e-05
-0.000164369423481
-7.07113135629e-05
-0.000166562028241
-8.24390556256e-05
-0.000169214687472
-9.47716646386e-05
-0.000172381605976
-0.000107853790129
-0.000176130234518
-0.000180549262896
-1.91508926815e-05
-0.000143607745766
-2.92911067334e-05
-0.000147693786841
-3.97774206072e-05
-0.000150092736696
-5.05500956388e-05
-0.000151706624565
-6.17264363356e-05
-0.000153193156868
-7.33842452104e-05
-0.00015490426298
-8.56404141179e-05
-0.000156958476329
-9.85996230162e-05
-0.000159422184273
-0.000112385565316
-0.00016234376361
-0.000127119834063
-0.00016581377246
-0.000169912550573
-1.96849558721e-05
-0.000133611567365
-3.01214090932e-05
-0.000137257229713
-4.08370709246e-05
-0.000139377043356
-5.19386467609e-05
-0.000140605064077
-6.34451275542e-05
-0.000141686700193
-7.54569010475e-05
-0.000142892471544
-8.81116677299e-05
-0.000144303602249
-0.000101530402671
-0.000146003206831
-0.000115870898235
-0.000148002403854
-0.000131271822673
-0.000150411779605
-2.01403349404e-05
-0.00012331618333
-3.07003138154e-05
-0.000126697161561
-4.16198365644e-05
-0.000128457487699
-5.29084450995e-05
-0.000129316454419
-6.46279615008e-05
-0.000129967176695
-7.68748526167e-05
-0.000130645518854
-8.98282565471e-05
-0.00013135004174
-0.000103558073264
-0.000132273005905
-0.000118291098122
-0.000133268567899
-0.000134456752108
-9.9458825216e-06
-0.000109329933452
-2.02873977343e-05
-0.000112974546866
-3.10122433936e-05
-0.000115972244641
-4.207174593e-05
-0.000117397956658
-5.3473726631e-05
-0.000117914465147
-6.52995227062e-05
-0.000118141354569
-7.76763842233e-05
-0.000118268570666
-9.06606281079e-05
-0.000118365613286
-0.000104585785873
-0.000118347422464
-0.000119531210591
-0.000118322009552
-0.000118214713329
-1.00401902909e-05
-9.92896250974e-05
-2.03703245332e-05
-0.000102644319906
-3.11196843466e-05
-0.000105222828845
-4.22068964581e-05
-0.000106310721187
-5.36187836073e-05
-0.000106502565765
-6.54280258545e-05
-0.000106332077203
-7.77391868813e-05
-0.000105957312722
-9.07162000114e-05
-0.000105388412196
-0.000104584453163
-0.000104478286425
-0.000119438681859
-0.000103466949738
-9.98098885399e-06
-8.93085448509e-05
-2.0323184593e-05
-9.23020488598e-05
-3.10559615299e-05
-9.44900053366e-05
-4.20618105765e-05
-9.53048518392e-05
-5.33588333958e-05
-9.5205529663e-05
-6.50320555592e-05
-9.46588184526e-05
-7.71875804193e-05
-9.38016967952e-05
-8.99853180029e-05
-9.25902200611e-05
-0.000103453217024
-9.10097784212e-05
-9.87902781975e-06
-7.94294378544e-05
-2.01802442622e-05
-8.20007641967e-05
-3.07576046559e-05
-8.39126015051e-05
-4.16111006829e-05
-8.44513361172e-05
-5.27302427273e-05
-8.40863750519e-05
-6.41642829929e-05
-8.32247466963e-05
-7.60492615094e-05
-8.19165766856e-05
-8.83538383944e-05
-8.02852639865e-05
-7.79279612006e-05
-9.76860450837e-06
-6.96607557903e-05
-1.98642022214e-05
-7.19050971094e-05
-3.02977954092e-05
-7.34789626644e-05
-4.09497096082e-05
-7.3799400831e-05
-5.17951290245e-05
-7.32409449975e-05
-6.29448636009e-05
-7.20749897258e-05
-7.4294584381e-05
-7.05667185781e-05
-8.61616274775e-05
-6.84179938551e-05
-6.5659773956e-05
-9.61734002979e-06
-6.0043332275e-05
-1.95414219527e-05
-6.19809385416e-05
-2.97541042166e-05
-6.32662283324e-05
-4.01359122466e-05
-6.34175681206e-05
-5.06839012661e-05
-6.2692947036e-05
-6.13266069698e-05
-6.14322717148e-05
-7.22288641375e-05
-5.96643967137e-05
-8.33426892405e-05
-5.7303962009e-05
-9.48700997989e-05
-5.41320435783e-05
-5.01624367901e-05
-9.41842603143e-06
-5.06248116778e-05
-1.92081744653e-05
-5.21911018024e-05
-2.91223869444e-05
-5.33519535825e-05
-3.92013997646e-05
-5.33385237497e-05
-4.93606062669e-05
-5.25337294017e-05
-5.95509860345e-05
-5.12418851472e-05
-6.98631695238e-05
-4.93521841459e-05
-8.02939311587e-05
-4.68730655717e-05
-9.07680122223e-05
-4.36577344708e-05
-3.94834309529e-05
-9.30390860044e-06
-4.13207942191e-05
-1.87667627874e-05
-4.27281446345e-05
-2.84427351386e-05
-4.36759054465e-05
-3.82340430632e-05
-4.35471731446e-05
-4.79727812131e-05
-4.27949730664e-05
-5.77312927062e-05
-4.14833645781e-05
-6.74142907692e-05
-3.96691690545e-05
-7.70665468214e-05
-3.72207259864e-05
-8.65909960158e-05
-3.41331273712e-05
-3.00490501996e-05
-9.19071886479e-06
-3.21299506792e-05
-1.85001377243e-05
-3.34186065259e-05
-2.78934464816e-05
-3.42825049157e-05
-3.7263643563e-05
-3.41769182572e-05
-4.65904753429e-05
-3.34681105409e-05
-5.58502076677e-05
-3.22236149939e-05
-6.49336230752e-05
-3.05857376683e-05
-7.37730759401e-05
-2.83812175366e-05
-8.24053130134e-05
-2.55007175044e-05
-2.18458625203e-05
-9.12041220424e-06
-2.30093981386e-05
-1.81082793204e-05
-2.44306038551e-05
-2.71356823806e-05
-2.52549929994e-05
-3.61483915495e-05
-2.51641336685e-05
-4.51396559359e-05
-2.44767987005e-05
-5.39039286162e-05
-2.34593125815e-05
-6.24713555758e-05
-2.20182910228e-05
-7.06226014512e-05
-2.02298741545e-05
-7.82471900694e-05
-1.78760785479e-05
-8.87172641216e-06
-1.41375067763e-05
-1.74429827665e-05
-1.58591960336e-05
-2.61007405461e-05
-1.65971120009e-05
-3.47560341123e-05
-1.65087493991e-05
-4.33344720126e-05
-1.58982984927e-05
-5.16766385909e-05
-1.51171048141e-05
-5.9609690399e-05
-1.40852000582e-05
-6.70719493468e-05
-1.27675720572e-05
-1.10720948427e-05
-8.03247517276e-06
-6.10485608205e-06
-1.61125359257e-05
-7.77897837119e-06
-2.43822581324e-05
-8.32726090978e-06
-3.26872011134e-05
-8.20370864849e-06
-4.08075976434e-05
-7.77783138945e-06
-4.86431175001e-05
-7.28153826091e-06
-5.59840983152e-05
-6.74418129366e-06
-6.26994865616e-05
-6.05212467904e-06
-5.14433473854e-06
-6.10477137068e-06
-1.38836770705e-05
-2.22108806012e-05
-3.04145463739e-05
-3.81923476347e-05
-4.54738691127e-05
-5.22180153868e-05
-5.82701432796e-05
)
;

boundaryField
{
    back
    {
        type            calculated;
        value           uniform 0;
    }
    sides
    {
        type            calculated;
        value           uniform 0;
    }
    bottom
    {
        type            calculated;
        value           uniform 0;
    }
    front
    {
        type            calculated;
        value           uniform 0;
    }
    atmosphere
    {
        type            calculated;
        value           nonuniform List<scalar> 0();
    }
    floatingObject
    {
        type            calculated;
        value           nonuniform List<scalar> 0();
    }
    procBoundary10to9
    {
        type            processor;
        value           nonuniform List<scalar> 
15
(
0.00017068015702
0.000172882606296
0.000175144037243
0.000177709847789
0.000180942305092
0.000184714429841
0.000189212847204
0.000194534094682
0.000153340915742
2.82838153379e-05
0.000157834177575
9.41816301126e-06
9.68910877931e-06
9.84525943585e-06
0.000119276130323
)
;
    }
    procBoundary10to11
    {
        type            processor;
        value           nonuniform List<scalar> 
23
(
-0.000121837217182
0.000185721069126
-0.000142926515328
-0.000147889027879
-0.000153293948094
-0.000134244829915
-0.000135772211322
-0.000135665383068
-0.000101986812657
-0.000118030186
-8.88889657935e-05
-0.000101435082221
-9.84292782949e-05
6.20732361763e-05
-0.000106780109617
-0.000101446703147
-9.60251373153e-05
-9.06083808495e-05
-8.53022884313e-05
-1.47906113177e-05
-7.38758477531e-05
-6.86272351397e-05
-6.34144503733e-05
)
;
    }
}


// ************************************************************************* //
