/*--------------------------------*- C++ -*----------------------------------*\
| =========                 |                                                 |
| \\      /  F ield         | OpenFOAM: The Open Source CFD Toolbox           |
|  \\    /   O peration     | Version:  v2012                                 |
|   \\  /    A nd           | Website:  www.openfoam.com                      |
|    \\/     M anipulation  |                                                 |
\*---------------------------------------------------------------------------*/
FoamFile
{
    version     2.0;
    format      ascii;
    class       volVectorField;
    location    "5.8";
    object      ddt0(rho,U);
}
// * * * * * * * * * * * * * * * * * * * * * * * * * * * * * * * * * * * * * //

dimensions      [1 -2 -2 0 0 0 0];


internalField   nonuniform List<vector> 
164
(
(19.2028306067 -4.80773052703 1.60672183954e-18)
(19.0750740272 -13.4553711631 6.60433373798e-18)
(17.9623254628 -21.6188006721 2.18074839526e-17)
(15.7099505095 -30.3733194002 6.38380367902e-17)
(11.3436666136 -40.2258851597 1.44618082997e-16)
(2.70549228459 -53.8007946586 1.5495615067e-16)
(-15.8072585551 -70.6905476102 2.31668208285e-17)
(-38.7921358491 -97.9894936773 -7.29227881862e-16)
(5.66730644643 -127.488548011 7.85588962304e-16)
(13.3638124668 -148.28724136 -5.90671876884e-16)
(18.2725180184 -178.987078715 -5.83071646758e-16)
(25.3813225501 -233.551265419 1.46383439227e-15)
(167.012391098 -228.697618979 -2.38027038998e-15)
(137.037767821 -187.890431747 6.32337485825e-16)
(28.3408337666 -4.87126971338 8.10913171374e-19)
(28.2630283843 -14.1136177484 3.62495167681e-18)
(27.3878648523 -23.3103289874 1.30573392071e-17)
(25.7887370023 -33.3315476971 4.13794804618e-17)
(23.3138618366 -44.5080521629 1.14659829006e-16)
(20.438171318 -57.6684636729 2.34358194837e-16)
(19.0538904316 -73.6958686743 1.78280309096e-16)
(17.945844633 -95.7315519394 8.52427696122e-17)
(27.0572506603 -117.54666478 -1.92722396516e-16)
(36.7124352794 -137.099425834 5.36311477282e-17)
(47.1237048431 -159.836524056 9.86892622175e-17)
(65.0814420705 -186.179801663 4.66243428356e-16)
(114.588547505 -191.692895748 6.78306623954e-16)
(116.680958336 -186.471460606 -1.08633512777e-16)
(38.1007711761 -4.97804543416 2.89978681761e-19)
(38.0465519262 -14.5476275234 1.56203243737e-18)
(37.6722230385 -24.1547338439 6.06902319625e-18)
(37.0272255353 -34.4890568852 2.0011456634e-17)
(36.2528844338 -45.6901692355 5.62871460991e-17)
(35.6857090295 -58.2058924715 1.28723146445e-16)
(35.9984203277 -72.8927949059 2.03674666681e-16)
(38.0575835829 -91.5845253886 2.06674838068e-16)
(45.1587767228 -110.682515389 2.0197411779e-16)
(54.254106178 -127.854610291 6.70053907208e-17)
(65.4647547725 -145.329305654 1.56793171721e-16)
(81.9423070544 -161.193722719 7.97453133718e-17)
(107.245922123 -171.302270387 1.31930360032e-16)
(118.902862567 -175.751206479 1.56058899497e-16)
(48.1017153909 -5.04093026836 4.04821975792e-20)
(48.1581274522 -14.7107368457 5.24631084402e-19)
(48.2121931618 -24.3959721451 2.26063576749e-18)
(48.2705477254 -34.7536967294 7.52141580703e-18)
(48.4689351253 -45.8253961367 2.21866139996e-17)
(49.0288567877 -57.9358218365 5.37907355545e-17)
(50.3583103691 -71.4905282706 1.00316138704e-16)
(53.38418511 -86.6948008225 1.3051237477e-16)
(60.4555818079 -102.397806402 1.59586310305e-16)
(69.6918533781 -117.459004389 1.01524108951e-16)
(80.9968705442 -131.804668414 7.56809807622e-17)
(95.1286801179 -144.550355217 7.77170589117e-17)
(111.337713892 -154.645369192 1.28074958051e-16)
(126.643979729 -162.021969719 1.23128503004e-16)
(58.1168104485 -5.05161982703 -1.46818615769e-20)
(58.2551220788 -14.6212177963 1.86260165959e-19)
(58.6894248009 -24.1109114848 7.25864956792e-19)
(59.3387304464 -34.2294306908 2.31766048919e-18)
(60.3417971681 -44.8783144148 6.86050420855e-18)
(61.939992724 -56.2434862912 1.71671061423e-17)
(64.4996564072 -68.4731687065 3.4060479161e-17)
(68.5926315999 -81.5121552759 4.97279403933e-17)
(74.9211514847 -94.8622949087 4.36515344121e-17)
(83.2272344678 -107.933309441 8.76681933288e-17)
(93.3578937062 -120.266850535 1.04534662467e-16)
(105.169818728 -131.365071971 7.8534482965e-17)
(118.101065204 -140.823269765 8.06198504947e-17)
(131.170929607 -148.426736282 5.04853712849e-17)
(67.930786356 -5.05163230617 -6.71014403402e-20)
(68.0745908333 -14.3374685244 6.80765728186e-21)
(68.8578521003 -23.3834787956 2.22838287675e-19)
(69.9671707393 -33.1031443325 6.33732952251e-19)
(71.5514198837 -43.1820601646 1.77428928838e-18)
(73.8272216962 -53.7134866773 4.52210650457e-18)
(77.0640870827 -64.7417793113 9.20880451658e-18)
(81.5829069873 -76.1848066501 1.41504181124e-17)
(87.6698433619 -87.7824217071 1.59422710579e-17)
(95.3281359339 -99.1840521174 1.48492762883e-17)
(104.417372308 -110.034411614 1.94264966459e-17)
(114.677928093 -120.035523133 2.51822832579e-17)
(125.677783513 -128.863845185 2.37287010357e-17)
(136.895211534 -136.233898779 9.46817320725e-18)
(77.1554141004 -5.07681523218 -1.43356812056e-19)
(77.585006652 -13.9077059899 -3.65114162984e-20)
(78.5713711901 -22.2893594099 6.39525635766e-20)
(79.9945303324 -31.5392249814 1.01097301386e-19)
(81.9744740809 -40.98485917 3.73212811371e-19)
(84.6790655032 -50.6854859446 1.04000415661e-18)
(88.2919912019 -60.6572632536 2.0725967734e-18)
(92.9963579987 -70.8352917332 3.30941751293e-18)
(98.9310986558 -81.0661804204 4.04488705151e-18)
(106.117917562 -91.1385217273 4.06497358201e-18)
(114.457119776 -100.831987663 4.28987566535e-18)
(123.707399044 -109.961060742 4.39595223039e-18)
(133.505736219 -118.346134085 3.37893061757e-18)
(143.361593974 -125.720672199 -6.53983061337e-19)
(85.6767885467 -4.80695020169 -1.06775789741e-19)
(86.6725740354 -13.1502533458 -2.97733025914e-20)
(87.7084336015 -21.0446723908 4.92400465978e-20)
(89.3226256403 -29.7038082593 2.68540550256e-20)
(91.5545111815 -38.4707400073 5.4308967843e-20)
(94.5224841863 -47.3687023515 1.95294323814e-19)
(98.3417933289 -56.3981204383 4.05494621527e-19)
(103.122743758 -65.5120084547 6.51057333722e-19)
(108.942674694 -74.6178309133 7.90740102216e-19)
(115.820829347 -83.6019704795 8.17866944902e-19)
(123.69086971 -92.3543910838 6.97837356919e-19)
(132.387113079 -100.808558179 3.90007618386e-19)
(141.64121964 -108.985245386 -4.60989352255e-19)
(150.822146507 -116.939260598 -2.96055152437e-18)
(93.7950570794 -4.2778440693 5.01538484119e-20)
(94.993017593 -12.1212626392 -6.48775842744e-21)
(96.1287342388 -19.7122131316 6.40110147043e-20)
(97.8743239569 -27.7008130275 4.30907780535e-20)
(100.26942192 -35.7662375705 5.92636784143e-22)
(103.392673224 -43.8863052596 1.92731546621e-20)
(107.320342035 -52.0544137189 6.54635761085e-20)
(112.122110969 -60.2316964188 1.1446494411e-19)
(117.853665757 -68.3650931864 1.24733621648e-19)
(124.537491938 -76.3988911245 1.04637843485e-19)
(132.147515361 -84.295025562 5.54349104522e-20)
(140.638226172 -92.0791097844 -3.2306032606e-19)
(149.983348115 -99.9767164656 -1.22806944169e-18)
(159.884523231 -108.597468923 -4.42087514341e-18)
(101.441308519 -3.8214055964 5.13546731858e-20)
(102.529235342 -11.0796371787 -1.04595870249e-20)
(103.785282447 -18.2428211683 5.44179635865e-20)
(105.629089673 -25.5784886899 1.96326402262e-20)
(108.123309295 -32.9427386341 -1.10965017483e-20)
(111.327267624 -40.3173199384 -1.17466714396e-20)
(115.298834707 -47.680350393 -1.28255055675e-21)
(120.088298172 -54.9982396159 -3.97483383939e-21)
(125.73987528 -62.2384326866 -2.88448006346e-21)
(132.285518213 -69.3654328625 7.66392622729e-21)
(139.74238837 -76.3558341534 -1.2332068422e-19)
(148.171066712 -83.2387629374 -4.98386406059e-19)
(157.756501139 -90.0740300937 -1.76867405026e-18)
(168.722487597 -97.0169668244 -4.98017770272e-18)
(108.420256994 -3.42487280091 2.516188617e-20)
(109.391300498 -10.0598961123 8.86881062701e-20)
(110.711565317 -16.6998632215 4.29451356603e-20)
(112.616767774 -23.38402931 -2.79470792987e-21)
(115.153491658 -30.0626506511 -1.94688967197e-20)
(118.381532732 -36.7151026859 -1.88634310074e-20)
(122.344800662 -43.3116144375 -8.86115834836e-21)
(127.081182202 -49.8182423855 -9.4242742362e-21)
(132.630732716 -56.20102377 -3.07494990168e-20)
(139.025610466 -62.4213692868 -6.93768758339e-20)
(146.325197548 -68.4472937873 -2.71974296431e-20)
(154.619577792 -74.253538931 -4.72883761671e-19)
(164.132220002 -79.7731074534 -1.3951905471e-18)
(175.272997016 -85.1193503011 -5.01814777875e-18)
(138.571357571 -50.3049064401 -1.15794417871e-20)
(144.750446457 -55.6369600573 -4.26445120366e-20)
(151.789069202 -60.651585616 -1.50251818972e-19)
(159.757606197 -65.2804335284 -4.47420418671e-19)
(168.813717942 -69.2990672719 -1.23051132895e-18)
(179.273391608 -72.6444397721 -3.66496585679e-18)
(163.582073313 -56.8798274496 -3.11954614927e-19)
(171.781602983 -59.5795486276 -8.1911970009e-19)
(180.770103244 -61.1831584379 -2.83789856008e-18)
(180.773489002 -52.2608939773 -1.57701638931e-18)
)
;

boundaryField
{
    back
    {
        type            calculated;
        value           uniform (0 0 0);
    }
    sides
    {
        type            calculated;
        value           nonuniform List<vector> 0();
    }
    bottom
    {
        type            calculated;
        value           uniform (0 0 0);
    }
    front
    {
        type            calculated;
        value           uniform (0 0 0);
    }
    atmosphere
    {
        type            calculated;
        value           nonuniform List<vector> 0();
    }
    floatingObject
    {
        type            calculated;
        value           nonuniform List<vector> 4((0 1.42858427297e-12 -1.78573034121e-13) (0 1.42868837719e-12 -1.78586047149e-13) (0 0 0) (0 2.85845537362e-12 -1.78653460851e-13));
    }
    procBoundary8to3
    {
        type            processor;
        value           nonuniform List<vector> 8((10.8540497585 -4.66326209276 2.53039746547e-18) (10.5301480455 -12.7444373693 9.66764388966e-18) (9.72139651047 -19.8682369984 2.99144232308e-17) (7.80408615853 -26.6082489219 8.37038159337e-17) (4.02618857711 -31.2836949738 1.93485637377e-16) (-3.98535374369 -30.5440057518 2.24751165034e-16) (-21.6551937568 -33.8786195586 2.7180187136e-16) (-48.3557499226 -20.2173487641 -5.98891043156e-17));
    }
    procBoundary8to6
    {
        type            processor;
        value           nonuniform List<vector> 
16
(
(156.126762408 -51.9003445713 -7.44752327349e-16)
(117.370671524 -127.714369873 -2.35536274518e-16)
(121.659700155 -200.060744124 3.41139500101e-16)
(127.811563585 -196.727877749 2.31548077474e-16)
(133.951133044 -182.824933947 2.29124288124e-16)
(140.029733023 -168.859539216 1.19544385277e-16)
(144.017419303 -154.553664349 3.18963278636e-17)
(147.967522659 -142.127686486 3.79727844747e-18)
(152.39187386 -131.440855093 -3.91284269132e-18)
(158.440126993 -124.374368671 -5.30712483799e-18)
(169.736190032 -121.429793273 -2.89484128091e-18)
(181.392415516 -105.716847789 -5.55037471486e-18)
(188.44145275 -90.551792729 -5.56568731573e-18)
(192.012671258 -73.7759451434 -2.9820309296e-18)
(191.391594403 -59.6154536981 -3.95264890315e-18)
(188.442108334 -49.9657132521 -3.02583498595e-18)
)
;
    }
    procBoundary8to7
    {
        type            processor;
        value           nonuniform List<vector> 
17
(
(114.691468435 -3.10015007436 1.49650976314e-20)
(115.605141626 -9.08793697085 -1.40788873978e-19)
(116.945660967 -15.1063945908 6.46855789379e-21)
(118.872458718 -21.1551057824 6.24416565922e-22)
(121.417230184 -27.1665032068 -1.10042190364e-20)
(124.631891133 -33.1243423238 -1.09916558302e-20)
(128.547520381 -38.9948231473 -8.61601412578e-21)
(133.185448082 -44.7339675126 -3.02390246322e-21)
(133.185448082 -44.7339675126 -3.02390246322e-21)
(143.656704582 -44.6491366261 1.12855972433e-20)
(149.544163183 -49.1960170964 -1.26448055269e-20)
(156.17561622 -53.3153093645 -1.06069974059e-19)
(156.17561622 -53.3153093645 -1.06069974059e-19)
(166.402979787 -49.518369118 -1.53647484099e-19)
(173.538672033 -51.4380900881 -1.19000308203e-18)
(173.538672033 -51.4380900881 -1.19000308203e-18)
(180.562603264 -45.7753699104 -4.63652421165e-19)
)
;
    }
}


// ************************************************************************* //
