/*--------------------------------*- C++ -*----------------------------------*\
| =========                 |                                                 |
| \\      /  F ield         | OpenFOAM: The Open Source CFD Toolbox           |
|  \\    /   O peration     | Version:  v2012                                 |
|   \\  /    A nd           | Website:  www.openfoam.com                      |
|    \\/     M anipulation  |                                                 |
\*---------------------------------------------------------------------------*/
FoamFile
{
    version     2.0;
    format      ascii;
    class       volScalarField;
    location    "0.5";
    object      rAU;
}
// * * * * * * * * * * * * * * * * * * * * * * * * * * * * * * * * * * * * * //

dimensions      [-1 3 1 0 0 0 0];


internalField   nonuniform List<scalar> 
167
(
8.11128428262e-06
8.11116608058e-06
8.11106403403e-06
8.11095076614e-06
8.11082097827e-06
8.11067189502e-06
8.11050428881e-06
8.11031911943e-06
8.12336996291e-06
8.11208482452e-06
8.1112948809e-06
8.11118004476e-06
8.11108441611e-06
8.1109785744e-06
8.11085679999e-06
8.1107162259e-06
8.11055669682e-06
8.11037988631e-06
8.11018316131e-06
8.12342016065e-06
8.11212843418e-06
8.11133681229e-06
8.11122314771e-06
8.11113116774e-06
8.11102958598e-06
8.11091245181e-06
8.11077670097e-06
8.11062185846e-06
8.11045010177e-06
8.11025808367e-06
8.12349572336e-06
8.11219770987e-06
8.11140359469e-06
8.11128940352e-06
8.11119899105e-06
8.11109933348e-06
8.1109843552e-06
8.11085073022e-06
8.11069798243e-06
8.11052753417e-06
8.20990203209e-06
8.1235906741e-06
8.11228655115e-06
8.11148923057e-06
8.11137331262e-06
8.11128297326e-06
8.11118358069e-06
8.11106879326e-06
8.11093518147e-06
8.11078230412e-06
8.11061219846e-06
8.20998905209e-06
8.12369907464e-06
8.11238950783e-06
8.11158854074e-06
8.11147004901e-06
8.1113787091e-06
8.11127825942e-06
8.11116219458e-06
8.11102698378e-06
8.11087361568e-06
8.11070048334e-06
8.21008608312e-06
8.12381657987e-06
8.11250189699e-06
8.11169695634e-06
8.11157530325e-06
8.11148211219e-06
8.11137969299e-06
8.11126130791e-06
8.11112455016e-06
8.11096738346e-06
8.21018951133e-06
8.12393924968e-06
8.1126195817e-06
8.11181045432e-06
8.11168523404e-06
8.11158964204e-06
8.111484605e-06
8.11136361407e-06
8.11122357151e-06
8.21029637286e-06
8.12406367235e-06
8.11273899929e-06
8.11192557979e-06
8.11179658145e-06
8.11169818925e-06
8.11159013199e-06
8.11146610703e-06
8.11132241963e-06
8.21040430684e-06
8.12418623933e-06
8.11285630629e-06
8.11203868616e-06
8.11190590676e-06
8.1118044454e-06
8.11169312622e-06
8.1115653583e-06
8.1114180683e-06
8.11124941473e-06
8.21051024383e-06
8.12430101429e-06
8.1129654008e-06
8.11214420891e-06
8.11200792689e-06
8.1119031865e-06
8.11178822876e-06
8.11165669992e-06
8.11150561104e-06
8.11133344022e-06
8.2106186601e-06
8.12441301193e-06
8.11307396641e-06
8.11225155991e-06
8.11211225641e-06
8.11200371262e-06
8.11188450153e-06
8.11174871784e-06
8.11159343314e-06
8.11141720453e-06
8.21077558645e-06
8.12458325314e-06
8.11325327538e-06
8.11243428172e-06
8.11229112948e-06
8.11217659394e-06
8.11205101354e-06
8.11190905996e-06
8.11174770218e-06
8.11156614646e-06
8.21094649005e-06
8.12477766704e-06
8.11347549403e-06
8.1126595182e-06
8.11250765776e-06
8.11238379231e-06
8.11225049833e-06
8.11210224807e-06
8.11193647309e-06
8.11175022926e-06
8.21084261984e-06
8.12518593545e-06
8.11399058503e-06
8.11316480418e-06
8.11300123842e-06
8.11287706604e-06
8.11275026674e-06
8.11261257323e-06
8.11245940174e-06
8.21510556651e-06
8.13643381052e-06
8.12588729933e-06
8.1252915519e-06
8.12530767094e-06
8.12536972582e-06
8.12541683937e-06
8.12542846829e-06
8.12539644883e-06
8.26137692283e-06
8.21584220243e-06
8.21177355317e-06
8.21162218516e-06
8.21172071295e-06
8.21181462671e-06
8.21187923792e-06
8.21190198872e-06
8.21187632993e-06
)
;

boundaryField
{
    back
    {
        type            calculated;
        value           nonuniform List<scalar> 
167
(
8.11128428262e-06
8.11116608058e-06
8.11106403403e-06
8.11095076614e-06
8.11082097827e-06
8.11067189502e-06
8.11050428881e-06
8.11031911943e-06
8.12336996291e-06
8.11208482452e-06
8.1112948809e-06
8.11118004476e-06
8.11108441611e-06
8.1109785744e-06
8.11085679999e-06
8.1107162259e-06
8.11055669682e-06
8.11037988631e-06
8.11018316131e-06
8.12342016065e-06
8.11212843418e-06
8.11133681229e-06
8.11122314771e-06
8.11113116774e-06
8.11102958598e-06
8.11091245181e-06
8.11077670097e-06
8.11062185846e-06
8.11045010177e-06
8.11025808367e-06
8.12349572336e-06
8.11219770987e-06
8.11140359469e-06
8.11128940352e-06
8.11119899105e-06
8.11109933348e-06
8.1109843552e-06
8.11085073022e-06
8.11069798243e-06
8.11052753417e-06
8.20990203209e-06
8.1235906741e-06
8.11228655115e-06
8.11148923057e-06
8.11137331262e-06
8.11128297326e-06
8.11118358069e-06
8.11106879326e-06
8.11093518147e-06
8.11078230412e-06
8.11061219846e-06
8.20998905209e-06
8.12369907464e-06
8.11238950783e-06
8.11158854074e-06
8.11147004901e-06
8.1113787091e-06
8.11127825942e-06
8.11116219458e-06
8.11102698378e-06
8.11087361568e-06
8.11070048334e-06
8.21008608312e-06
8.12381657987e-06
8.11250189699e-06
8.11169695634e-06
8.11157530325e-06
8.11148211219e-06
8.11137969299e-06
8.11126130791e-06
8.11112455016e-06
8.11096738346e-06
8.21018951133e-06
8.12393924968e-06
8.1126195817e-06
8.11181045432e-06
8.11168523404e-06
8.11158964204e-06
8.111484605e-06
8.11136361407e-06
8.11122357151e-06
8.21029637286e-06
8.12406367235e-06
8.11273899929e-06
8.11192557979e-06
8.11179658145e-06
8.11169818925e-06
8.11159013199e-06
8.11146610703e-06
8.11132241963e-06
8.21040430684e-06
8.12418623933e-06
8.11285630629e-06
8.11203868616e-06
8.11190590676e-06
8.1118044454e-06
8.11169312622e-06
8.1115653583e-06
8.1114180683e-06
8.11124941473e-06
8.21051024383e-06
8.12430101429e-06
8.1129654008e-06
8.11214420891e-06
8.11200792689e-06
8.1119031865e-06
8.11178822876e-06
8.11165669992e-06
8.11150561104e-06
8.11133344022e-06
8.2106186601e-06
8.12441301193e-06
8.11307396641e-06
8.11225155991e-06
8.11211225641e-06
8.11200371262e-06
8.11188450153e-06
8.11174871784e-06
8.11159343314e-06
8.11141720453e-06
8.21077558645e-06
8.12458325314e-06
8.11325327538e-06
8.11243428172e-06
8.11229112948e-06
8.11217659394e-06
8.11205101354e-06
8.11190905996e-06
8.11174770218e-06
8.11156614646e-06
8.21094649005e-06
8.12477766704e-06
8.11347549403e-06
8.1126595182e-06
8.11250765776e-06
8.11238379231e-06
8.11225049833e-06
8.11210224807e-06
8.11193647309e-06
8.11175022926e-06
8.21084261984e-06
8.12518593545e-06
8.11399058503e-06
8.11316480418e-06
8.11300123842e-06
8.11287706604e-06
8.11275026674e-06
8.11261257323e-06
8.11245940174e-06
8.21510556651e-06
8.13643381052e-06
8.12588729933e-06
8.1252915519e-06
8.12530767094e-06
8.12536972582e-06
8.12541683937e-06
8.12542846829e-06
8.12539644883e-06
8.26137692283e-06
8.21584220243e-06
8.21177355317e-06
8.21162218516e-06
8.21172071295e-06
8.21181462671e-06
8.21187923792e-06
8.21190198872e-06
8.21187632993e-06
)
;
    }
    sides
    {
        type            calculated;
        value           nonuniform List<scalar> 9(8.26137692283e-06 8.21584220243e-06 8.21177355317e-06 8.21162218516e-06 8.21172071295e-06 8.21181462671e-06 8.21187923792e-06 8.21190198872e-06 8.21187632993e-06);
    }
    bottom
    {
        type            calculated;
        value           nonuniform List<scalar> 
13
(
8.20990203209e-06
8.20998905209e-06
8.21008608312e-06
8.21018951133e-06
8.21029637286e-06
8.21040430684e-06
8.21051024383e-06
8.2106186601e-06
8.21077558645e-06
8.21094649005e-06
8.21084261984e-06
8.21510556651e-06
8.26137692283e-06
)
;
    }
    front
    {
        type            calculated;
        value           nonuniform List<scalar> 
167
(
8.11128428262e-06
8.11116608058e-06
8.11106403403e-06
8.11095076614e-06
8.11082097827e-06
8.11067189502e-06
8.11050428881e-06
8.11031911943e-06
8.12336996291e-06
8.11208482452e-06
8.1112948809e-06
8.11118004476e-06
8.11108441611e-06
8.1109785744e-06
8.11085679999e-06
8.1107162259e-06
8.11055669682e-06
8.11037988631e-06
8.11018316131e-06
8.12342016065e-06
8.11212843418e-06
8.11133681229e-06
8.11122314771e-06
8.11113116774e-06
8.11102958598e-06
8.11091245181e-06
8.11077670097e-06
8.11062185846e-06
8.11045010177e-06
8.11025808367e-06
8.12349572336e-06
8.11219770987e-06
8.11140359469e-06
8.11128940352e-06
8.11119899105e-06
8.11109933348e-06
8.1109843552e-06
8.11085073022e-06
8.11069798243e-06
8.11052753417e-06
8.20990203209e-06
8.1235906741e-06
8.11228655115e-06
8.11148923057e-06
8.11137331262e-06
8.11128297326e-06
8.11118358069e-06
8.11106879326e-06
8.11093518147e-06
8.11078230412e-06
8.11061219846e-06
8.20998905209e-06
8.12369907464e-06
8.11238950783e-06
8.11158854074e-06
8.11147004901e-06
8.1113787091e-06
8.11127825942e-06
8.11116219458e-06
8.11102698378e-06
8.11087361568e-06
8.11070048334e-06
8.21008608312e-06
8.12381657987e-06
8.11250189699e-06
8.11169695634e-06
8.11157530325e-06
8.11148211219e-06
8.11137969299e-06
8.11126130791e-06
8.11112455016e-06
8.11096738346e-06
8.21018951133e-06
8.12393924968e-06
8.1126195817e-06
8.11181045432e-06
8.11168523404e-06
8.11158964204e-06
8.111484605e-06
8.11136361407e-06
8.11122357151e-06
8.21029637286e-06
8.12406367235e-06
8.11273899929e-06
8.11192557979e-06
8.11179658145e-06
8.11169818925e-06
8.11159013199e-06
8.11146610703e-06
8.11132241963e-06
8.21040430684e-06
8.12418623933e-06
8.11285630629e-06
8.11203868616e-06
8.11190590676e-06
8.1118044454e-06
8.11169312622e-06
8.1115653583e-06
8.1114180683e-06
8.11124941473e-06
8.21051024383e-06
8.12430101429e-06
8.1129654008e-06
8.11214420891e-06
8.11200792689e-06
8.1119031865e-06
8.11178822876e-06
8.11165669992e-06
8.11150561104e-06
8.11133344022e-06
8.2106186601e-06
8.12441301193e-06
8.11307396641e-06
8.11225155991e-06
8.11211225641e-06
8.11200371262e-06
8.11188450153e-06
8.11174871784e-06
8.11159343314e-06
8.11141720453e-06
8.21077558645e-06
8.12458325314e-06
8.11325327538e-06
8.11243428172e-06
8.11229112948e-06
8.11217659394e-06
8.11205101354e-06
8.11190905996e-06
8.11174770218e-06
8.11156614646e-06
8.21094649005e-06
8.12477766704e-06
8.11347549403e-06
8.1126595182e-06
8.11250765776e-06
8.11238379231e-06
8.11225049833e-06
8.11210224807e-06
8.11193647309e-06
8.11175022926e-06
8.21084261984e-06
8.12518593545e-06
8.11399058503e-06
8.11316480418e-06
8.11300123842e-06
8.11287706604e-06
8.11275026674e-06
8.11261257323e-06
8.11245940174e-06
8.21510556651e-06
8.13643381052e-06
8.12588729933e-06
8.1252915519e-06
8.12530767094e-06
8.12536972582e-06
8.12541683937e-06
8.12542846829e-06
8.12539644883e-06
8.26137692283e-06
8.21584220243e-06
8.21177355317e-06
8.21162218516e-06
8.21172071295e-06
8.21181462671e-06
8.21187923792e-06
8.21190198872e-06
8.21187632993e-06
)
;
    }
    atmosphere
    {
        type            calculated;
        value           nonuniform List<scalar> 0();
    }
    floatingObject
    {
        type            calculated;
        value           nonuniform List<scalar> 0();
    }
    procBoundary10to9
    {
        type            processor;
        value           nonuniform List<scalar> 
15
(
8.11131397795e-06
8.11118843592e-06
8.11107582622e-06
8.11095099e-06
8.11080876147e-06
8.11064713379e-06
8.11046668015e-06
8.11027071293e-06
8.12335360719e-06
8.1120748173e-06
8.1120748173e-06
8.20975545005e-06
8.20977944556e-06
8.20983052062e-06
8.20983052062e-06
)
;
    }
    procBoundary10to11
    {
        type            processor;
        value           nonuniform List<scalar> 
23
(
8.11011543617e-06
8.11011543617e-06
8.10994837242e-06
8.11002919203e-06
8.11033726145e-06
8.11033726145e-06
8.11042098285e-06
8.11050726133e-06
8.1107914752e-06
8.1107914752e-06
8.11106306757e-06
8.11106306757e-06
8.11115875281e-06
8.11115875281e-06
8.11106023748e-06
8.11113917123e-06
8.11121888508e-06
8.11136169807e-06
8.11154308289e-06
8.11228844135e-06
8.11228844135e-06
8.1253171586e-06
8.21179994903e-06
)
;
    }
}


// ************************************************************************* //
