/*--------------------------------*- C++ -*----------------------------------*\
| =========                 |                                                 |
| \\      /  F ield         | OpenFOAM: The Open Source CFD Toolbox           |
|  \\    /   O peration     | Version:  v2012                                 |
|   \\  /    A nd           | Website:  www.openfoam.com                      |
|    \\/     M anipulation  |                                                 |
\*---------------------------------------------------------------------------*/
FoamFile
{
    version     2.0;
    format      ascii;
    class       volVectorField;
    location    "4.5";
    object      ddt0(rho,U);
}
// * * * * * * * * * * * * * * * * * * * * * * * * * * * * * * * * * * * * * //

dimensions      [1 -2 -2 0 0 0 0];


internalField   nonuniform List<vector> 
1984
(
(3.80811132954 -3.58855530695 3.26076627766e-20)
(3.53322742328 -11.1759681391 -3.66059075101e-19)
(3.50954433107 -18.2712735201 1.48026077342e-19)
(3.50408626238 -25.4443635269 1.78172429268e-19)
(3.45992607442 -32.7193008765 1.64691767258e-19)
(3.35726486424 -40.1821826044 1.89598166456e-20)
(3.21776576758 -47.9554405509 -3.52826074177e-20)
(3.06110756681 -55.9398737443 -6.08053381262e-19)
(2.83285634763 -64.1643336115 -3.32695820617e-19)
(2.52818517004 -72.0908968778 -3.92329852904e-19)
(2.10489824988 -79.2434753402 1.70813332363e-19)
(1.54935676429 -85.7296994236 4.38122280836e-20)
(0.854602298764 -91.2842487774 4.20038578384e-19)
(-0.161660284113 -95.4165272949 3.7411444209e-19)
(-1.85775390589 -96.3005274509 7.79228591922e-19)
(-3.89667870408 -96.8695691474 8.42325263442e-19)
(-8.33147602639 -62.088774487 -6.09335629013e-18)
(-22.2141510687 45.234313909 -4.88292236519e-18)
(-91.2898675694 60.1755312169 9.98663087603e-17)
(61.6516657011 -93.7416583183 -6.4772123332e-18)
(11.9179491516 -3.32189536817 5.5090084465e-20)
(11.6057870837 -10.8868189248 -1.78103208556e-21)
(11.5653969476 -18.0409984943 1.37579539334e-19)
(11.5225052776 -25.2289743254 2.69557166363e-19)
(11.3932528808 -32.5082081529 1.05672088805e-18)
(11.1362993789 -39.962067534 2.67188121559e-19)
(10.7697507967 -47.6857307253 2.20317578513e-19)
(10.3379195246 -55.6462202968 1.74230733391e-19)
(9.76411494414 -63.8976898772 -5.66532423642e-19)
(8.95692194074 -71.9044155391 4.09741836752e-19)
(7.7895102485 -79.2044357113 4.78355877528e-19)
(6.25217307841 -85.8880184338 3.15473746275e-19)
(4.21785584101 -91.7404233896 5.75520372793e-19)
(1.41657653336 -96.4573816296 1.05440096466e-18)
(-3.03986088909 -98.9215296236 3.48927461726e-18)
(-9.05311672809 -104.634768079 3.84519194702e-18)
(-13.6167768127 -84.6669878231 -7.30936196082e-18)
(-20.6493285151 30.0622991669 -1.73963151334e-17)
(-29.9823705357 66.6753195216 -1.04557088015e-16)
(35.860355333 21.580249019 -2.21539055048e-19)
(19.6239164945 -3.31845060055 3.64005719922e-20)
(19.3401331066 -10.9043769722 -4.65824218146e-19)
(19.253643945 -18.081376166 5.12316252272e-20)
(19.1345538146 -25.3387887675 2.27114430232e-19)
(18.8976124057 -32.7235749242 2.36081051668e-19)
(18.4779689525 -40.3029554789 1.4673357226e-19)
(17.8874043077 -48.1319767239 1.6257114597e-20)
(17.1315145315 -56.1969132724 -7.45027052964e-20)
(16.2151487336 -64.6436140158 -6.41381716898e-20)
(15.0046275554 -73.0088834 1.05712453479e-19)
(13.1496060817 -80.7649439975 7.97195472806e-20)
(10.7563369946 -87.9837151426 2.68298158543e-19)
(7.6444390446 -94.5235212921 5.78823801514e-19)
(3.48919338591 -100.051362661 5.09232115339e-19)
(-2.64361479242 -103.261610707 6.46259110937e-18)
(-10.240407941 -108.363075381 1.73251283432e-17)
(-16.8106045838 -80.9717975455 -9.33207614153e-18)
(-14.5562260186 39.5114596452 -1.64532532599e-17)
(15.4123548556 68.3023569716 -9.3818103515e-17)
(14.0312101423 0.140476942656 -3.85257193618e-19)
(27.4426585271 -3.36225514409 3.82968691415e-21)
(27.1479667963 -10.9736317512 -2.89644544045e-19)
(27.042332406 -18.1994356019 1.45044594397e-20)
(26.884711014 -25.5606322869 1.69198071207e-19)
(26.5795918763 -33.1101958235 1.66922944459e-19)
(26.0481848595 -40.8780594379 1.04388069628e-19)
(25.27381392 -48.9048166288 5.47121047515e-20)
(24.2280186683 -57.1616719002 -5.65726159347e-20)
(22.8957604576 -65.8126076705 -5.54391178817e-20)
(21.4160853778 -74.6691552546 6.04721229889e-20)
(19.247896934 -83.0899189226 2.69067531962e-20)
(16.2378759018 -91.0203602373 1.22033325475e-19)
(12.3338014469 -98.6108122882 1.06803119459e-19)
(7.03656847292 -105.553143625 6.54706043443e-20)
(-1.080078214 -110.771318096 -2.16542489199e-18)
(-12.3983988328 -116.94948755 1.23716236789e-18)
(-29.6367015415 -89.2634853918 -1.05878850042e-18)
(-39.1840857353 35.8147381382 -5.85096871957e-18)
(40.3745426728 62.9668130455 -1.16697032901e-17)
(38.8332134043 -17.4493333305 5.65834972746e-20)
(35.3549381471 -3.40668612977 3.62560334327e-19)
(35.0507773536 -11.0430381488 -9.56118286328e-19)
(34.9528716968 -18.3397957925 -9.4833109863e-20)
(34.8019662406 -25.8209592688 9.98102025274e-20)
(34.4934143224 -33.5615255018 1.08703552351e-19)
(33.9452095325 -41.5855916974 9.78625142716e-20)
(33.0935230004 -49.9086911785 2.17186255072e-20)
(31.9017373476 -58.5224017509 -1.5102504339e-20)
(30.2947433638 -67.387187288 -2.64516692271e-20)
(28.4763410977 -76.5282837951 6.10532168768e-20)
(26.2528364032 -85.7304629818 2.53931264213e-20)
(23.108418899 -94.6619256065 2.1883248666e-19)
(18.9048952932 -103.555248677 3.98408405097e-19)
(13.1716825331 -112.629028435 3.03533381686e-19)
(4.14639498676 -121.792092288 -5.40408857562e-19)
(-10.3257587626 -133.259830187 3.06375404956e-18)
(-41.5855765834 -113.75267062 -1.35916139651e-17)
(-96.3498502498 18.3578712638 -1.40570746709e-17)
(2.243949648 64.6568857378 -2.11495462516e-17)
(154.311922732 19.3426092067 -2.27608582985e-18)
(43.3345453859 -3.43619359895 9.30901264817e-20)
(43.013601461 -11.0912717125 -3.94261988665e-19)
(42.9554159351 -18.4628470106 -5.99975726163e-20)
(42.8577081714 -26.0585787049 6.99151110115e-20)
(42.6139966596 -33.9899880195 5.11179924285e-20)
(42.1415190704 -42.2811331963 7.44431218898e-20)
(41.3691005034 -50.9352675279 2.08558669372e-20)
(40.2367750538 -59.9377220754 1.96204001857e-21)
(38.6987954111 -69.222333714 -5.20739872341e-21)
(36.7440489848 -78.6932103797 8.24513359501e-20)
(34.4453601633 -88.4067062517 3.06578513571e-20)
(31.4636149095 -98.2892152719 2.15549940882e-19)
(27.4936603844 -108.544686891 5.26351595635e-19)
(22.4326468422 -119.754336383 6.81272473294e-19)
(15.3809857865 -133.936891423 1.28114873559e-18)
(5.71845033802 -157.841959851 -1.20572496687e-18)
(-15.8443266315 -181.415644471 -9.51223885092e-18)
(-90.3946275096 -92.2706000806 5.43346149184e-18)
(-62.3823356514 31.6610073763 4.17037404032e-17)
(99.3267302196 152.590841491 1.77642585198e-17)
(51.3520812351 -3.45325331425 5.29882784707e-20)
(51.0110236538 -11.1014363984 -8.26563336209e-20)
(51.0227940014 -18.5217732837 2.76762713223e-20)
(51.0246907242 -26.2143181806 9.58541478165e-20)
(50.9131812044 -34.3129093064 1.31134165951e-19)
(50.6135357472 -42.8446404818 4.32807697084e-20)
(50.0519425322 -51.8121497439 3.07439547005e-20)
(49.1629733319 -61.1810270098 -3.28863982992e-22)
(47.8953103367 -70.873120563 -2.97478989134e-20)
(46.2093622099 -80.793545512 6.39319569203e-20)
(44.0034075223 -91.035628452 5.92513685376e-20)
(41.2028950426 -101.638481772 1.76873710678e-19)
(37.594031162 -112.696385949 5.59016200023e-19)
(33.5155427808 -124.433671145 8.16462452571e-19)
(29.7292417146 -138.399232515 4.02173056541e-18)
(31.1144259123 -160.340957933 6.56858247726e-18)
(47.6789504315 -189.040436517 -6.3771060683e-18)
(63.5667521944 -145.253409602 -1.31646065226e-17)
(73.1157186466 -25.034152858 -6.05223193046e-17)
(-1.05594873231 80.0341683773 2.48461884752e-17)
(59.3579224576 -3.45234499503 -1.70945521605e-20)
(59.0056634379 -11.0570827975 -5.95296814567e-19)
(59.1106502693 -18.4809265133 -1.20870300331e-19)
(59.2556098865 -26.2302122692 7.3634423094e-20)
(59.3432998883 -34.4438424121 7.84735883058e-20)
(59.3077682921 -43.1621269655 7.02698415464e-20)
(59.0835030337 -52.3911101675 3.5218894125e-20)
(58.5959793331 -62.0914244685 2.17075225421e-20)
(57.7760669781 -72.1724672368 2.91671979646e-21)
(56.5311501617 -82.5944646862 2.35616899629e-20)
(54.6814966488 -93.4398582192 6.20022482428e-20)
(52.1066291792 -104.757811777 1.76098259664e-19)
(48.5272965758 -116.397445027 4.9378917304e-19)
(44.0942080571 -127.540184514 1.01618457196e-19)
(39.4284215666 -136.400542366 3.24776011655e-19)
(39.2174164523 -137.867564381 1.53872297268e-17)
(51.6426158052 -97.7041092181 2.69844518505e-17)
(65.578608408 12.3352125269 -3.11040734613e-18)
(94.6992274846 47.0231966622 -1.1647367011e-16)
(-50.4418534006 49.9122484361 7.25405063635e-18)
(67.2851603131 -3.42804438459 -1.25038874258e-19)
(66.9410168389 -10.942055671 -5.54853254123e-19)
(67.1610495799 -18.3039165546 -1.24466720267e-19)
(67.4895378536 -26.0507902713 6.89255178019e-20)
(67.8387248651 -34.3085353928 5.0444131251e-20)
(68.1528432541 -43.1269898544 9.13050174315e-21)
(68.38025421 -52.5323335521 2.20287432944e-20)
(68.4459586437 -62.4908285654 2.21236293837e-20)
(68.2603245084 -72.9447198268 1.51808704162e-21)
(67.6727348842 -83.9086675026 1.1369137899e-20)
(66.4396954169 -95.4982169773 6.31509672042e-21)
(64.2740529749 -107.876995697 1.25241798096e-19)
(60.6190796798 -120.899058061 2.95799393784e-19)
(54.8225907493 -133.565485373 6.99236549971e-19)
(45.5282431303 -143.693954319 3.19787692059e-19)
(31.4373046429 -146.421583228 1.87358392265e-18)
(3.3376694926 -115.256251612 3.61661561406e-18)
(-77.5480311135 -14.3626868178 -3.8207836147e-18)
(-73.7363844277 24.338249165 -1.56291041576e-17)
(-98.9911249909 44.1028225379 -2.46543791241e-18)
(75.0613928785 -3.36182532883 -2.12704858364e-19)
(74.752605932 -10.7388112406 -5.71329882023e-19)
(75.1006883218 -17.9618141178 -1.6780192187e-19)
(75.6488174461 -25.6259521527 -7.16585137198e-21)
(76.3152005008 -33.8310944128 3.40267586647e-20)
(77.0598181007 -42.6437306088 2.5630542675e-20)
(77.8433099413 -52.1063590809 6.43646997335e-21)
(78.6064643219 -62.2171894531 -1.54986354664e-21)
(79.2489315465 -72.9629323444 -3.55275747845e-20)
(79.5992843764 -84.4583711521 2.29482173247e-20)
(79.3542130744 -96.9139552984 2.4694325265e-20)
(78.1218107026 -110.699807512 8.35783649358e-20)
(75.1079358175 -126.061366029 8.32050405091e-20)
(69.0569920962 -142.728912455 2.40444916191e-19)
(57.2122825142 -160.341827322 -2.08209814517e-19)
(35.1181094719 -178.60400025 3.71770759954e-18)
(-10.6073689473 -181.427696149 1.49408384494e-17)
(-122.374249294 -96.541825887 -8.86871235531e-18)
(-143.389055757 -6.62568741375 -1.94233566632e-17)
(-94.1947950814 13.1401228879 -4.6774451379e-18)
(82.619409545 -3.26769323322 -2.66509870705e-20)
(82.3465868139 -10.4050526306 6.14737327324e-21)
(82.8429817381 -17.431963601 -7.32199593648e-21)
(83.6400561183 -24.9125555493 3.7598088956e-21)
(84.6716827356 -32.9495943698 4.00235054173e-20)
(85.9126774442 -41.6213500764 1.38098126999e-20)
(87.3472866589 -50.9928022184 1.25448435715e-20)
(88.9370997629 -61.0941874961 1.36527488836e-21)
(90.6031933171 -71.9828516195 5.82044057269e-21)
(92.180393051 -83.877707422 6.9319200655e-21)
(93.4090420581 -97.1023396007 1.39705507797e-20)
(93.880355092 -112.27653323 8.55999356051e-20)
(92.8705422833 -130.168132763 4.74030139548e-20)
(89.1105026102 -151.529852701 1.39118370174e-19)
(79.8753840952 -178.06501389 -1.28239879782e-18)
(60.8167902634 -213.280830581 -4.57061397879e-18)
(21.366487618 -244.954585829 2.79303131987e-19)
(-100.966709383 -160.93104207 -8.74584424532e-18)
(-159.627320978 -13.7968409522 -5.83366843662e-18)
(-85.7374261223 7.5947677618 -1.98803064173e-18)
(89.8684096091 -3.14910865066 3.17750720969e-19)
(89.6344146106 -9.94866259551 -3.4316704148e-19)
(90.2974412808 -16.6872869279 -4.9937146872e-20)
(91.3673381349 -23.8760517733 1.47597764041e-20)
(92.7942508143 -31.612640411 3.81416817047e-20)
(94.5764389156 -39.990128479 2.26265291013e-20)
(96.7291529731 -49.0892869259 3.52663826835e-21)
(99.2485059348 -58.9789016426 1.14568824811e-20)
(102.091370014 -69.7666593388 1.26797442656e-20)
(105.149420811 -81.7450217357 -8.1593817325e-21)
(108.271684357 -95.3501316669 2.11647138183e-20)
(111.200297906 -111.383512493 3.49356589035e-20)
(113.547820863 -130.976175942 1.20385038478e-19)
(114.612632023 -155.652721542 1.33566195566e-19)
(112.963182814 -188.415365465 9.35681289473e-20)
(106.382995002 -235.451740522 -4.26584561881e-18)
(88.9524587829 -289.667781317 1.5339043733e-17)
(-22.2504417925 -224.459154364 -6.74053539878e-18)
(-125.169773705 -49.4665565105 7.70443930183e-18)
(-56.5763751333 -6.09310843867 -4.89989617682e-19)
(96.7097706129 -2.98433112769 2.4315153306e-19)
(96.5270101043 -9.36069283914 -5.66353899114e-19)
(97.3613983297 -15.7130514846 -2.06354920225e-19)
(98.7163749408 -22.4943299388 -5.0753832633e-20)
(100.550907364 -29.7950346512 6.1971913379e-21)
(102.895623734 -37.7106864449 1.82863291536e-20)
(105.796253933 -46.3342711966 2.93606341185e-21)
(109.288960039 -55.7591787872 -7.08845182712e-21)
(113.389106366 -66.1335565404 -1.05665285163e-20)
(118.067254439 -77.7769561246 8.89917602205e-21)
(123.318772959 -91.1561956648 9.7540197931e-21)
(129.13092372 -107.121008698 -3.1499167293e-20)
(135.564116511 -126.856325099 3.75572880602e-20)
(142.73289888 -151.997588148 -4.26828753237e-19)
(150.952408223 -185.469811403 1.33603046935e-18)
(161.173205694 -234.021507867 4.7569079738e-18)
(173.565417501 -296.779690088 4.92616971261e-17)
(109.080862062 -247.797586639 1.08398726886e-17)
(-2.85921042992 -80.7514214485 1.85884851277e-20)
(-23.2628396985 -17.9813105995 -2.90156994295e-19)
(103.042869623 -2.78116721781 8.07324453549e-20)
(102.919986357 -8.64416177385 -3.05412943739e-19)
(103.923734757 -14.5063460143 -2.31984311368e-19)
(105.56059726 -20.7651618464 -1.27343066181e-19)
(107.801555995 -27.4872326508 -2.52789767502e-20)
(110.697359409 -34.7683506507 -1.1578899051e-20)
(114.328404154 -42.7098038416 -7.56762080544e-21)
(118.777412692 -51.4087481778 1.90145624748e-20)
(124.113985846 -61.0295234235 -9.05739584461e-21)
(130.402858071 -71.8867224211 9.31268962039e-21)
(137.775763302 -84.3894557022 3.61763603772e-20)
(146.434856215 -99.2716060615 -1.7761667007e-20)
(156.831224332 -117.487603579 3.10980145565e-19)
(169.678856022 -140.240292351 -1.69391201052e-19)
(186.48750914 -169.400946346 -4.30568536785e-19)
(210.481455327 -209.393448793 2.30245450162e-18)
(247.107032271 -261.039418809 -1.04480648489e-17)
(211.279141722 -198.128127341 1.29761138509e-17)
(71.2074992485 -40.203075267 -5.77847062162e-19)
(-4.59002983208 -6.49544296872 6.45438600839e-20)
(108.776493355 -2.52722900711 -1.14724524656e-19)
(108.706609227 -7.79567972575 -3.65301825185e-19)
(109.874480737 -13.0755006817 -1.50963013696e-19)
(111.776587599 -18.6937275406 -1.04260531921e-19)
(114.398512889 -24.7054094337 -8.40371193979e-21)
(117.800054648 -31.193188984 -4.65538733643e-21)
(122.100018273 -38.2501864795 -3.92514995889e-21)
(127.42851441 -45.9759996192 2.35979564836e-20)
(133.886237627 -54.532986281 2.20246473549e-20)
(141.62533936 -64.1763516576 7.44053561e-21)
(150.880168581 -75.2299500645 1.99936258668e-20)
(162.00364048 -88.2051431262 -5.23864230351e-20)
(175.628239862 -103.721823419 4.574135578e-20)
(192.672423189 -122.408381162 -4.3780276424e-19)
(214.84284155 -144.752206057 8.03836510049e-20)
(244.887402498 -171.026517733 -5.16680173197e-18)
(287.031839004 -203.602664082 2.29190775851e-17)
(237.183172946 -143.032289999 2.24378822396e-18)
(86.8029320605 -21.3292666547 -2.90345482311e-17)
(-0.630662638749 -2.04895591439 -1.60685362091e-19)
(113.815540227 -2.24372954452 1.70058982124e-19)
(113.786175122 -6.83413929269 7.10238146829e-20)
(115.102883032 -11.4293474096 2.92072807347e-20)
(117.241771053 -16.303812873 -1.52323417598e-20)
(120.18582218 -21.4858784834 -5.81705743572e-21)
(124.030750702 -27.0422756496 -1.25869750099e-20)
(128.905786976 -33.0446873199 -1.39152815384e-21)
(134.962999828 -39.5985085822 1.35191511775e-20)
(142.348636269 -46.8292914635 -5.0652401134e-21)
(151.270527859 -54.9127147043 -4.22162737679e-20)
(162.031248938 -64.06227722 6.18811588106e-20)
(175.052185851 -74.5950273633 -3.94319326248e-21)
(190.983136934 -86.8479404535 6.4321604867e-20)
(210.639384774 -101.066154829 -3.2970027301e-19)
(235.374347418 -117.272835524 -1.54087525578e-18)
(265.350304894 -134.074901713 -4.68311543711e-18)
(302.710874334 -172.883600054 -1.57190948283e-17)
(246.411356969 -135.374180959 -4.79844885435e-18)
(80.3837579535 -25.3173876172 1.9987406672e-18)
(0.278281580509 -1.1096013304 1.13991164034e-19)
(118.054425311 -1.92854806408 4.62940764818e-19)
(118.074281219 -5.76818523694 2.13750957645e-19)
(119.5102643 -9.59396210963 1.34133047941e-19)
(121.828717835 -13.6586515848 4.89579134485e-20)
(125.04411898 -17.9220461422 4.00223997175e-20)
(129.234911047 -22.4304808517 -2.05705771695e-20)
(134.550093805 -27.2654148356 -3.7736109958e-20)
(141.153122008 -32.5016658534 -2.435451117e-20)
(149.237420491 -38.2085894824 1.27177948682e-21)
(159.02221037 -44.4655328874 -2.17633349312e-20)
(170.856685685 -51.3950027329 7.9070029321e-21)
(185.157228222 -59.1769023858 -1.98292879399e-20)
(202.539674041 -67.9734146792 -8.6544434083e-20)
(223.607338216 -77.7348038439 -7.38691374141e-19)
(249.286171732 -89.5496619077 -8.25980634802e-19)
(279.329007403 -99.5996646279 -4.41942500244e-18)
(310.205152265 -125.307881532 -2.35673223714e-17)
(271.647173924 -96.7523465489 -9.52345304204e-18)
(89.7596129217 -14.3714878377 -1.5983797992e-18)
(0.618999742726 -0.370915601439 4.32580970652e-20)
(121.453172574 -1.57904331571 3.67691267513e-19)
(121.487095357 -4.6043232197 1.11991268154e-19)
(123.014193655 -7.6265267789 1.1312968424e-19)
(125.469180395 -10.8198487507 6.95543332681e-20)
(128.877111749 -14.1061446804 1.87449659607e-20)
(133.30073399 -17.5383970134 4.9506230372e-21)
(138.892576654 -21.1246557095 -3.55690345134e-21)
(145.834050901 -24.9012408068 -5.05053130771e-20)
(154.336240415 -28.925101592 -3.99169403003e-20)
(164.614756398 -33.2159112886 -2.45559759933e-20)
(177.053120459 -37.7954032567 -9.60423844834e-21)
(192.056035425 -42.7160250177 -7.70456385007e-20)
(210.170495588 -48.0625577096 -2.7272348341e-19)
(231.928530517 -53.8007757192 -1.00873121079e-18)
(257.882007566 -60.4849221666 -2.89877163432e-18)
(289.951668932 -69.4283242883 -8.57821850397e-19)
(320.348724455 -79.2709360272 1.24580232e-17)
(293.238153444 -59.6044943762 -3.43418251549e-18)
(85.2257717553 -5.29434187936 1.27432334032e-17)
(0.764574996369 -0.192344598213 6.02195660762e-20)
(124.01937996 -1.20522407955 -2.64740885395e-21)
(124.007317485 -3.37680837239 -2.82348203401e-19)
(125.579049544 -5.54908618833 -2.17498801156e-20)
(128.128975238 -7.85887462837 -1.99292797148e-20)
(131.619502872 -10.1621822118 -1.21130695744e-20)
(136.168903562 -12.484811494 7.69134517281e-21)
(141.879848381 -14.7809124646 -2.48045738195e-22)
(148.910360174 -17.0639714396 -1.01534216994e-21)
(157.496506466 -19.3937319626 -7.00515327106e-20)
(167.906435159 -21.682741055 -2.85398070642e-20)
(180.474852221 -23.8606151766 -4.94673628772e-20)
(195.616471496 -25.9017162733 -1.33171285727e-19)
(213.827919116 -27.7684609673 -3.6965133061e-19)
(235.724400182 -29.4971861043 -1.27671851379e-18)
(261.964902227 -30.7140519502 -6.07737719885e-19)
(294.764612114 -34.0365624228 2.3900403221e-18)
(331.908405106 -36.0829249665 1.8418716008e-17)
(305.077518359 -31.9224099313 9.5877432494e-18)
(68.2415520416 2.06101673264 8.70647308554e-18)
(0.755177496132 -0.0575657106456 1.10821757732e-19)
(125.577978858 -0.826560786153 -1.08239575111e-19)
(125.713151083 -2.17488677525 -2.2854136875e-19)
(127.244439308 -3.46421130965 -9.1630715155e-20)
(129.798607722 -4.88223484047 -6.8593919519e-20)
(133.2923703 -6.18633222293 1.40340422431e-21)
(137.813429951 -7.36473306353 -9.25052429836e-21)
(143.460978029 -8.42044679236 -6.78107499996e-21)
(150.380894534 -9.28719154943 5.21762997481e-20)
(158.783547123 -9.91402164698 -3.46343741096e-20)
(168.977474347 -10.2113837424 -3.95996635546e-20)
(181.224480262 -10.0349466982 8.23266617672e-20)
(195.975941389 -9.2613413113 -1.80251369434e-19)
(213.686673278 -7.67231518254 -1.69551057793e-19)
(234.998213703 -5.31538165446 -4.21178946763e-19)
(260.859623964 -1.20915859461 1.25897290564e-18)
(292.933772029 0.53698954311 9.01601227258e-18)
(333.379473206 3.83968729628 7.38668964205e-18)
(310.250940262 -7.32807073929 8.0162431464e-18)
(50.229080336 5.76096154605 1.53197907081e-18)
(0.673736623457 -0.0927004561612 1.16206009699e-19)
(126.435588411 -0.393900892155 -1.33504954625e-19)
(126.592676214 -0.934157820414 -7.92652131716e-20)
(128.063924973 -1.46436714898 -2.2783381448e-20)
(130.536720068 -1.93449722444 -4.59591615852e-20)
(133.931392487 -2.25625935106 2.54897570943e-21)
(138.278282194 -2.37953483162 1.48223434208e-20)
(143.688808178 -2.23611323769 7.49644931895e-21)
(150.311498504 -1.74013325192 7.78289194095e-21)
(158.311382472 -0.783830089039 -2.27536597423e-20)
(167.935829434 0.780030257173 2.93967556043e-20)
(179.46058787 3.18801888278 -1.14574434759e-20)
(193.273205758 6.66627413417 -1.07178441079e-19)
(209.833471492 11.5245831742 1.08360818493e-20)
(229.757022792 17.8595631146 -4.02013553755e-19)
(254.307776226 27.2871596203 7.44621522357e-19)
(284.893269705 35.0436537886 -3.25740454673e-18)
(327.313827382 44.9005406738 -2.8511090122e-18)
(312.743505543 19.318052716 2.51483295403e-18)
(32.4584208644 8.49972556398 9.77652584576e-19)
(0.570198801868 0.0197018045371 3.30586641631e-20)
(126.607699574 -0.00570103661349 6.74866057862e-20)
(126.635271663 0.247924002172 6.93358467513e-21)
(128.058180674 0.507751302302 2.05184204911e-20)
(130.394014214 0.890025465764 -2.80369923543e-20)
(133.582920563 1.48364908063 -6.79539963561e-21)
(137.655486313 2.35003389292 -1.48495876836e-20)
(142.704363685 3.58519705369 2.17137245833e-21)
(148.833335465 5.32325133404 2.59336363807e-20)
(156.186819687 7.71639643404 -5.0643052986e-20)
(164.949830903 10.9665401972 3.13488309392e-21)
(175.381696303 15.3610800583 -1.97153493925e-20)
(187.730719555 21.221724027 -5.36763020963e-20)
(202.469251788 29.0347928605 3.85917360403e-20)
(220.171451323 39.2449054507 -4.9170949732e-20)
(242.119281431 53.8192751128 2.72096821785e-18)
(269.51963304 68.8089594983 1.03311889495e-18)
(309.049816274 87.8592995101 -1.6508944663e-18)
(300.957910433 47.7708733586 6.20489258892e-18)
(13.6503012452 9.58758628178 2.33671466381e-18)
(0.418114363664 0.253853826919 1.06240254536e-19)
(126.006471452 0.345855485502 1.46228297398e-19)
(125.96698328 1.34988569301 4.06238755679e-20)
(127.265223964 2.35956704086 -9.53022062488e-21)
(129.421238931 3.52386874728 -6.36477702537e-21)
(132.345619911 4.94974374605 -1.31243076539e-20)
(136.06056017 6.70840974015 -1.0744398478e-20)
(140.625492623 8.91799462715 -3.96620553669e-21)
(146.117326416 11.7323424566 -2.60506860031e-20)
(152.630707882 15.3444907721 -3.55720935371e-20)
(160.295161845 20.0089940039 -4.83393242439e-21)
(169.281128693 26.0290503947 -1.76712586894e-20)
(179.755025365 33.8712896751 -3.94716520073e-20)
(192.088866673 44.1121710138 -1.63873304017e-20)
(206.722226502 57.4709702659 4.4164656127e-19)
(224.568171352 76.1744414096 -4.48558178892e-19)
(246.709108622 97.9256448168 2.37386614715e-18)
(278.548858707 122.921443444 -2.49241608296e-18)
(261.810286619 67.2518168365 5.72674692433e-18)
(-4.11881381284 9.07366609791 2.17873639459e-18)
(0.46331543163 1.7357431322 1.91592943206e-20)
(124.727855018 0.670124791945 1.49848528025e-19)
(124.620411633 2.35893202999 3.42461864036e-20)
(125.770506987 4.04913404224 -1.95768645047e-20)
(127.708857033 5.91449094972 -5.55714696837e-20)
(130.321907044 8.070066391 -1.01337216483e-20)
(133.616250758 10.6068788205 -1.10454269866e-21)
(137.619251744 13.6492166164 -6.16577086892e-21)
(142.367389508 17.3537274606 5.47582937198e-22)
(147.908529789 21.9289206785 -1.84864361578e-20)
(154.300432633 27.6592198114 -8.2615785146e-21)
(161.607439441 34.8864217236 1.68657169331e-21)
(169.943214723 44.1336934037 -5.3999489417e-20)
(179.397776343 56.0272434286 -1.27969168444e-19)
(190.280793569 71.5262867905 1.92762771493e-19)
(203.052719212 92.8850283833 3.25925215892e-18)
(218.460714522 119.207416966 7.63649606577e-18)
(238.017971322 146.09495125 2.35325136269e-18)
(189.823234182 83.1202936051 8.8967930946e-18)
(-2.87511356663 0.733812126104 1.25137321769e-19)
(0.582001222923 2.19280245775 -1.00887471313e-18)
(122.842090379 0.957518148116 6.52161893095e-20)
(122.662907188 3.25704325868 -2.33072647482e-21)
(123.655645197 5.55240310527 -2.63652804199e-20)
(125.348523035 8.02766400679 -4.8585466208e-20)
(127.62170536 10.809228822 -2.64543339317e-20)
(130.455382792 13.9905882533 -9.77154096938e-22)
(133.853295576 17.693357603 1.99933735224e-21)
(137.818223221 22.0744727096 -5.16372651605e-22)
(142.337716543 27.3371427012 3.81744377059e-21)
(147.373611134 33.7631333048 7.13045612149e-21)
(152.915523895 41.7278911299 4.77235653474e-21)
(158.941301419 51.7319755418 4.08314057055e-20)
(165.338497569 64.3714131965 -7.32577772793e-20)
(172.174182737 80.7566349612 8.12237761692e-19)
(179.38971586 102.91188851 1.874553699e-18)
(186.939032212 131.637862963 2.08393862649e-18)
(192.611600623 157.272267423 -5.55248132524e-18)
(129.472531956 91.5847492369 -1.7603042294e-17)
(-0.938447968869 0.322815300671 -4.48337059636e-20)
(0.161871127985 -0.264039053195 -5.85801629644e-19)
(120.400208259 1.20717962127 6.3920633169e-20)
(120.157396204 4.03890655057 -1.18564478405e-20)
(120.985508578 6.85168106928 2.86971273155e-21)
(122.427796114 9.84017869221 -3.61606393366e-20)
(124.351038439 13.129857584 -1.90655445754e-20)
(126.715703623 16.8074643463 6.26041683508e-21)
(129.499271786 20.9934392138 -1.05745579731e-21)
(132.673832663 25.8384679243 2.68525864656e-21)
(136.177282387 31.5087581599 -3.54461246428e-21)
(139.89382399 38.2769785699 1.42050128318e-20)
(143.719403538 46.5035119236 2.33205866328e-20)
(147.484843021 56.6045715952 4.95808344628e-20)
(150.940462581 69.1092497664 -1.01767838874e-19)
(153.882108108 85.0736673237 -4.41415341343e-19)
(155.783056799 105.910793486 2.17928461398e-18)
(155.487874347 133.664429496 3.49785956521e-18)
(148.22983203 154.186151207 4.69410517019e-18)
(91.5240819064 91.4329352555 -2.13154877756e-18)
(0.141178533374 0.772808755339 1.29491728162e-19)
(-0.262817539855 -0.228470401494 6.02504597149e-20)
(117.488669896 1.42026471987 -4.27644166084e-20)
(117.183309793 4.70598019617 3.97180111672e-20)
(117.853048463 7.94836942899 3.12882009217e-20)
(119.056375121 11.354779635 7.43220667377e-22)
(120.647864817 15.0431034402 -1.26423365578e-20)
(122.568452577 19.087927543 -2.91802995619e-21)
(124.773714808 23.5984889552 -1.61151373642e-21)
(127.203487948 28.7095166227 3.78171139058e-21)
(129.763713029 34.5509391034 1.28758768682e-20)
(132.301977787 41.3405346644 7.02200799195e-21)
(134.595586193 49.3803293237 5.45572861085e-21)
(136.381257142 59.0006548703 7.66802336257e-20)
(137.305995384 70.600172208 -3.20379210204e-19)
(136.935142265 84.9984782987 5.70635019912e-19)
(134.537477256 102.938215644 -2.02117070597e-19)
(128.160997011 126.542992473 2.48388507199e-18)
(111.665092528 141.349409859 -1.58094950566e-17)
(68.8365984953 85.7767325003 9.66931015975e-18)
(-0.396949565657 -0.473625410098 -2.658338803e-19)
(-0.0711120609879 0.207282075312 3.10602661229e-19)
(114.182620587 1.60333040255 7.31352873427e-20)
(113.82104153 5.26619554057 5.4438136717e-20)
(114.345341877 8.86067999951 3.83887035293e-20)
(115.333303997 12.6023263708 2.60281598594e-20)
(116.629405814 16.5945813355 1.82293315907e-20)
(118.15923725 20.8976249536 6.77106765235e-21)
(119.860191877 25.6002432997 7.24451082492e-21)
(121.647972434 30.8054972818 5.50512610678e-21)
(123.398930762 36.6106930452 -4.20819757438e-21)
(124.948253684 43.165654691 1.39217647424e-20)
(126.022196715 50.667992532 2.31125633527e-20)
(126.262723453 59.3562007146 2.29697482802e-22)
(125.258612448 69.4799335413 -2.55212089653e-19)
(122.501552047 81.5512262072 -5.21139876656e-19)
(117.325284518 95.7502486703 -9.65774719677e-19)
(107.098799303 113.494184963 1.77975218668e-19)
(85.435914493 122.270625492 -1.21651409736e-17)
(53.5952227471 75.8153887944 1.20798261789e-17)
(-0.251447699272 -0.476820626994 -1.90700973875e-19)
(0.0899306621035 0.137141381238 6.0651517959e-20)
(110.527052709 1.75801064013 1.14040467688e-19)
(110.121482424 5.73295529349 3.01146793936e-20)
(110.519899524 9.61073299618 2.88109333088e-20)
(111.321392941 13.6147459254 -1.44404657542e-20)
(112.366198143 17.8288823197 1.74774873149e-20)
(113.570652536 22.2948778108 8.55085165742e-21)
(114.8609501 27.0763904551 9.04457923671e-21)
(116.138235865 32.236627246 1.06516076867e-20)
(117.261590552 37.8379723956 -9.78195076718e-21)
(118.055202144 43.9761756144 8.98616201013e-21)
(118.24854214 50.7398827534 1.48512369231e-20)
(117.450159731 58.2439582486 -1.7435165034e-20)
(115.233198704 66.577523352 -5.85808485514e-19)
(111.149621352 75.9640829214 -4.41891373563e-19)
(104.767477328 86.0320157812 2.39376652344e-18)
(92.5021195359 97.4404567462 -3.53955336367e-19)
(69.1080262289 100.672354967 -7.38280796804e-18)
(45.9769329106 64.6647825516 2.36375478276e-17)
(-0.335230047961 -0.414432271638 -1.4078757632e-19)
(0.0519805762931 0.0813034192467 5.53803728864e-20)
(106.579307055 1.88253142233 -5.34383821842e-20)
(106.137922057 6.11766927312 2.37090564123e-19)
(106.436119669 10.2243021021 -4.19491646583e-21)
(107.087695226 14.4336589187 4.63224058792e-21)
(107.933550724 18.807889097 -5.45689467879e-21)
(108.888070518 23.369562348 -3.88587779703e-21)
(109.87354538 28.1567613971 1.60075725998e-20)
(110.787235344 33.2006850597 1.54487992522e-20)
(111.494081898 38.5214408228 5.72238769208e-21)
(111.804057434 44.1461394475 1.98347340947e-20)
(111.462588598 50.0730482948 6.653679637e-21)
(110.126962662 56.3027391607 -1.08034014072e-19)
(107.431637291 62.7779835303 -5.50996882496e-19)
(103.064433573 69.4661193325 4.8484362656e-19)
(96.8284782555 75.5247305225 2.70842329998e-18)