/*--------------------------------*- C++ -*----------------------------------*\
| =========                 |                                                 |
| \\      /  F ield         | OpenFOAM: The Open Source CFD Toolbox           |
|  \\    /   O peration     | Version:  v2012                                 |
|   \\  /    A nd           | Website:  www.openfoam.com                      |
|    \\/     M anipulation  |                                                 |
\*---------------------------------------------------------------------------*/
FoamFile
{
    version     2.0;
    format      ascii;
    class       volScalarField;
    location    "4.5";
    object      epsilon;
}
// * * * * * * * * * * * * * * * * * * * * * * * * * * * * * * * * * * * * * //

dimensions      [0 2 -3 0 0 0 0];


internalField   nonuniform List<scalar> 
1984
(
0.00056740649376
0.000636924302381
0.000686368016857
0.000707460417982
0.000718525469277
0.000726220323178
0.000732903489992
0.000739456958133
0.000746311830592
0.000754071140006
0.000764107259588
0.000779740210971
0.000808356405075
0.00086818038211
0.00101744352615
0.00146635675131
0.0028062165594
0.00630521018246
0.0186503343029
0.12637041889
0.000639764846013
0.000653550215377
0.000715109085301
0.000740349090032
0.000752354595545
0.000759743836174
0.00076567034656
0.000771312451485
0.000777262619759
0.000784298542989
0.00079414611768
0.000810715526928
0.000842890125239
0.000913436796756
0.00109286053688
0.00160359574627
0.00301167516366
0.0069354907113
0.0248767604375
0.167494234736
0.000688215006151
0.00071406250964
0.000785105847997
0.000814056482524
0.000827388988874
0.000835241474174
0.000841384140351
0.000847211136772
0.000853422696856
0.000860942601729
0.000871751005876
0.000890313978295
0.000926723508833
0.00100683128496
0.00120829849006
0.00176616302524
0.00326967498913
0.00750146408677
0.0272429969402
0.167989509516
0.000708382200173
0.000738731904755
0.000813702896435
0.000844104788911
0.000857807124494
0.00086565314618
0.000871706042629
0.000877468404092
0.000883681753253
0.000891300766596
0.000902399148746
0.000921573984025
0.00095924484042
0.0010421894035
0.0012502707045
0.00181909132335
0.00332484747665
0.0075029682764
0.0278373864517
0.189247004916
0.000718635335619
0.000750327165338
0.000826903683371
0.00085778284831
0.000871456316088
0.000879107211285
0.000884948429251
0.000890532748915
0.0008966155373
0.00090414160586
0.000915155036118
0.000934225867482
0.000971654007563
0.00105434120069
0.00126307603587
0.00183273209486
0.00331876613188
0.00725527802701
0.0250237487568
0.153207202544
0.00072546770941
0.000757302836878
0.000834571323826
0.000865535098551
0.000879029168392
0.000886421741948
0.000892007930069
0.000897366771072
0.00090325687575
0.00091060001211
0.000921359112278
0.000940004700563
0.000976590816172
0.00105783574391
0.00126517571695
0.00183532503811
0.00332061395692
0.0071434365168
0.0216370907858
0.115951384714
0.000731118355062
0.000762706886049
0.000840313065688
0.000871224308263
0.000884499496275
0.000891627974877
0.000896955085581
0.000902077717731
0.000907748501573
0.000914864372625
0.000925313390765
0.00094344245951
0.00097907797866
0.00105863663597
0.00126344519761
0.00183092992935
0.00332357063247
0.00721103364978
0.0204273497179
0.0872971882791
0.000736336153116
0.000767584234955
0.000845401028318
0.000876224065984
0.000889286378527
0.00089616885234
0.000901254611207
0.000906149952948
0.000911604014646
0.00091848183461
0.000928610965659
0.000946222555847
0.000980952107221
0.00105885321669
0.00126040147468
0.00182149752807
0.00330973995769
0.00728099924997
0.0228295788562
0.121977371051
0.000741329739489
0.000772269208801
0.000850256823292
0.000880990925088
0.000893861351246
0.000900524700301
0.000905393973031
0.000910083740991
0.000915334854296
0.000921987600243
0.000931803968699
0.000948915715814
0.000982773934713
0.00105895778854
0.00125649534833
0.00180811122902
0.00328039855775
0.00729520503118
0.0256526880239
0.159115875167
0.000746156934795
0.000776835788935
0.0008549955361
0.000885653829512
0.00089835600742
0.000904828599283
0.000909508882345
0.000914016918599
0.000919088752289
0.000925533264202
0.000935059909376
0.000951700891368
0.000984760466113
0.00105934939955
0.00125294066846
0.00179507009836
0.00325573408565
0.00732423024523
0.0258798514741
0.141480091433
0.000750825947548
0.000781280910385
0.000859630956947
0.000890229865049
0.000902786904681
0.000909095337099
0.000913613584526
0.00091796646812
0.000922879978011
0.000929138941007
0.000938402784076
0.000954620090555
0.000987043046442
0.00106059898109
0.0012520256915
0.00178994853967
0.00325697440165
0.00744010995297
0.0257016887137
0.116646764335
0.000755314941092
0.000785639483994
0.000864159181458
0.000894705584333
0.000907136246205
0.000913303491048
0.000917685064704
0.000921907362132
0.000926689184626
0.000932779161777
0.000941798709784
0.000957622001201
0.000989508666186
0.00106246745586
0.00125331093195
0.0017920569044
0.00327195334007
0.00741382097065
0.0238075640644
0.111206999502
0.000759596706918
0.000789846091582
0.000868552243935
0.000899058857681
0.000911377662981
0.00091742422388
0.000921691146875
0.000925806930489
0.00093047766538
0.000936423532633
0.000945209298169
0.000960613399592
0.000991819255819
0.00106366661169
0.00125263578366
0.00179031905522
0.00327321851602
0.00719937899458
0.0196366293011
0.0835974380925
0.000763672401024
0.000793912505085
0.000872792526843
0.000903263139594
0.000915484126146
0.000921427664791
0.000925600186124
0.000929631288403
0.000934213724371
0.000940031332642
0.000948601480481
0.000963564306289
0.000993911518535
0.00106394589372
0.00124923077155
0.00178222176404
0.00326515910524
0.00715073917345
0.0199282820594
0.103668859319
0.000767529276667
0.000797788436576
0.000876848988973
0.000907294715773
0.00091943073778
0.000925286946122
0.00092938230133
0.000933348483592
0.000937857745453
0.000943567184453
0.000951945596485
0.000966492392614
0.000995987346889
0.0010642175894
0.00124592409054
0.00177449703998
0.00326082202929
0.00732739466156
0.0244125873796
0.15048472586
0.000771155906282
0.000801501235473
0.000880713619351
0.000911132787343
0.000923191508473
0.000928976764933
0.000933014829446
0.000936923411431
0.000941370495399
0.000946996256162
0.000955196884894
0.000969406583969
0.000998288256244
0.00106554911817
0.0012460738025
0.0017747660346
0.0032639306599
0.00742650014318
0.0264168429664
0.156146318049
0.000774534673219
0.000805014400717
0.000884370448178
0.000914757885627
0.000926758813174
0.000932481764096
0.000936470809614
0.00094033187085
0.000944742609139
0.000950289203471
0.000958326388063
0.000972241812733
0.00100065007511
0.00106744776753
0.00124842758328
0.00178183409407
0.0032860752193
0.00758374506071
0.0291831474902
0.156726091085
0.000777648500367
0.000808295868465
0.000887795635459
0.000918174978136
0.000930109494695
0.000935780873886
0.000939741056917
0.00094357382174
0.000947931461791
0.000953403767722
0.00096127732282
0.000974858527573
0.00100270200733
0.00106893468203
0.00125086202094
0.00179447079825
0.00335367899646
0.00813210351888
0.0330179895878
0.156844193145
0.000780470416473
0.000811356260007
0.00089099500022
0.00092135149599
0.0009332382158
0.000938887508768
0.000942812884789
0.000946625760451
0.000950959207857
0.000956376723594
0.000964107785792
0.000977367215336
0.00100463213257
0.00107035723458
0.00125416832395
0.00181535301157
0.00348293933923
0.00906670606877
0.0381252875062
0.159756573789
0.000783023313716
0.000814192654644
0.000893946719962
0.000924283820557
0.00093613897346
0.000941749459399
0.000945660629925
0.00094947063459
0.000953799234146
0.000959182001657
0.000966797872022
0.000979772182308
0.00100656216947
0.00107217032074
0.00126009281492
0.00184902195247
0.00368232334228
0.0103173615892
0.0431815091782
0.162459590719
0.000785400430148
0.000816760009419
0.000896616525688
0.000926940515986
0.000938764382855
0.000944362004921
0.000948275382564
0.000952094118383
0.000956430214756
0.000961798707636
0.000969329737609
0.000982078210507
0.00100856308405
0.00107476455018
0.00126956414035
0.00189752378248
0.00396437189945
0.0119319781718
0.0486076572632
0.165052147728
0.000787568733876
0.000819029970488
0.000898981963133
0.000929303470521
0.000941114605408
0.000946713302415
0.000950641188348
0.00095448136543
0.000958837378514
0.000964205478264
0.000971675402627
0.000984250877141
0.00101059251298
0.00107790898832
0.00128161111747
0.0019584681132
0.00431043397508
0.0137333908209
0.0530660871687
0.166825132082
0.000789484852498
0.000821006109069
0.000901047022296
0.000931373878872
0.000943182765734
0.000948792656602
0.000952744472464
0.000956616877246
0.000961004605116
0.000966386336761
0.000973811338651
0.000986255783545
0.00101254766198
0.00108118593509
0.00129324852962
0.00201374030726
0.00463174428722
0.0153619487948
0.0561903857096
0.167211318803
0.000791075650964
0.000822682053591
0.000902804543042
0.000933142230726
0.000944958520458
0.000950589423825
0.000954574663022
0.000958488854826
0.00096291847049
0.000968326946584
0.000975723635839
0.000988059289968
0.00101428952914
0.00108395357894
0.00130264944026
0.00206003932476
0.00490372565292
0.0165921062881
0.0566155842619
0.156343462188
0.000792363421345
0.000824053146055
0.000904244435235
0.000934596812545
0.000946429763957
0.000952091554129
0.000956121073329
0.000960088448245
0.000964570898287
0.000970020294566
0.000977403111493
0.000989626732163
0.00101572397907
0.00108590800354
0.00130931223474
0.00209926802533
0.00512166561441
0.0171275449365
0.0548678508805
0.154901106781
0.000793301155588
0.000825107097699
0.000905352443355
0.000935724192458
0.000947584455595
0.000953289391315
0.000957376881462
0.000961409648342
0.000965957807489
0.000971462531189
0.000978846012065
0.000990954879894
0.00101681423077
0.00108692552029
0.00131278379931
0.00212706062192
0.00528035680074
0.0173319478579
0.0544180770797
0.163297456188
0.000793882848403
0.000825832884103
0.00090611260405
0.000936507934821
0.000948409191499
0.000954173471263
0.000958334483142
0.00096244968842
0.00096708088783
0.000972651907361
0.000980053211033
0.000992071853578
0.00101768334618
0.00108745443779
0.00131390494772
0.00214133452026
0.00537191259985
0.0174912824968
0.0548115420637
0.163764051762
0.000794127847979
0.000826225455009
0.000906510885965
0.000936929600725
0.000948883054832
0.000954720618561
0.000958969864054
0.000963184477009
0.000967921220749
0.00097358379606
0.000981036759136
0.000993027287804
0.00101851837266
0.00108821586718
0.00131506001349
0.00214853923684
0.00542225404604
0.0176487590021
0.0554685181679
0.164129653032
0.00079402908285
0.000826252864876
0.000906517995182
0.00093696785118
0.00094899157314
0.000954921158088
0.000959277053749
0.000963611686867
0.000968481726624
0.00097427360585
0.000981832120998
0.000993908253868
0.00101958078337
0.00109001333026
0.00131934389234
0.00216255796305
0.00546249959635
0.0176413452382
0.0555314537067
0.16412871559
0.000793589082713
0.00082588795103
0.000906102721202
0.000936598000519
0.000948717201954
0.000954762885129
0.000959247073737
0.000963722944914
0.000968750395746
0.000974714923755
0.000982469742773
0.000994850600883
0.00102124603791
0.00109329688457
0.00132391094734
0.0021587045606
0.00543356478792
0.0177008201475
0.056245042162
0.164651635795
0.000792832151845
0.000825117719502
0.000905238773915
0.000935795081456
0.000948040069447
0.000954229881397
0.000958867484504
0.000963511795676
0.000968729201206
0.000974920463869
0.000983002263981
0.000996065623154
0.00102422106114
0.00110003741772
0.00133380680706
0.00215516151886
0.00540857791816
0.0180993678623
0.058171400807
0.165852905485
0.000791707436022
0.000823912934809
0.000903906407258
0.000934540742424
0.000946943785581
0.000953309383755
0.000958129679217
0.000962972537753
0.000968417159443
0.000974899517622
0.000983481150042
0.000997784013001
0.00102936034248
0.00111305883175
0.0013584181213
0.00218091316434
0.00540036906625
0.0180062791758
0.0577803084262
0.165667441598
0.000790142692935
0.000822243254533
0.000902090607697
0.000932824839266
0.000945418631175
0.000951992837539
0.000957027148238
0.00096209798187
0.000967805439892
0.00097464273749
0.000983914741341
0.00100008799232
0.00103700531689
0.00113374231076
0.00140391249097
0.00226275653803
0.00550125998687
0.0178371464817
0.0568883831836
0.165257604353
0.000788117553927
0.000820098272782
0.000899779440524
0.000930635224748
0.000943452724236
0.000950269379814
0.000955548851193
0.000960875647338
0.000966877315335
0.000974124992488
0.000984229796574
0.00100270076994
0.00104616635569
0.00115892401174
0.0014617182687
0.00238097646071
0.00570837107527
0.0179062705316
0.0559099082575
0.164637120591
0.000785620957861
0.000817470465966
0.00089696207281
0.000927959593314
0.000941034169602
0.000948127409475
0.000953680206083
0.000959295253233
0.000965621777083
0.000973306473009
0.000984257035592
0.0010049714857
0.00105465969875
0.0011825825432
0.00151795650285
0.0025067409136
0.00595940381431
0.0181273907482
0.0554304842565
0.164213298379
0.000782626554171
0.000814349097
0.000893628997885
0.000924787773163
0.000938150853519
0.000945553721201
0.000951420399691
0.00095736117995
0.000964038774381
0.000972155107442
0.00098382168605
0.00100621021092
0.00106022340118
0.00119844953815
0.00155721956649
0.0026042532675
0.00618110490556
0.0183056064478
0.0547186555106
0.163661876761
0.000779108421692
0.000810726212944
0.000889776511397
0.00092111040639
0.000934796749973
0.000942553214569
0.000948778509245
0.00095508379285
0.000962144732148
0.00097068693606
0.000982915283939
0.00100633856338
0.00106253549303
0.00120557684618
0.00157795653551
0.00267294191369
0.00640271162213
0.0187672321532
0.0548972524963
0.163309295456
0.000775051215604
0.000806604560883
0.000885408962273
0.000916936086636
0.000930979905845
0.000939132345829
0.000945760217284
0.00095247811517
0.000959966251366
0.000968955938748
0.000981747341558
0.00100598335042
0.00106339282227
0.00120849215594
0.00158861893116
0.00272449168172
0.00662413437394
0.0193970992711
0.055846128806
0.163636609276
0.000770431294764
0.0008019928584
0.000880541754654
0.000912277264725
0.000926707088719
0.000935296136149
0.000942376556624
0.000949561295838
0.00095752309841
0.000967013935267
0.00098037527143
0.00100527283784
0.00106337507221
0.00120953827032
0.0015964099465
0.00277721077755
0.00686642047582
0.0201416742097
0.0575023748374
0.164652498213
0.000765312375965
0.000796906124254
0.000875191880983
0.000907148595907
0.000921991437736
0.000931059480435
0.000938650081694
0.000946362700899
0.000954850201579
0.000964849223147
0.00097857511719
0.00100335859015
0.00106025362075
0.00120483934673
0.00159863360987
0.00283609497128
0.00713774463183
0.020755473795
0.0580601926373
0.164616439275
0.000759602002515
0.00079137921551
0.000869399246884
0.000901581243057
0.000916858200022
0.000926443847337
0.000934599664076
0.000942892864281
0.000951981287058
0.000962501262942
0.000976370791006
0.00100011203354
0.0010535660654
0.0011934290377
0.00159530025857
0.00290316438018
0.00739017578813
0.0210118215135
0.0574935051962
0.163927302465
0.000753471377111
0.000785477581894
0.000863224929042
0.000895627683923
0.000911337133038
0.000921461961231
0.000930207521538
0.00093915716357
0.000948943308811
0.000960123246567
0.000974291071362
0.000997143736946
0.00104754954925
0.00118453161781
0.00160301993285
0.00300508369717
0.00769154189168
0.0213765000171
0.0574300181274
0.16350201604
0.000746880871218
0.000779269616983
0.00085674704775
0.0008893401292
0.000905461618038
0.000916084485067
0.000925409582251
0.000935014748454
0.000945561481069
0.000957606865803
0.000972535228694
0.000995545037366
0.00104513154778
0.00118296189193
0.00162167512342
0.00311697448048
0.00799102981498
0.0217365286537
0.0572292833286
0.162924711591
0.000739910170007
0.000772883075473
0.000850089286567
0.000882815482228
0.000899224535754
0.000910186588411
0.000919853717978
0.000929853979042
0.000941086708452
0.000954245388547
0.000970523257428
0.000995054776026
0.0010469480511
0.00119044266186
0.00164935213681
0.00321784689167
0.0082414049238
0.021937036376
0.0566134738688
0.162229282685
0.000732747614914
0.000766487549565
0.000843403209796
0.000876120651891
0.000892526358888
0.000903277982838
0.000912398258186
0.000921746289053
0.000933160052187
0.000947624459204
0.000965552820365
0.000992496026669
0.00105058672774
0.00120767810095
0.00168839763388
0.00330982516272
0.00847901192423
0.0223101301538
0.0566516796931
0.162013626757
0.000725680017385
0.000760287954058
0.000836877194681
0.000869301039999
0.000884997867089
0.000894052069513
0.000900048972776
0.000905486267221
0.000914879389186
0.000930353221287
0.000949427439538
0.000979141680722
0.0010526137141
0.00124138308636
0.00176435505441
0.0034487072455
0.00869124869147
0.0224103272611
0.056075747452
0.161584369574
0.000718844542735
0.000754518153862
0.000830705705615
0.000862353249177
0.000875938762881
0.000879758463513
0.000875268188011
0.000865103192743
0.000861108628679
0.000875987396255
0.000897339674723
0.000937897599228
0.00105705683152
0.001306169367
0.00189827606002
0.00366034954011
0.00891498126012
0.02237270903
0.0552369927854
0.160905420579
0.000712530684248
0.000749379652488
0.000825059964659
0.000855311890693
0.000864836924964
0.000856921822184
0.000822686180146
0.000755624930032
0.000892960257467
0.000898666643742
0.000943515971315
0.00111720551006
0.00107680202345
0.00143601451986
0.00212130327438
0.00396716790075
0.00913587577193
0.0220411579126
0.0536434191383
0.15920621382
0.000706919217564
0.000745089184707
0.000820315981347
0.000849000756574
0.000854788580226
0.000839502819295
0.000786528017218
0.000828009778659
0.0014488628037
0.00165203991774
0.00246435058673
0.00435205079294
0.00934088872852
0.0217357520351
0.0521487845527
0.137416853777
0.000703186905273
0.000742662614056
0.000817837095912
0.00084579129198
0.00084945866571
0.000829092155713
0.000764358838135
0.000755554469615
0.00160192727089
0.0018957664086
0.00277641594505
0.00462718376256
0.00945852888503
0.0220721911609
0.0540867170101
0.159663772514
0.000703163796634
0.00074264479067
0.000817826465969
0.000845788206234
0.000849463711966
0.000829115855776
0.000764415646123
0.000755750086175
0.00160163769356
0.00189352411474
0.00276337315883
0.00458281405848
0.0094443443372
0.0227284601259
0.0563875007402
0.161731617246
0.000706879506596
0.000745063937375
0.000820305563971
0.000849006679598
0.000854812152927
0.000839547235781
0.000786597038257
0.000828284251427
0.00144723361923
0.00164646234401
0.00244139517401
0.00428975206362
0.00935537648604
0.0228092180172
0.056421040281
0.161874900901
0.000712481193095
0.000749358466476
0.000825056767512
0.000855329136717
0.000864868614814
0.000856927899218
0.000822633291418
0.000755609700546
0.000893134829364
0.000898869235191
0.000943933069423
0.00111743456543
0.00107615557734
0.00143346079048
0.00211205448213
0.00394551990414
0.00915085719795
0.02252128953
0.0555291070968
0.161233636209
0.000718856191905
0.000754528451073
0.000830727977655
0.000862394891551
0.000876001621984
0.000879838146835
0.000875401897574
0.000865290844278
0.000861338591418
0.000876287544628
0.000897795424808
0.000938716575837
0.00105843422145
0.00131121175369
0.00191637556361
0.00370030178787
0.00894139689401
0.0223405485343
0.0552950099643
0.161006808799
0.00072573406308
0.00076031949954
0.000836918879873
0.000869361875021
0.000885081460884
0.000894161952161
0.000900190804837
0.000905659826846
0.000915086352821
0.000930648028596
0.000949938649369
0.000980352882306
0.00105581906897
0.00125253481182
0.00180200371741
0.0035314660311
0.00876018502222
0.0223112187596
0.0557429476816
0.161344370456
0.000732818761478
0.000766532457756
0.000843456754071
0.000876188563504
0.000892611190027
0.000903384494969
0.000912532856763
0.000921903380862
0.000933343766423
0.000947862984449
0.0009659802976
0.000993548778456
0.00105376822571
0.00121895359008
0.00172692387639
0.00340016400826
0.00854603524486
0.0220801713703
0.0559080953749
0.161587129661
0.000739970667888
0.000772932642973
0.000850143499715
0.000882889291345
0.000899312772948
0.000910288618588
0.000919975936594
0.000929990461465
0.000941235539751
0.000954422810326
0.000970795059738
0.000995696294662
0.00104894418534
0.00119748742171
0.00167393079613
0.00328097373527
0.00828807409978
0.0216204212397
0.0555516509362
0.161626247358
0.000746955414742
0.000779325502096
0.000856808396933
0.000889417692898
0.000905554178635
0.000916187686498
0.000925519581009
0.000935132560021
0.000945688598401
0.000957751866529
0.000972707592486
0.000995858802582
0.00104593551944
0.00118554901888
0.0016319708878
0.00315520413935
0.0080199337308
0.0212615921817
0.0555017136686
0.161968398376
0.000753576344676
0.000785543704493
0.00086329528841
0.000895705207788
0.00091142862112
0.00092156152846
0.000930308320178
0.000939257494732
0.000949041110395
0.000960223487535
0.000974411894205
0.000997329806558
0.00104800060183
0.00118644229365
0.00161395973224
0.0030568158862
0.00777185238617
0.0208784949003
0.0552710097573
0.162223327839
0.000759714685389
0.000791454897276
0.000869474227711
0.000901662775973
0.000916945497994
0.000926536683931
0.000934688370281
0.000942978407467
0.000952061012832
0.000962584248465
0.000976479360635
0.00100032648875
0.00105450949597
0.00119857327019
0.00162154254661
0.00300137652
0.00755758524488
0.0207156574027
0.0559684363583
0.162957887121
0.000765427449178
0.000796984835337
0.000875269950382
0.000907231847173
0.000922081196542
0.00093115372553
0.000938743500733
0.00094644628315
0.00095493123778
0.000964933565587
0.000978680219228
0.00100355079637
0.00106106314965
0.00120943668325
0.00162192397054
0.00292438055088
0.00731209797589
0.0206788656185
0.0573267250709
0.164146224367
0.000770546040413
0.000802074611851
0.000880624052494
0.000912365172468
0.000926802308801
0.000935397602442
0.000942481475186
0.00094966499092
0.000957624949847
0.00096711925547
0.000980492381246
0.00100541782042
0.00106365002747
0.00121092509538
0.00160510454034
0.00281992464314
0.00700140508492
0.0202746073785
0.0570895678488
0.164216244363
0.000775177159082
0.000806693986076
0.000885497861178
0.000917030286906
0.00093108201602
0.000939242183213
0.000945875926525
0.000952599192802
0.000960092819709
0.000969087502175
0.00098188842663
0.00100609354545
0.00106324092391
0.00120726252888
0.00158531359959
0.00273206545929
0.00676410652643
0.0201393824753
0.0576197253601
0.164599048363
0.000779247958207
0.000810823693588
0.000889871653611
0.000921210352475
0.000934905569474
0.000942671256484
0.000948904026536
0.000955217437479
0.000962287476304
0.00097083845348
0.000983077676739
0.00100646379006
0.00106237695267
0.00120421905219
0.00157362471991
0.00267530029059
0.00653503187602
0.0195842560042
0.0570097822253
0.164428639514
0.000782754503685
0.000814436922463
0.00089371749017
0.000924881514385
0.000938254190071
0.000945668147538
0.000951547064851
0.000957502724769
0.00096419415707
0.000972323383206
0.000984004553672
0.00100637997888
0.00106028689848
0.0011981420686
0.00155698717143
0.00261503062544
0.00628967332412
0.018800175089
0.0553666121252
0.163529251618
0.000785738139347
0.000817546983374
0.000897044142489
0.00092805072567
0.00094113679827
0.000948243406492
0.000953813599668
0.000959449809477
0.000965800477297
0.000973511313556
0.000984490637003
0.00100522593433
0.001054982477
0.0011832515057
0.0015208619998
0.00252292696828
0.00604496804208
0.0184698456789
0.0563507818731
0.164714274662
0.000788226769651
0.000820167156808
0.000899857342643
0.00093072583242
0.000943557214528
0.000950390500968
0.000955692303514
0.000961046019358
0.000967080222641
0.000974364565236
0.00098451606418
0.00100304685147
0.00104667644072
0.00116002666659
0.00146566257548
0.0023993841561
0.00579853939552
0.0183004547412
0.0570750519132
0.165327619792
0.000790248229924
0.000822308915911
0.000902167888338
0.00093291716852
0.000945526855342
0.000952119605257
0.000957177965626
0.000962281830438
0.000968028479802
0.000974908998536
0.000984238809798
0.0010004929623
0.0010376247224
0.00113498003136
0.00140733925475
0.00227728312192
0.00557692641759
0.0181516505077
0.0572993679963
0.165302118301
0.000791817841149
0.000823980115868
0.000903986113311
0.000934636795804
0.00094705716967
0.000953442584217
0.000958288146749
0.000963166869552
0.000968654567673
0.000975185215671
0.000983828084684
0.000998215154363
0.00103000477558
0.00111422996957
0.00136111436293
0.00219069008995
0.00543903130783
0.0179848027489
0.0569399636467
0.164960506665
0.000792948938749
0.00082519014521
0.00090532338829
0.000935896198815
0.000948159135917
0.000954369434775
0.000959032885961
0.000963713578206
0.000968975999212
0.000975216520677
0.000983356926235
0.000996494591568
0.00102482757517
0.00110098821473
0.00133518964204
0.00215724196759
0.00539862498432
0.0177520959857
0.0563587035909
0.164619286754
0.000793713652422
0.000825966395672
0.000906192708301
0.000936704400406
0.000948841799279
0.000954908091693
0.000959417828062
0.000963929341814
0.000969001488303
0.000975013384082
0.000982823322861
0.000995264942322
0.00102178647408
0.00109386098844
0.00132249392122
0.00214227665308
0.00535531335584
0.0175097523696
0.0559970806712
0.164582225016
0.000794160497593
0.000826335631429
0.000906612372288
0.000937079129543
0.00094912141439
0.000955071588484
0.000959452386331
0.00096382101963
0.000968733838686
0.000974570116589
0.000982179166309
0.00099430506916
0.0010200628868
0.00109023621627
0.00131533969121
0.00212976124383
0.0053278792878
0.0176116844298
0.056819653802
0.165277485287
0.000794262625315
0.000826310275391
0.000906608801904
0.000937045746726
0.000949018408656
0.000954876682104
0.000959150272451
0.000963397836418
0.000968177729816
0.000973879711443
0.000981372942259
0.00099340822283
0.0010189878915
0.00108857923887
0.00131271724709
0.00212583235386
0.00532297435281
0.0177177430776
0.0575027225736
0.165940406351
0.000794015634223
0.000825917249122
0.000906213400005
0.000936629220664
0.000948550763817
0.000954336277495
0.000958520922093
0.000962666313364
0.000967336347148
0.000972936395543
0.000980369251245
0.000992432809788
0.00101813828113
0.00108799559519
0.00131398682859
0.00213816493601
0.00536754635428
0.0176615824194
0.0560586558785
0.164767406349
0.000793424020839
0.000825187265824
0.000905454850535
0.000935851394838
0.000947734780849
0.000953462750817
0.000957574022548
0.000961634003823
0.000966213746386
0.000971736547016
0.000979144097408
0.00099129253639
0.00101722865478
0.00108753412184
0.0013151559065
0.00214521867495
0.00537735244908
0.0174784318847
0.0540083797747
0.162864849452
0.000792486172658
0.000824138121045
0.000904353759602
0.00093473139913
0.000946586889366
0.000952269805119
0.000956320614114
0.000960308940698
0.000964813425778
0.000970276171818
0.000977677899207
0.000989933505571
0.00101608519132
0.00108645875475
0.00131223728436
0.00212540204389
0.00525523059725
0.0172228825427
0.0537152827274
0.154019128812
0.000791200227394
0.000822772334365
0.000902918252725
0.000933279776735
0.000945117251608
0.000950766890502
0.000954769720187
0.000958699849193
0.000963144253594
0.000968564586294
0.000975978832362
0.000988343141452
0.00101461010042
0.00108426608254
0.0013037387329
0.0020750132509
0.00501203302844
0.0168161815459
0.0557055034235
0.155415745522
0.000789611021556
0.00082110074207
0.000901163550277
0.000931512782179
0.000943341445663
0.000948967863284
0.000952933613645
0.000956817315163
0.000961213465213
0.000966603500946
0.000974043947879
0.000986520525233
0.00101287223399
0.00108154227225
0.00129334463427
0.00201650772842
0.00468682035541
0.0157240177458
0.0569942540754
0.167318814504
0.000787692477731
0.000819123772516
0.000899097534604
0.000929441091976
0.000941271210627
0.000946884608689
0.000950823830106
0.000954670682995
0.000959029701353
0.000964400514444
0.000971883109967
0.000984495142181
0.00101096328168
0.00107865793805
0.00128287111273
0.00195923441899
0.00432543649025
0.0140081757783
0.0551645382587
0.167809376793
0.000785519815254
0.000816846742036
0.000896728579721
0.000927075571306
0.000938918258519
0.000944529640871
0.000948451382046
0.000952272369662
0.000956606426251
0.000961972037843
0.000969508513761
0.000982299130287
0.00100897884731
0.00107597384529
0.00127322823039
0.0019076216329
0.0040160744902
0.0123009152013
0.0500921023063
0.166021319637
0.000783137325555
0.000814277801119
0.000894062515321
0.000924422828427
0.000936291663175
0.000941913915416
0.000945830262924
0.00094963839266
0.00095395929088
0.000959333310587
0.000966946384861
0.000979962154582
0.00100697796762
0.00107357723964
0.00126484536358
0.00186328823336
0.00375487925419
0.0108885482528
0.0453658067247
0.164080264489
0.000780584960867
0.00081144558922
0.000891110031397
0.000921492043321
0.000933401974837
0.000939049819542
0.000942975868621
0.000946782226771
0.000951102516391
0.00095650532668
0.000964227892333
0.00097751551125
0.0010049768939
0.00107153029131
0.00125798458987
0.00182495864177
0.00353046683747
0.00965363272644
0.0416610529408
0.16285937725
0.000777759064401
0.000808381686145
0.000887913235921
0.000918310232596
0.000930267667709
0.000935951478749
0.000939897629544
0.000943714652422
0.000948052194597
0.00095350402522
0.000961360656088
0.000974946732645
0.00100290489965
0.00106967608801
0.00125282544855
0.00179706867661
0.00336315760096
0.00844486300393
0.0362463760362
0.160016829884
0.000774646842493
0.000805097023719
0.000884477385261
0.000914893010488
0.000926903080787
0.000932632503324
0.000936611286945
0.000940454605909
0.000944824882838
0.000950337635776
0.000958336871719
0.00097222943886
0.00100063429316
0.00106758339196
0.00124889407984
0.0017821106558
0.003291134391
0.00773852028938
0.0291084825582
0.143732989565
0.000771270273642
0.000801586018203
0.000880810868372
0.000911245173474
0.000923317352083
0.000929102791955
0.000933127341514
0.000937012776359
0.000941427192497
0.000947011751521
0.000955160178098
0.000969316704305
0.000998040720211
0.00106484871152
0.00124404482244
0.00177015197878
0.00326052310642
0.00744052091168
0.0243512703512
0.126997704189