/*--------------------------------*- C++ -*----------------------------------*\
| =========                 |                                                 |
| \\      /  F ield         | OpenFOAM: The Open Source CFD Toolbox           |
|  \\    /   O peration     | Version:  v2012                                 |
|   \\  /    A nd           | Website:  www.openfoam.com                      |
|    \\/     M anipulation  |                                                 |
\*---------------------------------------------------------------------------*/
FoamFile
{
    version     2.0;
    format      ascii;
    class       volScalarField;
    location    "4.5";
    object      p_rgh;
}
// * * * * * * * * * * * * * * * * * * * * * * * * * * * * * * * * * * * * * //

dimensions      [1 -1 -2 0 0 0 0];


internalField   nonuniform List<scalar> 
1984
(
8753.32709784
8753.83314769
8754.80843379
8756.26112115
8758.18976662
8760.58487498
8763.42724901
8766.69348079
8770.35398112
8774.37644577
8778.7508218
8783.42072957
8788.32204057
8793.413455
8798.59610692
8803.78462826
8809.18968753
7660.23943563
1455.63377824
0.874112785532
8752.81146092
8753.31796458
8754.29211338
8755.74354564
8757.67147121
8760.06675707
8762.91157759
8766.18471521
8769.84981062
8773.89539023
8778.30634241
8783.00943194
8787.98322052
8793.14627949
8798.39354154
8803.49544624
8808.21069618
7696.29843977
1339.6983593
0.129672015726
8751.82276218
8752.33076957
8753.30501828
8754.75651608
8756.68490496
8759.08136139
8761.9320737
8765.21592848
8768.89989906
8772.97452345
8777.46055496
8782.27704242
8787.37797881
8792.71331913
8798.15987652
8803.43796884
8808.1201688
7708.83145988
1344.11959344
-0.596002119187
8750.35703997
8750.86565167
8751.83931657
8753.28975735
8755.2170079
8757.61296868
8760.46687203
8763.76729317
8767.47888741
8771.58265525
8776.14457782
8781.11158161
8786.45530962
8792.10824753
8797.9759496
8803.87475003
8809.48261976
7745.81200224
1344.07915721
-1.04636898521
8748.41708597
8748.92405765
8749.8947258
8751.34102769
8753.26321352
8755.6543883
8758.5077112
8761.81342664
8765.55994914
8769.72040494
8774.36289234
8779.4965907
8785.1321249
8791.16288758
8797.60367131
8804.49802873
8811.97491446
7810.86868959
1482.84463548
-1.825666133
8746.00992642
8746.51283492
8747.47694789
8748.91408759
8750.82478494
8753.20361716
8756.04762716
8759.35130546
8763.1179193
8767.35119223
8772.08283181
8777.39265294
8783.28230558
8789.68368391
8796.66065839
8804.39493646
8813.31331323
7853.69191484
1808.82356626
0.744744193155
8743.14423174
8743.64055317
8744.59311616
8746.01378621
8747.9035687
8750.25893617
8753.0806709
8756.36960107
8760.13966574
8764.42164266
8769.23350103
8774.70814117
8780.81076854
8787.52207772
8794.87624167
8802.91457823
8811.63798354
7821.81323024
1881.01786302
13.2866443436
8739.83076961
8740.31746751
8741.2518828
8742.64635512
8744.50257634
8746.81930027
8749.6009995
8752.85511683
8756.60820362
8760.90412779
8765.7660749
8771.37046683
8777.64651947
8784.63145376
8792.3348961
8800.6546689
8809.15888524
7790.96885478
1622.91188815
2.56678333421
8736.08279768
8736.55605605
8737.46412018
8738.82035475
8740.62716884
8742.88599502
8745.60410884
8748.79759347
8752.49814276
8756.77180896
8761.63592373
8767.31354021
8773.73994737
8780.95877661
8789.08096252
8798.09184481
8807.74307735
7809.93949256
1531.70101385
0.387396963566
8731.91669628
8732.37142748
8733.24371902
8734.54778922
8736.28662858
8738.46400403
8741.09077929
8744.18835561
8747.79840676
8751.99388363
8756.81703903
8762.47144751
8768.95479272
8776.36123113
8784.89037973
8794.78063259
8806.3647342
7813.79894486
1539.01474471
7.56654206473
8727.35182142
8727.78200691
8728.60869623
8729.84519163
8731.49524553
8733.56445615
8736.06786238
8739.03013014
8742.50128513
8746.55932122
8751.26842157
8756.77759104
8763.16865695
8770.58257436
8779.27781886
8789.66785377
8802.41650222
7797.8938373
1522.72877595
-0.176214807647
8722.41018919
8722.81116421
8723.58146335
8724.73418761
8726.27409005
8728.20706308
8730.55171307
8733.33598908
8736.61886277
8740.45819379
8744.93735419
8750.17838
8756.29408978
8763.45401438
8771.91609467
8782.10329677
8794.62059206
7678.14920332
1495.93700387
0.22854681823
8717.11914768
8717.48530408
8718.18883253
8719.24187992
8720.64996547
8722.42058306
8724.57220114
8727.13601503
8730.15905654
8733.7017275
8737.8430332
8742.68479741
8748.34861972
8754.97539443
8762.78264426
8772.0745344
8783.2162511
7527.60477494
1443.18672876
-0.314687129544
8711.50883779
8711.83570098
8712.46267713
8713.40173482
8714.65789437
8716.24097447
8718.16559422
8720.46001954
8723.17066293
8726.34565372
8730.05769994
8734.3764095
8739.41642087
8745.28165668
8752.13369596
8760.19568515
8769.80016205
7391.06820985
1254.22782571
-0.175906531713
8705.61363758
8705.89661675
8706.43915917
8707.25191453
8708.3385509
8709.7085473
8711.37413609
8713.3630719
8715.71171034
8718.4539217
8721.65760441
8725.34451167
8729.62763039
8734.56112888
8740.253327
8746.82556141
8754.25779167
7207.00706731
1039.15066893
-0.0862924211926
8699.46949393
8699.70616787
8700.15754507
8700.83212156
8701.73331295
8702.86791673
8704.25684889
8705.90494654
8707.84412926
8710.1030931
8712.71977175
8715.70316672
8719.13014723
8723.02670395
8727.45071535
8732.55834361
8737.6953855
7023.0415731
889.257902209
-0.05719507458
8693.11425446
8693.30287887
8693.65893215
8694.18664326
8694.89526566
8695.77586965
8696.86280084
8698.15503546
8699.66176509
8701.38859168
8703.36374391
8705.59453228
8708.10696236
8710.89008581
8713.9420952
8718.09865321
8720.80551412
6792.18574754
727.484465488
-0.0483803460822
8686.58712102
8686.72746532
8686.98557027
8687.37221924
8687.87358037
8688.51284094
8689.28014059
8690.20043084
8691.23731448
8692.4050957
8693.70785067
8695.13651398
8696.69194145
8698.35350673
8700.13614338
8702.12063675
8703.98316819
6558.00282869
569.084443711
-0.0393657822887
8679.92866352
8680.02176714
8680.18465935
8680.42469074
8680.73524775
8681.13279517
8681.58072783
8682.11228729
8682.68438699
8683.29568142
8683.92955658
8684.56192492
8685.1636016
8685.68771675
8686.10242161
8686.35803644
8686.37659599
6323.27841459
424.749870144
-0.0282797112416
8673.18560687
8673.22634712
8673.29796466
8673.39825896
8673.53062986
8673.67781582
8673.8209266
8673.96899982
8674.08927373
8674.15786592
8674.14229735
8673.99827793
8673.67038407
8673.08061904
8672.15352494
8670.76898878
8668.83969498
6082.16419537
298.856688845
-0.0157213148128
8666.39424499
8666.38797741
8666.37266689
8666.34273103
8666.2906869
8666.20168592
8666.05718896
8665.84582145
8665.54021727
8665.09546213
8664.46846933
8663.59590677
8662.39665278
8660.76125682
8658.56087644
8655.62604435
8651.681138
5833.8930624
186.440267751
-0.000279084972037
8659.60085479
8659.55171851
8659.45333855
8659.29904038
8659.07581887
8658.76877428
8658.36119732
8657.81993443
8657.11904273
8656.20621788
8655.02447281
8653.49617543
8651.51738226
8648.95036376
8645.59981001
8641.26767903
8635.4205239
5587.21434189
90.4591815769
0.0189610160924
8652.8469173
8652.75894714
8652.58488468
8652.31550014
8651.93687342
8651.43299814
8650.78644968
8649.95391575
8648.90041034
8647.577488
8645.91305279
8643.82292625
8641.18822176
8637.84881794
8633.58987373
8628.10050984
8620.645799
5360.40762273
12.3241690237
0.03598368429
8646.17115827
8646.04835089
8645.80651118
8645.4351425
8644.91988383
8644.24295077
8643.37269139
8642.28555278
8640.93615596
8639.27353129
8637.21993444
8634.67657356
8631.53251725
8627.61521766
8622.70048818
8616.40479523
8605.79574571
5126.7879351
0.0815155640527
-0.0150099109569
8639.60839733
8639.45516909
8639.15365404
8638.69340303
8638.0585832
8637.22813101
8636.17425975
8634.86779059
8633.27285805
8631.34315265
8628.98914524
8626.12827784
8622.62841743
8618.3455466
8613.06914582
8606.3936591
8591.76622026
4940.08602335
-0.0336626933068
-0.0207497946357
8633.18957048
8633.01004033
8632.65747045
8632.12098682
8631.3859699
8630.43138712
8629.23458783
8627.75900004
8625.96797278
8623.82706273
8621.2630241
8618.18530723
8614.49945931
8610.06171563
8604.70402423
8598.08716266
8580.02838137
4809.22459603
-0.0171624896982
-0.00434319297275
8626.93923756
8626.73715019
8626.34171785
8625.74207871
8624.92391615
8623.87061097
8622.55908089
8620.95675987
8619.01407149
8616.72292646
8614.02766429
8610.84205074
8607.08994904
8602.66333293
8597.45088054
8591.20034872
8570.61979253
4717.3793217
0.00418451715677
-0.000850394706667
8620.88066572
8620.65972756
8620.22881206
8619.57725334
8618.69185583
8617.55727329
8616.15471072
8614.45561793
8612.42636842
8610.01451687
8607.23258179
8604.06170708
8600.34216657
8596.0404881
8591.11367015
8585.39858566
8563.44560975
4651.43042252
0.0184187641466
0.00359570569467
8615.03117658
8614.79462423
8614.33485058
8613.64153816
8612.70292567
8611.50596575
8610.03487617
8608.26709044
8606.18150423
8603.74382773
8600.92150583
8597.76518733
8594.15282304
8590.05646236
8585.49284852
8580.3515742
8557.63842062
4602.11563829
0.0160403271338
0.00558374639996
8609.40464868
8609.15525701
8608.6722619
8607.94570745
8606.96547837
8605.72104032
8604.19988096
8602.38610476
8600.25890771
8597.80369895
8595.00202998
8591.87875298
8588.41866729
8584.55128361
8580.36751293
8575.77931469
8553.19381746
4558.62106844
0.00754510000589
0.00677684203727
8604.01200285
8603.75221312
8603.25048941
8602.49745167
8601.48465003
8600.20408441
8598.64650152
8596.8015781
8594.65110874
8592.18856006
8589.42549622
8586.37025416
8583.02726478
8579.35643531
8575.5198655
8571.43965206
8549.02325563
4513.96896198
0.000371452007963
0.0084752382769
8598.86216428
8598.59378036
8598.07675304
8597.30229347
8596.26346462
8594.95459279
8593.36950743
8591.50221277
8589.34223064
8586.89019489
8584.14740543
8581.1591993
8577.9089377
8574.40407435
8570.78716846
8567.1545504
8543.49092976
4460.62103646
-0.00354641664337
0.00962503776684
8593.96251185
8593.6867085
8593.15683593
8592.364411
8591.30377198
8589.97119796
8588.36317834
8586.47718733
8584.30898803
8581.86611582
8579.14486014
8576.2077582
8573.01744955
8569.71383441
8566.29128991
8562.79454398
8536.22520259
4399.463099
-0.00358141664369
0.00939454909769
8589.31939503
8589.03680505
8588.49567287
8587.68735908
8586.60716553
8585.25295224
8583.62331008
8581.71825669
8579.53691364
8577.08817386
8574.38142606
8571.44205664
8568.28298167
8565.03678014
8561.68342577
8558.26852433
8527.35270441
4327.89669986
-0.00475637990899
0.00842338704163
8584.93837481
8584.6494318
8584.09789538
8583.27468684
8582.1758496
8580.80038604
8579.14810683
8577.22041626
8575.01846199
8572.54513957
8569.80982911
8566.86436637
8563.73357702
8560.43257195
8557.02759363
8553.54630414
8516.53302478
4245.0027316
-0.00798338240631
0.0062501976537
8580.82464419
8580.52980143
8579.9682525
8579.13054461
8578.01319858
8576.61569074
8574.93816683
8572.98264744
8570.7511334
8568.24618349
8565.48980175
8562.50702855
8559.30414936
8555.90228023
8552.35145411
8548.6620367
8503.49130346
4150.89576256
-0.00651248838076
0.0054748193248
8576.98338958
8576.68300135
8576.11174898
8575.25973279
8574.12350327
8572.70248168
8570.99672594
8569.00810298
8566.73951395
8564.19693269
8561.38905641
8558.33421283
8555.0275447
8551.48506593
8547.72856849
8543.74018801
8489.77544754
4053.0362668
-0.00213345828148
0.00645779571784
8573.41985599
8573.11399302
8572.53349283
8571.66736977
8570.51188831
8569.06602509
8567.32947569
8565.30363854
8562.99149094
8560.39475515
8557.51621231
8554.37290671
8550.94815208
8547.24729276
8543.26113547
8538.92577122
8474.6674424
3955.94725778
0.00151516224862
0.00655030873705
8570.13899296
8569.82769748
8569.23867516
8568.35899784
8567.18437892
8565.71305576
8563.94404627
8561.87830967
8559.51681634
8556.85751004
8553.90127831
8550.66481146
8547.11870801
8543.2526494
8539.04930813
8534.38708742
8459.38777024
3862.9473507
0.00609295472852
0.00602988216509
8567.14451179
8566.8294799
8566.23263831
8565.3405964
8564.14776999
8562.65143386
8560.84972391
8558.7424133
8556.32800007
8553.60449029
8550.57012694
8547.23321801
8543.5621194
8539.55197064
8535.20221798
8530.30211404
8443.97256562
3782.07212643
0.0108025234599
0.00524228649198
8564.44152591
8564.12267815
8563.52021906
8562.61791463
8561.4096169
8559.89003864
8558.05705145
8555.90752135
8553.44072166
8550.65216692
8547.54568246
8544.1023718
8540.32641434
8536.23978565
8531.79608177
8526.8249427
8430.18881844
3715.69210572
0.0135452987593
0.00369715310005
8562.03174762
8561.71158906
8561.10574331
8560.19736617
8558.97677797
8557.43926381
8555.57684139
8553.38738532
8550.86491563
8548.0118427
8544.83360019
8541.33905475
8537.5140273
8533.3716147
8528.93361323
8523.97908571
8418.06053226
3666.19245276
0.0149581984284
0.00195414265432
8559.91752522
8559.59793223
8558.99280832
8558.08289564
8556.85879048
8555.30797719
8553.42333702
8551.19380642
8548.61396587
8545.68984594
8542.4369594
8538.86841352
8535.00164845
8530.84572197
8526.4216571
8521.61643955
8407.67733006
3633.74673806
0.014245474173
0.000434787989457
8558.09859413
8557.78160189
8557.18234061
8556.27978768
8555.06057439
8553.51079106
8551.60961995
8549.34256106
8546.7011445
8543.69672157
8540.34972675
8536.67949061
8532.74880074
8528.5647666
8524.21384738
8519.60528627
8400.23064089
3614.66682601
0.011636632947
-0.000758223360729
8556.57185675
8556.26082771
8555.67427145
8554.78888842
8553.59042077
8552.05886064
8550.16085018
8547.86066799
8545.1425787
8542.04338568
8538.56915289
8534.72500912
8530.71856095
8526.45850133
8522.19876659
8517.78796061
8394.18127542
3599.60362719
0.00922247787231
-0.00148890087151
8555.33093893
8555.03039044
8554.46397622
8553.60790406
8552.44816281
8550.96993892
8549.11374517
8546.79028173
8543.937479
8540.62744441
8536.97904751
8532.9335873
8528.87031481
8524.4246434
8520.30689183
8516.01540107
8388.39406371
3582.69195137
0.00840391555776
-0.00216815311892
8554.36676156
8554.08020017
8553.54335
8552.72787812
8551.61032774
8550.16760071
8548.40451256
8546.14978118
8543.047362
8539.68224299
8536.19320769
8531.80976444
8527.01078071
8522.42379233
8518.42854782
8514.22528879
8379.01656894
3561.01393351
0.00894916122038
-0.00299772497347
8553.66442132
8553.39611592
8552.90339856
8552.17535063
8551.19885636
8549.94245653
8548.278594
8545.85334899
8542.56280422
8538.73954082
8536.05465411
8528.69589333
8524.542509
8520.15933152
8516.4984297
8512.46347767
8366.69437776
3534.55844211
0.0110491143767
-0.00311866429962
8553.20409502
8552.95097237
8552.49149552
8551.81930323
8550.98070293
8550.00058744
8549.19874628
8548.23974068
8521.43348438
8517.90734067
8514.91123815
8511.01700122
8355.10182064
3506.99445197
0.0142431707353
-0.00338922923307
8552.97390912
8552.73240366
8552.30451177
8551.69759013
8550.93480466
8550.10299959
8549.347112
8548.34923242
8520.06803808
8516.92972917
8514.02583846
8510.19851685
8351.5484148
3485.32114323
0.0185948920328
-0.00422971003226
8552.96014956
8552.71902468
8552.29227798
8551.68710402
8550.92850544
8550.10137035
8549.35010226
8548.33658517
8520.08615258
8516.94886713
8514.03099231
8510.18978489
8357.41816342
3474.91057641
0.0217001495476
-0.00442222295368
8553.1626417
8552.91070128
8552.45526313
8551.79013105
8550.95847309
8549.9893631
8549.21140183
8548.28967438
8521.53826575
8518.00228563
8514.93734893
8510.96203804
8364.24558794
3483.28313215
0.0204195064599
-0.00341651164951
8553.5946093
8553.32846953
8552.84098068
8552.1215785
8551.15752894
8549.91123458
8548.28253996
8545.88187257
8542.63070551
8538.85334488
8536.15759442
8528.87150591
8524.69187518
8520.30988702
8516.58488248
8512.41340526
8370.88470988
3508.36822
0.0167288999207
-0.00286220388172
8554.26790508
8553.98490536
8553.45565905
8552.65317635
8551.5560614
8550.1485612
8548.40711988
8546.19076863
8543.11375999
8539.78351303
8536.32695393
8532.00502018
8527.24608868
8522.69514464
8518.65107722
8514.34005285
8379.46990393
3546.72529848
0.0119544111366
-0.00225065712433
8555.19992755
8554.9036956
8554.34602416
8553.50415779
8552.36485661
8550.91320719
8549.08511055
8546.79437552
8543.9757496
8540.71223913
8537.11207243
8533.13319296
8529.15013925
8524.78981119
8520.71975761
8516.46894301
8390.21952177
3589.97674841
0.00787074484274
-0.00180354986811
8556.40502277
8556.09855277
8555.52119889
8554.65043099
8553.47205848
8551.96645434
8550.09788886
8547.82969216
8545.1480545
8542.09512265
8538.68731279
8534.92614002
8531.02560775
8526.90418573
8522.83267279
8518.63120773
8398.33432065
3629.71619253
0.00616259765039
-0.00172026336513
8557.89186033
8557.57927589
8556.98924393
8556.10062646
8554.90042064
8553.37392159
8551.50154777
8549.26639911
8546.66335958
8543.71751114
8540.43789065
8536.84021208
8533.0173421
8529.02276559
8525.00011953
8520.77624507
8405.38632874
3660.85358529
0.0074856424291
-0.00177341779675
8559.66693725
8559.35169797
8558.75507591
8557.85846074
8556.6511416
8555.12277305
8553.26245281
8551.06267255
8548.52623535
8545.65036479
8542.47242924
8538.98037539
8535.15761141
8531.19388771
8527.25076777
8522.95238514
8414.01636766
3684.76444764
0.0102157495202
-0.00130793284265
8561.73385107
8561.4176586
8560.81936509
8559.9220999
8558.71712389
8557.19737218
8555.35638759
8553.19214543
8550.70700125
8547.88720464
8544.76525679
8541.35294632
8537.51591741
8533.45384257
8529.64936967
8525.21554033
8423.07589493
3710.28945964
0.0128786856628
-0.000150435467593
8564.09318175
8563.77739744
8563.1808807
8562.28765612
8561.09089164
8559.58567187
8557.7684762
8555.64093245
8553.18791824
8550.41555776
8547.35995973
8543.91438569
8540.09914342
8536.19865217
8532.14977095
8527.7440418
8432.34203365
3744.93544894
0.0149893828877
0.00175523178591
8566.74324557
8566.43025168
8565.83755912
8564.9516477
8563.76687144
8562.27978223
8560.48817667
8558.3944537
8555.9809103
8553.27468066
8550.28067765
8546.90301923
8543.16853449
8539.25364535
8535.12610884
8530.72318
8445.14445494
3798.46661441
0.0131130597636
0.00415550389543
8569.68339106
8569.37308431
8568.78637543
8567.91016311
8566.73970091
8565.27245605
8563.50666553
8561.44584778
8559.08307717
8556.43991879
8553.48745298
8550.21452209
8546.68133495
8542.81829211
8538.73881783
8534.4057646
8460.18759184
3870.30695208
0.00578085609762
0.00581886932593
8572.90970399
8572.60380671
8572.02373769
8571.15832129
8570.00308915
8568.55588418
8566.81513507
8564.78377216
8562.46949071
8559.86500442
8556.97689587
8553.82634649
8550.40290997
8546.64520579
8542.69114779
8538.55192281
8475.46343044
3957.44677177
-0.000919567949027
0.00695667696363
8576.4198135
8576.11843706
8575.54584825
8574.6919669
8573.55230571
8572.12462992
8570.40714063
8568.40158709
8566.11923797
8563.54085603
8560.69006425
8557.60943748
8554.27842773
8550.67112708
8546.88334725
8542.87517728
8488.52754055
4042.33150027
-0.00256304578331
0.0077014841278
8580.20948729
8579.91229572
8579.3465637
8578.50282637
8577.37688378
8575.96688257
8574.2717225
8572.29174533
8570.03309578
8567.48425976
8564.65382148
8561.56546841
8558.28120185
8554.80428879
8551.11850428
8547.27054951
8499.55606713
4122.06277506
-0.0058724851804
0.00640854417974
8584.27550776
8583.98304906
8583.42489621
8582.5920999
8581.48024419
8580.08724963
8578.41208459
8576.45383048
8574.21390891
8571.70321299
8568.90432554
8565.80301673
8562.52774092
8559.06025628
8555.44934342
8551.7034804
8509.87521663
4197.01398401
-0.00546940713263
0.00556116205206
8588.61394378
8588.32697029
8587.7771591
8586.95643979
8585.8596603
8584.48394003
8582.82695474
8580.8865036
8578.6620639
8576.15903156
8573.38599368
8570.33780863
8566.9897698
8563.47919931
8559.87998202
8556.1500193
8520.25264362
4269.86556042
-0.00362988482205
0.00637603023735
8593.22019307
8592.93943249
8592.39964488
8591.59255095
8590.51259624
8589.15551598
8587.51663123
8585.59162724
8583.37740684
8580.87437281
8578.08660477
8575.02390004
8571.69104825
8568.10599919
8564.40042672
8560.56833551
8529.41336301
4341.14291076
-0.00253769299935
0.00764367463944
8598.08968507
8597.81571946
8597.2880555
8596.49756627
8595.43759632
8594.10207931
8592.48371199
8590.57496053
8588.36887535
8585.86025748
8583.04714417
8579.93395114
8576.53645852
8572.88448371
8569.01623338
8564.95176044
8537.41757542
4408.12696721
-0.00128112642824
0.00812501453998
8603.21628804
8602.95045438
8602.43784104
8601.66828444
8600.63334089
8599.32492491
8597.73286145
8595.84558878
8593.65095042
8591.13701299
8588.29327323
8585.11204642
8581.59530574
8577.78843419
8573.69232492
8569.31321548
8543.70699558
4468.11737747
0.00219933715755
0.00776992071903
8608.59250411
8608.33712857
8607.84314783
8607.1002581
8606.09792041
8604.82553193
8603.26985447
8601.4147606
8599.24201373
8596.73153245
8593.86244722
8590.61424901
8586.96245784
8582.92136141
8578.53290694
8573.70724235
8548.93028897
4518.30763746
0.00803300382341
0.00750260365317
8614.20902062
8613.96698245
8613.49646085
8612.78751445
8611.82792709
8610.6041763
8609.09982179
8607.29388302
8605.16138939
8602.67355671
8599.79701387
8596.4951824
8592.72572982
8588.45322634
8583.65056669
8578.30727885
8554.01036893
4561.61207592
0.0151824495297
0.00748964436616
8620.05443681
8619.82861953
8619.38806056
8618.7221287
8617.81767261
8616.65870327
8615.22537393
8613.49207456
8611.427385
8608.99323567
8606.14416489
8602.82557669
8598.97412735
8594.51222652
8589.34704087
8583.4073877
8559.90030516
4609.46589533
0.0189785355754
0.00561347682555
8626.11367117
8625.90751403
8625.50404398
8624.89227083
8624.05782752
8622.98319645
8621.64511381
8620.01419106
8618.05352231
8615.71695584
8612.9474916
8609.6751282
8605.81370918
8601.24301133
8595.81723861
8589.4112764
8567.42862809
4680.74826856
0.00554816491797
-0.000227893184543
8632.36843356
8632.18565653
8631.82695196
8631.28154372
8630.53428346
8629.56597727
8628.35176192
8626.85946687
8625.04764428
8622.86315333
8620.24108418
8617.09962684
8613.32770958
8608.78620048
8603.31289629
8596.57692948
8577.45912949
4782.5183242
-0.0167452569142
-0.00718150627657
8638.79678786
8638.64153666
8638.33613545
8637.87020635
8637.22827492
8636.39029104
8635.33051046
8634.01496396
8632.39930412
8630.42705015
8628.02620662
8625.09907815
8621.53823013
8617.20089241
8611.89846152
8605.17200003
8589.95013882
4919.51598743
-0.0271630551609
-0.0180001824759
8645.37221131
8645.24837452
8645.0046374
8644.63098807
8644.11258904
8643.43014234
8642.55828497
8641.46312315
8640.10086895
8638.4135126
8636.32512239
8633.7596927
8630.57018704
8626.62774826
8621.71016915
8615.42811118
8604.50689043
5109.20298855
0.0339868187187
-0.0204262078298
8652.06502985
8651.97685619
8651.80277876
8651.53411881
8651.15740199
8650.65494447
8650.00340825
8649.171764
8648.12040862
8646.79718742
8645.1305668
8643.03805561
8640.39600031
8637.02886333
8632.83445452
8627.35835296
8619.80959332
5352.31838929
6.77257799517
0.0307110088266
8658.84125089
8658.79238453
8658.69525309
8658.54317022
8658.32452974
8658.02421048
8657.62190489
8657.09151174
8656.39849226
8655.49798703
8654.33251994
8652.81523254
8650.86941441
8648.34489
8645.0808371
8640.76232099
8634.85096206
5582.62954449
84.7925333606
0.0194351067729
8665.66304646
8665.6568764
8665.64305848
8665.61726016
8665.5706783
8665.49153191
8665.36381237
8665.16729764
8664.87412507
8664.45122513
8663.85674925
8663.02671791
8661.88385305
8660.34573796
8658.25113868
8655.39902658
8651.34862129
5830.94497386
179.456400008
0.000547604066352
8672.48974616
8672.52966854
8672.60338565
8672.71103697
8672.84733327
8673.00411601
8673.16964763
8673.33454593
8673.47938434
8673.58277293
8673.61864361
8673.54674137
8673.29803329
8672.84145361
8672.09397689
8670.91077276
8668.97168438
6085.13433861
288.875760645
-0.0126322877371
8679.2760389
8679.36770669
8679.52976934
8679.77549323
8680.10156372
8680.50511945
8680.97061169
8681.51461785
8682.11957917
8682.77757352
8683.47834411
8684.20333972
8684.92327573
8685.62293502
8686.31530661
8686.94719058
8687.32485612
6342.8054821
417.833549687
-0.0243106184357
8685.98326435
8686.1198486
8686.37449858
8686.75860957
8687.27407973
8687.92204215
8688.70310137
8689.62613032
8690.69371816
8691.91134191
8693.28427765
8694.82103535
8696.51319647
8698.41456493
8700.57650887
8703.06328447
8705.92046078
6607.93291549
579.990640574
-0.0391308209022
8692.56434165
8692.74554902
8693.08945918
8693.6098904
8694.31153476
8695.20100945
8696.28698102
8697.58272616
8699.10376107
8700.87126212
8702.91013717
8705.24194593
8707.89534901
8710.94665937
8714.45991207
8718.74503647
8723.16230913
6856.75400127
752.317135822
-0.0486693671636
8698.97475358
8699.19890655
8699.62772043
8700.27730341
8701.15640234
8702.27535906
8703.6489261
8705.29796445
8707.24928226
8709.5382848
8712.20662054
8715.29043811
8718.85185222
8722.98441469
8727.8179289
8733.50658578
8740.05918189
7084.97037898
924.817748081
-0.0580586126186
8705.16907912
8705.4351178
8705.94258573
8706.71337066
8707.75787967
8709.09032144
8710.73045274
8712.7052439
8715.05049557
8717.81494325
8721.04280326
8724.80811519
8729.19023379
8734.29931145
8740.2967122
8747.34333772
8755.7119299
7292.7532769
1098.61310814
-0.0824188757801
8711.10557585
8711.40845948
8711.99019835
8712.87163558
8714.06652587
8715.59175397
8717.47076342
8719.73538794
8722.4282188
8725.60166953
8729.31789877
8733.66680262
8738.74008586
8744.68827151
8751.68242794
8759.8886055
8769.4915156
7446.28281383
1244.70410214
-0.142093170311
8716.745795
8717.082256
8717.73042445
8718.71104696
8720.03927528
8721.73363675
8723.81979106
8726.33249869
8729.31751487
8732.82410195
8736.93423513
8741.74091059
8747.36642109
8753.98072798
8761.79265392
8771.03816936
8781.8556166
7493.35653806
1380.37667396
-0.292152983999
8722.05510224
8722.42266928
8723.12931583
8724.19649466
8725.64001465
8727.47879304
8729.7388096
8732.45505277
8735.66231863
8739.43253485
8743.83093117
8748.95714634
8754.95569434
8762.01135632
8770.39879864
8780.52056619
8792.85535273
7577.47784251
1567.76475664
-0.734954113622
8727.00651039
8727.40067122
8728.15759815
8729.29884391
8730.84000925
8732.79907498
8735.2006273
8738.06919648
8741.4507005
8745.39416945
8749.96760094
8755.27911433
8761.43432382
8768.63478566
8777.20313664
8787.74923049
8801.42458035
7754.79808571
1740.82840257
-1.53793149295
8731.57403678
8731.99150793
8732.79097804
8733.9947637
8735.61750734
8737.67529864
8740.18706235
8743.17338737
8746.66862973
8750.7056397
8755.3819877
8760.71598799
8766.80709816
8773.80807205
8781.96658752
8791.80082387
8804.28424958
7844.68267112
1727.86766333
-1.042860652
8735.73707684
8736.17361313
8737.00961102
8738.26605741
8739.95681236
8742.09470585
8744.69263361
8747.76961344
8751.34173125
8755.42044166
8760.10307463
8765.34541441
8771.20633598
8777.73892009
8784.9975553
8793.07577483
8801.91065712
7841.3453312
1575.41673989
2.61220864487
8739.47771576
8739.93026858
8740.797409
8742.09865821
8743.84643012
8746.05022622
8748.71922389
8751.86148375
8755.48189531
8759.5767314
8764.18149653
8769.30010018
8774.87340298
8780.87166862
8787.16575975
8793.46555279
8798.85915782
7801.0804506
1459.99218167
6.42442290553
8742.78116587
8743.24772598
8744.14166304
8745.48143804
8747.27793695
8749.53760297
8752.26538542
8755.45975549
8759.11510768
8763.21810876
8767.74604756
8772.72510897
8778.05270917
8783.64162264
8789.29526032
8794.66201148
8798.95925431
7775.57855237
1435.53626265
5.78221687609
8745.6357235
8746.11472702
8747.03195242
8748.40529964
8750.24452641
8752.55315645
8755.33206975
8758.57349137
8762.25936469
8766.36390858
8770.84520227
8775.73013673
8780.90582819
8786.2773782
8791.68130536
8796.85827439
8801.47582076
7744.09646393
1412.90543454
0.0181909781963
8748.03216441
8748.52201677
8749.45949952
8750.86236737
8752.7392597
8755.09149363
8757.91718837
8761.20338687
8764.91657233
8769.04301986
8773.50094155
8778.34634805
8783.4829858
8788.82469818
8794.25481054
8799.57168693
8804.61528043
7728.34673687
1367.22934167
-2.2142703197
8749.96331065
8750.46185178
8751.41657368
8752.84462492
8754.7537943
8757.14483168
8760.01299139
8763.33466441
8767.0897821
8771.22125749
8775.70567703
8780.57078194
8785.75996053
8791.22915603
8796.89484925
8802.54951333
8807.88658047
7728.24786032
1346.38640997
-0.86075638343
8751.42330845
8751.92791173
8752.89627474
8754.34438723
8756.2796731
8758.70135687
8761.60202194
8764.96075577
8768.73445437
8772.87750022
8777.42664251
8782.341982
8787.65790512
8793.38052922
8799.49934338
8805.85985517
8812.16490255
7757.83795418
1405.95580163
-0.382200029522
8752.41145877
8752.91974685
8753.89809521
8755.36057167
8757.31352481
8759.75576272
8762.67698027
8766.04886768
8769.84854377
8774.01624482
8778.59876183
8783.59166438
8789.06605379
8795.09673344
8801.80571603
8809.29709592
8817.7374797
7794.01929281
1533.83106527
0.211268195933
8752.93288662
8753.44399029
8754.42947982
8755.90153516
8757.86458835
8760.31689786
8763.24451519
8766.62859392
8770.43082556
8774.62134845
8779.22586133
8784.2746096
8789.86380287
8796.12178363
8803.28695993
8811.79507889
8822.8117156
7764.31303184
1877.58154453
1.9127267581
)
;

boundaryField
{
    back
    {
        type            fixedFluxPressure;
        gradient        uniform 0;
        value           nonuniform List<scalar> 
1984
(
8753.32709784
8753.83314769
8754.80843379
8756.26112115
8758.18976662
8760.58487498
8763.42724901
8766.69348079
8770.35398112
8774.37644577
8778.7508218
8783.42072957
8788.32204057
8793.413455
8798.59610692
8803.78462826
8809.18968753
7660.23943563
1455.63377824
0.874112785532
8752.81146092
8753.31796458
8754.29211338
8755.74354564
8757.67147121
8760.06675707
8762.91157759
8766.18471521
8769.84981062
8773.89539023
8778.30634241
8783.00943194
8787.98322052
8793.14627949
8798.39354154
8803.49544624
8808.21069618
7696.29843977
1339.6983593
0.129672015726
8751.82276218
8752.33076957
8753.30501828
8754.75651608
8756.68490496
8759.08136139
8761.9320737
8765.21592848
8768.89989906
8772.97452345
8777.46055496
8782.27704242
8787.37797881
8792.71331913
8798.15987652
8803.43796884
8808.1201688
7708.83145988
1344.11959344
-0.596002119187
8750.35703997
8750.86565167
8751.83931657
8753.28975735
8755.2170079
8757.61296868
8760.46687203
8763.76729317
8767.47888741
8771.58265525
8776.14457782
8781.11158161