/*--------------------------------*- C++ -*----------------------------------*\
| =========                 |                                                 |
| \\      /  F ield         | OpenFOAM: The Open Source CFD Toolbox           |
|  \\    /   O peration     | Version:  v2012                                 |
|   \\  /    A nd           | Website:  www.openfoam.com                      |
|    \\/     M anipulation  |                                                 |
\*---------------------------------------------------------------------------*/
FoamFile
{
    version     2.0;
    format      ascii;
    class       volScalarField;
    location    "3.7";
    object      k;
}
// * * * * * * * * * * * * * * * * * * * * * * * * * * * * * * * * * * * * * //

dimensions      [0 2 -2 0 0 0 0];


internalField   nonuniform List<scalar> 
164
(
0.00332205356265
0.00333212141006
0.00334542757608
0.00336691316254
0.00341112614366
0.00351998919209
0.00382230984007
0.00476364322392
0.00773907323759
0.0152882957958
0.029138379032
0.0475315415124
0.00332568343647
0.00333590893133
0.00334916598033
0.00336996237269
0.00341188652709
0.00351433023142
0.00379482687444
0.00465099224422
0.00740065308682
0.014688160445
0.0282561192058
0.0462063788758
0.00335253543245
0.00337282111402
0.00341280227147
0.00350996238167
0.0037740238148
0.0045619610905
0.0070851311
0.014004673117
0.0273631866968
0.0459806469122
0.00335553512655
0.00337548472707
0.00341388081434
0.00350705726485
0.00376218269853
0.00451474994896
0.00686454350229
0.0133701538147
0.0268646208199
0.0497694632842
0.00335812603289
0.00337794970455
0.0034152364043
0.0035055874471
0.00375640552759
0.00449625436388
0.00672829152591
0.0127804162358
0.0266388799142
0.0690776432505
0.00336028690114
0.00338029011345
0.00341734076427
0.00350713608605
0.00375756584246
0.00448781481308
0.00660324182406
0.0120933304337
0.0249853214146
0.0738599897651
0.00336204317166
0.00338269223987
0.00342113438873
0.00351520331993
0.00377385760862
0.00449087627283
0.0064328174425
0.0110864518203
0.0204815960288
0.0538249264932
0.00336342076174
0.00338533511544
0.00342746928389
0.00353307671637
0.00381494107527
0.00452817708728
0.00628073158088
0.010298413861
0.0186736510117
0.0465797570058
0.00336442942304
0.00338822493349
0.00343613931116
0.00355965866257
0.00387873836747
0.00460909394985
0.00621637561352
0.00998915464494
0.0201353440033
0.0516083103029
0.00336496139359
0.00339093413885
0.00344513144468
0.00358710485712
0.00394586603214
0.00471177655237
0.00624574886491
0.00993715354662
0.0211359761621
0.0526664640755
0.003364783454
0.00339256809506
0.00345116787683
0.00360515647658
0.00399177254146
0.00479556003444
0.00631807712192
0.00990441422089
0.0215486238926
0.0610264172859
0.00336372023699
0.00339258963041
0.00345279339808
0.00361043986583
0.00400738290454
0.00483135729013
0.00634687742513
0.00985162112775
0.0231354788577
0.069016869398
0.00336191927429
0.00339182172797
0.00345315449082
0.00361231736597
0.00401113549122
0.00483503364304
0.00633283465667
0.00984022328822
0.0235276572633
0.06928139374
0.0033596230123
0.00339109752711
0.00345515494027
0.0036186070374
0.00402000787224
0.00484019429283
0.00633326102265
0.00985881499284
0.0236868105545
0.0693956992838
0.00335667203363
0.00338943106665
0.00345464430731
0.00361801905769
0.00401553390377
0.00483367777664
0.00636315504589
0.0100192828311
0.0244630359993
0.0711432228095
0.00335278851748
0.00338532341698
0.00344619409945
0.00359535177603
0.00396797668209
0.00478102463008
0.00637954842701
0.0102041967618
0.0251415156718
0.0718103922301
)
;

boundaryField
{
    back
    {
        type            kqRWallFunction;
        value           nonuniform List<scalar> 
164
(
0.00332205356265
0.00333212141006
0.00334542757608
0.00336691316254
0.00341112614366
0.00351998919209
0.00382230984007
0.00476364322392
0.00773907323759
0.0152882957958
0.029138379032
0.0475315415124
0.00332568343647
0.00333590893133
0.00334916598033
0.00336996237269
0.00341188652709
0.00351433023142
0.00379482687444
0.00465099224422
0.00740065308682
0.014688160445
0.0282561192058
0.0462063788758
0.00335253543245
0.00337282111402
0.00341280227147
0.00350996238167
0.0037740238148
0.0045619610905
0.0070851311
0.014004673117
0.0273631866968
0.0459806469122
0.00335553512655
0.00337548472707
0.00341388081434
0.00350705726485
0.00376218269853
0.00451474994896
0.00686454350229
0.0133701538147
0.0268646208199
0.0497694632842
0.00335812603289
0.00337794970455
0.0034152364043
0.0035055874471
0.00375640552759
0.00449625436388
0.00672829152591
0.0127804162358
0.0266388799142
0.0690776432505
0.00336028690114
0.00338029011345
0.00341734076427
0.00350713608605
0.00375756584246
0.00448781481308
0.00660324182406
0.0120933304337
0.0249853214146
0.0738599897651
0.00336204317166
0.00338269223987
0.00342113438873
0.00351520331993
0.00377385760862
0.00449087627283
0.0064328174425
0.0110864518203
0.0204815960288
0.0538249264932
0.00336342076174
0.00338533511544
0.00342746928389
0.00353307671637
0.00381494107527
0.00452817708728
0.00628073158088
0.010298413861
0.0186736510117
0.0465797570058
0.00336442942304
0.00338822493349
0.00343613931116
0.00355965866257
0.00387873836747
0.00460909394985
0.00621637561352
0.00998915464494
0.0201353440033
0.0516083103029
0.00336496139359
0.00339093413885
0.00344513144468
0.00358710485712
0.00394586603214
0.00471177655237
0.00624574886491
0.00993715354662
0.0211359761621
0.0526664640755
0.003364783454
0.00339256809506
0.00345116787683
0.00360515647658
0.00399177254146
0.00479556003444
0.00631807712192
0.00990441422089
0.0215486238926
0.0610264172859
0.00336372023699
0.00339258963041
0.00345279339808
0.00361043986583
0.00400738290454
0.00483135729013
0.00634687742513
0.00985162112775
0.0231354788577
0.069016869398
0.00336191927429
0.00339182172797
0.00345315449082
0.00361231736597
0.00401113549122
0.00483503364304
0.00633283465667
0.00984022328822
0.0235276572633
0.06928139374
0.0033596230123
0.00339109752711
0.00345515494027
0.0036186070374
0.00402000787224
0.00484019429283
0.00633326102265
0.00985881499284
0.0236868105545
0.0693956992838
0.00335667203363
0.00338943106665
0.00345464430731
0.00361801905769
0.00401553390377
0.00483367777664
0.00636315504589
0.0100192828311
0.0244630359993
0.0711432228095
0.00335278851748
0.00338532341698
0.00344619409945
0.00359535177603
0.00396797668209
0.00478102463008
0.00637954842701
0.0102041967618
0.0251415156718
0.0718103922301
)
;
    }
    sides
    {
        type            kqRWallFunction;
        value           nonuniform List<scalar> 0();
    }
    bottom
    {
        type            kqRWallFunction;
        value           nonuniform List<scalar> 0();
    }
    front
    {
        type            kqRWallFunction;
        value           nonuniform List<scalar> 
164
(
0.00332205356265
0.00333212141006
0.00334542757608
0.00336691316254
0.00341112614366
0.00351998919209
0.00382230984007
0.00476364322392
0.00773907323759
0.0152882957958
0.029138379032
0.0475315415124
0.00332568343647
0.00333590893133
0.00334916598033
0.00336996237269
0.00341188652709
0.00351433023142
0.00379482687444
0.00465099224422
0.00740065308682
0.014688160445
0.0282561192058
0.0462063788758
0.00335253543245
0.00337282111402
0.00341280227147
0.00350996238167
0.0037740238148
0.0045619610905
0.0070851311
0.014004673117
0.0273631866968
0.0459806469122
0.00335553512655
0.00337548472707
0.00341388081434
0.00350705726485
0.00376218269853
0.00451474994896
0.00686454350229
0.0133701538147
0.0268646208199
0.0497694632842
0.00335812603289
0.00337794970455
0.0034152364043
0.0035055874471
0.00375640552759
0.00449625436388
0.00672829152591
0.0127804162358
0.0266388799142
0.0690776432505
0.00336028690114
0.00338029011345
0.00341734076427
0.00350713608605
0.00375756584246
0.00448781481308
0.00660324182406
0.0120933304337
0.0249853214146
0.0738599897651
0.00336204317166
0.00338269223987
0.00342113438873
0.00351520331993
0.00377385760862
0.00449087627283
0.0064328174425
0.0110864518203
0.0204815960288
0.0538249264932
0.00336342076174
0.00338533511544
0.00342746928389
0.00353307671637
0.00381494107527
0.00452817708728
0.00628073158088
0.010298413861
0.0186736510117
0.0465797570058
0.00336442942304
0.00338822493349
0.00343613931116
0.00355965866257
0.00387873836747
0.00460909394985
0.00621637561352
0.00998915464494
0.0201353440033
0.0516083103029
0.00336496139359
0.00339093413885
0.00344513144468
0.00358710485712
0.00394586603214
0.00471177655237
0.00624574886491
0.00993715354662
0.0211359761621
0.0526664640755
0.003364783454
0.00339256809506
0.00345116787683
0.00360515647658
0.00399177254146
0.00479556003444
0.00631807712192
0.00990441422089
0.0215486238926
0.0610264172859
0.00336372023699
0.00339258963041
0.00345279339808
0.00361043986583
0.00400738290454
0.00483135729013
0.00634687742513
0.00985162112775
0.0231354788577
0.069016869398
0.00336191927429
0.00339182172797
0.00345315449082
0.00361231736597
0.00401113549122
0.00483503364304
0.00633283465667
0.00984022328822
0.0235276572633
0.06928139374
0.0033596230123
0.00339109752711
0.00345515494027
0.0036186070374
0.00402000787224
0.00484019429283
0.00633326102265
0.00985881499284
0.0236868105545
0.0693956992838
0.00335667203363
0.00338943106665
0.00345464430731
0.00361801905769
0.00401553390377
0.00483367777664
0.00636315504589
0.0100192828311
0.0244630359993
0.0711432228095
0.00335278851748
0.00338532341698
0.00344619409945
0.00359535177603
0.00396797668209
0.00478102463008
0.00637954842701
0.0102041967618
0.0251415156718
0.0718103922301
)
;
    }
    atmosphere
    {
        type            inletOutlet;
        inletValue      uniform 0.1;
        value           nonuniform List<scalar> 
16
(
0.0475315415124
0.0462063788758
0.0459806469122
0.0497694632842
0.1
0.1
0.0538249264932
0.1
0.0516083103029
0.1
0.1
0.1
0.1
0.1
0.1
0.1
)
;
    }
    floatingObject
    {
        type            kqRWallFunction;
        value           nonuniform List<scalar> 0();
    }
    procBoundary5to0
    {
        type            processor;
        value           nonuniform List<scalar> 
12
(
0.00331798719477
0.00332797179232
0.00334143579774
0.00336376528612
0.00341047246766
0.00352592639815
0.00384917151675
0.00486593021045
0.00801865427899
0.0157522589138
0.0299965221437
0.0497548923006
)
;
    }
    procBoundary5to3
    {
        type            processor;
        value           nonuniform List<scalar> 10(0.00334837557962 0.00338021122771 0.00343467311646 0.00356400269768 0.00390318332936 0.00471240389888 0.00643283572462 0.0107032354675 0.0265817953028 0.0725785118349);
    }
    procBoundary5to4
    {
        type            processor;
        value           nonuniform List<scalar> 
18
(
0.00331359317265
0.00331701484891
0.00332879168332
0.00333923215136
0.00333923215136
0.00334209508161
0.0033444378972
0.00334623030109
0.00334746125066
0.00334812212302
0.00334819983496
0.00334764245991
0.00334636931402
0.00334431921477
0.00334148984414
0.0033379476261
0.00333372254643
0.00332877812195
)
;
    }
}


// ************************************************************************* //
