/*--------------------------------*- C++ -*----------------------------------*\
| =========                 |                                                 |
| \\      /  F ield         | OpenFOAM: The Open Source CFD Toolbox           |
|  \\    /   O peration     | Version:  v2012                                 |
|   \\  /    A nd           | Website:  www.openfoam.com                      |
|    \\/     M anipulation  |                                                 |
\*---------------------------------------------------------------------------*/
FoamFile
{
    version     2.0;
    format      ascii;
    class       volScalarField;
    location    "3.7";
    object      p_rgh;
}
// * * * * * * * * * * * * * * * * * * * * * * * * * * * * * * * * * * * * * //

dimensions      [1 -1 -2 0 0 0 0];


internalField   nonuniform List<scalar> 
164
(
8630.7764056
8628.84240321
8626.48728245
8623.62256655
8620.12864648
8615.84992393
8610.59982871
8604.24242256
8595.91748641
4813.33240804
52.5548246235
0.0259214831011
8641.1710458
8639.75407941
8638.01719734
8635.88102643
8633.24853711
8629.99455107
8625.98175571
8621.11309363
8614.92351405
5147.15925362
103.841598472
0.0640908972045
8649.92373371
8648.62014326
8646.95885319
8644.86312893
8642.23877792
8639.01994842
8634.9894763
5483.0373462
169.353080132
0.0502555225309
8662.1152835
8661.69290919
8661.08057287
8660.23015059
8659.08716243
8657.58391296
8655.56637527
5821.54901851
254.322268502
-0.0664904168345
8674.45691954
8674.9398975
8675.41138066
8675.85611655
8676.26313838
8676.61386322
8676.91493988
6152.6757578
361.848704886
-0.225587030326
8686.75380537
8688.14865228
8689.71206634
8691.46005209
8693.42289584
8695.60021587
8697.89267467
6461.7815603
491.787793832
-0.432306100952
8698.86707038
8701.14055481
8703.76032617
8706.77964333
8710.29709273
8714.41838108
8719.18448472
6735.59710318
698.355637759
3.09582992575
8710.64462823
8713.74364774
8717.3288963
8721.52346299
8726.50987108
8732.59707014
8740.25920682
6990.56259471
932.620547754
-0.550838965927
8721.95992062
8725.77928935
8730.20256431
8735.40777592
8741.62632187
8749.29858505
8759.27868428
7232.80960868
1158.56294366
-0.100881824075
8732.70540576
8737.12471753
8742.24121867
8748.20691517
8755.27331027
8763.83956863
8774.84826774
7427.20320316
1307.86401854
0.00536876962481
8742.82043307
8747.7361196
8753.37282042
8759.85508414
8767.36313038
8776.11384828
8786.51826845
7565.66626963
1426.74776135
-0.0460861152075
8752.28175669
8757.58873361
8763.60624071
8770.42167667
8778.14800097
8786.84112669
8795.91670135
7668.08935974
1505.88571299
-0.0801588086754
8761.07901774
8766.69730092
8772.99087304
8780.02531063
8787.89942431
8796.90844066
8805.93028282
7772.3932688
1551.52932944
-0.0946624426359
8769.21201286
8775.09175281
8781.58681479
8788.71098248
8796.4839521
8805.03952714
8813.97932206
7843.38962574
1578.05404993
-0.0775724972177
8776.72137272
8782.83750477
8789.50160797
8796.66186115
8804.35110475
8812.55224648
8820.75257943
7886.11113606
1614.35696695
-0.0691897077702
8783.6472815
8789.97883857
8796.80910074
8804.08916233
8811.73175504
8819.70701567
8827.47099528
7931.51588959
1670.51399725
-0.0727280432027
)
;

boundaryField
{
    back
    {
        type            fixedFluxPressure;
        gradient        uniform 0;
        value           nonuniform List<scalar> 
164
(
8630.7764056
8628.84240321
8626.48728245
8623.62256655
8620.12864648
8615.84992393
8610.59982871
8604.24242256
8595.91748641
4813.33240804
52.5548246235
0.0259214831011
8641.1710458
8639.75407941
8638.01719734
8635.88102643
8633.24853711
8629.99455107
8625.98175571
8621.11309363
8614.92351405
5147.15925362
103.841598472
0.0640908972045
8649.92373371
8648.62014326
8646.95885319
8644.86312893
8642.23877792
8639.01994842
8634.9894763
5483.0373462
169.353080132
0.0502555225309
8662.1152835
8661.69290919
8661.08057287
8660.23015059
8659.08716243
8657.58391296
8655.56637527
5821.54901851
254.322268502
-0.0664904168345
8674.45691954
8674.9398975
8675.41138066
8675.85611655
8676.26313838
8676.61386322
8676.91493988
6152.6757578
361.848704886
-0.225587030326
8686.75380537
8688.14865228
8689.71206634
8691.46005209
8693.42289584
8695.60021587
8697.89267467
6461.7815603
491.787793832
-0.432306100952
8698.86707038
8701.14055481
8703.76032617
8706.77964333
8710.29709273
8714.41838108
8719.18448472
6735.59710318
698.355637759
3.09582992575
8710.64462823
8713.74364774
8717.3288963
8721.52346299
8726.50987108
8732.59707014
8740.25920682
6990.56259471
932.620547754
-0.550838965927
8721.95992062
8725.77928935
8730.20256431
8735.40777592
8741.62632187
8749.29858505
8759.27868428
7232.80960868
1158.56294366
-0.100881824075
8732.70540576
8737.12471753
8742.24121867
8748.20691517
8755.27331027
8763.83956863
8774.84826774
7427.20320316
1307.86401854
0.00536876962481
8742.82043307
8747.7361196
8753.37282042
8759.85508414
8767.36313038
8776.11384828
8786.51826845
7565.66626963
1426.74776135
-0.0460861152075
8752.28175669
8757.58873361
8763.60624071
8770.42167667
8778.14800097
8786.84112669
8795.91670135
7668.08935974
1505.88571299
-0.0801588086754
8761.07901774
8766.69730092
8772.99087304
8780.02531063
8787.89942431
8796.90844066
8805.93028282
7772.3932688
1551.52932944
-0.0946624426359
8769.21201286
8775.09175281
8781.58681479
8788.71098248
8796.4839521
8805.03952714
8813.97932206
7843.38962574
1578.05404993
-0.0775724972177
8776.72137272
8782.83750477
8789.50160797
8796.66186115
8804.35110475
8812.55224648
8820.75257943
7886.11113606
1614.35696695
-0.0691897077702
8783.6472815
8789.97883857
8796.80910074
8804.08916233
8811.73175504
8819.70701567
8827.47099528
7931.51588959
1670.51399725
-0.0727280432027
)
;
    }
    sides
    {
        type            fixedFluxPressure;
        gradient        nonuniform List<scalar> 0();
        value           nonuniform List<scalar> 0();
    }
    bottom
    {
        type            fixedFluxPressure;
        gradient        nonuniform List<scalar> 0();
        value           nonuniform List<scalar> 0();
    }
    front
    {
        type            fixedFluxPressure;
        gradient        uniform 0;
        value           nonuniform List<scalar> 
164
(
8630.7764056
8628.84240321
8626.48728245
8623.62256655
8620.12864648
8615.84992393
8610.59982871
8604.24242256
8595.91748641
4813.33240804
52.5548246235
0.0259214831011
8641.1710458
8639.75407941
8638.01719734
8635.88102643
8633.24853711
8629.99455107
8625.98175571
8621.11309363
8614.92351405
5147.15925362
103.841598472
0.0640908972045
8649.92373371
8648.62014326
8646.95885319
8644.86312893
8642.23877792
8639.01994842
8634.9894763
5483.0373462
169.353080132
0.0502555225309
8662.1152835
8661.69290919
8661.08057287
8660.23015059
8659.08716243
8657.58391296
8655.56637527
5821.54901851
254.322268502
-0.0664904168345
8674.45691954
8674.9398975
8675.41138066
8675.85611655
8676.26313838
8676.61386322
8676.91493988
6152.6757578
361.848704886
-0.225587030326
8686.75380537
8688.14865228
8689.71206634
8691.46005209
8693.42289584
8695.60021587
8697.89267467
6461.7815603
491.787793832
-0.432306100952
8698.86707038
8701.14055481
8703.76032617
8706.77964333
8710.29709273
8714.41838108
8719.18448472
6735.59710318
698.355637759
3.09582992575
8710.64462823
8713.74364774
8717.3288963
8721.52346299
8726.50987108
8732.59707014
8740.25920682
6990.56259471
932.620547754
-0.550838965927
8721.95992062
8725.77928935
8730.20256431
8735.40777592
8741.62632187
8749.29858505
8759.27868428
7232.80960868
1158.56294366
-0.100881824075
8732.70540576
8737.12471753
8742.24121867
8748.20691517
8755.27331027
8763.83956863
8774.84826774
7427.20320316
1307.86401854
0.00536876962481
8742.82043307
8747.7361196
8753.37282042
8759.85508414
8767.36313038
8776.11384828
8786.51826845
7565.66626963
1426.74776135
-0.0460861152075
8752.28175669
8757.58873361
8763.60624071
8770.42167667
8778.14800097
8786.84112669
8795.91670135
7668.08935974
1505.88571299
-0.0801588086754
8761.07901774
8766.69730092
8772.99087304
8780.02531063
8787.89942431
8796.90844066
8805.93028282
7772.3932688
1551.52932944
-0.0946624426359
8769.21201286
8775.09175281
8781.58681479
8788.71098248
8796.4839521
8805.03952714
8813.97932206
7843.38962574
1578.05404993
-0.0775724972177
8776.72137272
8782.83750477
8789.50160797
8796.66186115
8804.35110475
8812.55224648
8820.75257943
7886.11113606
1614.35696695
-0.0691897077702
8783.6472815
8789.97883857
8796.80910074
8804.08916233
8811.73175504
8819.70701567
8827.47099528
7931.51588959
1670.51399725
-0.0727280432027
)
;
    }
    atmosphere
    {
        type            totalPressure;
        rho             rho;
        psi             none;
        gamma           1;
        p0              uniform 0;
        value           nonuniform List<scalar> 
16
(
0
0
-7.94939940868e-05
-0.000226917170081
-0.000285750201179
0
0
0
-0.00256463793894
-5.02471765099e-05
-0.000586912956853
-0.00184870663189
-0.00236737425742
-0.00216791855832
-0.00174545382359
-0.00193823448232
)
;
    }
    floatingObject
    {
        type            fixedFluxPressure;
        gradient        nonuniform List<scalar> 0();
        value           nonuniform List<scalar> 0();
    }
    procBoundary5to0
    {
        type            processor;
        value           nonuniform List<scalar> 
12
(
8620.73932883
8618.37388801
8615.51398504
8612.05354398
8607.85823144
8602.74391741
8596.49127544
8588.86051387
8578.83507169
4512.32933807
23.5893023999
-0.00953917798787
)
;
    }
    procBoundary5to3
    {
        type            processor;
        value           nonuniform List<scalar> 10(8790.01485603 8796.65545201 8803.7537235 8811.21818482 8818.94323183 8826.96055327 8834.59002428 8020.50366144 1704.77892088 -0.0637508526167);
    }
    procBoundary5to4
    {
        type            processor;
        value           nonuniform List<scalar> 
18
(
8632.35481333
8642.31659943
8651.82830451
8650.9789329
8650.9789329
8662.44673385
8674.02136713
8685.55135194
8696.91843218
8708.00017647
8718.68504911
8728.88572669
8738.5400402
8747.6141202
8756.08623665
8763.94830266
8771.20324745
8777.8601379
)
;
    }
}


// ************************************************************************* //
