/*--------------------------------*- C++ -*----------------------------------*\
| =========                 |                                                 |
| \\      /  F ield         | OpenFOAM: The Open Source CFD Toolbox           |
|  \\    /   O peration     | Version:  v2012                                 |
|   \\  /    A nd           | Website:  www.openfoam.com                      |
|    \\/     M anipulation  |                                                 |
\*---------------------------------------------------------------------------*/
FoamFile
{
    version     2.0;
    format      ascii;
    class       surfaceScalarField;
    location    "3.7";
    object      phi;
}
// * * * * * * * * * * * * * * * * * * * * * * * * * * * * * * * * * * * * * //

dimensions      [0 3 -1 0 0 0 0];
oriented        oriented;


internalField   nonuniform List<scalar> 
300
(
8.21133043803e-05
7.56032736183e-06
9.70014322735e-05
8.85426857156e-06
0.000114124262356
1.05743296513e-05
0.00013395467997
1.28172397783e-05
0.00015690532202
1.56386680527e-05
0.000183523382484
1.91576843267e-05
0.00021412027398
2.47436551806e-05
0.000248858155319
3.6458976686e-05
0.000288742847711
5.60687952943e-05
0.000333767942283
6.05001493999e-05
0.000447389771469
-0.000294323609005
0.000214157001009
8.34838810235e-05
9.88119476636e-05
0.000116535519259
-7.20613935386e-06
0.000137139645662
-7.84875174334e-06
0.000161124581068
-8.41474812735e-06
0.00018908744371
-8.87581264352e-06
0.000221553342145
-7.78551034395e-06
0.000258642325333
-6.72051511263e-07
0.000300618020156
1.40782370525e-05
0.000341805065477
1.9300331989e-05
0.000469902140573
-0.000422461471277
-0.000171298828901
0.000116100004037
-2.51241191076e-05
0.000136935978129
-2.87453031348e-05
0.000161313832701
-3.2855242116e-05
0.000189754743237
-3.73778172144e-05
0.000222789470798
-4.08725822774e-05
0.000260667879829
-3.85843911909e-05
0.000303012624927
-2.82783186359e-05
0.000336657146542
-1.43502223497e-05
0.000348242695282
-0.000434064683439
-0.000106017681514
0.000112711544398
-4.26608019439e-05
0.00013324898992
-4.9336719095e-05
0.000157421193962
-5.70806060788e-05
0.000185699113524
-6.57051123238e-05
0.000218202457729
-7.34164507505e-05
0.000255605797518
-7.60132158766e-05
0.000296450923019
-6.91320853815e-05
0.000330122033829
-4.80236422327e-05
0.000390173039696
-0.000494125178929
0.000247013934736
0.000106314458412
-5.92997534941e-05
0.000125879765515
-6.8943729208e-05
0.000149163975235
-8.04044384599e-05
0.000176805062005
-9.33814793155e-05
0.0002086195542
-0.000105258742212
0.000242812255793
-0.000110222824803
0.00028000452064
-0.000106329904612
0.000311673597769
-7.96939372223e-05
0.000360770104231
-0.000543222753033
0.00106804425582
9.68423302467e-05
-7.44222427965e-05
0.00011473056256
-8.68581176557e-05
0.000136195165041
-0.00010189314456
0.000161862172587
-0.000119069054094
0.000191073657239
-0.000134485710363
0.000220848854434
-0.000140006955911
0.000251440171873
-0.000136923875704
0.000290606844936
-0.000118861190136
0.00029715025379
-0.000549768156948
0.0023385001803
8.43544618786e-05
-8.73650975254e-05
9.96977118484e-05
-0.00010221188314
0.000118032965326
-0.000120237703553
0.000140062549854
-0.00014110596776
0.000164586046533
-0.000159014092538
0.000188134290519
-0.000163557396682
0.000211072184115
-0.000159861874978
0.000259567273668
-0.000167355991634
0.000513926277226
-0.000804142602301
-0.002504411673
6.94054889608e-05
-9.74354243206e-05
8.1170742662e-05
-0.000113974486346
9.50853449097e-05
-0.000134149562168
0.000111159546085
-0.000157177059609
0.000128891445099
-0.000176742704998
0.000147180388748
-0.000181843268132
0.00016872917752
-0.000181408607525
0.000219887922116
-0.000218514274067
0.000325714443789
-0.000909951107941
-0.000937351953582
5.27403538847e-05
-0.000104324127206
6.0255548375e-05
-0.000121477649672
6.8369892623e-05
-0.000142252696287
7.69646702704e-05
-0.000165761488798
8.63271982181e-05
-0.000186096240966
9.95903322415e-05
-0.000195099533655
0.000119491166525
-0.000201305723404
0.000141647705219
-0.000240669691381
0.000157446596056
-0.000925749236232
-0.000781879326047
3.51921879636e-05
-0.000107847566305
3.83056972381e-05
-0.000124573680597
4.05622805606e-05
-0.000144493134901
4.14069437437e-05
-0.000166591532174
4.26219012583e-05
-0.000187298766259
5.04137114767e-05
-0.000202882142527
7.11696918813e-05
-0.000222056955198
9.02507821439e-05
-0.000259749511567
5.66687741752e-05
-0.000892168142644
-0.000685884521149
1.81248090844e-05
-0.000108296485863
1.75342005085e-05
-0.000123963649313
1.49664305723e-05
-0.000141907378856
9.45517978105e-06
-0.00016106401887
4.3649155069e-06
-0.000182194739203
5.65332920317e-06
-0.000204160510851
1.88727258615e-05
-0.000235271330185
2.24739627512e-05
-0.000263349391772
-4.42299622379e-05
-0.000825465470141
-0.000597458534843
2.90469435077e-06
-0.000106806947316
-3.64273907809e-07
-0.000120676258173
-6.13532505573e-06
-0.000136119187218
-1.42018415269e-05
-0.000152981985323
-2.34149747066e-05
-0.000172968530566
-2.80138068551e-05
-0.000199552253119
-2.13086012805e-05
-0.00024197196327
-3.60609564166e-05
-0.000248595860071
-0.000181086347111
-0.000680440875412
-0.000523798984787
-1.07996509946e-05
-0.00010336567085
-1.57385334725e-05
-0.000115722365557
-2.31172439706e-05
-0.000128726507841
-3.25656968077e-05
-0.000143520931077
-4.45375835613e-05
-0.000160986085756
-5.54769326301e-05
-0.000188605377976
-7.12889356581e-05
-0.000226156418402
-0.000107263018388
-0.000212620914594
-0.000247556391638
-0.000540145648378
-0.000457728422888
-2.31637144342e-05
-9.859371733e-05
-2.95115000321e-05
-0.000109365565615
-3.80895856581e-05
-0.000120140254787
-4.91467459341e-05
-0.000132456277229
-6.31785517485e-05
-0.000146947884878
-8.05757921773e-05
-0.000171203129451
-0.000104725532089
-0.00020200424923
-0.000144278389766
-0.000173067403521
-0.000244941412798
-0.00043948230122
-0.000388352600583
-3.37004086705e-05
-9.29352072321e-05
-4.08369234206e-05
-0.00010222762357
-4.95443031183e-05
-0.000111431274251
-6.14173230763e-05
-0.000120581694028
-7.56427476818e-05
-0.000132719469861
-9.06999850056e-05
-0.00015614324924
-0.000117177944627
-0.000175524423827
-0.000150318422206
-0.000139926384732
-0.000218647466074
-0.000371152112443
-0.000309871593563
-4.22779700855e-05
-4.88672953569e-05
-5.58275501921e-05
-6.55510455027e-05
-7.847003957e-05
-9.39170205023e-05
-0.000114467589631
-0.000148396525566
-0.000240998762868
)
;

boundaryField
{
    back
    {
        type            calculated;
        value           uniform 0;
    }
    sides
    {
        type            calculated;
        value           nonuniform List<scalar> 0();
    }
    bottom
    {
        type            calculated;
        value           nonuniform List<scalar> 0();
    }
    front
    {
        type            calculated;
        value           uniform 0;
    }
    atmosphere
    {
        type            calculated;
        value           nonuniform List<scalar> 
16
(
0.000410821024245
0.00085529878536
0.000282955024614
3.71338804277e-05
-0.000460267894916
-0.000973321108602
0.0053568911814
-0.00124139419136
1.98522722838e-06
-3.93220140437e-05
-0.000132651355951
-0.000254742362505
-0.000313626400821
-0.000314313124559
-0.000297122977711
-0.000299196783642
)
;
    }
    floatingObject
    {
        type            calculated;
        value           nonuniform List<scalar> 0();
    }
    procBoundary5to0
    {
        type            processor;
        value           nonuniform List<scalar> 
12
(
-2.05945117672e-05
-2.37847511055e-05
-2.77592881445e-05
-3.27319270633e-05
-3.86946935731e-05
-4.58941279642e-05
-5.54552561855e-05
-7.12815129776e-05
-9.59884368389e-05
-0.000105562310571
0.000180490501629
-0.000177862179617
)
;
    }
    procBoundary5to3
    {
        type            processor;
        value           nonuniform List<scalar> 10(-8.71008133214e-05 -9.5641964818e-05 -0.000104474753322 -0.000110859637533 -0.000119800419873 -0.000140694205624 -0.000154972337893 -0.000105996782683 -0.000278547201376 -0.000251668702637);
    }
    procBoundary5to4
    {
        type            processor;
        value           nonuniform List<scalar> 
18
(
-6.91009005047e-05
-7.01328519214e-05
-5.82784295523e-06
-6.52332154605e-06
-9.8268912154e-05
-9.52563328584e-05
-8.97410300167e-05
-8.17623072272e-05
-7.14293344785e-05
-5.9331272141e-05
-4.58320381074e-05
-3.16399690416e-05
-1.76438683388e-05
-4.36389385713e-06
7.38312173604e-06
1.84074795836e-05
2.80466783832e-05
3.64394081931e-05
)
;
    }
}


// ************************************************************************* //
