/*--------------------------------*- C++ -*----------------------------------*\
| =========                 |                                                 |
| \\      /  F ield         | OpenFOAM: The Open Source CFD Toolbox           |
|  \\    /   O peration     | Version:  v2012                                 |
|   \\  /    A nd           | Website:  www.openfoam.com                      |
|    \\/     M anipulation  |                                                 |
\*---------------------------------------------------------------------------*/
FoamFile
{
    version     2.0;
    format      ascii;
    class       volScalarField;
    location    "5";
    object      rAU;
}
// * * * * * * * * * * * * * * * * * * * * * * * * * * * * * * * * * * * * * //

dimensions      [-1 3 1 0 0 0 0];


internalField   nonuniform List<scalar> 
164
(
2.20218096754e-05
2.18785016985e-05
2.18512908233e-05
2.18501951223e-05
2.18502954855e-05
2.18510995674e-05
2.18519268919e-05
2.18521995729e-05
2.20277613532e-05
2.18841102716e-05
2.18556765869e-05
2.1853467812e-05
2.1852711905e-05
2.18517195073e-05
2.18511201718e-05
2.18504635563e-05
2.2032818913e-05
2.18887069037e-05
2.18592019043e-05
2.18560904223e-05
2.18546949616e-05
2.18533518224e-05
2.18522082983e-05
2.18512458449e-05
2.18500717759e-05
2.18485496479e-05
2.20368491502e-05
2.18924265262e-05
2.18621869386e-05
2.18586064962e-05
2.18565479702e-05
2.18552338382e-05
2.1854239289e-05
2.18532383204e-05
2.18517950464e-05
2.18494649679e-05
2.20399533289e-05
2.18955007681e-05
2.18649465974e-05
2.18610333111e-05
2.18586967908e-05
2.18570727553e-05
2.18559353675e-05
2.18548047052e-05
2.18531446378e-05
2.18507126411e-05
2.20424252114e-05
2.18981755485e-05
2.1867419927e-05
2.18630568005e-05
2.18606818323e-05
2.18590602165e-05
2.18580155587e-05
2.1856965804e-05
2.18555910972e-05
2.18535258566e-05
2.20442095198e-05
2.1900383336e-05
2.18693798682e-05
2.18648681552e-05
2.18624070954e-05
2.18608631269e-05
2.18599872208e-05
2.18593924803e-05
2.18585990442e-05
2.18570830164e-05
2.20456558852e-05
2.19022139372e-05
2.18711007079e-05
2.18665622957e-05
2.1863983964e-05
2.18624995907e-05
2.18618466182e-05
2.18617159808e-05
2.18616204893e-05
2.18612182628e-05
2.20470755853e-05
2.19037175813e-05
2.18726557057e-05
2.18679061826e-05
2.18653433273e-05
2.18640199123e-05
2.18636167055e-05
2.18636301688e-05
2.18640347956e-05
2.18646241031e-05
2.20482302306e-05
2.19049609876e-05
2.18739908579e-05
2.18690512009e-05
2.1866520155e-05
2.18652977959e-05
2.18648547644e-05
2.18647654561e-05
2.18651099714e-05
2.18662533116e-05
2.20491256344e-05
2.19060770102e-05
2.1875237513e-05
2.18701860194e-05
2.18675077544e-05
2.18661280185e-05
2.1865436472e-05
2.1865191153e-05
2.18653142326e-05
2.18661072463e-05
2.20498255881e-05
2.19070394344e-05
2.18762577285e-05
2.18710101122e-05
2.1868172067e-05
2.18665559714e-05
2.18657515323e-05
2.18654179719e-05
2.18651899181e-05
2.18645782732e-05
2.2050424079e-05
2.19078130942e-05
2.18770843305e-05
2.18714964694e-05
2.18685869862e-05
2.18669691547e-05
2.18661521138e-05
2.18655533629e-05
2.18649807036e-05
2.18637887133e-05
2.20509780999e-05
2.19085423703e-05
2.1877902044e-05
2.18720334578e-05
2.18690615756e-05
2.18673694374e-05
2.18662600338e-05
2.18656106483e-05
2.18649221408e-05
2.18637469553e-05
2.20513970641e-05
2.19092580555e-05
2.18787762389e-05
2.18726620602e-05
2.18695376349e-05
2.18676867538e-05
2.18665772717e-05
2.18657360348e-05
2.18651152505e-05
2.1863413538e-05
2.20516641456e-05
2.190984214e-05
2.18796147767e-05
2.18732402928e-05
2.18699981293e-05
2.18678896326e-05
2.18666885059e-05
2.18663473135e-05
2.18666622106e-05
2.18639499683e-05
2.20517160459e-05
2.19103513141e-05
2.18804066648e-05
2.18737441238e-05
2.18702798464e-05
2.18679892663e-05
2.18665189942e-05
2.1870536246e-05
)
;

boundaryField
{
    back
    {
        type            calculated;
        value           nonuniform List<scalar> 
164
(
2.20218096754e-05
2.18785016985e-05
2.18512908233e-05
2.18501951223e-05
2.18502954855e-05
2.18510995674e-05
2.18519268919e-05
2.18521995729e-05
2.20277613532e-05
2.18841102716e-05
2.18556765869e-05
2.1853467812e-05
2.1852711905e-05
2.18517195073e-05
2.18511201718e-05
2.18504635563e-05
2.2032818913e-05
2.18887069037e-05
2.18592019043e-05
2.18560904223e-05
2.18546949616e-05
2.18533518224e-05
2.18522082983e-05
2.18512458449e-05
2.18500717759e-05
2.18485496479e-05
2.20368491502e-05
2.18924265262e-05
2.18621869386e-05
2.18586064962e-05
2.18565479702e-05
2.18552338382e-05
2.1854239289e-05
2.18532383204e-05
2.18517950464e-05
2.18494649679e-05
2.20399533289e-05
2.18955007681e-05
2.18649465974e-05
2.18610333111e-05
2.18586967908e-05
2.18570727553e-05
2.18559353675e-05
2.18548047052e-05
2.18531446378e-05
2.18507126411e-05
2.20424252114e-05
2.18981755485e-05
2.1867419927e-05
2.18630568005e-05
2.18606818323e-05
2.18590602165e-05
2.18580155587e-05
2.1856965804e-05
2.18555910972e-05
2.18535258566e-05
2.20442095198e-05
2.1900383336e-05
2.18693798682e-05
2.18648681552e-05
2.18624070954e-05
2.18608631269e-05
2.18599872208e-05
2.18593924803e-05
2.18585990442e-05
2.18570830164e-05
2.20456558852e-05
2.19022139372e-05
2.18711007079e-05
2.18665622957e-05
2.1863983964e-05
2.18624995907e-05
2.18618466182e-05
2.18617159808e-05
2.18616204893e-05
2.18612182628e-05
2.20470755853e-05
2.19037175813e-05
2.18726557057e-05
2.18679061826e-05
2.18653433273e-05
2.18640199123e-05
2.18636167055e-05
2.18636301688e-05
2.18640347956e-05
2.18646241031e-05
2.20482302306e-05
2.19049609876e-05
2.18739908579e-05
2.18690512009e-05
2.1866520155e-05
2.18652977959e-05
2.18648547644e-05
2.18647654561e-05
2.18651099714e-05
2.18662533116e-05
2.20491256344e-05
2.19060770102e-05
2.1875237513e-05
2.18701860194e-05
2.18675077544e-05
2.18661280185e-05
2.1865436472e-05
2.1865191153e-05
2.18653142326e-05
2.18661072463e-05
2.20498255881e-05
2.19070394344e-05
2.18762577285e-05
2.18710101122e-05
2.1868172067e-05
2.18665559714e-05
2.18657515323e-05
2.18654179719e-05
2.18651899181e-05
2.18645782732e-05
2.2050424079e-05
2.19078130942e-05
2.18770843305e-05
2.18714964694e-05
2.18685869862e-05
2.18669691547e-05
2.18661521138e-05
2.18655533629e-05
2.18649807036e-05
2.18637887133e-05
2.20509780999e-05
2.19085423703e-05
2.1877902044e-05
2.18720334578e-05
2.18690615756e-05
2.18673694374e-05
2.18662600338e-05
2.18656106483e-05
2.18649221408e-05
2.18637469553e-05
2.20513970641e-05
2.19092580555e-05
2.18787762389e-05
2.18726620602e-05
2.18695376349e-05
2.18676867538e-05
2.18665772717e-05
2.18657360348e-05
2.18651152505e-05
2.1863413538e-05
2.20516641456e-05
2.190984214e-05
2.18796147767e-05
2.18732402928e-05
2.18699981293e-05
2.18678896326e-05
2.18666885059e-05
2.18663473135e-05
2.18666622106e-05
2.18639499683e-05
2.20517160459e-05
2.19103513141e-05
2.18804066648e-05
2.18737441238e-05
2.18702798464e-05
2.18679892663e-05
2.18665189942e-05
2.1870536246e-05
)
;
    }
    sides
    {
        type            calculated;
        value           nonuniform List<scalar> 0();
    }
    bottom
    {
        type            calculated;
        value           nonuniform List<scalar> 
17
(
2.20218096754e-05
2.20277613532e-05
2.2032818913e-05
2.20368491502e-05
2.20399533289e-05
2.20424252114e-05
2.20442095198e-05
2.20456558852e-05
2.20470755853e-05
2.20482302306e-05
2.20491256344e-05
2.20498255881e-05
2.2050424079e-05
2.20509780999e-05
2.20513970641e-05
2.20516641456e-05
2.20517160459e-05
)
;
    }
    front
    {
        type            calculated;
        value           nonuniform List<scalar> 
164
(
2.20218096754e-05
2.18785016985e-05
2.18512908233e-05
2.18501951223e-05
2.18502954855e-05
2.18510995674e-05
2.18519268919e-05
2.18521995729e-05
2.20277613532e-05
2.18841102716e-05
2.18556765869e-05
2.1853467812e-05
2.1852711905e-05
2.18517195073e-05
2.18511201718e-05
2.18504635563e-05
2.2032818913e-05
2.18887069037e-05
2.18592019043e-05
2.18560904223e-05
2.18546949616e-05
2.18533518224e-05
2.18522082983e-05
2.18512458449e-05
2.18500717759e-05
2.18485496479e-05
2.20368491502e-05
2.18924265262e-05
2.18621869386e-05
2.18586064962e-05
2.18565479702e-05
2.18552338382e-05
2.1854239289e-05
2.18532383204e-05
2.18517950464e-05
2.18494649679e-05
2.20399533289e-05
2.18955007681e-05
2.18649465974e-05
2.18610333111e-05
2.18586967908e-05
2.18570727553e-05
2.18559353675e-05
2.18548047052e-05
2.18531446378e-05
2.18507126411e-05
2.20424252114e-05
2.18981755485e-05
2.1867419927e-05
2.18630568005e-05
2.18606818323e-05
2.18590602165e-05
2.18580155587e-05
2.1856965804e-05
2.18555910972e-05
2.18535258566e-05
2.20442095198e-05
2.1900383336e-05
2.18693798682e-05
2.18648681552e-05
2.18624070954e-05
2.18608631269e-05
2.18599872208e-05
2.18593924803e-05
2.18585990442e-05
2.18570830164e-05
2.20456558852e-05
2.19022139372e-05
2.18711007079e-05
2.18665622957e-05
2.1863983964e-05
2.18624995907e-05
2.18618466182e-05
2.18617159808e-05
2.18616204893e-05
2.18612182628e-05
2.20470755853e-05
2.19037175813e-05
2.18726557057e-05
2.18679061826e-05
2.18653433273e-05
2.18640199123e-05
2.18636167055e-05
2.18636301688e-05
2.18640347956e-05
2.18646241031e-05
2.20482302306e-05
2.19049609876e-05
2.18739908579e-05
2.18690512009e-05
2.1866520155e-05
2.18652977959e-05
2.18648547644e-05
2.18647654561e-05
2.18651099714e-05
2.18662533116e-05
2.20491256344e-05
2.19060770102e-05
2.1875237513e-05
2.18701860194e-05
2.18675077544e-05
2.18661280185e-05
2.1865436472e-05
2.1865191153e-05
2.18653142326e-05
2.18661072463e-05
2.20498255881e-05
2.19070394344e-05
2.18762577285e-05
2.18710101122e-05
2.1868172067e-05
2.18665559714e-05
2.18657515323e-05
2.18654179719e-05
2.18651899181e-05
2.18645782732e-05
2.2050424079e-05
2.19078130942e-05
2.18770843305e-05
2.18714964694e-05
2.18685869862e-05
2.18669691547e-05
2.18661521138e-05
2.18655533629e-05
2.18649807036e-05
2.18637887133e-05
2.20509780999e-05
2.19085423703e-05
2.1877902044e-05
2.18720334578e-05
2.18690615756e-05
2.18673694374e-05
2.18662600338e-05
2.18656106483e-05
2.18649221408e-05
2.18637469553e-05
2.20513970641e-05
2.19092580555e-05
2.18787762389e-05
2.18726620602e-05
2.18695376349e-05
2.18676867538e-05
2.18665772717e-05
2.18657360348e-05
2.18651152505e-05
2.1863413538e-05
2.20516641456e-05
2.190984214e-05
2.18796147767e-05
2.18732402928e-05
2.18699981293e-05
2.18678896326e-05
2.18666885059e-05
2.18663473135e-05
2.18666622106e-05
2.18639499683e-05
2.20517160459e-05
2.19103513141e-05
2.18804066648e-05
2.18737441238e-05
2.18702798464e-05
2.18679892663e-05
2.18665189942e-05
2.1870536246e-05
)
;
    }
    atmosphere
    {
        type            calculated;
        value           nonuniform List<scalar> 0();
    }
    floatingObject
    {
        type            calculated;
        value           nonuniform List<scalar> 0();
    }
    procBoundary4to0
    {
        type            processor;
        value           nonuniform List<scalar> 8(2.20144784941e-05 2.18715796629e-05 2.18461735507e-05 2.1846838663e-05 2.18483462391e-05 2.18500325348e-05 2.18512932284e-05 2.18524603234e-05);
    }
    procBoundary4to3
    {
        type            processor;
        value           nonuniform List<scalar> 
13
(
2.1867297815e-05
2.18706913985e-05
2.18675967653e-05
2.2051685246e-05
2.19108405581e-05
2.18812533708e-05
2.18742237975e-05
2.1868098806e-05
2.1867297815e-05
2.18664732218e-05
2.18742237975e-05
2.1868098806e-05
2.18709193779e-05
)
;
    }
    procBoundary4to5
    {
        type            processor;
        value           nonuniform List<scalar> 
18
(
2.18519242244e-05
2.18497155586e-05
2.18497155586e-05
2.18483388381e-05
2.18460695711e-05
2.18461529976e-05
2.1846956911e-05
2.1850236882e-05
2.18548775037e-05
2.18605283699e-05
2.18657443109e-05
2.18690190427e-05
2.18674757354e-05
2.18631966011e-05
2.18614287412e-05
2.186138946e-05
2.18592351958e-05
2.18553149588e-05
)
;
    }
}


// ************************************************************************* //
