/*--------------------------------*- C++ -*----------------------------------*\
| =========                 |                                                 |
| \\      /  F ield         | OpenFOAM: The Open Source CFD Toolbox           |
|  \\    /   O peration     | Version:  v2012                                 |
|   \\  /    A nd           | Website:  www.openfoam.com                      |
|    \\/     M anipulation  |                                                 |
\*---------------------------------------------------------------------------*/
FoamFile
{
    version     2.0;
    format      ascii;
    class       surfaceVectorField;
    location    "5";
    object      Uf;
}
// * * * * * * * * * * * * * * * * * * * * * * * * * * * * * * * * * * * * * //

dimensions      [0 1 -1 0 0 0 0];


internalField   nonuniform List<vector> 
300
(
(0.0365937411966 0.00114250350603 -1.31090044337e-22)
(0.0355266087226 0.000621173722645 -1.64803000472e-22)
(0.0376867642878 0.00226656115191 -4.81310245026e-23)
(0.0365294299436 0.00181022309406 -6.71620642405e-23)
(0.0387798374853 0.00339011659027 7.34974553056e-24)
(0.0377248199157 0.00299719973799 -1.81241751391e-23)
(0.0396849820206 0.00453766328062 2.68586272813e-23)
(0.038702409433 0.00420100540436 2.20502545468e-23)
(0.0404966852719 0.00572443640391 9.54274921679e-24)
(0.039495127615 0.00543518247771 1.14375345908e-23)
(0.0413460861457 0.0069852550612 -2.22946937228e-24)
(0.0402625750723 0.00672787844851 -4.06565331703e-25)
(0.0423101766518 0.00832323261995 -4.05416269078e-24)
(0.0411201050172 0.00809783178818 -5.03865236336e-24)
(0.0421168531579 0.00955722173187 -1.24394909634e-24)
(0.0353906373452 0.00127730609546 -1.00875020375e-22)
(0.0342479875639 0.000679504819442 -1.38853906466e-22)
(0.0364930508047 0.00253366387711 -3.71552148769e-23)
(0.035271328408 0.00200000986471 -2.87943927846e-23)
(0.0375725954441 0.00379172743951 -3.4236661229e-24)
(0.0364644435302 0.00331244375489 7.10925704998e-24)
(0.0384398233195 0.00507528798464 6.62916185622e-24)
(0.0374159020543 0.00464568762558 2.36120441701e-23)
(0.0391939836169 0.00640666948548 1.48822004228e-24)
(0.0381603259068 0.00601392397549 1.13177771233e-23)
(0.0399700116502 0.00780411501589 -3.21574832279e-24)
(0.0388616485563 0.00744304334755 4.31022580289e-24)
(0.0408464752093 0.00928879251622 -2.22843876892e-24)
(0.0396327188245 0.00895293648433 -2.25096340513e-24)
(0.0405237887783 0.0105646475687 3.74079505003e-24)
(0.0340615099288 0.00139293284395 -6.67732788763e-23)
(0.0328536699771 0.000729760607684 -8.91079950321e-23)
(0.035172488395 0.0027683150406 1.54700791424e-23)
(0.0338941956694 0.00216623595041 3.53658423558e-23)
(0.0362366753022 0.00414853094112 3.4144967343e-23)
(0.0350819863465 0.00358881117298 6.69793303413e-23)
(0.0370646178778 0.00555778553562 2.83006594372e-23)
(0.0360038813522 0.00503823557814 6.60016335102e-23)
(0.0377567074663 0.00701855594594 1.41397828839e-23)
(0.0366964424695 0.00652694015811 3.4652944615e-23)
(0.0384512928866 0.00855151306368 5.27501072055e-24)
(0.0373256376939 0.00808078514333 1.70472141171e-23)
(0.0392302082123 0.0101785081292 3.71827041382e-24)
(0.0380033149448 0.00972075542764 4.40443874041e-24)
(0.0401323512548 0.0119224048487 1.69273341192e-23)
(0.0387804864253 0.0114685011547 7.35423623927e-24)
(0.041176946249 0.0138064493005 2.81208550125e-23)
(0.0396825837022 0.013348357393 2.43725506366e-23)
(0.0407302242868 0.0153842725844 2.94059412547e-23)
(0.0326238056492 0.00149448097801 1.30311262e-23)
(0.0313578336026 0.000776168774978 3.46129133672e-23)
(0.033739422431 0.00297200371289 8.68750935548e-23)
(0.0324150096864 0.00231060724934 1.42429996847e-22)
(0.0347837970014 0.00445883917712 9.88359965085e-23)
(0.0335930593725 0.00382492087664 1.38867903489e-22)
(0.0355691645563 0.00598000066199 7.23539186881e-23)
(0.0344801873584 0.00537542961804 1.1633433533e-22)
(0.0361969598842 0.00755530346379 3.75603758483e-23)
(0.0351183527609 0.00696956100825 6.51052999782e-23)
(0.0368058701319 0.00920713032999 1.6176642137e-23)
(0.0356711667844 0.00863095877798 3.5734439981e-23)
(0.0374785611208 0.0109575827701 8.04040456586e-24)
(0.036250940328 0.0103828122175 1.42684208333e-23)
(0.0382525403613 0.012829493653 1.47994527566e-23)
(0.0369097012614 0.0122475923692 1.16218838567e-23)
(0.0391464639279 0.0148498128584 2.56576368788e-23)
(0.0376680975697 0.0142500260622 2.04452723969e-23)
(0.0385338287824 0.0164280182841 3.64204097414e-23)
(0.0310935817575 0.00157770914526 1.64011784014e-22)
(0.0297789399127 0.000812088645459 1.41868457915e-22)
(0.0322085098389 0.00314594858312 1.94422806782e-22)
(0.030845335408 0.00242917531254 2.15896590318e-22)
(0.0332303843355 0.00472679897427 1.56366242311e-22)
(0.0320104050069 0.00402068858114 1.87633775891e-22)
(0.033970587792 0.00633771213473 1.0908571662e-22)
(0.0328670958034 0.00565639590909 1.54847497024e-22)
(0.0345298548879 0.00800857085823 6.32793641109e-23)
(0.0334451133412 0.00733759371526 9.26430316829e-23)
(0.0350484729816 0.00976018938252 3.38262186773e-23)
(0.0339173242313 0.00908755800068 5.88654953714e-23)
(0.035608815399 0.0116150617969 1.78499001241e-23)
(0.0343945436736 0.010930544523 3.17166067458e-23)
(0.0362451538063 0.0136021201052 1.72677034969e-23)
(0.0349237100762 0.0128900531593 2.16674984916e-23)
(0.0369703781479 0.0157520565746 3.12080452595e-23)
(0.0355229483502 0.014992315629 2.22913437302e-23)
(0.0362018665912 0.0172784003379 4.0486907743e-23)
(0.0294868500667 0.00164265977137 1.93753264219e-22)
(0.0281353730884 0.000833374278515 1.69904278947e-22)
(0.0305968757493 0.00328092813184 2.09107559427e-22)
(0.0292059651497 0.00252029887795 2.34570292735e-22)
(0.0315942087709 0.00493342582668 1.86115030604e-22)
(0.0303564967056 0.00417663527371 1.95493101759e-22)
(0.0322871279169 0.00662492465661 1.38404812087e-22)
(0.0311738725556 0.00588114088802 1.69807283519e-22)
(0.0327761542748 0.00837493060167 8.82291629434e-23)
(0.03169321571 0.00763099014168 1.15633683927e-22)
(0.0332026136679 0.0102056660811 5.67558834399e-23)
(0.0320848300186 0.00944946897393 9.02889909124e-23)
(0.033645997332 0.0121401713922 3.55342051133e-23)
(0.0324588725352 0.0113590175818 6.02553336427e-23)
(0.0341361081271 0.0142066823332 2.66911387248e-23)
(0.0328580401414 0.013382190067 4.31640852551e-23)
(0.0346805669958 0.0164357628078 3.15702062137e-23)
(0.033297507955 0.0155458659991 3.5013266416e-23)
(0.0337724466201 0.0178887401705 4.54729794466e-23)
(0.0278205669353 0.00169028151084 2.10721307464e-22)
(0.0264445041945 0.000847256378717 1.57949477649e-22)
(0.028921499546 0.00338561945809 2.20955835067e-22)
(0.0275098956258 0.00258927551961 2.25145922952e-22)
(0.029890730455 0.00510004109007 1.79185354674e-22)
(0.0286410973794 0.00429582428427 1.77752124732e-22)
(0.030535242803 0.00685248615495 1.47036155358e-22)
(0.0294201990523 0.00605245613967 1.67181014659e-22)
(0.0309564373316 0.00866165065226 1.17693511896e-22)
(0.0298826909145 0.00785482201151 1.34776406375e-22)
(0.0312935063333 0.0105475392244 9.37884411152e-23)
(0.0301976907871 0.00972154800648 1.10659337413e-22)
(0.0316222214275 0.012531629004 6.78852137845e-23)
(0.0304740060826 0.0116716709294 8.30523403367e-23)
(0.031967525039 0.0146372131201 5.14862129462e-23)
(0.0307531667475 0.0137252508788 7.04637177276e-23)
(0.0323294547656 0.0168986890582 4.89160396489e-23)
(0.0310388459429 0.0159052682419 6.45428346877e-23)
(0.0313205421907 0.0182461062806 7.22982033419e-23)
(0.0261067760165 0.00173332371212 1.72374093138e-22)
(0.0247108970342 0.00085739568703 1.47794720651e-22)
(0.0271961886634 0.00346643061542 1.81942212617e-22)
(0.0257764054997 0.00264009937534 2.10855556275e-22)
(0.0281352314481 0.00522467716219 1.65747784717e-22)
(0.0268822848913 0.00438302889702 1.5478998905e-22)
(0.0287327051007 0.00702192213651 1.54921265675e-22)
(0.0276222056873 0.00617672102997 1.55656918221e-22)
(0.0290895998389 0.00887177093571 1.27742231892e-22)
(0.0280320096477 0.00801560379973 1.35794104864e-22)
(0.0293434024285 0.0107912610407 9.99232366347e-23)
(0.0282774772378 0.00991181330753 1.0272644628e-22)
(0.0295681255173 0.0127971433977 8.56308442799e-23)
(0.0284677904843 0.0118804805559 9.85475502665e-23)
(0.02978494134 0.0149096626348 8.35203394691e-23)
(0.0286414467701 0.013938171811 1.02654586343e-22)
(0.0299869255752 0.0171497587171 8.79249983808e-23)
(0.0288012358687 0.0161012109305 1.14251960733e-22)
(0.0289220537386 0.0183913902989 9.85435680911e-23)
(0.0243591251991 0.00176101832245 1.86276183789e-22)
(0.0229498452821 0.000859991223971 1.56708300648e-22)
(0.0254352623247 0.00352258240394 1.83703332708e-22)
(0.024014746382 0.00267289681194 1.98338327205e-22)
(0.0263429358776 0.00531121068878 1.44699122554e-22)
(0.0250934405977 0.00444053359799 1.25400926466e-22)
(0.0268955376123 0.00713856410729 1.3652975741e-22)
(0.0257945250268 0.00625866259426 1.31744523858e-22)
(0.0271931402303 0.00901411838309 1.10778319251e-22)
(0.0261561040109 0.00811941744816 1.22277126042e-22)
(0.0273737443786 0.0109507849743 1.01350759912e-22)
(0.0263405940885 0.01003046128 9.98098248328e-23)
(0.0275125595278 0.012955320055 1.1557129233e-22)
(0.0264633936743 0.0120042782625 1.17190170604e-22)
(0.0276289906752 0.0150501703803 1.33386207607e-22)
(0.0265476891905 0.0140513904488 1.07682137771e-22)
(0.0277107383005 0.0172431901409 1.24870530443e-22)
(0.0266108103329 0.0161795814003 1.34355399808e-22)
(0.0266256444295 0.0183962086711 1.11410595453e-22)
(0.0225903676023 0.00177350838617 1.68770444064e-22)
(0.0211764822995 0.000854942307078 1.17543562166e-22)
(0.0236496805839 0.00355477372304 1.40035920962e-22)
(0.022233597096 0.00268722588066 6.57554835975e-23)
(0.024524649455 0.00536368850425 1.12446327769e-22)
(0.0232845775721 0.0044690144391 4.62688546048e-23)
(0.0250352892144 0.00720853026648 1.1749189249e-22)
(0.0239496922498 0.00630137736145 8.56962382733e-23)
(0.0252817507738 0.00909814593438 1.11308631623e-22)
(0.0242665373452 0.00817369907588 1.15085032583e-22)
(0.0254036545378 0.0110347131792 1.15649235525e-22)
(0.0244042523304 0.0100918897291 1.06158669087e-22)
(0.0254761693678 0.0130392761378 1.09301016045e-22)
(0.0244594109861 0.0120636776844 1.13263109201e-22)
(0.0255184808511 0.0151044670787 1.08651329972e-22)
(0.0244839826504 0.0140929924942 9.19206203877e-23)
(0.0255208481581 0.0172384844392 1.20895464818e-22)
(0.024479725588 0.0161813535506 1.08911613467e-22)
(0.0244307949175 0.0183251472405 1.20353568237e-22)
(0.0208118227228 0.00177417044683 1.45286016994e-23)
(0.01940256536 0.000845929787574 2.79584096921e-23)
(0.0218502800183 0.00356320580994 -2.80115827599e-23)
(0.0204448120226 0.00268488245912 -8.27389988992e-23)
(0.0226911718969 0.00538406650154 1.95187651091e-23)
(0.0214639500976 0.00446967898786 -1.04062779237e-22)
(0.023163646067 0.00723713448858 8.3289378366e-23)
(0.022096873052 0.0063096254375 1.74095079244e-23)
(0.0233685812988 0.00913202391616 1.09935070046e-22)
(0.0223719938014 0.00818866390089 1.15222830652e-22)
(0.0234432774009 0.0110743052868 1.03772542763e-22)
(0.0224625347536 0.0101082999935 1.30307730024e-22)
(0.0234624158522 0.0130620383041 9.58827135445e-23)
(0.0224726079506 0.0120726049949 1.14699527108e-22)
(0.0234497745126 0.0150994864211 9.2180903883e-23)
(0.0224483730954 0.0140826407034 1.06009905219e-22)
(0.0234039341619 0.0171841609568 1.08369716886e-22)
(0.0223983141957 0.0161353204731 1.12219636333e-22)
(0.0223212737061 0.0182254503798 1.6318560306e-22)
(0.0190344235003 0.00176519857254 -6.93091909065e-23)
(0.017637670417 0.000830868718882 -3.64491596991e-23)
(0.0200479298585 0.00355077188278 -1.58790195376e-22)
(0.0186595579021 0.00266765135382 -2.08657282887e-22)
(0.0208543970048 0.00537343233845 -1.06172036421e-22)
(0.0196416253071 0.00444647569047 -2.75016569805e-22)
(0.0212910172424 0.00723464362279 4.93429602103e-23)
(0.0202360542637 0.0062874376038 -6.74865423573e-23)
(0.0214579049037 0.00913051671447 1.35595490629e-22)
(0.0204766500216 0.00816830842913 1.05795334683e-22)
(0.0214904392902 0.0110660864748 1.41234714368e-22)
(0.0205277385702 0.0100851718867 1.49141005055e-22)
(0.0214656278831 0.0130416490392 1.24826718783e-22)
(0.0204981856915 0.0120408014776 1.37885330343e-22)
(0.0214117729856 0.0150571212809 1.26048637669e-22)
(0.0204349433045 0.0140342049583 1.3596877677e-22)
(0.0213358561387 0.0171095309611 1.67035522506e-22)
(0.020349302948 0.0160623415492 1.64657175795e-22)
(0.0202571822495 0.0181231551608 2.21388892292e-22)
(0.0172668951791 0.00174456159184 -1.75797251679e-22)
(0.0158934221424 0.000809873513368 -2.86542020418e-23)
(0.0182498911141 0.00352015470481 -3.24883657316e-22)
(0.0168843033305 0.00263595405487 -2.81075603482e-22)
(0.0190184448128 0.00533886108966 -2.36331075741e-22)
(0.0178232902912 0.0044006991805 -3.91011799071e-22)
(0.0194183063527 0.00719774795155 -1.1034167885e-23)
(0.0183776144749 0.00623630053009 -1.48844243917e-22)
(0.0195479695319 0.0090920714865 1.19340849108e-22)
(0.0185829241046 0.0081145269994 8.19775308485e-23)
(0.0195429862855 0.0110229495358 1.4579162103e-22)
(0.0185977032299 0.0100287344039 1.52005834634e-22)
(0.0194820632631 0.0129894437139 1.4902738833e-22)
(0.0185328708274 0.0119789719758 1.65150763933e-22)
(0.0193972411311 0.0149907550141 1.74577314896e-22)
(0.018435649964 0.0139632620336 1.77606636992e-22)
(0.0192967882731 0.0170198908392 2.19010545582e-22)
(0.0183234132747 0.0159774449889 2.34535818455e-22)
(0.0182035756264 0.0180176258504 2.49538236179e-22)
(0.0155183489158 0.00171455960512 -1.33932553844e-22)
(0.0141791594461 0.000786611114294 2.31195218545e-22)
(0.0164612533742 0.00347024393622 -3.47203745237e-22)
(0.0151289397703 0.00259029230076 -1.86978723145e-22)
(0.0171853795633 0.00527809091063 -3.03524967248e-22)
(0.0160157934744 0.00433273424161 -3.74511823295e-22)
(0.0175457485436 0.00713146040122 -5.58325451839e-23)
(0.0165246605003 0.00615808151341 -1.6077638229e-22)
(0.0176390793133 0.00902369468446 1.14642516374e-22)
(0.0166912334483 0.00803160815704 7.98543479656e-23)
(0.0175987938292 0.0109527296676 1.71364977537e-22)
(0.0166694116313 0.0099439037159 1.76859133066e-22)
(0.0175057769551 0.0129182993867 1.93730012595e-22)
(0.0165683105282 0.0118935610381 2.33790685156e-22)
(0.0173957333975 0.0149168393379 2.37565140551e-22)
(0.0164389874048 0.0138781451374 3.16966593483e-22)
(0.0172744090298 0.0169274735225 2.65063509052e-22)
(0.0163157639614 0.0158878183612 4.17569954673e-22)
(0.0161679707982 0.0179155153941 4.42431164354e-22)
(0.01379944423 0.00167676082002 1.78149049244e-22)
(0.0125027090482 0.000760395056625 7.43115381154e-22)
(0.0146909655964 0.00340418083164 -2.14286801203e-22)
(0.0134018436628 0.00253209773323 7.69503168635e-23)
(0.0153618205271 0.00519391565209 -2.31763238337e-22)
(0.0142264103185 0.00424411564953 -2.01309449945e-22)
(0.0156770344243 0.00703789298614 -2.50894891405e-23)
(0.0146811609158 0.00605384976286 -6.41535390415e-23)
(0.0157302556236 0.00892663644076 1.42070964657e-22)
(0.0148029580985 0.00791945971027 1.50167709632e-22)
(0.015650322682 0.0108575518593 2.39284840685e-22)
(0.0147391464839 0.00982779431791 3.27690409999e-22)
(0.0155236080415 0.0128321190544 3.57027266044e-22)
(0.0145950480303 0.0117828969367 6.29892911806e-22)
(0.015390173942 0.0148246824152 4.96971407605e-22)
(0.0144480465843 0.0137785033428 1.10470566694e-21)
(0.0152519787354 0.0168461904216 5.94937609976e-22)
(0.0142974162085 0.0157892253559 1.5258298024e-21)
(0.0141291295662 0.0178021126977 1.71444944639e-21)
(0.0121197416132 0.00163073800627 6.41916648774e-22)
(0.0108723276175 0.000729157643503 1.11960898869e-21)
(0.0129477901413 0.00332063139752 8.99276681214e-23)
(0.0117123260657 0.00246087295085 3.82880706451e-22)
(0.0135550302305 0.00508653474043 -3.3699750649e-23)
(0.0124610512034 0.00413386246525 2.04071144261e-23)
(0.0138160896642 0.00691506295126 1.11103659731e-22)
(0.0128527861029 0.00592144953631 1.2148917558e-22)
(0.0138217121172 0.00879788601358 3.35787154974e-22)
(0.0129210165366 0.00777445547999 4.64460513636e-22)
(0.0136998109714 0.0107298669351 7.1829848112e-22)
(0.0128081185934 0.00968080341949 1.21634697852e-21)
(0.0135370645309 0.0127181322716 1.37757131271e-21)
(0.012607347363 0.0116470166659 2.89918716244e-21)
(0.0133806029119 0.0147300578275 2.13356406174e-21)
(0.013225754583 0.0167393166977 2.64534163881e-21)
(0.0104867249964 0.00157352314165 8.60573046369e-22)
(0.0112395674238 0.00321865621187 3.13360152756e-22)
(0.0117724454278 0.00494808603855 1.75596040655e-22)
(0.0119660386101 0.00675433737787 4.74846029485e-22)
(0.0119092626046 0.00863358334783 1.34502033719e-21)
(0.0110415202874 0.00758886951105 1.92434334566e-21)
(0.0117358371608 0.010584142346 3.39723565985e-21)
)
;

boundaryField
{
    back
    {
        type            calculated;
        value           uniform (0 0 0);
    }
    sides
    {
        type            calculated;
        value           nonuniform List<vector> 0();
    }
    bottom
    {
        type            calculated;
        value           uniform (0 0 0);
    }
    front
    {
        type            calculated;
        value           uniform (0 0 0);
    }
    atmosphere
    {
        type            calculated;
        value           nonuniform List<vector> 0();
    }
    floatingObject
    {
        type            calculated;
        value           nonuniform List<vector> 0();
    }
    procBoundary4to0
    {
        type            processor;
        value           nonuniform List<vector> 8((0.0366709654245 0.000553518001115 -1.96274506836e-22) (0.0376560330088 0.00159851694594 -7.93129557447e-23) (0.0388518991248 0.00264615373917 -6.83108620549e-24) (0.0398546569915 0.00370689154483 4.93245763687e-23) (0.040687603492 0.00479566470514 2.62973444151e-23) (0.0415294268757 0.00594150460572 3.36791037551e-24) (0.042463118419 0.00716024945595 -4.95465808952e-24) (0.0435416077698 0.00845599815298 -6.97940793624e-24));
    }
    procBoundary4to3
    {
        type            processor;
        value           nonuniform List<vector> 
13
(
(0.0124380638209 0.0136624819726 5.50480302056e-21)
(0.0122893949846 0.0156667577778 7.8648992003e-21)
(0.0121057214697 0.017609488352 8.92862267047e-21)
(0.00929913278766 0.000693070265347 1.27213106425e-21)
(0.0100675866503 0.00237585070115 5.71622812349e-22)
(0.0107314934104 0.00399988540295 2.4597354624e-22)
(0.0110476498335 0.00575426878891 5.81971240576e-22)
(0.0108580668452 0.00949870432134 5.73848353069e-21)
(0.0115364867417 0.0125815655582 7.0264188703e-21)
(0.0106109529725 0.011483499077 1.4371760017e-20)
(0.0101307006797 0.00655780785775 2.03146855675e-21)
(0.00998987860825 0.00842471474354 6.31780653916e-21)
(0.00917587289389 0.00734190795117 8.215656018e-21)
)
;
    }
    procBoundary4to5
    {
        type            processor;
        value           nonuniform List<vector> 
18
(
(0.0434204066114 0.00974595114551 -5.8841321754e-25)
(0.0418610562683 0.0108812918607 6.39308646852e-24)
(0.0415598588793 0.0122962339258 1.95796255377e-23)
(0.0427467135048 0.0141578003567 2.71668379547e-23)
(0.0423742795604 0.0158383650554 3.7825267666e-23)
(0.0401773470859 0.0170565148285 3.79595383751e-23)
(0.0377969641405 0.0180924601608 4.6290437275e-23)
(0.0352778006435 0.0188716920518 4.74003609288e-23)
(0.0326944355142 0.0193556137191 5.50894359425e-23)
(0.030150221647 0.0195524389948 5.35373854486e-23)
(0.0277282449657 0.0195435557213 1.29204852452e-22)
(0.0254600605406 0.0194374021244 2.11491041859e-22)
(0.0233184411951 0.0192979193885 2.84217647729e-22)
(0.021241719512 0.0191778578703 3.38540340075e-22)
(0.0191796372284 0.0190774576973 2.25907970729e-22)
(0.0171346268845 0.0189667920906 3.20481364746e-22)
(0.0150907605503 0.018887350842 6.59702270536e-22)
(0.0130127502789 0.0187661663172 2.9577360974e-21)
)
;
    }
}


// ************************************************************************* //
