/*--------------------------------*- C++ -*----------------------------------*\
| =========                 |                                                 |
| \\      /  F ield         | OpenFOAM: The Open Source CFD Toolbox           |
|  \\    /   O peration     | Version:  v2012                                 |
|   \\  /    A nd           | Website:  www.openfoam.com                      |
|    \\/     M anipulation  |                                                 |
\*---------------------------------------------------------------------------*/
FoamFile
{
    version     2.0;
    format      ascii;
    class       volScalarField;
    location    "3.9";
    object      epsilon_0;
}
// * * * * * * * * * * * * * * * * * * * * * * * * * * * * * * * * * * * * * //

dimensions      [0 2 -3 0 0 0 0];


internalField   nonuniform List<scalar> 
166
(
0.00115307181639
0.00120367216528
0.00131996764645
0.00136292934402
0.0013790172326
0.00138632548064
0.00139134670791
0.00139622383524
0.00140168745876
0.00140824850454
0.00141704251878
0.00143138836441
0.00146078709044
0.00153271223259
0.00173677428044
0.00241802454719
0.00485062966451
0.0123318592094
0.0303451818982
0.0843616768159
0.00115140180062
0.00120188255657
0.00131773385308
0.00136043671824
0.00137637711431
0.00138358551449
0.00138851864585
0.00139330761533
0.00139868758686
0.00140521159345
0.00141413403126
0.00142906166637
0.00146012149403
0.00153639210241
0.00175361633149
0.00248161590645
0.00505310298867
0.0128100661473
0.0311997023691
0.0733694074585
0.00114933380661
0.00119977637799
0.00131516800509
0.00135761618884
0.00137341792271
0.00138053982863
0.00138539988352
0.00139011919752
0.00139544018544
0.00140195863988
0.00141105774198
0.00142665519175
0.00145953173978
0.00154034507455
0.00177053418749
0.0025415496744
0.00524284550315
0.0133539450502
0.0335385108892
0.0928751077489
0.0011468642096
0.00119735261683
0.00131229235886
0.00135449263061
0.00137016535714
0.00137721194128
0.00138201644025
0.00138668615386
0.00139197155254
0.00139851726897
0.00140784934938
0.0014242140836
0.00145910964694
0.00154493304649
0.0017887786822
0.00259972638565
0.00539689644225
0.0137191475196
0.0353324082831
0.127805133664
0.00114405693019
0.00119464292741
0.00130912908572
0.00135108497555
0.00136663840115
0.00137362407534
0.00137839048988
0.00138302994715
0.00138830717994
0.00139491625651
0.00140452713913
0.00142174775569
0.00145888874045
0.0015502254373
0.00180839714361
0.00265568074357
0.0055192198042
0.0139459830121
0.0363243450591
0.13297637935
0.00114092508559
0.00119167829338
0.00130569463812
0.00134741030411
0.00136285702651
0.00136979689591
0.0013745429859
0.00137917559451
0.00138446600381
0.00139116054546
0.00140108168381
0.00141923535049
0.00145873536785
0.00155569854315
0.00182761974529
0.00270614460375
0.00561785806939
0.0141247073358
0.0370310768027
0.117699250692
0.00113755883084
0.00118845598711
0.00130199205478
0.00134347966013
0.00135883530881
0.00136574998147
0.00137049542606
0.0013751375198
0.0013804586784
0.00138725694998
0.00139751963297
0.00141661650408
0.00145837008637
0.00156034794234
0.00184374426106
0.00274759074574
0.00570680564779
0.014332174362
0.036970813834
0.0958353652884
0.00113388778345
0.00118497903094
0.00129803679527
0.00133930816241
0.00135459091601
0.001361497881
0.00136626181821
0.00137093232547
0.00137630476955
0.00138322955632
0.00139385048269
0.00141380498979
0.00145745483216
0.00156316867278
0.00185469023378
0.0027796179784
0.00580263928045
0.0146870151467
0.0380516931158
0.0900041202843
0.00112991208292
0.00118125558019
0.00129383793199
0.00112572183348
0.00112129137342
0.0011166382007
)
;

boundaryField
{
    back
    {
        lowReCorrection 0;
        blending        stepwise;
        n               2;
        type            epsilonWallFunction;
        value           nonuniform List<scalar> 
166
(
0.00115307181639
0.00120367216528
0.00131996764645
0.00136292934402
0.0013790172326
0.00138632548064
0.00139134670791
0.00139622383524
0.00140168745876
0.00140824850454
0.00141704251878
0.00143138836441
0.00146078709044
0.00153271223259
0.00173677428044
0.00241802454719
0.00485062966451
0.0123318592094
0.0303451818982
0.0843616768159
0.00115140180062
0.00120188255657
0.00131773385308
0.00136043671824
0.00137637711431
0.00138358551449
0.00138851864585
0.00139330761533
0.00139868758686
0.00140521159345
0.00141413403126
0.00142906166637
0.00146012149403
0.00153639210241
0.00175361633149
0.00248161590645
0.00505310298867
0.0128100661473
0.0311997023691
0.0733694074585
0.00114933380661
0.00119977637799
0.00131516800509
0.00135761618884
0.00137341792271
0.00138053982863
0.00138539988352
0.00139011919752
0.00139544018544
0.00140195863988
0.00141105774198
0.00142665519175
0.00145953173978
0.00154034507455
0.00177053418749
0.0025415496744
0.00524284550315
0.0133539450502
0.0335385108892
0.0928751077489
0.0011468642096
0.00119735261683
0.00131229235886
0.00135449263061
0.00137016535714
0.00137721194128
0.00138201644025
0.00138668615386
0.00139197155254
0.00139851726897
0.00140784934938
0.0014242140836
0.00145910964694
0.00154493304649
0.0017887786822
0.00259972638565
0.00539689644225
0.0137191475196
0.0353324082831
0.127805133664
0.00114405693019
0.00119464292741
0.00130912908572
0.00135108497555
0.00136663840115
0.00137362407534
0.00137839048988
0.00138302994715
0.00138830717994
0.00139491625651
0.00140452713913
0.00142174775569
0.00145888874045
0.0015502254373
0.00180839714361
0.00265568074357
0.0055192198042
0.0139459830121
0.0363243450591
0.13297637935
0.00114092508559
0.00119167829338
0.00130569463812
0.00134741030411
0.00136285702651
0.00136979689591
0.0013745429859
0.00137917559451
0.00138446600381
0.00139116054546
0.00140108168381
0.00141923535049
0.00145873536785
0.00155569854315
0.00182761974529
0.00270614460375
0.00561785806939
0.0141247073358
0.0370310768027
0.117699250692
0.00113755883084
0.00118845598711
0.00130199205478
0.00134347966013
0.00135883530881
0.00136574998147
0.00137049542606
0.0013751375198
0.0013804586784
0.00138725694998
0.00139751963297
0.00141661650408
0.00145837008637
0.00156034794234
0.00184374426106
0.00274759074574
0.00570680564779
0.014332174362
0.036970813834
0.0958353652884
0.00113388778345
0.00118497903094
0.00129803679527
0.00133930816241
0.00135459091601
0.001361497881
0.00136626181821
0.00137093232547
0.00137630476955
0.00138322955632
0.00139385048269
0.00141380498979
0.00145745483216
0.00156316867278
0.00185469023378
0.0027796179784
0.00580263928045
0.0146870151467
0.0380516931158
0.0900041202843
0.00112991208292
0.00118125558019
0.00129383793199
0.00112572183348
0.00112129137342
0.0011166382007
)
;
    }
    sides
    {
        lowReCorrection 0;
        blending        stepwise;
        n               2;
        type            epsilonWallFunction;
        value           nonuniform List<scalar> 0();
    }
    bottom
    {
        lowReCorrection 0;
        blending        stepwise;
        n               2;
        type            epsilonWallFunction;
        value           nonuniform List<scalar> 
12
(
0.00115307181639
0.00115140180062
0.00114933380661
0.0011468642096
0.00114405693019
0.00114092508559
0.00113755883084
0.00113388778345
0.00112991208292
0.00112572183348
0.00112129137342
0.0011166382007
)
;
    }
    front
    {
        lowReCorrection 0;
        blending        stepwise;
        n               2;
        type            epsilonWallFunction;
        value           nonuniform List<scalar> 
166
(
0.00115307181639
0.00120367216528
0.00131996764645
0.00136292934402
0.0013790172326
0.00138632548064
0.00139134670791
0.00139622383524
0.00140168745876
0.00140824850454
0.00141704251878
0.00143138836441
0.00146078709044
0.00153271223259
0.00173677428044
0.00241802454719
0.00485062966451
0.0123318592094
0.0303451818982
0.0843616768159
0.00115140180062
0.00120188255657
0.00131773385308
0.00136043671824
0.00137637711431
0.00138358551449
0.00138851864585
0.00139330761533
0.00139868758686
0.00140521159345
0.00141413403126
0.00142906166637
0.00146012149403
0.00153639210241
0.00175361633149
0.00248161590645
0.00505310298867
0.0128100661473
0.0311997023691
0.0733694074585
0.00114933380661
0.00119977637799
0.00131516800509
0.00135761618884
0.00137341792271
0.00138053982863
0.00138539988352
0.00139011919752
0.00139544018544
0.00140195863988
0.00141105774198
0.00142665519175
0.00145953173978
0.00154034507455
0.00177053418749
0.0025415496744
0.00524284550315
0.0133539450502
0.0335385108892
0.0928751077489
0.0011468642096
0.00119735261683
0.00131229235886
0.00135449263061
0.00137016535714
0.00137721194128
0.00138201644025
0.00138668615386
0.00139197155254
0.00139851726897
0.00140784934938
0.0014242140836
0.00145910964694
0.00154493304649
0.0017887786822
0.00259972638565
0.00539689644225
0.0137191475196
0.0353324082831
0.127805133664
0.00114405693019
0.00119464292741
0.00130912908572
0.00135108497555
0.00136663840115
0.00137362407534
0.00137839048988
0.00138302994715
0.00138830717994
0.00139491625651
0.00140452713913
0.00142174775569
0.00145888874045
0.0015502254373
0.00180839714361
0.00265568074357
0.0055192198042
0.0139459830121
0.0363243450591
0.13297637935
0.00114092508559
0.00119167829338
0.00130569463812
0.00134741030411
0.00136285702651
0.00136979689591
0.0013745429859
0.00137917559451
0.00138446600381
0.00139116054546
0.00140108168381
0.00141923535049
0.00145873536785
0.00155569854315
0.00182761974529
0.00270614460375
0.00561785806939
0.0141247073358
0.0370310768027
0.117699250692
0.00113755883084
0.00118845598711
0.00130199205478
0.00134347966013
0.00135883530881
0.00136574998147
0.00137049542606
0.0013751375198
0.0013804586784
0.00138725694998
0.00139751963297
0.00141661650408
0.00145837008637
0.00156034794234
0.00184374426106
0.00274759074574
0.00570680564779
0.014332174362
0.036970813834
0.0958353652884
0.00113388778345
0.00118497903094
0.00129803679527
0.00133930816241
0.00135459091601
0.001361497881
0.00136626181821
0.00137093232547
0.00137630476955
0.00138322955632
0.00139385048269
0.00141380498979
0.00145745483216
0.00156316867278
0.00185469023378
0.0027796179784
0.00580263928045
0.0146870151467
0.0380516931158
0.0900041202843
0.00112991208292
0.00118125558019
0.00129383793199
0.00112572183348
0.00112129137342
0.0011166382007
)
;
    }
    atmosphere
    {
        type            inletOutlet;
        inletValue      uniform 0.1;
        value           nonuniform List<scalar> 8(0.1 0.0733694074585 0.0928751077489 0.1 0.1 0.1 0.0958353652884 0.0900041202843);
    }
    floatingObject
    {
        lowReCorrection 0;
        blending        stepwise;
        n               2;
        type            epsilonWallFunction;
        value           nonuniform List<scalar> 0();
    }
    procBoundary9to6
    {
        type            processor;
        value           nonuniform List<scalar> 4(0.00462815047495 0.0118867659754 0.0314718063345 0.13639328891);
    }
    procBoundary9to7
    {
        type            processor;
        value           nonuniform List<scalar> 
16
(
0.00115438678523
0.00120511502524
0.00132183463056
0.00136506178488
0.00138131192547
0.00138873792758
0.00139386732739
0.00139885790368
0.00140443684442
0.00141107787782
0.00141980546351
0.00143366466999
0.001461553171
0.00152938368083
0.0017199852286
0.00234905471634
)
;
    }
    procBoundary9to10
    {
        type            processor;
        value           nonuniform List<scalar> 
15
(
0.00133491073318
0.00135013723628
0.00135705519407
0.00136185516092
0.00136657711382
0.00137202802725
0.0013791145726
0.00139006813226
0.00117727525549
0.00133491073318
0.0012893972615
0.00117727525549
0.00117307191999
0.00116867056705
0.00111178138014
)
;
    }
    procBoundary9to11
    {
        type            processor;
        value           nonuniform List<scalar> 9(0.00141079633005 0.00145587523389 0.00156373156651 0.00185910700636 0.00279964741747 0.00590904096167 0.0152679140889 0.0426472952279 0.122917023547);
    }
}


// ************************************************************************* //
