/*--------------------------------*- C++ -*----------------------------------*\
| =========                 |                                                 |
| \\      /  F ield         | OpenFOAM: The Open Source CFD Toolbox           |
|  \\    /   O peration     | Version:  v2012                                 |
|   \\  /    A nd           | Website:  www.openfoam.com                      |
|    \\/     M anipulation  |                                                 |
\*---------------------------------------------------------------------------*/
FoamFile
{
    version     2.0;
    format      ascii;
    class       volScalarField;
    location    "3.9";
    object      rAU;
}
// * * * * * * * * * * * * * * * * * * * * * * * * * * * * * * * * * * * * * //

dimensions      [-1 3 1 0 0 0 0];


internalField   nonuniform List<scalar> 
166
(
2.19693671735e-05
2.17968246416e-05
2.17758153329e-05
2.17697024097e-05
2.17675380702e-05
2.1767441343e-05
2.17676001907e-05
2.17670279593e-05
2.17657162669e-05
2.17636301319e-05
2.1760385111e-05
2.17555659377e-05
2.17478815736e-05
2.17380542697e-05
2.1693426248e-05
2.17244851935e-05
2.1579461055e-05
2.9377456093e-05
0.000327395582333
0.0110899220576
2.19735193983e-05
2.18007092336e-05
2.17797698496e-05
2.17733643812e-05
2.17708253108e-05
2.17700813543e-05
2.17698239443e-05
2.17690254883e-05
2.17674684953e-05
2.1765111761e-05
2.17618272236e-05
2.17567164034e-05
2.17482072746e-05
2.17383624363e-05
2.16876296202e-05
2.17339569294e-05
2.15755538185e-05
3.04500704065e-05
0.00037546966267
0.0106009992435
2.19771982096e-05
2.18039616483e-05
2.1783203765e-05
2.1776800245e-05
2.17741744468e-05
2.17730532212e-05
2.17723142806e-05
2.17712165829e-05
2.1769516634e-05
2.17669696546e-05
2.17634600145e-05
2.1758151454e-05
2.17493488825e-05
2.17384672446e-05
2.16833940999e-05
2.17452378107e-05
2.16124017217e-05
3.20492551964e-05
0.000557404022443
0.0121273748562
2.19799344078e-05
2.18068273595e-05
2.17861428441e-05
2.17797497732e-05
2.17770317552e-05
2.17756658317e-05
2.17746807306e-05
2.17734128043e-05
2.17715175452e-05
2.17690229738e-05
2.17650140731e-05
2.17602039217e-05
2.17517479659e-05
2.17395518892e-05
2.1683533765e-05
2.1753775095e-05
2.15917902927e-05
3.3798782354e-05
0.000792028663496
0.0130101079157
2.19822106172e-05
2.18093321519e-05
2.1788632589e-05
2.17821732043e-05
2.17793958556e-05
2.17778736925e-05
2.17768623066e-05
2.17756029681e-05
2.17736926231e-05
2.17711348489e-05
2.17677751003e-05
2.17627421083e-05
2.17547397616e-05
2.1746765668e-05
2.16869819374e-05
2.16568471722e-05
2.14705574223e-05
3.57414785431e-05
0.00109796273844
0.0142094265138
2.19847367742e-05
2.18115691244e-05
2.17907829799e-05
2.17843153727e-05
2.17816095643e-05
2.17800124675e-05
2.17790096644e-05
2.17778070519e-05
2.17759964149e-05
2.17735947913e-05
2.17708321679e-05
2.17666151818e-05
2.17592569136e-05
2.17531897234e-05
2.16963560783e-05
2.15057216401e-05
2.1360152746e-05
3.80472256084e-05
0.00160973641295
0.0154100259674
2.19862580963e-05
2.18134154627e-05
2.17924918021e-05
2.17861761801e-05
2.17835017148e-05
2.17818732071e-05
2.17807838654e-05
2.17793437893e-05
2.17780846467e-05
2.17763263073e-05
2.17731470749e-05
2.17690701024e-05
2.17638080338e-05
2.1758901716e-05
2.17019720269e-05
2.1496903941e-05
2.14563651253e-05
4.08598110237e-05
0.00240959582324
0.0191111854409
2.19875201693e-05
2.18146194643e-05
2.17937468254e-05
2.17875831731e-05
2.17849865797e-05
2.17834353627e-05
2.17825670068e-05
2.17816281108e-05
2.17802855989e-05
2.17780284789e-05
2.17746809536e-05
2.17722120478e-05
2.17669411413e-05
2.17601181755e-05
2.17056742912e-05
2.15211986476e-05
2.14918799288e-05
4.37120464374e-05
0.00367757535492
0.0195546369127
2.19890659785e-05
2.18157606205e-05
2.17949085281e-05
2.19899323512e-05
2.19907167987e-05
2.19913062916e-05
)
;

boundaryField
{
    back
    {
        type            calculated;
        value           nonuniform List<scalar> 
166
(
2.19693671735e-05
2.17968246416e-05
2.17758153329e-05
2.17697024097e-05
2.17675380702e-05
2.1767441343e-05
2.17676001907e-05
2.17670279593e-05
2.17657162669e-05
2.17636301319e-05
2.1760385111e-05
2.17555659377e-05
2.17478815736e-05
2.17380542697e-05
2.1693426248e-05
2.17244851935e-05
2.1579461055e-05
2.9377456093e-05
0.000327395582333
0.0110899220576
2.19735193983e-05
2.18007092336e-05
2.17797698496e-05
2.17733643812e-05
2.17708253108e-05
2.17700813543e-05
2.17698239443e-05
2.17690254883e-05
2.17674684953e-05
2.1765111761e-05
2.17618272236e-05
2.17567164034e-05
2.17482072746e-05
2.17383624363e-05
2.16876296202e-05
2.17339569294e-05
2.15755538185e-05
3.04500704065e-05
0.00037546966267
0.0106009992435
2.19771982096e-05
2.18039616483e-05
2.1783203765e-05
2.1776800245e-05
2.17741744468e-05
2.17730532212e-05
2.17723142806e-05
2.17712165829e-05
2.1769516634e-05
2.17669696546e-05
2.17634600145e-05
2.1758151454e-05
2.17493488825e-05
2.17384672446e-05
2.16833940999e-05
2.17452378107e-05
2.16124017217e-05
3.20492551964e-05
0.000557404022443
0.0121273748562
2.19799344078e-05
2.18068273595e-05
2.17861428441e-05
2.17797497732e-05
2.17770317552e-05
2.17756658317e-05
2.17746807306e-05
2.17734128043e-05
2.17715175452e-05
2.17690229738e-05
2.17650140731e-05
2.17602039217e-05
2.17517479659e-05
2.17395518892e-05
2.1683533765e-05
2.1753775095e-05
2.15917902927e-05
3.3798782354e-05
0.000792028663496
0.0130101079157
2.19822106172e-05
2.18093321519e-05
2.1788632589e-05
2.17821732043e-05
2.17793958556e-05
2.17778736925e-05
2.17768623066e-05
2.17756029681e-05
2.17736926231e-05
2.17711348489e-05
2.17677751003e-05
2.17627421083e-05
2.17547397616e-05
2.1746765668e-05
2.16869819374e-05
2.16568471722e-05
2.14705574223e-05
3.57414785431e-05
0.00109796273844
0.0142094265138
2.19847367742e-05
2.18115691244e-05
2.17907829799e-05
2.17843153727e-05
2.17816095643e-05
2.17800124675e-05
2.17790096644e-05
2.17778070519e-05
2.17759964149e-05
2.17735947913e-05
2.17708321679e-05
2.17666151818e-05
2.17592569136e-05
2.17531897234e-05
2.16963560783e-05
2.15057216401e-05
2.1360152746e-05
3.80472256084e-05
0.00160973641295
0.0154100259674
2.19862580963e-05
2.18134154627e-05
2.17924918021e-05
2.17861761801e-05
2.17835017148e-05
2.17818732071e-05
2.17807838654e-05
2.17793437893e-05
2.17780846467e-05
2.17763263073e-05
2.17731470749e-05
2.17690701024e-05
2.17638080338e-05
2.1758901716e-05
2.17019720269e-05
2.1496903941e-05
2.14563651253e-05
4.08598110237e-05
0.00240959582324
0.0191111854409
2.19875201693e-05
2.18146194643e-05
2.17937468254e-05
2.17875831731e-05
2.17849865797e-05
2.17834353627e-05
2.17825670068e-05
2.17816281108e-05
2.17802855989e-05
2.17780284789e-05
2.17746809536e-05
2.17722120478e-05
2.17669411413e-05
2.17601181755e-05
2.17056742912e-05
2.15211986476e-05
2.14918799288e-05
4.37120464374e-05
0.00367757535492
0.0195546369127
2.19890659785e-05
2.18157606205e-05
2.17949085281e-05
2.19899323512e-05
2.19907167987e-05
2.19913062916e-05
)
;
    }
    sides
    {
        type            calculated;
        value           nonuniform List<scalar> 0();
    }
    bottom
    {
        type            calculated;
        value           nonuniform List<scalar> 
12
(
2.19693671735e-05
2.19735193983e-05
2.19771982096e-05
2.19799344078e-05
2.19822106172e-05
2.19847367742e-05
2.19862580963e-05
2.19875201693e-05
2.19890659785e-05
2.19899323512e-05
2.19907167987e-05
2.19913062916e-05
)
;
    }
    front
    {
        type            calculated;
        value           nonuniform List<scalar> 
166
(
2.19693671735e-05
2.17968246416e-05
2.17758153329e-05
2.17697024097e-05
2.17675380702e-05
2.1767441343e-05
2.17676001907e-05
2.17670279593e-05
2.17657162669e-05
2.17636301319e-05
2.1760385111e-05
2.17555659377e-05
2.17478815736e-05
2.17380542697e-05
2.1693426248e-05
2.17244851935e-05
2.1579461055e-05
2.9377456093e-05
0.000327395582333
0.0110899220576
2.19735193983e-05
2.18007092336e-05
2.17797698496e-05
2.17733643812e-05
2.17708253108e-05
2.17700813543e-05
2.17698239443e-05
2.17690254883e-05
2.17674684953e-05
2.1765111761e-05
2.17618272236e-05
2.17567164034e-05
2.17482072746e-05
2.17383624363e-05
2.16876296202e-05
2.17339569294e-05
2.15755538185e-05
3.04500704065e-05
0.00037546966267
0.0106009992435
2.19771982096e-05
2.18039616483e-05
2.1783203765e-05
2.1776800245e-05
2.17741744468e-05
2.17730532212e-05
2.17723142806e-05
2.17712165829e-05
2.1769516634e-05
2.17669696546e-05
2.17634600145e-05
2.1758151454e-05
2.17493488825e-05
2.17384672446e-05
2.16833940999e-05
2.17452378107e-05
2.16124017217e-05
3.20492551964e-05
0.000557404022443
0.0121273748562
2.19799344078e-05
2.18068273595e-05
2.17861428441e-05
2.17797497732e-05
2.17770317552e-05
2.17756658317e-05
2.17746807306e-05
2.17734128043e-05
2.17715175452e-05
2.17690229738e-05
2.17650140731e-05
2.17602039217e-05
2.17517479659e-05
2.17395518892e-05
2.1683533765e-05
2.1753775095e-05
2.15917902927e-05
3.3798782354e-05
0.000792028663496
0.0130101079157
2.19822106172e-05
2.18093321519e-05
2.1788632589e-05
2.17821732043e-05
2.17793958556e-05
2.17778736925e-05
2.17768623066e-05
2.17756029681e-05
2.17736926231e-05
2.17711348489e-05
2.17677751003e-05
2.17627421083e-05
2.17547397616e-05
2.1746765668e-05
2.16869819374e-05
2.16568471722e-05
2.14705574223e-05
3.57414785431e-05
0.00109796273844
0.0142094265138
2.19847367742e-05
2.18115691244e-05
2.17907829799e-05
2.17843153727e-05
2.17816095643e-05
2.17800124675e-05
2.17790096644e-05
2.17778070519e-05
2.17759964149e-05
2.17735947913e-05
2.17708321679e-05
2.17666151818e-05
2.17592569136e-05
2.17531897234e-05
2.16963560783e-05
2.15057216401e-05
2.1360152746e-05
3.80472256084e-05
0.00160973641295
0.0154100259674
2.19862580963e-05
2.18134154627e-05
2.17924918021e-05
2.17861761801e-05
2.17835017148e-05
2.17818732071e-05
2.17807838654e-05
2.17793437893e-05
2.17780846467e-05
2.17763263073e-05
2.17731470749e-05
2.17690701024e-05
2.17638080338e-05
2.1758901716e-05
2.17019720269e-05
2.1496903941e-05
2.14563651253e-05
4.08598110237e-05
0.00240959582324
0.0191111854409
2.19875201693e-05
2.18146194643e-05
2.17937468254e-05
2.17875831731e-05
2.17849865797e-05
2.17834353627e-05
2.17825670068e-05
2.17816281108e-05
2.17802855989e-05
2.17780284789e-05
2.17746809536e-05
2.17722120478e-05
2.17669411413e-05
2.17601181755e-05
2.17056742912e-05
2.15211986476e-05
2.14918799288e-05
4.37120464374e-05
0.00367757535492
0.0195546369127
2.19890659785e-05
2.18157606205e-05
2.17949085281e-05
2.19899323512e-05
2.19907167987e-05
2.19913062916e-05
)
;
    }
    atmosphere
    {
        type            calculated;
        value           nonuniform List<scalar> 8(0.0110899220576 0.0106009992435 0.0121273748562 0.0130101079157 0.0142094265138 0.0154100259674 0.0191111854409 0.0195546369127);
    }
    floatingObject
    {
        type            calculated;
        value           nonuniform List<scalar> 0();
    }
    procBoundary9to6
    {
        type            processor;
        value           nonuniform List<scalar> 4(2.15935750154e-05 2.84715990577e-05 0.000290215404002 0.0114561836599);
    }
    procBoundary9to7
    {
        type            processor;
        value           nonuniform List<scalar> 
16
(
2.19634492767e-05
2.17918893708e-05
2.17712573943e-05
2.17658899793e-05
2.17644399391e-05
2.17652036315e-05
2.17658953759e-05
2.17656985511e-05
2.17646391979e-05
2.17626611741e-05
2.17595962733e-05
2.17550672045e-05
2.17471993028e-05
2.17387249697e-05
2.16972337595e-05
2.17076625134e-05
)
;
    }
    procBoundary9to10
    {
        type            processor;
        value           nonuniform List<scalar> 
15
(
2.17887604827e-05
2.17864555152e-05
2.17851572027e-05
2.17842639113e-05
2.17837722852e-05
2.17819275737e-05
2.17794825508e-05
2.17773688127e-05
2.18171936383e-05
2.17887604827e-05
2.17958841691e-05
2.18171936383e-05
2.18182890613e-05
2.1818741269e-05
2.19913645279e-05
)
;
    }
    procBoundary9to11
    {
        type            processor;
        value           nonuniform List<scalar> 9(2.17736467062e-05 2.17676736939e-05 2.17598324592e-05 2.17059633597e-05 2.15390844542e-05 2.15260328086e-05 4.66571515546e-05 0.00528682618209 0.0202240043255);
    }
}


// ************************************************************************* //
