/*--------------------------------*- C++ -*----------------------------------*\
| =========                 |                                                 |
| \\      /  F ield         | OpenFOAM: The Open Source CFD Toolbox           |
|  \\    /   O peration     | Version:  v2012                                 |
|   \\  /    A nd           | Website:  www.openfoam.com                      |
|    \\/     M anipulation  |                                                 |
\*---------------------------------------------------------------------------*/
FoamFile
{
    version     2.0;
    format      ascii;
    class       surfaceScalarField;
    location    "3";
    object      phi;
}
// * * * * * * * * * * * * * * * * * * * * * * * * * * * * * * * * * * * * * //

dimensions      [0 3 -1 0 0 0 0];
oriented        oriented;


internalField   nonuniform List<scalar> 
3840
(
-6.08035274904e-06
6.08079877811e-06
-1.38345601283e-05
7.75467536896e-06
-2.21363355957e-05
8.30219033813e-06
-3.03024935901e-05
8.16647299863e-06
-3.80585932415e-05
7.7562907347e-06
-4.53155531699e-05
7.25697800119e-06
-5.20468152558e-05
6.73108826372e-06
-5.8084140097e-05
6.03703709528e-06
-6.32132022416e-05
5.12858906724e-06
-6.72105724401e-05
3.99705733852e-06
-6.96726915151e-05
2.46181584272e-06
-7.0215003344e-05
5.42023734957e-07
-6.7609815315e-05
-2.60543604826e-06
-6.06525688595e-05
-6.95743154686e-06
-4.76871144108e-05
-1.29655657777e-05
-2.72698926669e-05
-2.04172763437e-05
4.78337442357e-07
-2.7748248369e-05
8.18874443813e-06
-7.71040776179e-06
-3.41568846317e-05
4.23454728694e-05
4.40172999538e-06
-8.01311815016e-06
1.40944025202e-05
-1.60708078928e-05
1.5812851061e-05
-2.43114891569e-05
1.65432874314e-05
-3.25932285627e-05
1.64485133601e-05
-4.06772816601e-05
1.58405091522e-05
-4.84773927856e-05
1.50570826897e-05
-5.57762508377e-05
1.40297445942e-05
-6.24624175036e-05
1.27228395762e-05
-6.83695402208e-05
1.10351760578e-05
-7.32206562366e-05
8.84776362136e-06
-7.6750905212e-05
5.99171449921e-06
-7.85996877981e-05
2.3904935591e-06
-7.84561003778e-05
-2.74928917999e-06
-7.5519452662e-05
-9.89427764397e-06
-6.89504598783e-05
-1.95346877822e-05
-5.83607755873e-05
-3.10070294787e-05
-3.73638014567e-05
-4.87452498089e-05
-1.00986627914e-05
-3.49755517464e-05
1.68959430112e-05
1.5350510585e-05
-1.93677555313e-05
-8.85298482765e-06
2.29478830335e-05
-1.74006476045e-05
2.43610003245e-05
-2.60343682061e-05
2.51774160501e-05
-3.46614391722e-05
2.507587149e-05
-4.32038544434e-05
2.43830708759e-05
-5.15081611342e-05
2.33613595438e-05
-5.93942784009e-05
2.19156610159e-05
-6.68046076293e-05
2.01327862211e-05
-7.35601683185e-05
1.77900606033e-05
-7.94627299417e-05
1.47498392952e-05
-8.42792111697e-05
1.08077822814e-05
-8.765950183e-05
5.77042650287e-06
-8.94898473682e-05
-9.19244763869e-07
-8.95694326945e-05
-9.81492754309e-06
-8.71218907927e-05
-2.19823896944e-05
-8.16153958676e-05
-3.65136199987e-05
-6.85746595788e-05
-6.17860260754e-05
-3.51462775251e-05
-6.84039412339e-05
4.27801793279e-05
-6.25760892061e-05
-6.52214051394e-05
-9.10193375597e-06
3.20503076142e-05
-1.80652983416e-05
3.33248411876e-05
-2.7068698767e-05
3.41812098067e-05
-3.60524334031e-05
3.40598747737e-05
-4.50069387711e-05
3.33377009559e-05
-5.37316600019e-05
3.20860554755e-05
-6.22476311745e-05
3.04314204018e-05
-7.03418553539e-05
2.82266126701e-05
-7.78865425029e-05
2.53339870595e-05
-8.48721731095e-05
2.17346119023e-05
-9.10242142015e-05
1.69593166721e-05
-9.60305023855e-05
1.07762945187e-05
-0.000100116222317
3.16611924034e-06
-0.000102726120603
-7.20531117444e-06
-0.000103416852801
-2.12918608703e-05
-0.00010102562137
-3.89049769782e-05
-9.3922639918e-05
-6.88890612259e-05
-6.40504618541e-05
-9.82761315212e-05
2.70637508697e-05
-0.000153690201961
-0.000113111248737
-9.17059684198e-06
4.12213822596e-05
-1.84653207381e-05
4.26200242158e-05
-2.78300068435e-05
4.35462690266e-05
-3.71695279617e-05
4.33996411824e-05
-4.64619366205e-05
4.26302076874e-05
-5.56751812753e-05
4.12992504677e-05
-6.47026302155e-05
3.9458673065e-05
-7.34682091246e-05
3.6991812661e-05
-8.20331371247e-05
3.38983178797e-05
-9.01337758626e-05
2.98343115395e-05
-9.77355913987e-05
2.45602025603e-05
-0.000104690675844
1.77308914436e-05
-0.000110671731788
9.14676165442e-06
-0.00011562005289
-2.2573246667e-06
-0.000119318933894
-1.75932256964e-05
-0.000120806127816
-3.74179383468e-05
-0.000119542757348
-7.01524977491e-05
-9.81370313786e-05
-0.000119681871329
-2.91679961062e-05
-0.000222659403031
-0.000144910982333
-9.28531788198e-06
5.05071593738e-05
-1.87243881956e-05
5.20595314518e-05
-2.83791147913e-05
5.32013445109e-05
-3.81442760443e-05
5.31650215769e-05
-4.78505974957e-05
5.23365990314e-05
-5.75688861711e-05
5.10174590121e-05
-6.71837109368e-05
4.90732805791e-05
-7.67805548816e-05
4.65882592078e-05
-8.62142400785e-05
4.33313955296e-05
-9.55278162663e-05
3.91471807372e-05
-0.000104552071112
3.35834667911e-05
-0.000113444818228
2.66230955212e-05
-0.00012173727516
1.74387549991e-05
-0.000129806979248
5.81200235421e-06
-0.000136552968998
-1.08475167411e-05
-0.000142444404006
-3.15266827537e-05
-0.000147623032982
-6.49739442879e-05
-0.000144646705878
-0.000122658213631
-0.000117547119843
-0.000249759246123
-0.000143783676048
-9.39946388868e-06
5.99070594737e-05
-1.91688098223e-05
6.18292881755e-05
-2.90640184193e-05
6.30968753769e-05
-3.9120323106e-05
6.32215190762e-05
-4.92485372479e-05
6.24648567874e-05
-5.93942685184e-05
6.11630845205e-05
-6.96753189932e-05
5.9354090049e-05
-8.00423192733e-05
5.69548418611e-05
-9.03990761395e-05
5.36875083804e-05
-0.000100963266971
4.9710634687e-05
-0.000111754481151
4.43736243324e-05
-0.000122648171063
3.75162048723e-05
-0.00013373791824
2.8528007123e-05
-0.000144360324605
1.64340053347e-05
-0.000155690649039
4.82505493866e-07
-0.000167090454929
-2.01270702526e-05
-0.000180015829893
-5.20486493019e-05
-0.000194205326481
-0.000108468733585
-0.0002158386383
-0.000228126127903
-0.000123468973714
-9.60166430038e-06
6.95091328941e-05
-1.95087547213e-05
7.17367599106e-05
-2.970576472e-05
7.32941797089e-05
-4.00691714053e-05
7.35850938404e-05
-5.05964063491e-05
7.29921144185e-05
-6.11970494718e-05
7.17636041789e-05
-7.20622231121e-05
7.02190111432e-05
-8.31161314535e-05
6.8008317186e-05
-9.45779480889e-05
6.51486867256e-05
-0.000106360985549
6.1492918873e-05
-0.000118586226435
5.65978038861e-05
-0.000131430948932
5.03603434345e-05
-0.000144964149193
4.20607107e-05
-0.000159608518819
3.10779704615e-05
-0.000175621843947
1.64955276612e-05
-0.000193671235781
-2.07787025927e-06
-0.000215829095643
-2.98908657755e-05
-0.000243534862402
-8.0762983942e-05
-0.000296211567706
-0.000175449525417
-8.16446927414e-05
-9.75403122118e-06
7.92635420491e-05
-1.98380794454e-05
8.18211567416e-05
-3.02629893917e-05
8.37193549212e-05
-4.09020405657e-05
8.4224290674e-05
-5.17287165617e-05
8.38187981524e-05
-6.28667719511e-05
8.29015307698e-05
-7.4197141783e-05
8.15491306373e-05
-8.60244271021e-05
7.98351885101e-05
-9.82320322753e-05
7.73556718213e-05
-0.000111128861296
7.4389054116e-05
-0.000124910646803
7.03785685848e-05
-0.000139684588619
6.51337355221e-05
-0.000155700122319
5.80757798681e-05
-0.000173266171992
4.86436452494e-05
-0.000193055720509
3.62847993946e-05
-0.00021683121071
2.16974503206e-05
-0.000248554315362
1.8321763625e-06
-0.000291522533582
-3.77947844726e-05
-0.000381774290613
-8.51978068823e-05
-2.90017431129e-05
-9.87425492503e-06
8.91381394635e-05
-2.01811924553e-05
9.21284068219e-05
-3.07476360391e-05
9.42860334767e-05
-4.15904163919e-05
9.506719613e-05
-5.27067880894e-05
9.49351696374e-05
-6.41431475158e-05
9.43377659823e-05
-7.60147189555e-05
9.34204734614e-05
-8.83139906664e-05
9.21340812238e-05
-0.000101402140602
9.04432964647e-05
-0.000115179844524
8.8166148535e-05
-0.000130129589077
8.53274381608e-05
-0.000146424075205
8.14277539534e-05
-0.000164506593991
7.61579083794e-05
-0.000184709988031
6.88467316162e-05
-0.00020767610841
5.92507015601e-05
-0.000235031021771
4.90522394876e-05
-0.000272765770915
3.95668855552e-05
-0.000331735420978
2.11748506269e-05
-0.000465875811922
4.89429721815e-05
1.579163079e-05
-9.98317872429e-06
9.91216210679e-05
-2.03145067845e-05
0.000102460008171
-3.10473667382e-05
0.000105019096687
-4.2068948125e-05
0.000106088883742
-5.33797204385e-05
0.000106245938748
-6.50716371581e-05
0.000106029576191
-7.72485223015e-05
0.000105597166186
-9.00774460331e-05
0.000104962704559
-0.000103584629485
0.00010395006194
-0.000118224709063
0.000102805790824
-0.000134034674832
0.000101136724438
-0.000151521112351
9.8913846965e-05
-0.000171134115898
9.57706346677e-05
-0.000193438545758
9.11509572281e-05
-0.00021945286592
8.52648927967e-05
-0.000250967357864
8.05666730789e-05
-0.000291921205015
8.05207228537e-05
-0.000350755499904
8.00091462399e-05
-0.000456019975203
0.000154207481828
5.40440373659e-05
-1.00437935248e-05
0.00010916567429
-2.03781664611e-05
0.000112794612488
-3.11367369148e-05
0.000115777837586
-4.22393660333e-05
0.000117191601218
-5.3677561102e-05
0.000117684133105
-6.55250357947e-05
0.000117876968601
-7.78900730304e-05
0.000117962063364
-9.09375999989e-05
0.000118010018439
-0.000104912206398
0.000117924427777
-0.000119910745223
0.000117804069924
-0.000136318503499
0.000117544092409
-0.000154492847301
0.000117088007669
-0.000175028388884
0.000116306045589
-0.000198803050003
0.000114925546103
-0.000226800459497
0.000113262284182
-0.000260559704228
0.00011432593709
-0.000301134999904
0.000121096042404
-0.000344472515771
0.000123346673364
-0.000372533159417
0.000182267628696
9.9984402815e-05
-9.94867088294e-06
0.000119114559383
-2.03025817333e-05
0.000123148711493
-3.10372264362e-05
0.000126512619491
-4.21228697605e-05
0.00012827731625
-5.35619909294e-05
0.000129123258288
-6.54403569478e-05
0.000129755284809
-7.78937531923e-05
0.000130415377042
-9.09983106451e-05
0.000131114477985
-0.000105065813535
0.00013199185068
-0.000120223825803
0.000132962051635
-0.000136784070606
0.000134104237453
-0.000155145398391
0.000135449327769
-0.000175808548417
0.000136969226084
-0.000199434176123
0.000138551245657
-0.000226587353172
0.000140415561488
-0.000257147724394
0.000144886407483
-0.000286211323344
0.000150159697544
-0.000311493049462
0.000148628414896
-0.000342062646927
0.000212837262219
0.000146949800605
-9.84277509699e-06
0.000128957502915
-2.01495001093e-05
0.000133455582049
-3.07416175456e-05
0.000137104841803
-4.16814129415e-05
0.000139217167409
-5.30162933839e-05
0.000140458149136
-6.47905140903e-05
0.00014152948514
-7.71380301609e-05
0.000142762866978
-9.02045809061e-05
0.000144181038457
-0.000104114171447
0.000145901567258
-0.00011909540731
0.000147943474146
-0.000135439697748
0.000150448773573
-0.000153443718517
0.000153453570088
-0.000173507736088
0.00015703349576
-0.000196091105943
0.000161134900426
-0.000221409084174
0.000165733824105
-0.000248060104941
0.000171537670926
-0.000270711039723
0.000172810762327
-0.000292322414062
0.000170239814968
-0.000334206138528
0.00025472112759
0.000190709758392
-9.68861579911e-06
0.00013864624388
-1.96895678138e-05
0.000143456640269
-3.01507530397e-05
0.000147566101864
-4.08877755296e-05
0.000149954230074
-5.20403578713e-05
0.000151610744055
-6.36337381474e-05
0.000153122860402
-7.57138434499e-05
0.000154843013534
-8.84832454682e-05
0.000156950584707
-0.00010206943196
0.000159488059795
-0.000116640361327
0.000162514787951
-0.000132428363897
0.000166237394888
-0.000149627176104
0.000170652856454
-0.000168458175301
0.000175865021512
-0.000188860608135
0.000181537863846
-0.000209966147793
0.000186839883012
-0.000230305391639
0.00019187730171
-0.000250962467764
0.000193468018763
-0.000290730270731
0.000210007655281
-0.00036857108222
0.000332562191302
0.000232695555381
-9.4083535773e-06
0.000148054692169
-1.91478013099e-05
0.000153196163743
-2.93011655308e-05
0.000157719514717
-3.982255882e-05
0.000160475646213
-5.06199010884e-05
0.000162408057766
-6.18279819043e-05
0.000164330957605
-7.35715567247e-05
0.000166586654289
-8.59176674825e-05
0.000169296899738
-9.90052910094e-05
0.000172575997063
-0.000113022533008
0.000176532519719
-0.000127994574455
0.00018121018468
-0.000144203152397
0.000186862047588
-0.000161827247069
0.000193489765145
-0.000180917947219
0.000200629250898
-0.000200941395383
0.000206863947656
-0.000220761675897
0.000211698055821
-0.000243128766951
0.000215835331511
-0.000275632767411
0.000242511709973
-0.000342055118345
0.000398984594452
0.000274253035967
-9.04302667637e-06
0.000157097789645
-1.8497407824e-05
0.000162650591584
-2.82797564747e-05
0.000167501884407
-3.83851570787e-05
0.000170580977581
-4.88018935437e-05
0.00017282474187
-5.95907014505e-05
0.00017511972368
-7.08002944002e-05
0.000177796286311
-8.25872885832e-05
0.000181084077698
-9.50168820251e-05
0.000185005998377
-0.000108190891536
0.000189707108221
-0.000122288933665
0.000195308982323
-0.00013743850526
0.000202012456087
-0.000153871013853
0.000209923217462
-0.000171897115306
0.000218656328001
-0.000191776634853
0.000226744417376
-0.000212243927289
0.000232166087687
-0.00023161899778
0.000235210775056
-0.000244431210418
0.000255324004483
-0.000271430311756
0.00042598401038
0.000307563571726
-8.70901457455e-06
0.000165806846384
-1.76710342259e-05
0.000171612634893
-2.70407134011e-05
0.000176871496129
-3.66900384717e-05
0.000180230210693
-4.66181631393e-05
0.000182752738372
-5.68677686854e-05
0.000185369200116
-6.75293835791e-05
0.000188457876863
-7.86286323648e-05
0.000192183355553
-9.02208374383e-05
0.000196598329191
-0.0001023967222
0.000201883224693
-0.00011530606764
0.000208218670427
-0.000128986652049
0.000215693485783
-0.000143691577652
0.00022462868072
-0.000159638375047
0.000234603714548
-0.000176950250633
0.00024405687338
-0.000194371009702
0.000249587301666
-0.000207782449343
0.000248622427565
-0.000210377298994
0.000257918896182
-0.000222172583922
0.000437779555433
0.000331973637772
-8.20833519649e-06
0.000174015245868
-1.67263210958e-05
0.000180130630988
-2.56021208616e-05
0.000185747253234
-3.47414786464e-05
0.000189369438238
-4.41298163607e-05
0.000192140850622
-5.37979647824e-05
0.00019503722057
-6.37767392823e-05
0.000198436544528
-7.41043358971e-05
0.000202510894209
-8.48719684846e-05
0.000207365985722
-9.59335638611e-05
0.000212944950403
-0.000107567264783
0.000219852623396
-0.000119705399517
0.000227831998277
-0.00013214551066
0.000237069285209
-0.000145074366805
0.000247533144646
-0.000158319757239
0.000257302848815
-0.000171000080122
0.000262268096576
-0.000180848602034
0.000258471176959
-0.000184640235966
0.000261710575659
-0.000202012719904
0.000455151978069
0.000361592885774
-7.64408944349e-06
0.000181659365691
-1.57516539678e-05
0.000188238203418
-2.4070983558e-05
0.000194066503097
-3.26273064245e-05
0.000197925603218
-4.14099087059e-05
0.000200923296837
-5.04088689704e-05
0.000204035996989
-5.96599917375e-05
0.000207687484039
-6.91778539822e-05
0.000212028609802
-7.89569299614e-05
0.000217144991951
-8.91159869582e-05
0.000223104047893
-9.9346438275e-05
0.000230083252641
-0.000109750341088
0.000238236228676
-0.000120197913787
0.000247517330981
-0.000130387680104
0.000257723492968
-0.000140215396835
0.000267131179087
-0.000149967790407
0.000272020996476
-0.000159302821639
0.000267806457134
-0.0001680888586
0.000270496663177
-0.00018861778893
0.000475680802467
0.000395735099169
-7.1639411503e-06
0.000188823351965
-1.45751068542e-05
0.000195649394723
-2.23348412165e-05
0.0002018262012
-3.02987897405e-05
0.000205889438824
-3.84496118153e-05
0.000209073932523
-4.67563928192e-05
0.00021234253857
-5.52822570844e-05
0.000216213091008
-6.39895971681e-05
0.000220735719287
-7.28970115251e-05
0.000226052250271
-8.19345740781e-05
0.000232141572071
-9.10460618852e-05
0.000239194854987
-0.000100031741198
0.000247222197015
-0.000108735528693
0.000256221581609
-0.000116824865291
0.000265813430503
-0.000124383593318
0.000274690560927
-0.00013328314367
0.00028092109934
-0.000142528877104
0.000277052469063
-0.000157186084238
0.000285153929066
-0.000189439670582
0.000507934116525
0.000429186891895
-6.48454581084e-06
0.000195307969684
-1.33689093745e-05
0.000202533810462
-2.0496967426e-05
0.000208954239843
-2.78363980508e-05
0.000213228753445
-3.5339931742e-05
0.000216577253136
-4.28986579677e-05
0.000219900976663
-5.07179919926e-05
0.000224032102867
-5.86430301637e-05
0.000228660454326
-6.66557964459e-05
0.000234064788973
-7.47484320318e-05
0.000240234106591
-8.27845194848e-05
0.000247231008579
-9.06136429767e-05
0.000255051581574
-9.80073269932e-05
0.000263615726252
-0.00010459010673
0.000272396838187
-0.000110403437208
0.00028050460047
-0.000116377705571
0.000286895988638
-0.000127831591143
0.00028850668254
-0.00014870654842
0.000306028956648
-0.000203671051865
0.00056289853112
0.000459839764486
-5.92449934539e-06
0.000201232651181
-1.21017624105e-05
0.000208711210869
-1.8562563424e-05
0.000215415073506
-2.5211511873e-05
0.00021987759311
-3.19874321842e-05
0.000223352917241
-3.89981533291e-05
0.000226911321551
-4.60355210574e-05
0.000231069031624
-5.32035672924e-05
0.000235828076497
-6.04343848089e-05
0.000241295267656
-6.76781132117e-05
0.000247477648612
-7.47815624027e-05
0.000254334471674
-8.1621050325e-05
0.000261891318155
-8.79972653147e-05
0.000269992445458
-9.37376541383e-05
0.000278137982147
-9.84286412977e-05
0.000285196526288
-0.000103648509538
0.000292116767682
-0.000113949008472
0.000298807727189
-0.000135252340044
0.00032733240422
-0.000191423401714
0.000619069616586
0.000489449342429
-5.26624624119e-06
0.000206499221548
-1.07643975124e-05
0.000214209601107
-1.65295922389e-05
0.000221180340741
-2.24889623878e-05
0.000225836821085
-2.85907046331e-05
0.000229454299384
-3.48438763892e-05
0.000233163965056
-4.11863624359e-05
0.000237410914601
-4.76634082801e-05
0.000242304493776
-5.41948268138e-05
0.000247826206617
-6.07162871935e-05
0.000253998841827
-6.70860573152e-05
0.000260704232921
-7.32236370277e-05
0.000268029197747
-7.89123330992e-05
0.000275681816339
-8.40020104241e-05
0.000283228756829
-8.87913160694e-05
0.000289987256452
-9.40764314535e-05
0.00029740324487
-0.00010515211046
0.000309884122148
-0.00012569989127
0.000347880336858
-0.000161696050493
0.000655067669142
0.000510520918261
-4.49176570723e-06
0.0002109913767
-9.32616894879e-06
0.000219044289424
-1.43915626274e-05
0.000226245821277
-1.96413287555e-05
0.000231086420257
-2.50411426754e-05
0.000234853697246
-3.05847124462e-05
0.000238706933742
-3.62649649971e-05
0.000243090390115
-4.20609833649e-05
0.000248099773848
-4.79354776785e-05
0.000253700069076
-5.38387500221e-05
0.00025990177137
-5.97014089919e-05
0.000266566867059
-6.54048132364e-05
0.000273732949068
-7.06034038992e-05
0.000280881230678
-7.56251673559e-05
0.000288251871172
-8.04724368336e-05
0.000294836234944
-8.68853812146e-05
0.000303817748783
-9.93030818723e-05
0.000322302624816
-0.000115950481048
0.000364528022721
-0.000117527404894
0.000656646409306
0.000529985176183
-3.78412941601e-06
0.000214776072493
-7.83534185395e-06
0.000223095941865
-1.21435901961e-05
0.000230554242166
-1.66551785234e-05
0.000235597826906
-2.13367821184e-05
0.000239534757111
-2.61865028022e-05
0.000243555783543
-3.1203664797e-05
0.000248106462838
-3.63552339529e-05
0.000253250153247
-4.16713503254e-05
0.000259014807412
-4.70431767914e-05
0.000265273056196
-5.24617160903e-05
0.000271985301362
-5.77393269519e-05
0.000279010985848
-6.29844212098e-05
0.000286127427772
-6.78703490134e-05
0.000293139659152
-7.27864015754e-05
0.000299754707544
-7.79783931656e-05
0.000309012036919
-8.53805948233e-05
0.000329706098923
-9.11248792818e-05
0.000370272678886
-0.000110391757892
0.000675914613044
0.000558552170953
-2.9829194232e-06
0.000217759280028
-6.23513877702e-06
0.000226348368499
-9.7701315159e-06
0.000234089286256
-1.35215597954e-05
0.000239349108207
-1.74696423741e-05
0.000243482500374
-2.16152771434e-05
0.00024770088039
-2.59710560924e-05
0.000252461600976
-3.05713040617e-05
0.000257849721345
-3.53452337984e-05
0.000263787836178
-4.02808538411e-05
0.000270208406008
-4.53130455425e-05
0.000277017500081
-5.03562655226e-05
0.00028405455742
-5.53959910282e-05
0.00029116791548
-6.03655035432e-05
0.000298110329157
-6.58556872162e-05
0.000305246253544
-7.19656837411e-05
0.000315123178285
-7.44324985991e-05
0.000332173439984
-7.14601555961e-05
0.000367300473968
-8.9655098109e-05
0.000694109453551
0.000573267206795
-2.14760528531e-06
0.00021990710996
-4.59547378132e-06
0.000228796379037
-7.30928620269e-06
0.000236803095003
-1.02562051159e-05
0.000242295844791
-1.34333618358e-05
0.000246659307525
-1.68608417633e-05
0.000251127880171
-2.05607614505e-05
0.000256160961296
-2.45515797507e-05
0.000261839975978
-2.88307644717e-05
0.000268066244216
-3.33680739287e-05
0.0002747452997
-3.80937193762e-05
0.000281743036232
-4.29372947294e-05
0.000288898537271
-4.77911635487e-05
0.000296022560402
-5.25770706003e-05
0.00030289733322
-5.76860466427e-05
0.000310356453291
-6.34133798719e-05
0.000320851507744
-7.25007712629e-05
0.000341261285183
-7.15250260761e-05
0.000366324824708
-7.33856631468e-05
0.000695970300364
0.000546192322205
-1.3250083818e-06
0.000221232276071
-2.88630139528e-06
0.000230357739908
-4.70568550086e-06
0.000238622405545
-6.80710852736e-06
0.000244397029379
-9.17323811275e-06
0.00024902505113
-1.18436975511e-05
0.00025379785637
-1.48505357497e-05
0.000259167280143
-1.82791936411e-05
0.000265268165069
-2.20822975276e-05
0.000271869025685
-2.62594274308e-05
0.000278922299708
-3.07246469944e-05
0.000286208248418
-3.53589219849e-05
0.000293533267252
-3.99386594337e-05
0.000300603100644
-4.45016628881e-05
0.000307461412553
-4.96155220931e-05
0.000315471466203
-5.7599564082e-05
0.000328836467592
-7.19655590747e-05
0.000355627692787
-8.70578819947e-05
0.000381417217354
-0.00011162006781
0.000720532742869
0.000487683410252
-3.75969352379e-07
0.000221608327247
-1.0550733144e-06
0.000231036829563
-2.00441098496e-06
0.000239571593327
-3.15377376699e-06
0.000245546092524
-4.65269778911e-06
0.000250523548402
-6.5339755184e-06
0.000255678634429
-8.88098586686e-06
0.000261513785259
-1.16733787288e-05
0.000268060132021
-1.4986655839e-05
0.000275182027888
-1.88445196609e-05
0.0002827800815
-2.32178259438e-05
0.000290581619433
-2.79108985816e-05
0.000298226837963
-3.26840148442e-05
0.000305377047832
-3.7159049977e-05
0.000311937523483
-4.29446396616e-05
0.000321258181192
-5.54637230232e-05
0.000341356431658
-7.88826428503e-05
0.000379046999586
-0.000105251279398
0.00040778591223
-0.00017875482327
0.00079403611921
0.000447658677435
5.79232348603e-07
0.000221029092394
9.71849630938e-07
0.000230644110162
1.07538742205e-06
0.000239467828006
8.62803641679e-07
0.000245758318897
3.00724988989e-07
0.000251085166934
-7.5286025456e-07
0.000256731711688
-2.36434761965e-06
0.000263124784034
-4.56094209841e-06
0.000270256339303
-7.51544508509e-06
0.000278136314074
-1.11242158464e-05
0.000286388839308
-1.55476284598e-05
0.000295005189185
-2.06645965026e-05
0.000303344361695
-2.61058049767e-05
0.000310819133493
-3.19283044537e-05
0.000317761126069
-4.02747511598e-05
0.000329605759629
-5.90570739636e-05
0.000360139625386
-9.50043810356e-05
0.000414994674682
-0.000147106521749
0.000459888104626
-0.000295096670979
0.000942026107747
0.000413973000228
1.67176220382e-06
0.000219357237255
3.09099223663e-06
0.000229224687104
4.29142369534e-06
0.000238267093209
5.16412868226e-06
0.000244885206302
5.63534359391e-06
0.000250613471671
5.5863664528e-06
0.000256780189872
4.8986517382e-06
0.000263812045079
3.36168825034e-06
0.000271792976994
8.22653310147e-07
0.000280675229638
-2.86879692042e-06
0.000290080393555
-7.66355693104e-06
0.000299800261865
-1.35640905901e-05
0.000309245544256
-2.10489427395e-05
0.000318304941984
-2.95733223089e-05
0.000326286667854
-4.20079616052e-05
0.000342041565224
-6.44472641555e-05
0.000382579804007
-0.000102919122236
0.000453466883267
-0.000158837419843
0.000515806446902
-0.000295367795842
0.00107855659551
0.000394842330411
2.81989906989e-06
0.000216537150552
5.45412474491e-06
0.000226590176569
7.86823007228e-06
0.000235852612657
9.94125257471e-06
0.00024281173552
1.15320468397e-05
0.000249022192048
1.25529301835e-05
0.000255758836954
1.28419432226e-05
0.000263522637483
1.21557109501e-05
0.000272478978718
1.03210920486e-05
0.00028250987656
6.92708546446e-06
0.000293474678793
1.73121435774e-06
0.000304996682009
-5.77561726498e-06
0.000316753159584
-1.56056145154e-05
0.000328136007819
-2.93506103259e-05
0.000340032909575
-4.83993954228e-05
0.000361091563815
-7.23244581734e-05
0.000406505743947
-9.92405149398e-05
0.000480383267404
-0.000140727228461
0.000557293209824
-0.000230677732857
0.00116850686128
0.000405959704508
4.06540839501e-06
0.000212471457901
7.98518603247e-06
0.000222670023389
1.16815896565e-05
0.000232155767342
1.50583954448e-05
0.000239434450809
1.79884477947e-05
0.00024609166398
2.03032222542e-05
0.000253443641274
2.17457779479e-05
0.000262079769164
2.20955279772e-05
0.000272129125972
2.10692246004e-05
0.000283536399836
1.82828637871e-05
0.000296261542168
1.30980190415e-05
0.000310182382872
4.94801365177e-06
0.000324904113958
-7.41991876036e-06
0.000340505138471
-2.58232921519e-05
0.000358437615582
-5.00520996973e-05
0.000385321618198
-7.23028078833e-05
0.000428757308212
-8.08292735882e-05
0.000488910033703
-9.68704039875e-05
0.000573334364248
-3.44998812392e-05
0.00110613553038
0.000429063132142
5.38367058066e-06
0.000207087406587
1.06908697961e-05
0.000217362361107
1.58349808586e-05
0.000227011154455
2.06858578707e-05
0.000234583073283
2.5080186955e-05
0.000241696880241
2.88527547449e-05
0.000249670714152
3.17454839023e-05
0.000259186825049
3.34964172448e-05
0.000270378240066
3.36662824795e-05
0.000283366973932
3.18415556426e-05
0.000298087023959
2.7346978483e-05
0.000314678163805
1.91199599066e-05
0.000333132256188
6.09575047609e-06
0.000353530669938
-1.2804940431e-05
0.000377339702916
-3.59313707691e-05
0.000408449293851
-5.23050057499e-05
0.000445131752435
-4.48219225366e-05
0.000481427212397
-4.55606741904e-05
0.000574073144133
7.76625527686e-05
0.000982911481917
0.000410298270446
6.79041783377e-06
0.000200296514231
1.35775327385e-05
0.000210574700909
2.02904972266e-05
0.000220297634915
2.67585661e-05
0.000228114489295
3.28140255107e-05
0.000235640993605
3.82719054112e-05
0.000244212542552
4.29276663773e-05
0.000254530952609
4.64498169814e-05
0.000266856295177
4.85030795529e-05
0.000281314377999
4.84374008919e-05
0.000298153717449
4.56912800194e-05
0.000317425844675
3.92523257217e-05
0.000339572502359
2.81040125631e-05
0.000364680408697
1.15597352972e-05
0.000393885406006
-7.19903039902e-06
0.000427209261718
-2.28604823229e-05
0.000460793936541
-6.86197812671e-06
0.000465428921815
1.64058766505e-06
0.000565570528153
-0.000130033048236
0.00111458376585
0.00039670030934
8.3006034675e-06
0.000191995348524
1.66342087016e-05
0.000202240475957
2.49980109045e-05
0.000211933232076
3.32087894683e-05
0.000219903186483
4.11289546913e-05
0.000227720431224
4.85437764142e-05
0.000236797496692
5.52601437084e-05
0.00024781457607
6.10043701787e-05
0.00026111243037
6.53910613194e-05
0.000276928579578
6.80522733661e-05
0.000295493785404
6.8451056169e-05
0.000317028975177
6.59880967631e-05
0.000342036918568
5.96482498042e-05
0.000371021768661
4.88964507576e-05
0.000404638629288
3.49628207265e-05
0.000441144003429
2.02518549825e-05
0.000475505515338
1.9151162304e-05
0.00046652975822
3.06592810266e-05
0.000554061965
5.5600559902e-05
0.00108963696255
0.000195573704271
9.80680625463e-06
0.000182187902289
1.9796913307e-05
0.000192249685007
2.99255539245e-05
0.000201803954683
4.00260244273e-05
0.000209802190103
4.9947004183e-05
0.000217799090439
5.95650638147e-05
0.00022717928525
6.86197814759e-05
0.000238759957073
7.69131944223e-05
0.000252819541444
8.40687163724e-05
0.000269774201027
8.96705037182e-05
0.00028989358793
9.33943792509e-05
0.000313307386969
9.48647550327e-05
0.000340568186317
9.35074093904e-05
0.0003723807289
8.94570984166e-05
0.000408690346388
8.44663710295e-05
0.000446135707721
8.27967499631e-05
0.000477175577488
7.55366155235e-05
0.000473789935335
5.94937746579e-05
0.000570102561313
0.000483888836772
0.000665225891021
-2.03302400809e-05
1.13108537943e-05
0.000170876343842
2.29659347342e-05
0.0001805938677
3.49258852e-05
0.000189843342004
4.70219005922e-05
0.000197705661023
5.91373362225e-05
0.000205683351571
7.1119862556e-05
0.000215196711261
8.28581555369e-05
0.000227021904906
9.40125738138e-05
0.000241665999264
0.000104223010849
0.000259565493504
0.000113146721338
0.000280972217132
0.000120261615195
0.000306195556601
0.000125052624896
0.000335779452577
0.0001271195903
0.000370315833824
0.000126716877807
0.000409094683215
0.000127415491693
0.000445437923153
0.0001344776506
0.000470113583976
0.00012518651954
0.000483080917769
5.96780668084e-05
0.000635606210145
0.000129318646959
0.000595528281111
-5.91778382863e-05
1.28254390103e-05
0.000158049942735
2.6200554184e-05
0.000167217812181
3.9924449286e-05
0.000176118628802
5.40670016865e-05
0.000183562482823
6.84614445729e-05
0.000191288640372
8.30646184455e-05
0.000200593623344
9.77010501545e-05
0.000212386416305
0.000112103593886
0.000227265117872
0.000125961285017
0.000245710749112
0.000138800445976
0.000268135975993
0.000150259183896
0.000294741951438
0.000159902813143
0.000326139042955
0.00016712132591
0.000363100125178
0.000171081037653
0.000405136560728
0.000174723350489
0.000441796183737
0.000177356111916
0.000467480485665
0.000164881326356
0.000495555403349
7.56774853639e-05
0.00072478747424
2.69346408279e-05
0.000644158214155
-7.62613010785e-06
1.4265598215e-05
0.0001437830435
2.91933466178e-05
0.000152288822897
4.48105342655e-05
0.000160500343713
6.09047043626e-05
0.000167467789747
7.76656362765e-05
0.000174527446489
9.5018956064e-05
0.000183241244699
0.000112830116152
0.000194576658212
0.00013093651458
0.000209161219915
0.000148880589127
0.000227769407266
0.000166258471648
0.000250762279594
0.00018318176537
0.000277824138396
0.000199964335115
0.000309360312703
0.000215809783988
0.000347257476722
0.000227682065561
0.000393265956825
0.000232873419767
0.000436604893556