/*--------------------------------*- C++ -*----------------------------------*\
| =========                 |                                                 |
| \\      /  F ield         | OpenFOAM: The Open Source CFD Toolbox           |
|  \\    /   O peration     | Version:  v2012                                 |
|   \\  /    A nd           | Website:  www.openfoam.com                      |
|    \\/     M anipulation  |                                                 |
\*---------------------------------------------------------------------------*/
FoamFile
{
    version     2.0;
    format      ascii;
    class       volScalarField;
    location    "4";
    object      ddt0(k);
}
// * * * * * * * * * * * * * * * * * * * * * * * * * * * * * * * * * * * * * //

dimensions      [0 2 -3 0 0 0 0];


internalField   nonuniform List<scalar> 
164
(
-0.000831806941742
-0.00104313512069
-0.00111886958352
-0.00115112962784
-0.00116756600061
-0.00118185932449
-0.00119612875544
-0.00115100133399
-0.00103402960248
-0.000991734872485
-0.000904440427
-0.000593723718618
-0.000466032286114
-0.000207846915621
-0.000834354980383
-0.00104501223351
-0.00112147794632
-0.00115409947671
-0.00117003484372
-0.0011800263503
-0.00118248683139
-0.00115834747547
-0.00116245458449
-0.00115373153919
-0.00115555124161
-0.00109302089933
-0.000879560396335
-0.000582485258783
-0.000837796562016
-0.00104858088727
-0.00112566875147
-0.00115850662209
-0.00117390326235
-0.0011828495547
-0.00118911434689
-0.00119024344161
-0.00119225286761
-0.00118978525652
-0.0011876336777
-0.00116450353911
-0.00105659216105
-0.000788089181134
-0.00084183660706
-0.00105332962009
-0.00113084226056
-0.0011637423839
-0.00117867819883
-0.00118664341115
-0.00119234212079
-0.0011972426891
-0.00120070271355
-0.00120169040929
-0.00119780389353
-0.00117685867922
-0.00110127303201
-0.000876198339429
-0.000846032170435
-0.00105874195743
-0.0011365369429
-0.00116937992697
-0.0011839581146
-0.00119126046903
-0.00119599238057
-0.00120015945367
-0.00120394534237
-0.00120625392505
-0.00120407835201
-0.00118755266109
-0.00112583434769
-0.000934587717313
-0.000850151859261
-0.0010644079215
-0.00114234791088
-0.00117497505316
-0.00118917623728
-0.0011960151462
-0.00120015027074
-0.00120355823168
-0.0012068450613
-0.00120934819264
-0.00120839739453
-0.00119512321321
-0.00114321350262
-0.000984782114384
-0.000854070257031
-0.00106999954759
-0.001147919235
-0.00118018258001
-0.00119396576681
-0.00120040222637
-0.00120416159559
-0.00120715614771
-0.00121003620941
-0.0012123422121
-0.00121154019337
-0.00119923316085
-0.00115328009734
-0.00102553907103
-0.000857736325512
-0.00107534980458
-0.00115304826606
-0.00118479548683
-0.00119810987595
-0.00120416867161
-0.00120761996875
-0.00121034330504
-0.00121295009793
-0.00121497648703
-0.00121373217207
-0.00120080210333
-0.00115713370282
-0.00105158611162
-0.00086094838136
-0.00108025889627
-0.00115761363083
-0.00118875891796
-0.00120152015495
-0.00120719448287
-0.00121036279513
-0.00121284533062
-0.0012151983798
-0.00121690454306
-0.00121504176072
-0.00120069547667
-0.00115627613202
-0.00106387370298
-0.000863846320594
-0.00108467642273
-0.00116157940028
-0.00119202405247
-0.00120419550702
-0.0012094622805
-0.00121235842482
-0.00121460668618
-0.00121673206189
-0.00121819117959
-0.00121598419091
-0.00120060216607
-0.00115345625406
-0.00106188140964
-0.000866363989036
-0.00108852076626
-0.00116488898637
-0.00119460189261
-0.00120617294478
-0.001211036616
-0.00121366868928
-0.00121571176257
-0.00121762144224
-0.00121895409553
-0.00121689598919
-0.00120215995883
-0.00115519196994
-0.00106315120167
-0.00121797469898
-0.00121914530473
-0.0012174094448
-0.00120429416807
-0.00116097077831
-0.00107290924035
-0.00120584253151
-0.00116719693024
-0.00108464570364
-0.00109752754918
)
;

boundaryField
{
    back
    {
        type            calculated;
        value           nonuniform List<scalar> 
164
(
-0.000831806941742
-0.00104313512069
-0.00111886958352
-0.00115112962784
-0.00116756600061
-0.00118185932449
-0.00119612875544
-0.00115100133399
-0.00103402960248
-0.000991734872485
-0.000904440427
-0.000593723718618
-0.000466032286114
-0.000207846915621
-0.000834354980383
-0.00104501223351
-0.00112147794632
-0.00115409947671
-0.00117003484372
-0.0011800263503
-0.00118248683139
-0.00115834747547
-0.00116245458449
-0.00115373153919
-0.00115555124161
-0.00109302089933
-0.000879560396335
-0.000582485258783
-0.000837796562016
-0.00104858088727
-0.00112566875147
-0.00115850662209
-0.00117390326235
-0.0011828495547
-0.00118911434689
-0.00119024344161
-0.00119225286761
-0.00118978525652
-0.0011876336777
-0.00116450353911
-0.00105659216105
-0.000788089181134
-0.00084183660706
-0.00105332962009
-0.00113084226056
-0.0011637423839
-0.00117867819883
-0.00118664341115
-0.00119234212079
-0.0011972426891
-0.00120070271355
-0.00120169040929
-0.00119780389353
-0.00117685867922
-0.00110127303201
-0.000876198339429
-0.000846032170435
-0.00105874195743
-0.0011365369429
-0.00116937992697
-0.0011839581146
-0.00119126046903
-0.00119599238057
-0.00120015945367
-0.00120394534237
-0.00120625392505
-0.00120407835201
-0.00118755266109
-0.00112583434769
-0.000934587717313
-0.000850151859261
-0.0010644079215
-0.00114234791088
-0.00117497505316
-0.00118917623728
-0.0011960151462
-0.00120015027074
-0.00120355823168
-0.0012068450613
-0.00120934819264
-0.00120839739453
-0.00119512321321
-0.00114321350262
-0.000984782114384
-0.000854070257031
-0.00106999954759
-0.001147919235
-0.00118018258001
-0.00119396576681
-0.00120040222637
-0.00120416159559
-0.00120715614771
-0.00121003620941
-0.0012123422121
-0.00121154019337
-0.00119923316085
-0.00115328009734
-0.00102553907103
-0.000857736325512
-0.00107534980458
-0.00115304826606
-0.00118479548683
-0.00119810987595
-0.00120416867161
-0.00120761996875
-0.00121034330504
-0.00121295009793
-0.00121497648703
-0.00121373217207
-0.00120080210333
-0.00115713370282
-0.00105158611162
-0.00086094838136
-0.00108025889627
-0.00115761363083
-0.00118875891796
-0.00120152015495
-0.00120719448287
-0.00121036279513
-0.00121284533062
-0.0012151983798
-0.00121690454306
-0.00121504176072
-0.00120069547667
-0.00115627613202
-0.00106387370298
-0.000863846320594
-0.00108467642273
-0.00116157940028
-0.00119202405247
-0.00120419550702
-0.0012094622805
-0.00121235842482
-0.00121460668618
-0.00121673206189
-0.00121819117959
-0.00121598419091
-0.00120060216607
-0.00115345625406
-0.00106188140964
-0.000866363989036
-0.00108852076626
-0.00116488898637
-0.00119460189261
-0.00120617294478
-0.001211036616
-0.00121366868928
-0.00121571176257
-0.00121762144224
-0.00121895409553
-0.00121689598919
-0.00120215995883
-0.00115519196994
-0.00106315120167
-0.00121797469898
-0.00121914530473
-0.0012174094448
-0.00120429416807
-0.00116097077831
-0.00107290924035
-0.00120584253151
-0.00116719693024
-0.00108464570364
-0.00109752754918
)
;
    }
    sides
    {
        type            calculated;
        value           nonuniform List<scalar> 0();
    }
    bottom
    {
        type            calculated;
        value           nonuniform List<scalar> 
11
(
-0.000831806941742
-0.000834354980383
-0.000837796562016
-0.00084183660706
-0.000846032170435
-0.000850151859261
-0.000854070257031
-0.000857736325512
-0.00086094838136
-0.000863846320594
-0.000866363989036
)
;
    }
    front
    {
        type            calculated;
        value           nonuniform List<scalar> 
164
(
-0.000831806941742
-0.00104313512069
-0.00111886958352
-0.00115112962784
-0.00116756600061
-0.00118185932449
-0.00119612875544
-0.00115100133399
-0.00103402960248
-0.000991734872485
-0.000904440427
-0.000593723718618
-0.000466032286114
-0.000207846915621
-0.000834354980383
-0.00104501223351
-0.00112147794632
-0.00115409947671
-0.00117003484372
-0.0011800263503
-0.00118248683139
-0.00115834747547
-0.00116245458449
-0.00115373153919
-0.00115555124161
-0.00109302089933
-0.000879560396335
-0.000582485258783
-0.000837796562016
-0.00104858088727
-0.00112566875147
-0.00115850662209
-0.00117390326235
-0.0011828495547
-0.00118911434689
-0.00119024344161
-0.00119225286761
-0.00118978525652
-0.0011876336777
-0.00116450353911
-0.00105659216105
-0.000788089181134
-0.00084183660706
-0.00105332962009
-0.00113084226056
-0.0011637423839
-0.00117867819883
-0.00118664341115
-0.00119234212079
-0.0011972426891
-0.00120070271355
-0.00120169040929
-0.00119780389353
-0.00117685867922
-0.00110127303201
-0.000876198339429
-0.000846032170435
-0.00105874195743
-0.0011365369429
-0.00116937992697
-0.0011839581146
-0.00119126046903
-0.00119599238057
-0.00120015945367
-0.00120394534237
-0.00120625392505
-0.00120407835201
-0.00118755266109
-0.00112583434769
-0.000934587717313
-0.000850151859261
-0.0010644079215
-0.00114234791088
-0.00117497505316
-0.00118917623728
-0.0011960151462
-0.00120015027074
-0.00120355823168
-0.0012068450613
-0.00120934819264
-0.00120839739453
-0.00119512321321
-0.00114321350262
-0.000984782114384
-0.000854070257031
-0.00106999954759
-0.001147919235
-0.00118018258001
-0.00119396576681
-0.00120040222637
-0.00120416159559
-0.00120715614771
-0.00121003620941
-0.0012123422121
-0.00121154019337
-0.00119923316085
-0.00115328009734
-0.00102553907103
-0.000857736325512
-0.00107534980458
-0.00115304826606
-0.00118479548683
-0.00119810987595
-0.00120416867161
-0.00120761996875
-0.00121034330504
-0.00121295009793
-0.00121497648703
-0.00121373217207
-0.00120080210333
-0.00115713370282
-0.00105158611162
-0.00086094838136
-0.00108025889627
-0.00115761363083
-0.00118875891796
-0.00120152015495
-0.00120719448287
-0.00121036279513
-0.00121284533062
-0.0012151983798
-0.00121690454306
-0.00121504176072
-0.00120069547667
-0.00115627613202
-0.00106387370298
-0.000863846320594
-0.00108467642273
-0.00116157940028
-0.00119202405247
-0.00120419550702
-0.0012094622805
-0.00121235842482
-0.00121460668618
-0.00121673206189
-0.00121819117959
-0.00121598419091
-0.00120060216607
-0.00115345625406
-0.00106188140964
-0.000866363989036
-0.00108852076626
-0.00116488898637
-0.00119460189261
-0.00120617294478
-0.001211036616
-0.00121366868928
-0.00121571176257
-0.00121762144224
-0.00121895409553
-0.00121689598919
-0.00120215995883
-0.00115519196994
-0.00106315120167
-0.00121797469898
-0.00121914530473
-0.0012174094448
-0.00120429416807
-0.00116097077831
-0.00107290924035
-0.00120584253151
-0.00116719693024
-0.00108464570364
-0.00109752754918
)
;
    }
    atmosphere
    {
        type            calculated;
        value           nonuniform List<scalar> 0();
    }
    floatingObject
    {
        type            calculated;
        value           nonuniform List<scalar> 4(-0.00103402960248 -0.000991734872485 -0.000904440427 -0.000593723718618);
    }
    procBoundary8to3
    {
        type            processor;
        value           nonuniform List<scalar> 8(-0.000830189055925 -0.00104202154391 -0.00111721152561 -0.00114922145476 -0.00116445319286 -0.00116906807186 -0.0011462492727 -0.000911698519304);
    }
    procBoundary8to6
    {
        type            processor;
        value           nonuniform List<scalar> 
16
(
-0.000367845883937
-0.000324443349544
0.00016546213439
-3.15045992084e-05
-0.000164996886585
-0.00026545760443
-0.000379314709202
-0.000527418164211
-0.000674105881163
-0.000781076588273
-0.000864875816358
-0.000909729373701
-0.000934566218059
-0.000952784021018
-0.000964091434381
-0.000972856852873
)
;
    }
    procBoundary8to7
    {
        type            processor;
        value           nonuniform List<scalar> 
17
(
-0.000868606510341
-0.00109190772406
-0.00116762707496
-0.00119655674675
-0.00120752666387
-0.00121200404363
-0.00121439101544
-0.00121624073124
-0.00121624073124
-0.00121780397428
-0.00121883088052
-0.00121726897054
-0.00121726897054
-0.00120734264104
-0.0011738049081
-0.0011738049081
-0.00111836187803
)
;
    }
}


// ************************************************************************* //
