/*--------------------------------*- C++ -*----------------------------------*\
| =========                 |                                                 |
| \\      /  F ield         | OpenFOAM: The Open Source CFD Toolbox           |
|  \\    /   O peration     | Version:  v2012                                 |
|   \\  /    A nd           | Website:  www.openfoam.com                      |
|    \\/     M anipulation  |                                                 |
\*---------------------------------------------------------------------------*/
FoamFile
{
    version     2.0;
    format      ascii;
    class       volScalarField;
    location    "4";
    object      epsilon;
}
// * * * * * * * * * * * * * * * * * * * * * * * * * * * * * * * * * * * * * //

dimensions      [0 2 -3 0 0 0 0];


internalField   nonuniform List<scalar> 
164
(
0.000963025924654
0.00101245156786
0.00111596374153
0.00115807282113
0.00117294807603
0.0011669018734
0.00112712268547
0.00103487730186
0.00122833417101
0.00122333430839
0.00126090075869
0.00138700226933
0.00126192537897
0.00160524733443
0.00097111985636
0.00101889282969
0.00112317295508
0.00116699744627
0.0011864507384
0.00119317667357
0.00118829843867
0.00117280026225
0.00116542329312
0.00118249671336
0.00120240298709
0.00122715692932
0.00130924564251
0.00152652700506
0.00098002112891
0.00102638215536
0.00113130029459
0.00117607041183
0.00119783329247
0.00121054269462
0.0012189900616
0.00122554765448
0.00123639196736
0.00125364399597
0.0012737462348
0.00129869859823
0.00135310111262
0.00150354118255
0.000989244110871
0.00103457862305
0.00114002967499
0.00118516607097
0.00120763317401
0.00122211995726
0.00123426974846
0.0012464053802
0.00126050713198
0.00127735687245
0.00129664297485
0.00132128679064
0.00136702755772
0.00148338172065
0.000998542782881
0.00104309707373
0.00114902324491
0.00119419448362
0.00121657827108
0.00123113328506
0.00124371612479
0.00125659507285
0.00127075489768
0.00128661018928
0.00130457414057
0.00132760787205
0.00136829070917
0.00146883775915
0.0010075650101
0.00105162215203
0.00115798915688
0.00120299281398
0.00122496384968
0.00123899437923
0.00125099307448
0.00126323189906
0.00127654258396
0.00129127181722
0.00130803735116
0.00132991075249
0.00136891120213
0.00146484729987
0.00101603326238
0.00105988836986
0.00116666468805
0.00121140244668
0.00123280648226
0.00124614945419
0.00125734668783
0.00126867452145
0.0012809704986
0.001294635975
0.00131054587486
0.00133228937278
0.00137313985478
0.00147406121252
0.00102378906457
0.00106770079516
0.00117484777839
0.00121926531331
0.00124006466343
0.00125267855238
0.00126308508809
0.00127353914903
0.00128490374727
0.00129766712932
0.00131298593442
0.00133533728492
0.00138022900044
0.00149193681717
0.00103088688863
0.00107493146563
0.00118242028621
0.00122649141748
0.00124667986701
0.00125859500822
0.00126825618788
0.00127793114953
0.0012884821734
0.00130046331251
0.00131523551122
0.0013379678414
0.00138596110673
0.00150607954726
0.00103710765251
0.00108149540853
0.00118929861573
0.00123301015256
0.00125260345751
0.00126386545293
0.00127285295976
0.00128183354757
0.00129166784651
0.00130290677332
0.00131694331729
0.00133899542624
0.00138666458622
0.00150736769441
0.00104260368917
0.00108734054569
0.00119542374308
0.00123878045049
0.00125780729279
0.00126846679942
0.00127685086475
0.00128521605906
0.00129441839316
0.00130498410134
0.00131822683139
0.00133912046809
0.00138473095432
0.00150209232693
0.00129669041359
0.00130666543075
0.00131923075
0.00133914021245
0.00138294667962
0.00149713958304
0.00133872756917
0.00138030262807
0.00148914219805
0.00147333151994
)
;

boundaryField
{
    back
    {
        lowReCorrection 0;
        blending        stepwise;
        n               2;
        type            epsilonWallFunction;
        value           nonuniform List<scalar> 
164
(
0.000963025924654
0.00101245156786
0.00111596374153
0.00115807282113
0.00117294807603
0.0011669018734
0.00112712268547
0.00103487730186
0.00122833417101
0.00122333430839
0.00126090075869
0.00138700226933
0.00126192537897
0.00160524733443
0.00097111985636
0.00101889282969
0.00112317295508
0.00116699744627
0.0011864507384
0.00119317667357
0.00118829843867
0.00117280026225
0.00116542329312
0.00118249671336
0.00120240298709
0.00122715692932
0.00130924564251
0.00152652700506
0.00098002112891
0.00102638215536
0.00113130029459
0.00117607041183
0.00119783329247
0.00121054269462
0.0012189900616
0.00122554765448
0.00123639196736
0.00125364399597
0.0012737462348
0.00129869859823
0.00135310111262
0.00150354118255
0.000989244110871
0.00103457862305
0.00114002967499
0.00118516607097
0.00120763317401
0.00122211995726
0.00123426974846
0.0012464053802
0.00126050713198
0.00127735687245
0.00129664297485
0.00132128679064
0.00136702755772
0.00148338172065
0.000998542782881
0.00104309707373
0.00114902324491
0.00119419448362
0.00121657827108
0.00123113328506
0.00124371612479
0.00125659507285
0.00127075489768
0.00128661018928
0.00130457414057
0.00132760787205
0.00136829070917
0.00146883775915
0.0010075650101
0.00105162215203
0.00115798915688
0.00120299281398
0.00122496384968
0.00123899437923
0.00125099307448
0.00126323189906
0.00127654258396
0.00129127181722
0.00130803735116
0.00132991075249
0.00136891120213
0.00146484729987
0.00101603326238
0.00105988836986
0.00116666468805
0.00121140244668
0.00123280648226
0.00124614945419
0.00125734668783
0.00126867452145
0.0012809704986
0.001294635975
0.00131054587486
0.00133228937278
0.00137313985478
0.00147406121252
0.00102378906457
0.00106770079516
0.00117484777839
0.00121926531331
0.00124006466343
0.00125267855238
0.00126308508809
0.00127353914903
0.00128490374727
0.00129766712932
0.00131298593442
0.00133533728492
0.00138022900044
0.00149193681717
0.00103088688863
0.00107493146563
0.00118242028621
0.00122649141748
0.00124667986701
0.00125859500822
0.00126825618788
0.00127793114953
0.0012884821734
0.00130046331251
0.00131523551122
0.0013379678414
0.00138596110673
0.00150607954726
0.00103710765251
0.00108149540853
0.00118929861573
0.00123301015256
0.00125260345751
0.00126386545293
0.00127285295976
0.00128183354757
0.00129166784651
0.00130290677332
0.00131694331729
0.00133899542624
0.00138666458622
0.00150736769441
0.00104260368917
0.00108734054569
0.00119542374308
0.00123878045049
0.00125780729279
0.00126846679942
0.00127685086475
0.00128521605906
0.00129441839316
0.00130498410134
0.00131822683139
0.00133912046809
0.00138473095432
0.00150209232693
0.00129669041359
0.00130666543075
0.00131923075
0.00133914021245
0.00138294667962
0.00149713958304
0.00133872756917
0.00138030262807
0.00148914219805
0.00147333151994
)
;
    }
    sides
    {
        lowReCorrection 0;
        blending        stepwise;
        n               2;
        type            epsilonWallFunction;
        value           nonuniform List<scalar> 0();
    }
    bottom
    {
        lowReCorrection 0;
        blending        stepwise;
        n               2;
        type            epsilonWallFunction;
        value           nonuniform List<scalar> 
11
(
0.000963025924654
0.00097111985636
0.00098002112891
0.000989244110871
0.000998542782881
0.0010075650101
0.00101603326238
0.00102378906457
0.00103088688863
0.00103710765251
0.00104260368917
)
;
    }
    front
    {
        lowReCorrection 0;
        blending        stepwise;
        n               2;
        type            epsilonWallFunction;
        value           nonuniform List<scalar> 
164
(
0.000963025924654
0.00101245156786
0.00111596374153
0.00115807282113
0.00117294807603
0.0011669018734
0.00112712268547
0.00103487730186
0.00122833417101
0.00122333430839
0.00126090075869
0.00138700226933
0.00126192537897
0.00160524733443
0.00097111985636
0.00101889282969
0.00112317295508
0.00116699744627
0.0011864507384
0.00119317667357
0.00118829843867
0.00117280026225
0.00116542329312
0.00118249671336
0.00120240298709
0.00122715692932
0.00130924564251
0.00152652700506
0.00098002112891
0.00102638215536
0.00113130029459
0.00117607041183
0.00119783329247
0.00121054269462
0.0012189900616
0.00122554765448
0.00123639196736
0.00125364399597
0.0012737462348
0.00129869859823
0.00135310111262
0.00150354118255
0.000989244110871
0.00103457862305
0.00114002967499
0.00118516607097
0.00120763317401
0.00122211995726
0.00123426974846
0.0012464053802
0.00126050713198
0.00127735687245
0.00129664297485
0.00132128679064
0.00136702755772
0.00148338172065
0.000998542782881
0.00104309707373
0.00114902324491
0.00119419448362
0.00121657827108
0.00123113328506
0.00124371612479
0.00125659507285
0.00127075489768
0.00128661018928
0.00130457414057
0.00132760787205
0.00136829070917
0.00146883775915
0.0010075650101
0.00105162215203
0.00115798915688
0.00120299281398
0.00122496384968
0.00123899437923
0.00125099307448
0.00126323189906
0.00127654258396
0.00129127181722
0.00130803735116
0.00132991075249
0.00136891120213
0.00146484729987
0.00101603326238
0.00105988836986
0.00116666468805
0.00121140244668
0.00123280648226
0.00124614945419
0.00125734668783
0.00126867452145
0.0012809704986
0.001294635975
0.00131054587486
0.00133228937278
0.00137313985478
0.00147406121252
0.00102378906457
0.00106770079516
0.00117484777839
0.00121926531331
0.00124006466343
0.00125267855238
0.00126308508809
0.00127353914903
0.00128490374727
0.00129766712932
0.00131298593442
0.00133533728492
0.00138022900044
0.00149193681717
0.00103088688863
0.00107493146563
0.00118242028621
0.00122649141748
0.00124667986701
0.00125859500822
0.00126825618788
0.00127793114953
0.0012884821734
0.00130046331251
0.00131523551122
0.0013379678414
0.00138596110673
0.00150607954726
0.00103710765251
0.00108149540853
0.00118929861573
0.00123301015256
0.00125260345751
0.00126386545293
0.00127285295976
0.00128183354757
0.00129166784651
0.00130290677332
0.00131694331729
0.00133899542624
0.00138666458622
0.00150736769441
0.00104260368917
0.00108734054569
0.00119542374308
0.00123878045049
0.00125780729279
0.00126846679942
0.00127685086475
0.00128521605906
0.00129441839316
0.00130498410134
0.00131822683139
0.00133912046809
0.00138473095432
0.00150209232693
0.00129669041359
0.00130666543075
0.00131923075
0.00133914021245
0.00138294667962
0.00149713958304
0.00133872756917
0.00138030262807
0.00148914219805
0.00147333151994
)
;
    }
    atmosphere
    {
        type            inletOutlet;
        inletValue      nonuniform List<scalar> 0();
        value           nonuniform List<scalar> 0();
    }
    floatingObject
    {
        lowReCorrection 0;
        blending        stepwise;
        n               2;
        type            epsilonWallFunction;
        value           nonuniform List<scalar> 4(0.00122833417101 0.00122333430839 0.00126090075869 0.00138700226933);
    }
    procBoundary8to3
    {
        type            processor;
        value           nonuniform List<scalar> 8(0.000956064033693 0.00100724099544 0.001110133588 0.00115035995242 0.00116034825625 0.00114273232363 0.00107402390772 0.00112861607093);
    }
    procBoundary8to6
    {
        type            processor;
        value           nonuniform List<scalar> 
16
(
0.00169583101294
0.00187823973285
0.00216992186774
0.00198064874777
0.00187521265386
0.00180128720153
0.001754811444
0.00173426345267
0.00174495208462
0.00177738219269
0.0018006492223
0.00180099005918
0.00179077452786
0.00178076801655
0.00176076588293
0.00172135377694
)
;
    }
    procBoundary8to7
    {
        type            processor;
        value           nonuniform List<scalar> 
17
(
0.00104728674208
0.00109245921071
0.00120078264523
0.0012437902724
0.00126228376563
0.00127239272569
0.00128023790792
0.001288057245
0.001288057245
0.00129847173714
0.001307896331
0.00131982226114
0.00131982226114
0.00133738819123
0.00137505696109
0.00137505696109
0.00145206403783
)
;
    }
}


// ************************************************************************* //
