/*--------------------------------*- C++ -*----------------------------------*\
| =========                 |                                                 |
| \\      /  F ield         | OpenFOAM: The Open Source CFD Toolbox           |
|  \\    /   O peration     | Version:  v2012                                 |
|   \\  /    A nd           | Website:  www.openfoam.com                      |
|    \\/     M anipulation  |                                                 |
\*---------------------------------------------------------------------------*/
FoamFile
{
    version     2.0;
    format      ascii;
    class       volScalarField;
    location    "4";
    object      k_0;
}
// * * * * * * * * * * * * * * * * * * * * * * * * * * * * * * * * * * * * * //

dimensions      [0 2 -2 0 0 0 0];


internalField   nonuniform List<scalar> 
164
(
0.00200992945125
0.00251746915136
0.00268625998113
0.0027534164252
0.00277694435574
0.0027673932504
0.00270413755638
0.00255450776436
0.00236392222617
0.00235750306137
0.00240552254903
0.00256334429741
0.00291566150142
0.0034230188516
0.00202117562007
0.00252813536182
0.00269781652786
0.0027675443537
0.00279821529834
0.00280878063495
0.00280111971566
0.00277671105229
0.00276505504882
0.00279199485858
0.00282324142003
0.00286185783034
0.00298810194867
0.00331017519836
0.00203350754254
0.00254050886395
0.00271081524571
0.00278187024049
0.00281608378822
0.00283596843956
0.00284914638049
0.00285935528543
0.00287619792893
0.00290289149316
0.00293384114407
0.00297203258842
0.00305446265803
0.00327686239676
0.00204624584513
0.00255401623167
0.00272474223396
0.00279619502897
0.00283142247985
0.00285402130079
0.00287290573181
0.00289170639866
0.00291347653171
0.00293938282299
0.00296889560573
0.00300639505301
0.00307538505113
0.0032475057945
0.00205904867359
0.00256801646561
0.00273905358804
0.00281037771548
0.00284538708699
0.0028680366804
0.00288754545373
0.00290744531041
0.0029292460129
0.00295356121881
0.00298098984386
0.0030159758888
0.00307727922367
0.00322624396284
0.00207143294773
0.00258198948823
0.00275328381103
0.00282416462001
0.00285844715379
0.00288023247918
0.00289879779931
0.00291767361897
0.00293813349321
0.00296069111862
0.00298626320366
0.00301946257369
0.00307820947716
0.00322039805669
0.00208302322482
0.00259550221455
0.00276701823607
0.00283731105567
0.0028706346686
0.00289131054659
0.00290860456036
0.00292604812491
0.00294492386323
0.0029658312252
0.00299007997524
0.00302306182058
0.00308454540616
0.00323388817557
0.00209361016949
0.00260824087555
0.00277994189951
0.00284957526169
0.00288189093366
0.00290140093825
0.00291744755608
0.00293352314603
0.00295094908565
0.00297045872302
0.00299379024144
0.00302767068779
0.00309515273518
0.00325998003412
0.00210327554509
0.0026200032892
0.00279187455577
0.00286082304149
0.00289213092942
0.00291052939138
0.00292540486487
0.00294026375338
0.00295642542733
0.00297472430932
0.00299720883067
0.00303164563663
0.00310371628359
0.00328054948485
0.00211172836818
0.00263065829212
0.0028026912753
0.00287095082902
0.00290128498271
0.00291864907932
0.00293246932008
0.00294624646886
0.00296129644455
0.00297844931406
0.00299980281191
0.00303319767915
0.00310476644105
0.00328241978371
0.00211918237399
0.00264012835285
0.00281230598375
0.00287990092953
0.00290931485817
0.00292572872528
0.00293860650714
0.00295142724279
0.00296549891603
0.00298161432601
0.00300175159942
0.00303338651263
0.00310187947924
0.00327475693916
0.00296896801828
0.00298417476588
0.0030032754302
0.00303341632928
0.00309921431923
0.00326755455965
0.00303279315174
0.00309526280713
0.00325590781114
0.00323282085719
)
;

boundaryField
{
    back
    {
        type            kqRWallFunction;
        value           nonuniform List<scalar> 
164
(
0.00200992945125
0.00251746915136
0.00268625998113
0.0027534164252
0.00277694435574
0.0027673932504
0.00270413755638
0.00255450776436
0.00236392222617
0.00235750306137
0.00240552254903
0.00256334429741
0.00291566150142
0.0034230188516
0.00202117562007
0.00252813536182
0.00269781652786
0.0027675443537
0.00279821529834
0.00280878063495
0.00280111971566
0.00277671105229
0.00276505504882
0.00279199485858
0.00282324142003
0.00286185783034
0.00298810194867
0.00331017519836
0.00203350754254
0.00254050886395
0.00271081524571
0.00278187024049
0.00281608378822
0.00283596843956
0.00284914638049
0.00285935528543
0.00287619792893
0.00290289149316
0.00293384114407
0.00297203258842
0.00305446265803
0.00327686239676
0.00204624584513
0.00255401623167
0.00272474223396
0.00279619502897
0.00283142247985
0.00285402130079
0.00287290573181
0.00289170639866
0.00291347653171
0.00293938282299
0.00296889560573
0.00300639505301
0.00307538505113
0.0032475057945
0.00205904867359
0.00256801646561
0.00273905358804
0.00281037771548
0.00284538708699
0.0028680366804
0.00288754545373
0.00290744531041
0.0029292460129
0.00295356121881
0.00298098984386
0.0030159758888
0.00307727922367
0.00322624396284
0.00207143294773
0.00258198948823
0.00275328381103
0.00282416462001
0.00285844715379
0.00288023247918
0.00289879779931
0.00291767361897
0.00293813349321
0.00296069111862
0.00298626320366
0.00301946257369
0.00307820947716
0.00322039805669
0.00208302322482
0.00259550221455
0.00276701823607
0.00283731105567
0.0028706346686
0.00289131054659
0.00290860456036
0.00292604812491
0.00294492386323
0.0029658312252
0.00299007997524
0.00302306182058
0.00308454540616
0.00323388817557
0.00209361016949
0.00260824087555
0.00277994189951
0.00284957526169
0.00288189093366
0.00290140093825
0.00291744755608
0.00293352314603
0.00295094908565
0.00297045872302
0.00299379024144
0.00302767068779
0.00309515273518
0.00325998003412
0.00210327554509
0.0026200032892
0.00279187455577
0.00286082304149
0.00289213092942
0.00291052939138
0.00292540486487
0.00294026375338
0.00295642542733
0.00297472430932
0.00299720883067
0.00303164563663
0.00310371628359
0.00328054948485
0.00211172836818
0.00263065829212
0.0028026912753
0.00287095082902
0.00290128498271
0.00291864907932
0.00293246932008
0.00294624646886
0.00296129644455
0.00297844931406
0.00299980281191
0.00303319767915
0.00310476644105
0.00328241978371
0.00211918237399
0.00264012835285
0.00281230598375
0.00287990092953
0.00290931485817
0.00292572872528
0.00293860650714
0.00295142724279
0.00296549891603
0.00298161432601
0.00300175159942
0.00303338651263
0.00310187947924
0.00327475693916
0.00296896801828
0.00298417476588
0.0030032754302
0.00303341632928
0.00309921431923
0.00326755455965
0.00303279315174
0.00309526280713
0.00325590781114
0.00323282085719
)
;
    }
    sides
    {
        type            kqRWallFunction;
        value           nonuniform List<scalar> 0();
    }
    bottom
    {
        type            kqRWallFunction;
        value           nonuniform List<scalar> 
11
(
0.00200992945125
0.00202117562007
0.00203350754254
0.00204624584513
0.00205904867359
0.00207143294773
0.00208302322482
0.00209361016949
0.00210327554509
0.00211172836818
0.00211918237399
)
;
    }
    front
    {
        type            kqRWallFunction;
        value           nonuniform List<scalar> 
164
(
0.00200992945125
0.00251746915136
0.00268625998113
0.0027534164252
0.00277694435574
0.0027673932504
0.00270413755638
0.00255450776436
0.00236392222617
0.00235750306137
0.00240552254903
0.00256334429741
0.00291566150142
0.0034230188516
0.00202117562007
0.00252813536182
0.00269781652786
0.0027675443537
0.00279821529834
0.00280878063495
0.00280111971566
0.00277671105229
0.00276505504882
0.00279199485858
0.00282324142003
0.00286185783034
0.00298810194867
0.00331017519836
0.00203350754254
0.00254050886395
0.00271081524571
0.00278187024049
0.00281608378822
0.00283596843956
0.00284914638049
0.00285935528543
0.00287619792893
0.00290289149316
0.00293384114407
0.00297203258842
0.00305446265803
0.00327686239676
0.00204624584513
0.00255401623167
0.00272474223396
0.00279619502897
0.00283142247985
0.00285402130079
0.00287290573181
0.00289170639866
0.00291347653171
0.00293938282299
0.00296889560573
0.00300639505301
0.00307538505113
0.0032475057945
0.00205904867359
0.00256801646561
0.00273905358804
0.00281037771548
0.00284538708699
0.0028680366804
0.00288754545373
0.00290744531041
0.0029292460129
0.00295356121881
0.00298098984386
0.0030159758888
0.00307727922367
0.00322624396284
0.00207143294773
0.00258198948823
0.00275328381103
0.00282416462001
0.00285844715379
0.00288023247918
0.00289879779931
0.00291767361897
0.00293813349321
0.00296069111862
0.00298626320366
0.00301946257369
0.00307820947716
0.00322039805669
0.00208302322482
0.00259550221455
0.00276701823607
0.00283731105567
0.0028706346686
0.00289131054659
0.00290860456036
0.00292604812491
0.00294492386323
0.0029658312252
0.00299007997524
0.00302306182058
0.00308454540616
0.00323388817557
0.00209361016949
0.00260824087555
0.00277994189951
0.00284957526169
0.00288189093366
0.00290140093825
0.00291744755608
0.00293352314603
0.00295094908565
0.00297045872302
0.00299379024144
0.00302767068779
0.00309515273518
0.00325998003412
0.00210327554509
0.0026200032892
0.00279187455577
0.00286082304149
0.00289213092942
0.00291052939138
0.00292540486487
0.00294026375338
0.00295642542733
0.00297472430932
0.00299720883067
0.00303164563663
0.00310371628359
0.00328054948485
0.00211172836818
0.00263065829212
0.0028026912753
0.00287095082902
0.00290128498271
0.00291864907932
0.00293246932008
0.00294624646886
0.00296129644455
0.00297844931406
0.00299980281191
0.00303319767915
0.00310476644105
0.00328241978371
0.00211918237399
0.00264012835285
0.00281230598375
0.00287990092953
0.00290931485817
0.00292572872528
0.00293860650714
0.00295142724279
0.00296549891603
0.00298161432601
0.00300175159942
0.00303338651263
0.00310187947924
0.00327475693916
0.00296896801828
0.00298417476588
0.0030032754302
0.00303341632928
0.00309921431923
0.00326755455965
0.00303279315174
0.00309526280713
0.00325590781114
0.00323282085719
)
;
    }
    atmosphere
    {
        type            inletOutlet;
        inletValue      nonuniform List<scalar> 0();
        value           nonuniform List<scalar> 0();
    }
    floatingObject
    {
        type            kqRWallFunction;
        value           nonuniform List<scalar> 4(0.00236392222617 0.00235750306137 0.00240552254903 0.00256334429741);
    }
    procBoundary8to3
    {
        type            processor;
        value           nonuniform List<scalar> 8(0.00200023097671 0.00250882430484 0.00267689589165 0.00274117748123 0.00275702193854 0.00272904686714 0.00261852838002 0.00223418765774);
    }
    procBoundary8to6
    {
        type            processor;
        value           nonuniform List<scalar> 
16
(
0.00293096440207
0.00380086112425
0.00418482579179
0.00393779371786
0.00379677623585
0.00369632339879
0.00363246655762
0.00360405464626
0.00361884784325
0.00366354785721
0.00369545057229
0.00369591688786
0.00368192771648
0.00366819896449
0.00364067905879
0.0035861469124
)
;
    }
    procBoundary8to7
    {
        type            processor;
        value           nonuniform List<scalar> 
17
(
0.00212552344021
0.00264840748367
0.00282070447562
0.00288766021864
0.00291621350698
0.00293176240227
0.00294380094927
0.00295577539211
0.00295577539211
0.0029716864685
0.00298604856612
0.0030041730938
0.0030041730938
0.00303076996993
0.00308741572623
0.00308741572623
0.00320163509931
)
;
    }
}


// ************************************************************************* //
