/*--------------------------------*- C++ -*----------------------------------*\
| =========                 |                                                 |
| \\      /  F ield         | OpenFOAM: The Open Source CFD Toolbox           |
|  \\    /   O peration     | Version:  v2012                                 |
|   \\  /    A nd           | Website:  www.openfoam.com                      |
|    \\/     M anipulation  |                                                 |
\*---------------------------------------------------------------------------*/
FoamFile
{
    version     2.0;
    format      ascii;
    class       volScalarField;
    location    "4";
    object      p;
}
// * * * * * * * * * * * * * * * * * * * * * * * * * * * * * * * * * * * * * //

dimensions      [1 -1 -2 0 0 0 0];


internalField   nonuniform List<scalar> 
164
(
8462.69851681
7973.09265504
7483.53981883
6994.03418021
6504.5788946
6015.18291473
5525.76584816
5036.13996037
4546.4374158
4056.35168931
3565.46443535
3072.43547382
2587.16781587
2098.35953419
8462.54646019
7972.94989769
7483.41601183
6993.93164445
6504.48187994
6015.02923086
5525.52031977
5036.02717752
4546.60775967
4056.99696772
3567.25494999
3077.62362927
2588.73226109
2099.06376388
8462.32505495
7972.73855849
7483.225087
6993.77125069
6504.36374181
6014.98575192
5525.62178662
5036.26358924
4546.90769338
4057.51256624
3568.10965802
3078.87940163
2589.79632723
2100.27166394
8462.02267264
7972.44766356
7482.95822115
6993.54088381
6504.18296729
6014.87279182
5525.59900482
5036.35246101
4547.12682566
4057.91102163
3568.71447862
3079.58676295
2590.48985415
2101.34867398
8461.62635581
7972.06510362
7482.60281705
6993.22630401
6503.92353522
6014.68438112
5525.49861392
5036.36082619
4547.26450315
4058.1971188
3569.16183765
3080.16689079
2591.17917426
2102.25859771
8461.12337026
7971.57785036
7482.14623169
6992.81581772
6503.57445447
6014.41382451
5525.32498195
5036.30057667
4547.33074306
4058.40360374
3569.51306466
3080.65443126
2591.81156337
2103.01450686
8460.49969217
7970.97207796
7481.57484852
6992.29608538
6503.12399104
6014.05038062
5525.06682565
5036.16382183
4547.328867
4058.54705115
3569.80383313
3081.08631757
2592.37966606
2103.67822874
8459.74030011
7970.23271812
7480.8736059
6991.65170521
6502.55616118
6013.57849787
5524.709356
5035.93799943
4547.25036047
4058.62842814
3570.04970295
3081.49254844
2592.93482103
2104.34137478
8458.82864672
7969.3433763
7480.02596815
6990.86613947
6501.85376783
6012.98091713
5524.2377129
5035.61216419
4547.08915168
4058.64771703
3570.26004649
3081.89497422
2593.51842247
2105.07786553
8457.74728333
7968.28593108
7479.0134194
6989.92053124
6500.99801275
6012.23875754
5523.63352722
5035.16986447
4546.831676
4058.59665339
3570.4338349
3082.30449343
2594.16035445
2105.93919813
8456.47668429
7967.04053961
7477.81558025
6988.79381232
6499.9672169
6011.32998087
5522.87428459
5034.58870986
4546.45700483
4058.45751848
3570.55865367
3082.71652874
2594.87331615
2106.95760141
4545.93701365
4058.2028287
3570.61028446
3083.11432835
2595.65334068
2108.14517589
3083.45661799
2596.46300243
2109.47749613
2110.89637891
)
;

boundaryField
{
    back
    {
        type            calculated;
        value           nonuniform List<scalar> 
164
(
8462.69851681
7973.09265504
7483.53981883
6994.03418021
6504.5788946
6015.18291473
5525.76584816
5036.13996037
4546.4374158
4056.35168931
3565.46443535
3072.43547382
2587.16781587
2098.35953419
8462.54646019
7972.94989769
7483.41601183
6993.93164445
6504.48187994
6015.02923086
5525.52031977
5036.02717752
4546.60775967
4056.99696772
3567.25494999
3077.62362927
2588.73226109
2099.06376388
8462.32505495
7972.73855849
7483.225087
6993.77125069
6504.36374181
6014.98575192
5525.62178662
5036.26358924
4546.90769338
4057.51256624
3568.10965802
3078.87940163
2589.79632723
2100.27166394
8462.02267264
7972.44766356
7482.95822115
6993.54088381
6504.18296729
6014.87279182
5525.59900482
5036.35246101
4547.12682566
4057.91102163
3568.71447862
3079.58676295
2590.48985415
2101.34867398
8461.62635581
7972.06510362
7482.60281705
6993.22630401
6503.92353522
6014.68438112
5525.49861392
5036.36082619
4547.26450315
4058.1971188
3569.16183765
3080.16689079
2591.17917426
2102.25859771
8461.12337026
7971.57785036
7482.14623169
6992.81581772
6503.57445447
6014.41382451
5525.32498195
5036.30057667
4547.33074306
4058.40360374
3569.51306466
3080.65443126
2591.81156337
2103.01450686
8460.49969217
7970.97207796
7481.57484852
6992.29608538
6503.12399104
6014.05038062
5525.06682565
5036.16382183
4547.328867
4058.54705115
3569.80383313
3081.08631757
2592.37966606
2103.67822874
8459.74030011
7970.23271812
7480.8736059
6991.65170521
6502.55616118
6013.57849787
5524.709356
5035.93799943
4547.25036047
4058.62842814
3570.04970295
3081.49254844
2592.93482103
2104.34137478
8458.82864672
7969.3433763
7480.02596815
6990.86613947
6501.85376783
6012.98091713
5524.2377129
5035.61216419
4547.08915168
4058.64771703
3570.26004649
3081.89497422
2593.51842247
2105.07786553
8457.74728333
7968.28593108
7479.0134194
6989.92053124
6500.99801275
6012.23875754
5523.63352722
5035.16986447
4546.831676
4058.59665339
3570.4338349
3082.30449343
2594.16035445
2105.93919813
8456.47668429
7967.04053961
7477.81558025
6988.79381232
6499.9672169
6011.32998087
5522.87428459
5034.58870986
4546.45700483
4058.45751848
3570.55865367
3082.71652874
2594.87331615
2106.95760141
4545.93701365
4058.2028287
3570.61028446
3083.11432835
2595.65334068
2108.14517589
3083.45661799
2596.46300243
2109.47749613
2110.89637891
)
;
    }
    sides
    {
        type            calculated;
        value           nonuniform List<scalar> 0();
    }
    bottom
    {
        type            calculated;
        value           nonuniform List<scalar> 
11
(
8707.50626196
8707.35501833
8707.1340995
8706.83209624
8706.43601803
8705.93327562
8705.3097135
8704.55025737
8703.63836376
8702.55668749
8701.28583575
)
;
    }
    front
    {
        type            calculated;
        value           nonuniform List<scalar> 
164
(
8462.69851681
7973.09265504
7483.53981883
6994.03418021
6504.5788946
6015.18291473
5525.76584816
5036.13996037
4546.4374158
4056.35168931
3565.46443535
3072.43547382
2587.16781587
2098.35953419
8462.54646019
7972.94989769
7483.41601183
6993.93164445
6504.48187994
6015.02923086
5525.52031977
5036.02717752
4546.60775967
4056.99696772
3567.25494999
3077.62362927
2588.73226109
2099.06376388
8462.32505495
7972.73855849
7483.225087
6993.77125069
6504.36374181
6014.98575192
5525.62178662
5036.26358924
4546.90769338
4057.51256624
3568.10965802
3078.87940163
2589.79632723
2100.27166394
8462.02267264
7972.44766356
7482.95822115
6993.54088381
6504.18296729
6014.87279182
5525.59900482
5036.35246101
4547.12682566
4057.91102163
3568.71447862
3079.58676295
2590.48985415
2101.34867398
8461.62635581
7972.06510362
7482.60281705
6993.22630401
6503.92353522
6014.68438112
5525.49861392
5036.36082619
4547.26450315
4058.1971188
3569.16183765
3080.16689079
2591.17917426
2102.25859771
8461.12337026
7971.57785036
7482.14623169
6992.81581772
6503.57445447
6014.41382451
5525.32498195
5036.30057667
4547.33074306
4058.40360374
3569.51306466
3080.65443126
2591.81156337
2103.01450686
8460.49969217
7970.97207796
7481.57484852
6992.29608538
6503.12399104
6014.05038062
5525.06682565
5036.16382183
4547.328867
4058.54705115
3569.80383313
3081.08631757
2592.37966606
2103.67822874
8459.74030011
7970.23271812
7480.8736059
6991.65170521
6502.55616118
6013.57849787
5524.709356
5035.93799943
4547.25036047
4058.62842814
3570.04970295
3081.49254844
2592.93482103
2104.34137478
8458.82864672
7969.3433763
7480.02596815
6990.86613947
6501.85376783
6012.98091713
5524.2377129
5035.61216419
4547.08915168
4058.64771703
3570.26004649
3081.89497422
2593.51842247
2105.07786553
8457.74728333
7968.28593108
7479.0134194
6989.92053124
6500.99801275
6012.23875754
5523.63352722
5035.16986447
4546.831676
4058.59665339
3570.4338349
3082.30449343
2594.16035445
2105.93919813
8456.47668429
7967.04053961
7477.81558025
6988.79381232
6499.9672169
6011.32998087
5522.87428459
5034.58870986
4546.45700483
4058.45751848
3570.55865367
3082.71652874
2594.87331615
2106.95760141
4545.93701365
4058.2028287
3570.61028446
3083.11432835
2595.65334068
2108.14517589
3083.45661799
2596.46300243
2109.47749613
2110.89637891
)
;
    }
    atmosphere
    {
        type            calculated;
        value           nonuniform List<scalar> 0();
    }
    floatingObject
    {
        type            calculated;
        value           nonuniform List<scalar> 4(4546.4374158 4056.35168931 3565.46443535 3072.43547382);
    }
    procBoundary8to3
    {
        type            processor;
        value           nonuniform List<scalar> 8(8462.79522126 7973.1783813 7483.59746596 6994.03115332 6504.44494182 6014.80780963 5525.0262424 5034.72639794);
    }
    procBoundary8to6
    {
        type            processor;
        value           nonuniform List<scalar> 
16
(
2591.38966628
2099.62948426
1608.19551807
1609.34120633
1610.86602183
1612.3132331
1613.46930532
1614.31228159
1614.9670672
1615.64908248
1616.49674348
1617.56261473
1618.88047396
1620.48408917
1622.38401474
1624.55570646
)
;
    }
    procBoundary8to7
    {
        type            processor;
        value           nonuniform List<scalar> 
17
(
8454.99605353
7965.58610615
7476.41048317
6987.4628011
6498.73686018
6010.22872707
5521.93274209
5033.84022797
5033.84022797
4545.23365118
4057.79453705
3570.54742785
3570.54742785
3083.67989603
2597.23285497
2597.23285497
2112.28738464
)
;
    }
}


// ************************************************************************* //
