/*--------------------------------*- C++ -*----------------------------------*\
| =========                 |                                                 |
| \\      /  F ield         | OpenFOAM: The Open Source CFD Toolbox           |
|  \\    /   O peration     | Version:  v2012                                 |
|   \\  /    A nd           | Website:  www.openfoam.com                      |
|    \\/     M anipulation  |                                                 |
\*---------------------------------------------------------------------------*/
FoamFile
{
    version     2.0;
    format      ascii;
    class       surfaceVectorField;
    location    "4";
    object      Uf;
}
// * * * * * * * * * * * * * * * * * * * * * * * * * * * * * * * * * * * * * //

dimensions      [0 1 -1 0 0 0 0];


internalField   nonuniform List<vector> 
300
(
(0.00699439457919 -0.00308409397642 4.45842213717e-21)
(0.00886274590984 -0.00164240789812 2.25923015907e-21)
(0.00624011535914 -0.00602624542724 1.71138702252e-20)
(0.00810764841136 -0.0046945357309 4.41277231748e-21)
(0.00531990607061 -0.00891086109221 7.57470292264e-20)
(0.00729664171203 -0.00765986805475 1.94825223223e-20)
(0.0039409314978 -0.0120210261371 3.09842043723e-19)
(0.00646629541883 -0.0107814494047 8.76565261834e-20)
(0.00153242549849 -0.0157988168366 1.12663252857e-18)
(0.00542116183301 -0.014266862495 3.57278341369e-19)
(-0.00227350628006 -0.0210706600953 3.4871147646e-18)
(0.00373662623976 -0.0185255130675 1.29087072704e-18)
(-0.00632496095447 -0.0292390564794 8.54091004565e-18)
(0.0012130695609 -0.0249061015908 3.86844312063e-18)
(-0.00238432935834 -0.0412086446728 1.56179873788e-17)
(-0.000638408449217 -0.0345930303092 8.64897727652e-18)
(0.00145819338228 -0.045841346245 2.01339043762e-17)
(0.00463269629466 -0.0424671857783 1.37278927186e-17)
(0.000836363873168 -0.0475629306223 1.70493939134e-17)
(0.00172157852685 -0.0464977702827 1.47231440374e-17)
(0.01592997966 -0.0513068976299 1.37165872244e-17)
(0.00374396050231 -0.0499755255322 1.00176297874e-17)
(0.0534394469076 -0.0734096196252 1.12405292424e-17)
(0.0221027171013 -0.0676630670542 1.11905623109e-17)
(0.0612072601747 -0.0511127241871 7.2086612083e-18)
(0.0612518716395 -0.0591061838897 7.8676683301e-18)
(0.0423364223436 -0.0471834201399 5.66889832901e-18)
(0.0100841503429 -0.00317691888295 2.21358033938e-21)
(0.0120396801053 -0.00166346658224 1.99373132682e-21)
(0.00929533265094 -0.00629161807812 6.78142441462e-21)
(0.0112223610171 -0.0048222115259 1.79330346649e-21)
(0.0085387052367 -0.0094580342345 3.13920192793e-20)
(0.0104630663552 -0.00793435780725 7.23911201334e-21)
(0.00778011081614 -0.0128786878938 1.35092823829e-19)
(0.00988695180947 -0.0112145756225 3.41380679281e-20)
(0.00696136706838 -0.0168452227649 5.21516539844e-19)
(0.00938769460168 -0.0147782581129 1.44515466304e-19)
(0.00631017208005 -0.0218279921651 1.67219908308e-18)
(0.00871939113731 -0.0189425086334 5.45332293649e-19)
(0.00611567630589 -0.0288251837047 3.9765103515e-18)
(0.00821025607355 -0.0246264261017 1.66571412272e-18)
(0.00606075132595 -0.0380716421751 6.75888261632e-18)
(0.00860804537945 -0.0316332820496 3.61708201928e-18)
(0.00527561755699 -0.0428612721063 8.31713237977e-18)
(0.00942232066997 -0.0379482863255 5.41734518118e-18)
(0.0060266397389 -0.0498749159585 7.69137991139e-18)
(0.0087352143045 -0.0442064569929 5.74475640556e-18)
(0.0150180889297 -0.058518050172 7.4916048739e-18)
(0.0123870835794 -0.0525732623393 4.81344534146e-18)
(0.0390382407608 -0.0641060749942 7.81770139861e-18)
(0.0276907263448 -0.0608086732491 5.82685810336e-18)
(0.0493079332389 -0.0507812937046 6.32790545081e-18)
(0.0479270660421 -0.0553836377537 5.45874336215e-18)
(0.0405686944736 -0.0462209920323 3.93759472715e-18)
(0.0132499132989 -0.00323618862769 1.57345445393e-21)
(0.0152758856488 -0.00167002602061 2.07918660932e-21)
(0.0124604639602 -0.00640975983673 2.25099106521e-21)
(0.0143959478582 -0.00486549629062 8.34471832926e-22)
(0.0118563753771 -0.00963342435678 9.98516066214e-21)
(0.0136867427757 -0.00801723168158 2.19351866099e-21)
(0.0114872792872 -0.0130247525095 4.35607104028e-20)
(0.0132782873874 -0.0113048261057 1.04672528858e-20)
(0.0113058936872 -0.0167706466916 1.68331220108e-19)
(0.0131335921795 -0.0147953983448 4.43649914973e-20)
(0.01128429368 -0.0212382941384 5.38847333288e-19)
(0.0131870392693 -0.0187085126563 1.66262608771e-19)
(0.0117781860302 -0.0266101181656 1.30628579049e-18)
(0.0135820787593 -0.0233636839948 5.06583821695e-19)
(0.0127219526841 -0.0327885088975 2.27554458414e-18)
(0.0147864324757 -0.0283878387343 1.12643070365e-18)
(0.0130732611368 -0.0389019083715 2.84496920697e-18)
(0.0155357129062 -0.033645837836 1.72690271484e-18)
(0.0147868810644 -0.0462814082329 2.86682183563e-18)
(0.0161147023062 -0.0397608831781 1.86899397001e-18)
(0.0224560298154 -0.0538023471694 3.14869857092e-18)
(0.0199080058327 -0.0470424864558 1.8081878383e-18)
(0.0351441051023 -0.0560663586058 3.4679000669e-18)
(0.0299547134391 -0.0524045844489 2.28032394645e-18)
(0.0408903833881 -0.0484885979969 3.06843263849e-18)
(0.0403492701591 -0.0495426838438 2.24693729652e-18)
(0.0392530636011 -0.0451485782211 1.79386212031e-18)
(0.016452254884 -0.00322683521018 1.34020398832e-21)
(0.018502738547 -0.00165963878882 1.91064173328e-21)
(0.0156541766783 -0.00642045324057 7.76999428702e-22)
(0.017589582427 -0.00483546381331 4.68196906544e-22)
(0.0151408579342 -0.00963559741025 2.67561088469e-21)
(0.016901900438 -0.00796060577481 6.00924281188e-22)
(0.0149662114489 -0.0129765201507 1.12715339803e-20)
(0.0166192199354 -0.0112045385624 2.72696675016e-21)
(0.0150817864044 -0.0165804317513 4.22963801597e-20)
(0.016737510015 -0.0145935836464 1.11724023075e-20)
(0.0154733395223 -0.0205681451413 1.33999097178e-19)
(0.0171747558229 -0.0182385281573 4.04199268499e-20)
(0.0163186963226 -0.024950488406 3.26728734854e-19)
(0.0179644220652 -0.0222191587319 1.22003909821e-19)
(0.017468404871 -0.0294404181647 5.77788834348e-19)
(0.0192763584272 -0.0262975386029 2.73533851984e-19)
(0.0186564003736 -0.0344779747566 7.50927477884e-19)
(0.020573260665 -0.0305365747014 4.27072248257e-19)
(0.0210114248113 -0.0404058981675 8.10359972676e-19)
(0.0220426112277 -0.0354419534258 4.83952237155e-19)
(0.026612748965 -0.0459104613098 9.39813213829e-19)
(0.0254125491076 -0.0408051163113 4.97802314956e-19)
(0.0343893001036 -0.0476569653217 1.05936117607e-18)
(0.0317011891297 -0.0445804949455 6.34760664479e-19)
(0.0385077625127 -0.045007702697 9.72366778339e-19)
(0.0376999694729 -0.0441937625637 6.38340220024e-19)
(0.0388835703884 -0.0428901718403 5.29897821917e-19)
(0.019632963803 -0.00319145087613 1.03863465151e-21)
(0.0216942063974 -0.00162192470223 1.70195602752e-21)
(0.018822383515 -0.00632118084896 2.9212175903e-22)
(0.0207193281012 -0.00473287088344 2.8649448252e-22)
(0.018377315091 -0.009465913342 6.52280146666e-22)
(0.0200466460287 -0.00777947801232 1.71110745438e-22)
(0.0183631153977 -0.0127229099398 2.62783507736e-21)
(0.0198762265392 -0.0109157802155 6.82885877879e-22)
(0.0187199457399 -0.0161143155309 9.29594899766e-21)
(0.0201289224881 -0.0141522477658 2.61975441027e-21)
(0.0194296182624 -0.0197164913095 2.84247394928e-20)
(0.0207769354445 -0.0175305644381 8.62404771957e-21)
(0.0205496830534 -0.0235117007956 6.88090269508e-20)
(0.0217596320198 -0.0210714083363 2.50746484476e-20)
(0.0219647726797 -0.0273714403022 1.22817265893e-19)
(0.0231360942412 -0.024665324224 5.59248718055e-20)
(0.0236061802265 -0.031472364389 1.60097007528e-19)
(0.0246741759787 -0.0283265022865 8.84169529356e-20)
(0.0260196271204 -0.0359311884915 1.71394579435e-19)
(0.0265014211704 -0.0322733279688 9.98987736031e-20)
(0.0300208702026 -0.0399160374591 1.92749765606e-19)
(0.0293973791266 -0.0362660480671 1.01297547591e-19)
(0.0349400875103 -0.0418012768575 2.13739708437e-19)
(0.0335864023199 -0.0392062890876 1.22778706634e-19)
(0.0381659379347 -0.041653176854 1.95871263602e-19)
(0.0375518364602 -0.0401394562842 1.23777674851e-19)
(0.0395290949961 -0.0404643246999 1.00412662119e-19)
(0.0227416396574 -0.00311360033513 9.49815858535e-22)
(0.0248078213568 -0.00155934772071 1.77740864449e-21)
(0.0219045863212 -0.00613983808831 1.65483468928e-22)
(0.0237455789941 -0.00456813737657 3.19873098629e-22)
(0.0214996632949 -0.00917603169521 2.01716476651e-22)
(0.0230828506018 -0.00749991309527 1.53447805501e-22)
(0.0215947283401 -0.0122709929903 6.74805210795e-22)
(0.0229711963984 -0.0104862837819 2.98786607456e-22)
(0.022107048389 -0.0154929286971 1.94785313218e-21)
(0.0233508643885 -0.0135422652699 7.5088837996e-22)
(0.0229572470593 -0.0187858664227 5.27395667439e-21)
(0.0240698770163 -0.0166967892801 1.76871798388e-21)
(0.0241523667129 -0.0221946069416 1.21904933024e-20)
(0.0251683737208 -0.0199249172324 4.59520330449e-21)
(0.0256556457132 -0.0256231808843 2.1524558848e-20)
(0.026564666032 -0.0231726747905 9.75788181886e-21)
(0.0274392825479 -0.0291375823338 2.82187190109e-20)
(0.0281885712133 -0.0264397194109 1.53482259844e-20)
(0.0297237504294 -0.0327451875604 2.98017417591e-20)
(0.0301090159143 -0.0297919909544 1.75588684389e-20)
(0.032760185487 -0.0358788837745 3.13264886189e-20)
(0.0325310611447 -0.033038357124 1.71370141442e-20)
(0.0361466415042 -0.0379088006269 3.28166730477e-20)
(0.0356162996637 -0.0356264155216 1.88231589666e-20)
(0.038897090931 -0.0388743555087 2.83190733672e-20)
(0.0385173680628 -0.0371797827191 1.79186618352e-20)
(0.040697362 -0.0383345053942 1.16338206683e-20)
(0.025748763014 -0.00298278501877 1.14746588458e-21)
(0.0277906171864 -0.00147755153026 1.68013569672e-21)
(0.0248692583147 -0.00588659424675 3.07837435201e-22)
(0.0266493973741 -0.00435148339846 2.7415450911e-22)
(0.0244847859544 -0.00878359663355 2.50517936305e-22)
(0.0259798605661 -0.00713580665322 1.3100022828e-22)
(0.0246422271488 -0.0117174929786 3.7486977662e-22)
(0.0259050989144 -0.00995572892329 2.2547321267e-22)
(0.0252435847541 -0.0147101891276 5.71753231655e-22)
(0.0263435655934 -0.012816106215 3.75004565109e-22)
(0.0261830322592 -0.0177986096896 1.08996461398e-21)
(0.0271583017175 -0.0157524832502 5.04965279256e-22)
(0.027415413563 -0.0208929178139 2.16259182098e-21)
(0.0282626848889 -0.0187355279014 9.74920000213e-22)
(0.0289198730567 -0.0240134194376 3.58154895529e-21)
(0.0296851689919 -0.0217183256051 1.74215742626e-21)
(0.0306883235237 -0.0271396692553 4.6883754124e-21)
(0.0313148198476 -0.0246916408011 2.66940478101e-21)
(0.0328022398644 -0.0302050823494 4.89414082395e-21)
(0.0331744248041 -0.027663684219 3.11808573258e-21)
(0.0352819601184 -0.0330107771227 4.63368449186e-21)
(0.0353367487661 -0.0305288020403 2.85759540937e-21)
(0.0378694925069 -0.0351389746802 3.92514775402e-21)
(0.0377444862544 -0.0330093851495 2.578923981e-21)
(0.0402388267144 -0.036702622187 1.23340913634e-21)
(0.0400810020447 -0.0349435350853 1.38728409207e-21)
(0.0422448418 -0.0366567427071 -3.63014752607e-21)
(0.0286130289705 -0.00280333489514 8.06824321245e-22)
(0.0305939579885 -0.00137928608484 9.32513740069e-22)
(0.0276890891244 -0.00556280265514 9.73173021883e-23)
(0.0294088693231 -0.00409102740423 -1.69325454394e-22)
(0.0273099546047 -0.00828803825406 1.05955504645e-22)
(0.0287050996335 -0.00670703296457 -1.20260252446e-22)
(0.0275070798782 -0.0110368079157 2.25608001159e-22)
(0.0286538720881 -0.00934989291632 7.69492979735e-23)
(0.0281571742654 -0.0138329474185 3.0821661271e-22)
(0.0291397093836 -0.0120179696854 2.46206094383e-22)
(0.0291497336555 -0.0166808486949 3.89920665491e-22)
(0.0300062085466 -0.0147361781077 2.810983829e-22)
(0.0304147716809 -0.0195720079941 5.54485605485e-22)
(0.0311538509015 -0.0174970143897 3.45887745242e-22)
(0.0319107998068 -0.0224321762795 8.30013251981e-22)
(0.0325453443164 -0.0202659361012 4.53609833838e-22)
(0.0336259059147 -0.0252803477959 1.09911510119e-21)
(0.0341629973684 -0.0230213920709 6.70781373966e-22)
(0.0355711931693 -0.0280743852549 1.08154031799e-21)
(0.0359684659336 -0.0257606074652 7.72510984863e-22)
(0.0377085643773 -0.0307033628381 8.02834898509e-22)
(0.0379657267642 -0.0284318222594 5.71494001464e-22)
(0.039868794051 -0.0329933191451 4.10603190618e-23)
(0.040034438746 -0.0309207391688 2.58304894913e-22)
(0.0419891589714 -0.0350517838937 -3.47627257034e-21)
(0.0421394583118 -0.0331598312431 -9.89674456463e-22)
(0.0442776586784 -0.0352953874148 -7.45984181471e-21)
(0.0313024670859 -0.00263516935825 -4.36360355689e-23)
(0.0332291237087 -0.00127380194997 1.10483863275e-22)
(0.0303356319451 -0.00519812211446 -3.86903009028e-22)
(0.0319718180512 -0.00380110801902 -6.05533661851e-22)
(0.0299551430662 -0.00774781225691 -1.49266459117e-22)
(0.0312547872437 -0.00623268013697 -3.33547732e-22)
(0.0301820334089 -0.0103087773158 9.75473911971e-23)
(0.0312148379835 -0.00869002154097 -2.26011673714e-23)
(0.0308743883825 -0.0129065210416 2.19087864572e-22)
(0.0317374590162 -0.0111667145687 1.93376922721e-22)
(0.0318991377204 -0.0155427088306 2.37065462651e-22)
(0.0326424083039 -0.01368174195 2.24149888156e-22)
(0.0331837589854 -0.018213559645 2.45011973595e-22)
(0.0338247193406 -0.0162339844105 2.18266404306e-22)
(0.0346824909254 -0.0208928411413 2.94377955823e-22)
(0.0352246470087 -0.0188115475855 2.21464416678e-22)
(0.0363710534824 -0.0235570520697 3.44177257639e-22)
(0.0368272242266 -0.0213939059114 2.70662163525e-22)
(0.0382353660095 -0.0262037801182 2.62464668334e-22)
(0.0386152064235 -0.0239725971437 2.36419316113e-22)
(0.0402264996603 -0.0287764115154 2.69639978677e-23)
(0.0405383654975 -0.0265356148112 1.40335514086e-22)
(0.0422455267625 -0.0312587717616 -7.72429880611e-22)
(0.0425167990313 -0.0290509288384 -9.82966787654e-23)
(0.0443081906437 -0.0336039441834 -4.97324370083e-21)
(0.0444846200719 -0.031477687931 -1.22554243616e-21)
(0.0466239105383 -0.0338100606979 -8.15543642878e-21)
(0.0338009520418 -0.0024150182265 -4.51413763008e-22)
(0.0356441276643 -0.00116022583022 -1.71454085597e-22)
(0.0327990117916 -0.00480232025622 -5.52178384823e-22)
(0.0343591074443 -0.00349105798234 -5.9021194259e-22)
(0.0324151010996 -0.00716356860451 -2.06882440255e-22)
(0.0336160283768 -0.00572780857655 -3.05599620078e-22)
(0.0326654601615 -0.00953468404656 7.32283641527e-23)
(0.0335859552948 -0.00799218836016 4.21182591071e-25)
(0.033394738052 -0.0119360248492 1.98438946305e-22)
(0.0341388136556 -0.0102740255146 1.89020721815e-22)
(0.034454092023 -0.01437441843 2.05350829811e-22)
(0.0350808285518 -0.0125901358128 2.04951422331e-22)
(0.0357646612222 -0.0168444984009 1.94718847389e-22)
(0.0362948368171 -0.0149420823671 1.80109655755e-22)
(0.0372852463314 -0.0193544517525 1.9774862438e-22)
(0.0377346390887 -0.0173313639408 1.64016659266e-22)
(0.0389789017794 -0.0218649878655 1.62904221999e-22)
(0.0393377980232 -0.0197555069836 1.70870771756e-22)
(0.040823124316 -0.0243880856752 1.14290161866e-22)
(0.0411383336287 -0.0221934713258 1.28635955895e-22)
(0.042776201906 -0.0269162718519 1.50748374527e-23)
(0.0430665675412 -0.0246551008552 1.14826898644e-23)
(0.0447678765353 -0.0294438890867 -5.51409234316e-22)
(0.0450444157602 -0.0271522299168 -2.42191422514e-22)
(0.0467782506457 -0.0318855370147 -4.40773516411e-21)
(0.0469262465473 -0.0296568622118 -1.42581584849e-21)
(0.0488630669134 -0.0320731808143 -7.77564234175e-21)
(0.0360960099434 -0.00221429683459 -3.10252265179e-22)
(0.0350707120999 -0.00438598366015 -3.43633177845e-22)
(0.0346844447412 -0.00654887552392 -9.82959972325e-23)
(0.0349553852404 -0.00872332297002 1.16213540254e-22)
(0.0357173660827 -0.0109264793452 1.95533197841e-22)
(0.0368129425363 -0.0131633365736 1.79710248275e-22)
(0.0381596600645 -0.0154402235264 1.49407467632e-22)
(0.0397208736514 -0.0177570903163 1.37138806642e-22)
(0.0414617919243 -0.0201493175229 1.36602505651e-22)
(0.0417300916035 -0.0180493555103 1.17855344614e-22)
(0.0433308752329 -0.0225202724844 2.58284838939e-23)
(0.0435093328012 -0.0203569308178 1.24999959826e-22)
(0.0452843303247 -0.0249942944271 -2.45783570102e-22)
(0.0455406088795 -0.022730177389 1.37105815582e-23)
(0.0472540466023 -0.0275031604551 -1.11659803669e-21)
(0.0475532702701 -0.0252042173213 -3.25603643806e-22)
(0.0491398531767 -0.030074783301 -4.79372302614e-21)
(0.0494978194648 -0.0278153473087 -1.65020977578e-21)
(0.0512259463591 -0.0304642793834 -6.82436438533e-21)
(0.0437774100072 -0.0182948350181 1.06252798789e-22)
(0.0457344035288 -0.0206247104581 1.1288205749e-22)
(0.0477766434244 -0.0230181240307 -6.61094921455e-23)
(0.0498277891506 -0.0256085747341 -8.59215382898e-22)
(0.0501436823465 -0.023143178308 -2.43309126055e-22)
(0.0517543386861 -0.0284142360296 -3.68085113497e-21)
(0.0523033905197 -0.0258686442238 -1.26643864814e-21)
(0.0541160426176 -0.028864846115 -4.71028149056e-21)
(0.0526443275167 -0.0234626104886 -6.50532391301e-22)
(0.0548381961234 -0.0264358811593 -2.29586900373e-21)
(0.0574795247715 -0.0265527906872 -3.09303166803e-21)
)
;

boundaryField
{
    back
    {
        type            calculated;
        value           uniform (0 0 0);
    }
    sides
    {
        type            calculated;
        value           nonuniform List<vector> 0();
    }
    bottom
    {
        type            calculated;
        value           uniform (0 0 0);
    }
    front
    {
        type            calculated;
        value           uniform (0 0 0);
    }
    atmosphere
    {
        type            calculated;
        value           nonuniform List<vector> 0();
    }
    floatingObject
    {
        type            calculated;
        value           nonuniform List<vector> 4((0 -1.66533453694e-15 2.08166817117e-16) (0 -1.66533453694e-15 2.08166817117e-16) (0 0 0) (0 -3.33066907388e-15 2.08166817117e-16));
    }
    procBoundary8to3
    {
        type            processor;
        value           nonuniform List<vector> 8((0.00577863159104 -0.00160783817807 3.3956940541e-21) (0.00516548108418 -0.00448773189321 9.32766982879e-21) (0.00441202056159 -0.00715577138864 4.07542380839e-20) (0.00335613713353 -0.00972933681944 1.72479543415e-19) (0.00164338850025 -0.0121681914888 6.53088160459e-19) (-0.00153519457535 -0.0144336186806 2.17758534874e-18) (-0.00695530284035 -0.0168667722546 5.84217654696e-18) (-0.0126079802233 -0.020572624972 1.19506008708e-17));
    }
    procBoundary8to6
    {
        type            processor;
        value           nonuniform List<vector> 
16
(
(0.0835487734868 -0.0433765580424 7.01522207949e-18)
(0.0423435834431 -0.0484586576039 5.30467085062e-18)
(0.0330867232653 -0.0511055745431 4.67903203305e-18)
(0.0356124750578 -0.0490135950525 3.89053134821e-18)
(0.0355931882768 -0.0471730063581 1.95208771269e-18)
(0.0370366425503 -0.0446382497443 6.26544873986e-19)
(0.0390343716746 -0.0422987348486 1.23172186993e-19)
(0.0409279113333 -0.0400426452034 1.31463961103e-20)
(0.0427729095562 -0.0382501157832 -8.12656567689e-21)
(0.0446862586667 -0.0370846123621 -1.71989790594e-20)
(0.0469668186996 -0.0359502146719 -2.2290832128e-20)
(0.0491084351127 -0.0341247287991 -1.91305765526e-20)
(0.0510470237419 -0.0324377247086 -1.6483631981e-20)
(0.0534177746091 -0.031304445247 -1.16970133083e-20)
(0.0564180261577 -0.02979951636 -6.64914317255e-21)
(0.0597938649944 -0.0269585208669 -4.05620414786e-21)
)
;
    }
    procBoundary8to7
    {
        type            processor;
        value           nonuniform List<vector> 
17
(
(0.0378584041241 -0.00103719737271 -2.22181275942e-22)
(0.0365307760875 -0.00316507532817 -4.57496395405e-22)
(0.0357789103477 -0.00520193846792 -1.93673188056e-22)
(0.0357604066353 -0.00726361828072 4.75178934303e-23)
(0.0363419910955 -0.00934431560663 1.73541927119e-22)
(0.0373177243186 -0.0114578425504 1.74270411665e-22)
(0.0385717835337 -0.0136069649132 1.44552853661e-22)
(0.0400515736321 -0.0157988761818 1.26774791818e-22)
(0.0419702052159 -0.0161050697708 1.0749132979e-22)
(0.0439199724018 -0.0162619805682 7.11355274532e-23)
(0.0458392576435 -0.0184193940821 7.21518827387e-23)
(0.0479340326513 -0.0206976694321 4.96636740422e-23)
(0.0503072392334 -0.0208692442595 -1.27535959867e-22)
(0.052736979669 -0.0207807476321 -3.01456515523e-22)
(0.0552765180906 -0.0234476550559 -1.26588475195e-21)
(0.0580392151355 -0.0236082579038 -2.06304741626e-21)
(0.0608295315743 -0.0231619934156 -2.70858581361e-21)
)
;
    }
}


// ************************************************************************* //
