/*--------------------------------*- C++ -*----------------------------------*\
| =========                 |                                                 |
| \\      /  F ield         | OpenFOAM: The Open Source CFD Toolbox           |
|  \\    /   O peration     | Version:  v2012                                 |
|   \\  /    A nd           | Website:  www.openfoam.com                      |
|    \\/     M anipulation  |                                                 |
\*---------------------------------------------------------------------------*/
FoamFile
{
    version     2.0;
    format      ascii;
    class       volScalarField;
    location    "0.3";
    object      p;
}
// * * * * * * * * * * * * * * * * * * * * * * * * * * * * * * * * * * * * * //

dimensions      [1 -1 -2 0 0 0 0];


internalField   nonuniform List<scalar> 
164
(
2993.69994165
2599.71126054
2100.09873502
1574.94447283
1024.60815528
424.173956336
-339.013121002
-1183.42234341
3064.42682955
2620.0858192
2117.45615611
1580.88104067
1008.08141754
310.881203413
-789.889725353
-2465.97497001
3064.42743454
2620.08665797
2117.45710438
1580.88192485
1008.08202459
310.881178434
-789.890634326
-2465.97684166
2993.70186925
2599.71367118
2100.10144576
1574.94699244
1024.60995586
424.174535426
-339.014285378
-1183.42379582
2088.98641884
1571.99842024
1046.9180546
508.617003715
-38.6153729926
-424.88030585
2080.08121358
1563.94899946
1045.92743882
527.178371013
89.9388932674
-75.7826547852
2070.75123039
1547.26436165
1021.1035079
484.827836325
86.0874591552
-23.4733154288
2062.22174119
1529.60968995
989.524213355
423.598849263
51.5059404964
-12.2970321755
2057.03986824
1517.54690053
964.468177315
378.333129136
32.9088339883
-10.419176657
2057.74525145
1515.95841974
957.734185837
369.302456726
28.8349862159
-10.0531883735
2065.72550368
1527.67877599
977.661251997
385.377023947
42.2006815321
-10.0752535612
2080.10247236
1546.58484905
1002.80220289
430.319577217
63.4048385594
-10.1803607088
2100.22571808
1573.23184902
1036.29811281
484.446485405
91.2857758166
-10.2829690777
2124.30629053
1604.0359367
1077.13443943
541.279348603
123.921389032
-10.1398085035
2151.02222823
1637.35464457
1120.18585407
597.781894753
159.129510243
-9.17150888555
2179.11811827
1671.42153138
1162.23196296
652.238907451
195.202572915
-5.86019681394
2207.64487486
1705.27166156
1202.80891842
701.512108938
233.74632272
1.92926338546
2235.85035416
1738.03067053
1240.96639663
745.963615236
271.40875065
14.1438533697
2263.19802912
1769.15487656
1276.33393507
785.990092242
307.661458424
28.8266229983
2289.33667123
1798.35896864
1308.83998145
821.972822397
342.11513491
44.5624271647
2314.06024883
1825.52504868
1338.54414752
854.178585295
374.824106436
60.6890052387
2337.27072607
1850.65125891
1365.62205306
883.081724473
404.275203952
75.7662819881
2358.94342767
1873.80133634
1390.2302933
908.960356262
430.564070643
89.4598284289
2379.10408691
1895.07981629
1412.56179962
932.11983363
454.092905872
101.743386697
1432.84057412
952.924187239
475.125526268
112.646326789
1451.28015585
971.676105586
493.939911116
122.290750196
1468.0710386
988.620182823
510.818305332
130.85919664
)
;

boundaryField
{
    back
    {
        type            calculated;
        value           nonuniform List<scalar> 
164
(
2993.69994165
2599.71126054
2100.09873502
1574.94447283
1024.60815528
424.173956336
-339.013121002
-1183.42234341
3064.42682955
2620.0858192
2117.45615611
1580.88104067
1008.08141754
310.881203413
-789.889725353
-2465.97497001
3064.42743454
2620.08665797
2117.45710438
1580.88192485
1008.08202459
310.881178434
-789.890634326
-2465.97684166
2993.70186925
2599.71367118
2100.10144576
1574.94699244
1024.60995586
424.174535426
-339.014285378
-1183.42379582
2088.98641884
1571.99842024
1046.9180546
508.617003715
-38.6153729926
-424.88030585
2080.08121358
1563.94899946
1045.92743882
527.178371013
89.9388932674
-75.7826547852
2070.75123039
1547.26436165
1021.1035079
484.827836325
86.0874591552
-23.4733154288
2062.22174119
1529.60968995
989.524213355
423.598849263
51.5059404964
-12.2970321755
2057.03986824
1517.54690053
964.468177315
378.333129136
32.9088339883
-10.419176657
2057.74525145
1515.95841974
957.734185837
369.302456726
28.8349862159
-10.0531883735
2065.72550368
1527.67877599
977.661251997
385.377023947
42.2006815321
-10.0752535612
2080.10247236
1546.58484905
1002.80220289
430.319577217
63.4048385594
-10.1803607088
2100.22571808
1573.23184902
1036.29811281
484.446485405
91.2857758166
-10.2829690777
2124.30629053
1604.0359367
1077.13443943
541.279348603
123.921389032
-10.1398085035
2151.02222823
1637.35464457
1120.18585407
597.781894753
159.129510243
-9.17150888555
2179.11811827
1671.42153138
1162.23196296
652.238907451
195.202572915
-5.86019681394
2207.64487486
1705.27166156
1202.80891842
701.512108938
233.74632272
1.92926338546
2235.85035416
1738.03067053
1240.96639663
745.963615236
271.40875065
14.1438533697
2263.19802912
1769.15487656
1276.33393507
785.990092242
307.661458424
28.8266229983
2289.33667123
1798.35896864
1308.83998145
821.972822397
342.11513491
44.5624271647
2314.06024883
1825.52504868
1338.54414752
854.178585295
374.824106436
60.6890052387
2337.27072607
1850.65125891
1365.62205306
883.081724473
404.275203952
75.7662819881
2358.94342767
1873.80133634
1390.2302933
908.960356262
430.564070643
89.4598284289
2379.10408691
1895.07981629
1412.56179962
932.11983363
454.092905872
101.743386697
1432.84057412
952.924187239
475.125526268
112.646326789
1451.28015585
971.676105586
493.939911116
122.290750196
1468.0710386
988.620182823
510.818305332
130.85919664
)
;
    }
    sides
    {
        type            calculated;
        value           nonuniform List<scalar> 0();
    }
    bottom
    {
        type            calculated;
        value           nonuniform List<scalar> 0();
    }
    front
    {
        type            calculated;
        value           nonuniform List<scalar> 
164
(
2993.69994165
2599.71126054
2100.09873502
1574.94447283
1024.60815528
424.173956336
-339.013121002
-1183.42234341
3064.42682955
2620.0858192
2117.45615611
1580.88104067
1008.08141754
310.881203413
-789.889725353
-2465.97497001
3064.42743454
2620.08665797
2117.45710438
1580.88192485
1008.08202459
310.881178434
-789.890634326
-2465.97684166
2993.70186925
2599.71367118
2100.10144576
1574.94699244
1024.60995586
424.174535426
-339.014285378
-1183.42379582
2088.98641884
1571.99842024
1046.9180546
508.617003715
-38.6153729926
-424.88030585
2080.08121358
1563.94899946
1045.92743882
527.178371013
89.9388932674
-75.7826547852
2070.75123039
1547.26436165
1021.1035079
484.827836325
86.0874591552
-23.4733154288
2062.22174119
1529.60968995
989.524213355
423.598849263
51.5059404964
-12.2970321755
2057.03986824
1517.54690053
964.468177315
378.333129136
32.9088339883
-10.419176657
2057.74525145
1515.95841974
957.734185837
369.302456726
28.8349862159
-10.0531883735
2065.72550368
1527.67877599
977.661251997
385.377023947
42.2006815321
-10.0752535612
2080.10247236
1546.58484905
1002.80220289
430.319577217
63.4048385594
-10.1803607088
2100.22571808
1573.23184902
1036.29811281
484.446485405
91.2857758166
-10.2829690777
2124.30629053
1604.0359367
1077.13443943
541.279348603
123.921389032
-10.1398085035
2151.02222823
1637.35464457
1120.18585407
597.781894753
159.129510243
-9.17150888555
2179.11811827
1671.42153138
1162.23196296
652.238907451
195.202572915
-5.86019681394
2207.64487486
1705.27166156
1202.80891842
701.512108938
233.74632272
1.92926338546
2235.85035416
1738.03067053
1240.96639663
745.963615236
271.40875065
14.1438533697
2263.19802912
1769.15487656
1276.33393507
785.990092242
307.661458424
28.8266229983
2289.33667123
1798.35896864
1308.83998145
821.972822397
342.11513491
44.5624271647
2314.06024883
1825.52504868
1338.54414752
854.178585295
374.824106436
60.6890052387
2337.27072607
1850.65125891
1365.62205306
883.081724473
404.275203952
75.7662819881
2358.94342767
1873.80133634
1390.2302933
908.960356262
430.564070643
89.4598284289
2379.10408691
1895.07981629
1412.56179962
932.11983363
454.092905872
101.743386697
1432.84057412
952.924187239
475.125526268
112.646326789
1451.28015585
971.676105586
493.939911116
122.290750196
1468.0710386
988.620182823
510.818305332
130.85919664
)
;
    }
    atmosphere
    {
        type            calculated;
        value           nonuniform List<scalar> 
27
(
-1917.8126126
-7165.77394582
-7165.77531294
-1917.81513726
-588.908482859
-9.84487903627
-9.84684524327
-9.81224435722
-9.81921997571
-9.81277192864
-9.82950122973
-9.8377913057
-9.84222958158
-9.83893067781
-9.83129019458
-9.84904248424
-9.84683446629
-9.84013560627
-9.83420448037
-9.82957220346
-9.82593540091
-9.82289511901
-9.82059797348
-9.8188408273
-9.81745997768
-9.81635454271
-9.81545545113
)
;
    }
    floatingObject
    {
        type            calculated;
        value           nonuniform List<scalar> 4(3238.50843603 3309.23532457 3309.23592488 3238.51034805);
    }
    procBoundary6to3
    {
        type            processor;
        value           nonuniform List<scalar> 8(3070.88906093 2589.91108223 2088.98252706 1571.99486201 1046.91554406 508.616083938 -38.6147495883 -424.880251951);
    }
    procBoundary6to7
    {
        type            processor;
        value           nonuniform List<scalar> 
11
(
2757.80262909
2781.22690382
2803.71762462
2825.12112729
2845.35431784
2864.38640471
2397.8118461
1914.61734674
1914.61734674
1932.55190069
1949.01786229
)
;
    }
    procBoundary6to8
    {
        type            processor;
        value           nonuniform List<scalar> 
16
(
3070.89132253
2589.91445052
2589.91445052
2587.48689888
2586.92655808
2585.01670975
2584.0830855
2586.35683473
2593.14923613
2604.62498069
2620.45154015
2639.72360231
2661.55583038
2684.9951782
2709.25612951
2733.69149398
)
;
    }
    procBoundary6to9
    {
        type            processor;
        value           nonuniform List<scalar> 4(1483.38281442 1003.96773742 526.011766484 138.513369261);
    }
}


// ************************************************************************* //
