/*--------------------------------*- C++ -*----------------------------------*\
| =========                 |                                                 |
| \\      /  F ield         | OpenFOAM: The Open Source CFD Toolbox           |
|  \\    /   O peration     | Version:  v2012                                 |
|   \\  /    A nd           | Website:  www.openfoam.com                      |
|    \\/     M anipulation  |                                                 |
\*---------------------------------------------------------------------------*/
FoamFile
{
    version     2.0;
    format      ascii;
    class       volScalarField;
    location    "3";
    object      p;
}
// * * * * * * * * * * * * * * * * * * * * * * * * * * * * * * * * * * * * * //

dimensions      [1 -1 -2 0 0 0 0];


internalField   nonuniform List<scalar> 
164
(
4887.30610255
4393.06823174
3897.95634737
3401.8488073
2904.57423421
2405.85705667
1905.27843335
1402.21842516
895.73053845
388.772877908
62.8142293171
-9.04444747137
-9.57318218938
8325.52853747
7835.46637125
7344.8993053
6853.80765781
5869.92784167
5377.02767735
4883.38453445
4388.91196123
3893.53292422
3397.15213393
2899.61794704
2400.6504585
1899.79976392
1396.36761798
889.188278605
380.465544001
57.8131464616
-9.0692854849
-9.64247558054
8322.68554367
7832.61773191
7342.03717531
6850.92442623
6359.24897442
5866.96039154
5373.98061496
4880.21741535
4385.57427491
3890.01879035
3393.51364231
2895.96060783
2397.11366907
1896.61479631
1393.84260605
887.914464733
380.75108881
57.8776520717
-9.18591582741
-9.8384370352
8320.30595334
7830.24286694
7339.67134309
6848.57221143
6356.91324236
5864.63696466
5371.6496858
4877.82987281
4383.03957931
3887.35984781
3390.84140339
2893.44947789
2394.97512287
1895.38277426
1394.29119918
891.515749336
389.056336624
62.8535619769
-9.40150789403
-10.2232591545
8318.38435606
7828.33604154
7337.79599588
6846.74711827
6355.15849229
5862.97462376
5370.08366452
4876.27420746
4381.26405136
3885.462412
3388.97648134
2891.72434149
2393.60976016
1895.30313655
1396.57081981
897.884537283
401.948441098
71.5823730241
-9.45540065216
-10.4323530736
8316.905611
7826.88094272
7336.39300367
6845.42993968
6353.96583801
5861.97724546
5369.37419905
4875.78988255
4380.20130377
3884.2845162
3387.93302125
2890.79000758
2392.48671339
1895.41288816
1399.20538617
904.20042811
414.270798981
80.7063255891
-9.14661619038
-9.8247078348
8315.8469152
7825.8538141
7335.43615018
6844.58688114
6353.26920008
5861.40335393
5368.83771193
4875.13068033
4378.94124263
3883.74679101
3387.65735805
2890.56846434
2391.78988652
1895.66031791
1401.41917518
908.795726731
422.474071445
86.1668883728
-8.83848819406
-9.69512381818
8315.17456378
7825.21448455
7334.87972076
6844.21540605
6353.32950593
5862.36353834
5371.48434279
4881.10417323
8314.85543694
7824.91363272
7334.61920358
6844.01297537
6353.16514211
5862.09654585
5371.18626511
4880.57842188
8314.86650607
7824.92471364
7334.63000899
6844.02294502
6353.17345639
5862.10221706
5371.18944451
4880.57934225
8315.20646243
7825.24635172
7334.91068106
6844.24402404
6353.35380989
5862.38130474
5371.49331019
4881.10500858
)
;

boundaryField
{
    back
    {
        type            calculated;
        value           nonuniform List<scalar> 
164
(
4887.30610255
4393.06823174
3897.95634737
3401.8488073
2904.57423421
2405.85705667
1905.27843335
1402.21842516
895.73053845
388.772877908
62.8142293171
-9.04444747137
-9.57318218938
8325.52853747
7835.46637125
7344.8993053
6853.80765781
5869.92784167
5377.02767735
4883.38453445
4388.91196123
3893.53292422
3397.15213393
2899.61794704
2400.6504585
1899.79976392
1396.36761798
889.188278605
380.465544001
57.8131464616
-9.0692854849
-9.64247558054
8322.68554367
7832.61773191
7342.03717531
6850.92442623
6359.24897442
5866.96039154
5373.98061496
4880.21741535
4385.57427491
3890.01879035
3393.51364231
2895.96060783
2397.11366907
1896.61479631
1393.84260605
887.914464733
380.75108881
57.8776520716
-9.18591582741
-9.8384370352
8320.30595334
7830.24286694
7339.67134309
6848.57221143
6356.91324236
5864.63696466
5371.6496858
4877.82987281
4383.03957931
3887.35984781
3390.84140339
2893.44947789
2394.97512287
1895.38277426
1394.29119918
891.515749336
389.056336624
62.8535619769
-9.40150789403
-10.2232591545
8318.38435606
7828.33604154
7337.79599588
6846.74711827
6355.15849229
5862.97462376
5370.08366452
4876.27420746
4381.26405136
3885.462412
3388.97648134
2891.72434149
2393.60976016
1895.30313655
1396.57081981
897.884537283
401.948441098
71.5823730241
-9.45540065216
-10.4323530736
8316.905611
7826.88094272
7336.39300367
6845.42993968
6353.96583801
5861.97724546
5369.37419905
4875.78988255
4380.20130377
3884.2845162
3387.93302125
2890.79000758
2392.48671339
1895.41288816
1399.20538617
904.20042811
414.270798981
80.7063255891
-9.14661619038
-9.8247078348
8315.8469152
7825.8538141
7335.43615018
6844.58688114
6353.26920008
5861.40335393
5368.83771193
4875.13068033
4378.94124263
3883.74679101
3387.65735805
2890.56846434
2391.78988652
1895.66031791
1401.41917518
908.795726731
422.474071445
86.1668883728
-8.83848819406
-9.69512381818
8315.17456378
7825.21448455
7334.87972076
6844.21540605
6353.32950593
5862.36353834
5371.48434279
4881.10417323
8314.85543694
7824.91363272
7334.61920358
6844.01297537
6353.16514211
5862.09654585
5371.18626511
4880.57842188
8314.86650607
7824.92471364
7334.63000899
6844.02294502
6353.17345639
5862.10221706
5371.18944451
4880.57934225
8315.20646243
7825.24635172
7334.91068106
6844.24402404
6353.35380989
5862.38130474
5371.49331019
4881.10500858
)
;
    }
    sides
    {
        type            calculated;
        value           nonuniform List<scalar> 0();
    }
    bottom
    {
        type            calculated;
        value           nonuniform List<scalar> 10(8570.33761742 8567.49448675 8565.11495254 8563.19336608 8561.71457272 8560.65581922 8559.98337241 8559.66414394 8559.67513795 8560.01506799);
    }
    front
    {
        type            calculated;
        value           nonuniform List<scalar> 
164
(
4887.30610255
4393.06823174
3897.95634737
3401.8488073
2904.57423421
2405.85705667
1905.27843335
1402.21842516
895.73053845
388.772877908
62.8142293171
-9.04444747137
-9.57318218938
8325.52853747
7835.46637125
7344.8993053
6853.80765781
5869.92784167
5377.02767735
4883.38453445
4388.91196123
3893.53292422
3397.15213393
2899.61794704
2400.6504585
1899.79976392
1396.36761798
889.188278605
380.465544001
57.8131464616
-9.0692854849
-9.64247558054
8322.68554367
7832.61773191
7342.03717531
6850.92442623
6359.24897442
5866.96039154
5373.98061496
4880.21741535
4385.57427491
3890.01879035
3393.51364231
2895.96060783
2397.11366907
1896.61479631
1393.84260605
887.914464733
380.75108881
57.8776520717
-9.18591582741
-9.8384370352
8320.30595334
7830.24286694
7339.67134309
6848.57221143
6356.91324236
5864.63696466
5371.6496858
4877.82987281
4383.03957931
3887.35984781
3390.84140339
2893.44947789
2394.97512287
1895.38277426
1394.29119918
891.515749336
389.056336624
62.8535619769
-9.40150789403
-10.2232591545
8318.38435606
7828.33604154
7337.79599588
6846.74711827
6355.15849229
5862.97462376
5370.08366452
4876.27420746
4381.26405136
3885.462412
3388.97648134
2891.72434149
2393.60976016
1895.30313655
1396.57081981
897.884537283
401.948441098
71.5823730241
-9.45540065216
-10.4323530736
8316.905611
7826.88094272
7336.39300367
6845.42993968
6353.96583801
5861.97724546
5369.37419905
4875.78988255
4380.20130377
3884.2845162
3387.93302125
2890.79000758
2392.48671339
1895.41288816
1399.20538617
904.20042811
414.270798981
80.7063255891
-9.14661619038
-9.8247078348
8315.8469152
7825.8538141
7335.43615018
6844.58688114
6353.26920008
5861.40335393
5368.83771193
4875.13068033
4378.94124263
3883.74679101
3387.65735805
2890.56846434
2391.78988652
1895.66031791
1401.41917518
908.795726731
422.474071445
86.1668883728
-8.83848819406
-9.69512381818
8315.17456378
7825.21448455
7334.87972076
6844.21540605
6353.32950593
5862.36353834
5371.48434279
4881.10417323
8314.85543694
7824.91363272
7334.61920358
6844.01297537
6353.16514211
5862.09654585
5371.18626511
4880.57842188
8314.86650607
7824.92471364
7334.63000899
6844.02294502
6353.17345639
5862.10221706
5371.18944451
4880.57934225
8315.20646243
7825.24635172
7334.91068106
6844.24402404
6353.35380989
5862.38130474
5371.49331019
4881.10500858
)
;
    }
    atmosphere
    {
        type            calculated;
        value           nonuniform List<scalar> 7(-9.81001062226 -9.81387747662 -9.96767800599 -10.6315046671 -11.1690671349 -9.80970887462 -9.81143008424);
    }
    floatingObject
    {
        type            calculated;
        value           nonuniform List<scalar> 8(4378.94124263 3883.74679101 3387.65735805 2890.56846434 4636.29570219 4635.76989974 4635.77074921 4636.29646174);
    }
    procBoundary3to4
    {
        type            processor;
        value           nonuniform List<scalar> 
13
(
4891.95303363
4398.03191415
3903.2947251
8328.83127479
7838.78516534
7348.25202416
6857.21632658
5873.52208105
5380.76353305
5380.76353305
6362.16739055
6362.16739055
6362.16739055
)
;
    }
    procBoundary3to5
    {
        type            processor;
        value           nonuniform List<scalar> 10(3407.62287884 2910.85021527 2412.73748669 1912.94965871 1411.05214377 906.537301329 402.880353893 70.8198809273 -9.05672454865 -9.55066103355);
    }
    procBoundary3to6
    {
        type            processor;
        value           nonuniform List<scalar> 8(2379.6028046 1891.61866474 1401.96586867 911.346812926 427.215461351 88.7741891388 -8.82124419451 -9.63563777457);
    }
    procBoundary3to8
    {
        type            processor;
        value           nonuniform List<scalar> 8(8315.89698831 7825.90353381 7335.48416343 6844.63096767 6353.30619443 5861.42947698 5368.85000829 4875.1249005);
    }
}


// ************************************************************************* //
