/*--------------------------------*- C++ -*----------------------------------*\
| =========                 |                                                 |
| \\      /  F ield         | OpenFOAM: The Open Source CFD Toolbox           |
|  \\    /   O peration     | Version:  v2012                                 |
|   \\  /    A nd           | Website:  www.openfoam.com                      |
|    \\/     M anipulation  |                                                 |
\*---------------------------------------------------------------------------*/
FoamFile
{
    version     2.0;
    format      ascii;
    class       surfaceScalarField;
    location    "3.7";
    object      alphaPhi0.water;
}
// * * * * * * * * * * * * * * * * * * * * * * * * * * * * * * * * * * * * * //

dimensions      [0 3 -1 0 0 0 0];
oriented        oriented;


internalField   nonuniform List<scalar> 
305
(
-1.89395740443e-06
1.89392725834e-06
-5.69145294088e-06
3.79746142361e-06
-1.0193251663e-05
4.50177500566e-06
-1.48141414622e-05
4.62090414765e-06
-1.93943248548e-05
4.58026979812e-06
-2.39798504829e-05
4.58617935455e-06
-2.86293385361e-05
4.65078480965e-06
4.70940845773e-06
-3.85983477824e-06
5.75371958727e-06
-7.95341447879e-06
7.89099692159e-06
-1.23931683199e-05
8.94150669576e-06
-1.71331874971e-05
9.36094795604e-06
-2.20610162383e-05
9.50821189648e-06
-2.71449025607e-05
9.6707221255e-06
-3.23496225562e-05
9.85701943354e-06
1.00428971949e-05
-4.55296653139e-06
1.03066246041e-05
-8.96437886936e-06
1.23023491323e-05
-1.35726123868e-05
1.35497030024e-05
-1.84439001614e-05
1.42322529684e-05
-2.35718251328e-05
1.46362428051e-05
-2.89113350427e-05
1.50108987136e-05
-3.44287251369e-05
1.53752711437e-05
1.57642624493e-05
-4.58335207243e-06
1.48898969855e-05
-9.16458699468e-06
1.68835059519e-05
-1.38952010442e-05
1.82802620872e-05
-1.88496691776e-05
1.91867180932e-05
-2.40730345845e-05
1.98596821887e-05
-2.95171726392e-05
2.04554116644e-05
-3.52341209916e-05
2.10934614131e-05
-4.11914175467e-05
2.17230792122e-05
2.22800136624e-05
-4.34554818438e-06
1.92353534061e-05
-8.91146580952e-06
2.14493342012e-05
-1.36551494302e-05
2.30238806262e-05
-1.86039528942e-05
2.41355104593e-05
-2.37960803146e-05
2.50518759031e-05
-2.92684825034e-05
2.59280588946e-05
-3.5028310053e-05
2.68540535443e-05
-4.11073759165e-05
2.78042194755e-05
-4.76016974889e-05
2.87778884859e-05
2.96179946116e-05
-4.04840927057e-06
2.3283666941e-05
-8.41115403859e-06
2.58119869377e-05
-1.30352071128e-05
2.76478680431e-05
-1.79162419517e-05
2.90165368899e-05
-2.30244723084e-05
3.01601982138e-05
-2.84450484335e-05
3.13488887855e-05
-3.41872099962e-05
3.25968427134e-05
-4.03532070936e-05
3.39722019031e-05
-4.69613376772e-05
3.53897446384e-05
3.67880577996e-05
-3.72289590728e-06
2.70064702142e-05
-7.87566896254e-06
2.996467268e-05
-1.22741866978e-05
3.20463256683e-05
-1.69500277487e-05
3.36923752066e-05
-2.19027603216e-05
3.51130379032e-05
-2.71566216966e-05
3.66030578646e-05
-3.28269940628e-05
3.82678730354e-05
-3.89659745291e-05
4.01131786446e-05
-4.56215649667e-05
4.20491186651e-05
4.41429959326e-05
-3.38260025431e-06
3.03889848837e-05
-7.19594489798e-06
3.37779372914e-05
-1.13271209121e-05
3.61774477603e-05
-1.57364402188e-05
3.81016924336e-05
-2.04503874495e-05
3.98270910673e-05
-2.54799867406e-05
4.16329568961e-05
-3.0972874032e-05
4.37614677995e-05
-3.69676267806e-05
4.61099179313e-05
-4.36378458558e-05
4.8723227954e-05
5.15550762093e-05
-2.99265794159e-06
3.33815625364e-05
-6.4189981317e-06
3.72041997155e-05
-1.01904608686e-05
3.99488543312e-05
-1.42568790309e-05
4.21680967873e-05
-1.86264461321e-05
4.41967357793e-05
-2.33989233489e-05
4.64057098031e-05
-2.85813289077e-05
4.89445607822e-05
-3.43807207119e-05
5.19112519052e-05
-4.08271801682e-05
5.51733408441e-05
5.8869503376e-05
-2.54738062889e-06
3.59288584431e-05
-5.55731796008e-06
4.02140460735e-05
-8.87862271652e-06
4.3270079504e-05
-1.25117382554e-05
4.58011590732e-05
-1.64724086792e-05
4.81574192677e-05
-2.08195459082e-05
5.07530280915e-05
-2.56617758873e-05
5.37874155541e-05
-3.10598192001e-05
5.73110511719e-05
-3.72416366208e-05
6.13588259107e-05
6.58871818439e-05
-2.04274621188e-06
3.79714957243e-05
-4.51971093902e-06
4.26908798182e-05
-7.35353691475e-06
4.61037687379e-05
-1.04922648049e-05
4.89397510958e-05
-1.3944513538e-05
5.16095773494e-05
-1.77862500309e-05
5.45948692761e-05
-2.21155971952e-05
5.81172161175e-05
-2.7065835161e-05
6.22629375648e-05
-3.27161747732e-05
6.70125672451e-05
7.25139544872e-05
-1.48249295257e-06
3.94538271673e-05
-3.3751576989e-06
4.45833390702e-05
-5.61802233977e-06
4.834639497e-05
-8.17130211968e-06
5.14927701283e-05
-1.10351718036e-05
5.44732195458e-05
-1.42728702751e-05
5.78324853545e-05
-1.79780412638e-05
6.18226952226e-05
-2.22749140276e-05
6.65612558906e-05
-2.73328246102e-05
7.20737016887e-05
7.84574481903e-05
-8.44263377566e-07
4.02978436803e-05
-2.10900440589e-06
4.58477694163e-05
-3.69983571992e-06
4.99368609552e-05
-5.58484731122e-06
5.33773754512e-05
-7.76168382756e-06
5.66496621005e-05
-1.02890506081e-05
6.03596878861e-05
-1.32646877454e-05
6.4798503859e-05
-1.67702401161e-05
7.00681339681e-05
-2.09995237442e-05
7.63060131717e-05
8.35407770524e-05
-1.49448160349e-07
4.04469363167e-05
-7.47698653822e-07
4.64455778668e-05
-1.61151453707e-06
5.08001768951e-05
-2.74136588859e-06
5.45067136121e-05
-4.14917148339e-06
5.80569741968e-05
-5.86427477108e-06
6.20744876942e-05
-7.97202087497e-06
6.69063825579e-05
-1.05781723878e-05
7.26756602252e-05
-1.37915398758e-05
7.95226469327e-05
8.75363167178e-05
5.78897529395e-07
3.98675775516e-05
7.65317201708e-07
4.62586154089e-05
6.53133984012e-07
5.0911775265e-05
3.29106583799e-07
5.48301424946e-05
-2.40380485291e-07
5.86259515101e-05
-1.06109093348e-06
6.28949108979e-05
-2.18065535955e-06
6.80265361672e-05
-3.72595513867e-06
7.42228843918e-05
-5.79161400184e-06
8.1592769826e-05
9.02619020493e-05
1.34789624596e-06
3.85190434868e-05
2.35062311344e-06
4.52551959307e-05
3.05714731405e-06
5.02046057088e-05
3.56315056143e-06
5.43235282348e-05
3.93512165615e-06
5.82535928171e-05
4.11760212906e-06
6.27127004578e-05
4.05249670239e-06
6.8092423682e-05
3.68205386538e-06
2.89845887432e-06
2.08461661193e-06
3.64336035932e-05
3.93336137578e-06
4.34056517991e-05
5.53290158124e-06
4.86042941186e-05
6.97086761076e-06
5.28850267687e-05
8.3107368621e-06
5.69135246685e-05
9.54468824929e-06
2.95008604791e-06
5.58894303254e-06
8.04434642306e-06
4.61480082116e-05
1.04167780567e-05
5.05119477217e-05
1.05328482745e-05
)
;

boundaryField
{
    back
    {
        type            calculated;
        value           uniform 0;
    }
    sides
    {
        type            calculated;
        value           uniform 0;
    }
    bottom
    {
        type            calculated;
        value           uniform 0;
    }
    front
    {
        type            calculated;
        value           uniform 0;
    }
    atmosphere
    {
        type            calculated;
        value           nonuniform List<scalar> 0();
    }
    floatingObject
    {
        type            calculated;
        value           nonuniform List<scalar> 0();
    }
    procBoundary2to0
    {
        type            processor;
        value           nonuniform List<scalar> 
14
(
7.45959213874e-05
8.23798868263e-05
9.15926050498e-05
6.14786036899e-05
1.06458416792e-05
6.69926122272e-05
3.34825473425e-05
4.07657940477e-05
1.27682670636e-05
5.45618216587e-05
-7.21149857794e-06
4.2825174173e-05
1.38298000899e-05
4.72143824577e-05
)
;
    }
    procBoundary2to1
    {
        type            processor;
        value           nonuniform List<scalar> 
18
(
-3.33368787439e-05
-3.76815615539e-05
-4.014721844e-05
-1.60651284813e-05
-4.74002927798e-05
-2.27143578447e-05
-5.44981325729e-05
-5.41261199229e-05
-5.29712225421e-05
-5.10447736856e-05
-4.81366460432e-05
-4.42544410102e-05
-3.93382582583e-05
-3.32719331636e-05
-2.6078613578e-05
-1.77823441996e-05
-8.51224100324e-06
1.57436349519e-06
)
;
    }
}


// ************************************************************************* //
