/*--------------------------------*- C++ -*----------------------------------*\
| =========                 |                                                 |
| \\      /  F ield         | OpenFOAM: The Open Source CFD Toolbox           |
|  \\    /   O peration     | Version:  v2012                                 |
|   \\  /    A nd           | Website:  www.openfoam.com                      |
|    \\/     M anipulation  |                                                 |
\*---------------------------------------------------------------------------*/
FoamFile
{
    version     2.0;
    format      ascii;
    class       volScalarField;
    location    "3.7";
    object      epsilon;
}
// * * * * * * * * * * * * * * * * * * * * * * * * * * * * * * * * * * * * * //

dimensions      [0 2 -3 0 0 0 0];


internalField   nonuniform List<scalar> 
167
(
0.000942260829791
0.00105759254864
0.00113227475931
0.00116150158935
0.00117603744093
0.00118619293318
0.00119526195885
0.00120433007053
0.00106203856418
0.00108673834935
0.00118060298145
0.0012163297886
0.00123240429742
0.00124227442506
0.0012504071043
0.00125834896684
0.00114257411643
0.00118911016935
0.00129873062168
0.00134019010982
0.00135813875908
0.00136865257608
0.00137717963795
0.00138552148432
0.00117531867337
0.00123035958053
0.00134663848476
0.00139046759268
0.00140899512744
0.0014195449677
0.00142802653698
0.00143639969025
0.00144568240576
0.00119105422788
0.00124900489975
0.0013680209535
0.00141268215368
0.00143120925089
0.00144151711773
0.00144974511681
0.00145793346628
0.00146713038284
0.00147906465223
0.00120087256592
0.00125948906894
0.00137966954344
0.0014245258462
0.00144281744862
0.00145276742276
0.00146065084074
0.00146854687939
0.0014774923842
0.00148916864745
0.00120863131395
0.00126714225624
0.00138788590127
0.00143270263683
0.00145068718758
0.00146025199533
0.00146776401827
0.00147531815773
0.00148393986554
0.00149524152785
0.00121570807552
0.00127378827405
0.00139492089
0.00143964873957
0.00145733361463
0.00146653360256
0.00147367602496
0.00148088305313
0.00148916111879
0.00150004684228
0.00122245399191
0.0012800678619
0.00140154857232
0.00144619937325
0.00146361732579
0.00147249255819
0.00147929706424
0.00148617016962
0.00149410007984
0.00150456070529
0.00122899116938
0.00128618096579
0.00140800787659
0.0014526122693
0.00146980323259
0.0014783879253
0.00148489301079
0.0014914599449
0.00149906489782
0.00150911149596
0.00123536086329
0.00129213837768
0.00141434509776
0.00145894058327
0.0014759473453
0.00148428123589
0.00149051743511
0.00149680988702
0.00150411213211
0.00151376985943
0.00124154034201
0.0012979529093
0.00142055881763
0.00146517568618
0.00148203537404
0.00149015760219
0.00149615818013
0.00150220319269
0.00150923138159
0.00151852190187
0.00124743925511
0.00130360062686
0.00142663033705
0.00147129539127
0.00148803746316
0.00149598113663
0.00150178092619
0.00150760762454
0.00151438421675
0.00152333101699
0.00125310941152
0.00130907367204
0.00143253651091
0.00147727014639
0.00149392173829
0.00150171468269
0.00150734201145
0.00151298093162
0.00151953173006
0.0015281586001
0.00125853097984
0.00131432004393
0.00143824337363
0.00148307315952
0.00149965841227
0.00150732453754
0.00151280084746
0.00151827915903
0.00152463468497
0.00153297359133
0.00126364728055
0.00131932805068
0.00144372393571
0.00148867423029
0.00150521394054
0.00151277780026
0.00151813539626
0.00152347397654
0.00152966917573
0.00153774292302
0.00126846148901
0.00132408642321
0.00144895091534
0.00149403283404
0.00151056198072
0.00151805369282
0.00152331107915
0.00127302863122
0.00132853901856
0.0014538931072
0.00149914262528
0.00151567551597
0.00145854235397
0.0015039730504
)
;

boundaryField
{
    back
    {
        lowReCorrection 0;
        blending        stepwise;
        n               2;
        type            epsilonWallFunction;
        value           nonuniform List<scalar> 
167
(
0.000942260829791
0.00105759254864
0.00113227475931
0.00116150158935
0.00117603744093
0.00118619293318
0.00119526195885
0.00120433007053
0.00106203856418
0.00108673834935
0.00118060298145
0.0012163297886
0.00123240429742
0.00124227442506
0.0012504071043
0.00125834896684
0.00114257411643
0.00118911016935
0.00129873062168
0.00134019010982
0.00135813875908
0.00136865257608
0.00137717963795
0.00138552148432
0.00117531867337
0.00123035958053
0.00134663848476
0.00139046759268
0.00140899512744
0.0014195449677
0.00142802653698
0.00143639969025
0.00144568240576
0.00119105422788
0.00124900489975
0.0013680209535
0.00141268215368
0.00143120925089
0.00144151711773
0.00144974511681
0.00145793346628
0.00146713038284
0.00147906465223
0.00120087256592
0.00125948906894
0.00137966954344
0.0014245258462
0.00144281744862
0.00145276742276
0.00146065084074
0.00146854687939
0.0014774923842
0.00148916864745
0.00120863131395
0.00126714225624
0.00138788590127
0.00143270263683
0.00145068718758
0.00146025199533
0.00146776401827
0.00147531815773
0.00148393986554
0.00149524152785
0.00121570807552
0.00127378827405
0.00139492089
0.00143964873957
0.00145733361463
0.00146653360256
0.00147367602496
0.00148088305313
0.00148916111879
0.00150004684228
0.00122245399191
0.0012800678619
0.00140154857232
0.00144619937325
0.00146361732579
0.00147249255819
0.00147929706424
0.00148617016962
0.00149410007984
0.00150456070529
0.00122899116938
0.00128618096579
0.00140800787659
0.0014526122693
0.00146980323259
0.0014783879253
0.00148489301079
0.0014914599449
0.00149906489782
0.00150911149596
0.00123536086329
0.00129213837768
0.00141434509776
0.00145894058327
0.0014759473453
0.00148428123589
0.00149051743511
0.00149680988702
0.00150411213211
0.00151376985943
0.00124154034201
0.0012979529093
0.00142055881763
0.00146517568618
0.00148203537404
0.00149015760219
0.00149615818013
0.00150220319269
0.00150923138159
0.00151852190187
0.00124743925511
0.00130360062686
0.00142663033705
0.00147129539127
0.00148803746316
0.00149598113663
0.00150178092619
0.00150760762454
0.00151438421675
0.00152333101699
0.00125310941152
0.00130907367204
0.00143253651091
0.00147727014639
0.00149392173829
0.00150171468269
0.00150734201145
0.00151298093162
0.00151953173006
0.0015281586001
0.00125853097984
0.00131432004393
0.00143824337363
0.00148307315952
0.00149965841227
0.00150732453754
0.00151280084746
0.00151827915903
0.00152463468497
0.00153297359133
0.00126364728055
0.00131932805068
0.00144372393571
0.00148867423029
0.00150521394054
0.00151277780026
0.00151813539626
0.00152347397654
0.00152966917573
0.00153774292302
0.00126846148901
0.00132408642321
0.00144895091534
0.00149403283404
0.00151056198072
0.00151805369282
0.00152331107915
0.00127302863122
0.00132853901856
0.0014538931072
0.00149914262528
0.00151567551597
0.00145854235397
0.0015039730504
)
;
    }
    sides
    {
        lowReCorrection 0;
        blending        stepwise;
        n               2;
        type            epsilonWallFunction;
        value           nonuniform List<scalar> 8(0.000942260829791 0.00105759254864 0.00113227475931 0.00116150158935 0.00117603744093 0.00118619293318 0.00119526195885 0.00120433007053);
    }
    bottom
    {
        lowReCorrection 0;
        blending        stepwise;
        n               2;
        type            epsilonWallFunction;
        value           nonuniform List<scalar> 
18
(
0.000942260829791
0.00106203856418
0.00114257411643
0.00117531867337
0.00119105422788
0.00120087256592
0.00120863131395
0.00121570807552
0.00122245399191
0.00122899116938
0.00123536086329
0.00124154034201
0.00124743925511
0.00125310941152
0.00125853097984
0.00126364728055
0.00126846148901
0.00127302863122
)
;
    }
    front
    {
        lowReCorrection 0;
        blending        stepwise;
        n               2;
        type            epsilonWallFunction;
        value           nonuniform List<scalar> 
167
(
0.000942260829791
0.00105759254864
0.00113227475931
0.00116150158935
0.00117603744093
0.00118619293318
0.00119526195885
0.00120433007053
0.00106203856418
0.00108673834935
0.00118060298145
0.0012163297886
0.00123240429742
0.00124227442506
0.0012504071043
0.00125834896684
0.00114257411643
0.00118911016935
0.00129873062168
0.00134019010982
0.00135813875908
0.00136865257608
0.00137717963795
0.00138552148432
0.00117531867337
0.00123035958053
0.00134663848476
0.00139046759268
0.00140899512744
0.0014195449677
0.00142802653698
0.00143639969025
0.00144568240576
0.00119105422788
0.00124900489975
0.0013680209535
0.00141268215368
0.00143120925089
0.00144151711773
0.00144974511681
0.00145793346628
0.00146713038284
0.00147906465223
0.00120087256592
0.00125948906894
0.00137966954344
0.0014245258462
0.00144281744862
0.00145276742276
0.00146065084074
0.00146854687939
0.0014774923842
0.00148916864745
0.00120863131395
0.00126714225624
0.00138788590127
0.00143270263683
0.00145068718758
0.00146025199533
0.00146776401827
0.00147531815773
0.00148393986554
0.00149524152785
0.00121570807552
0.00127378827405
0.00139492089
0.00143964873957
0.00145733361463
0.00146653360256
0.00147367602496
0.00148088305313
0.00148916111879
0.00150004684228
0.00122245399191
0.0012800678619
0.00140154857232
0.00144619937325
0.00146361732579
0.00147249255819
0.00147929706424
0.00148617016962
0.00149410007984
0.00150456070529
0.00122899116938
0.00128618096579
0.00140800787659
0.0014526122693
0.00146980323259
0.0014783879253
0.00148489301079
0.0014914599449
0.00149906489782
0.00150911149596
0.00123536086329
0.00129213837768
0.00141434509776
0.00145894058327
0.0014759473453
0.00148428123589
0.00149051743511
0.00149680988702
0.00150411213211
0.00151376985943
0.00124154034201
0.0012979529093
0.00142055881763
0.00146517568618
0.00148203537404
0.00149015760219
0.00149615818013
0.00150220319269
0.00150923138159
0.00151852190187
0.00124743925511
0.00130360062686
0.00142663033705
0.00147129539127
0.00148803746316
0.00149598113663
0.00150178092619
0.00150760762454
0.00151438421675
0.00152333101699
0.00125310941152
0.00130907367204
0.00143253651091
0.00147727014639
0.00149392173829
0.00150171468269
0.00150734201145
0.00151298093162
0.00151953173006
0.0015281586001
0.00125853097984
0.00131432004393
0.00143824337363
0.00148307315952
0.00149965841227
0.00150732453754
0.00151280084746
0.00151827915903
0.00152463468497
0.00153297359133
0.00126364728055
0.00131932805068
0.00144372393571
0.00148867423029
0.00150521394054
0.00151277780026
0.00151813539626
0.00152347397654
0.00152966917573
0.00153774292302
0.00126846148901
0.00132408642321
0.00144895091534
0.00149403283404
0.00151056198072
0.00151805369282
0.00152331107915
0.00127302863122
0.00132853901856
0.0014538931072
0.00149914262528
0.00151567551597
0.00145854235397
0.0015039730504
)
;
    }
    atmosphere
    {
        type            inletOutlet;
        inletValue      nonuniform List<scalar> 0();
        value           nonuniform List<scalar> 0();
    }
    floatingObject
    {
        lowReCorrection 0;
        blending        stepwise;
        n               2;
        type            epsilonWallFunction;
        value           nonuniform List<scalar> 0();
    }
    procBoundary2to0
    {
        type            processor;
        value           nonuniform List<scalar> 
14
(
0.00152853911115
0.00153459101355
0.00154244610096
0.00152311496866
0.00152853911115
0.00152830812446
0.0012772232607
0.00133268301621
0.00152311496866
0.00152054149037
0.00133268301621
0.00146287840925
0.00152054149037
0.00150851275843
)
;
    }
    procBoundary2to1
    {
        type            processor;
        value           nonuniform List<scalar> 
18
(
0.00121398431258
0.00126689758417
0.00139466280163
0.00139466280163
0.00145767801313
0.00145767801313
0.00149810084702
0.00150774233224
0.00151321948575
0.00151736333919
0.00152122102143
0.00152511328523
0.00152914651143
0.00153330845391
0.00153754427421
0.0015418079243
0.00154607151291
0.00155035433304
)
;
    }
}


// ************************************************************************* //
