/*--------------------------------*- C++ -*----------------------------------*\
| =========                 |                                                 |
| \\      /  F ield         | OpenFOAM: The Open Source CFD Toolbox           |
|  \\    /   O peration     | Version:  v2012                                 |
|   \\  /    A nd           | Website:  www.openfoam.com                      |
|    \\/     M anipulation  |                                                 |
\*---------------------------------------------------------------------------*/
FoamFile
{
    version     2.0;
    format      ascii;
    class       volScalarField;
    location    "3.7";
    object      k;
}
// * * * * * * * * * * * * * * * * * * * * * * * * * * * * * * * * * * * * * //

dimensions      [0 2 -2 0 0 0 0];


internalField   nonuniform List<scalar> 
167
(
0.00180314785099
0.00210682949888
0.00220496752737
0.00224277400102
0.00226144481902
0.00227442921306
0.00228598562403
0.00229751206819
0.00211274821744
0.00259934534491
0.00274704276929
0.00280223248809
0.00282688769983
0.00284196392017
0.00285435059479
0.00286642631898
0.00221838890939
0.0027602866268
0.00292754048213
0.00298957610066
0.00301623642521
0.00303179113702
0.00304437181273
0.00305665548919
0.00226064031633
0.00282387508912
0.0029992402532
0.00306404198511
0.00309123633931
0.00310666223546
0.00311902956891
0.00313122014882
0.00314472182419
0.00228078615113
0.00285238472525
0.00303097370382
0.00309667033349
0.00312372999112
0.00313873063862
0.00315067302266
0.00316253801339
0.00317585954209
0.00319315410928
0.00229328261654
0.0028683331462
0.00304817517014
0.00311398314007
0.00314063244842
0.00315507902432
0.00316649656244
0.00317791360345
0.00319084399395
0.00320773502884
0.0023031111933
0.00287992338799
0.00306025693946
0.00312588692878
0.00315204579698
0.00316591276417
0.00317677762955
0.00318768651713
0.00320013360958
0.00321646394042
0.00231204131761
0.00288995249124
0.00307056555771
0.00313596470776
0.00316165245002
0.00317497439292
0.00318529336573
0.00319569038112
0.00320762974047
0.00322334444139
0.00232052734628
0.0028994010735
0.00308025044706
0.00314544348599
0.00317071132008
0.00318354848914
0.0031933690007
0.0032032746897
0.00321470118643
0.00322978839005
0.00232872629392
0.00290857535837
0.0030896668715
0.0031547022991
0.00317961024693
0.00319201371658
0.00320139246559
0.00321084761298
0.00322179541314
0.00323627069595
0.00233669033005
0.00291749385935
0.00309888451549
0.00316382007764
0.003188431813
0.00320046022668
0.00320944232238
0.00321849340225
0.00322899485045
0.00324289482619
0.00234439212095
0.00292617661987
0.0031079021329
0.00317278501236
0.00319715600383
0.00320886700786
0.00321750136475
0.00322618800678
0.00323628527681
0.00324964064261
0.00235172016592
0.00293458829286
0.00311669302362
0.00318156537374
0.00320573996766
0.0032171825416
0.00322552015142
0.00323388525893
0.00324361075596
0.00325645626331
0.00235873889389
0.00294271773113
0.00312522404768
0.00319011895971
0.00321413803584
0.0032253533671
0.0032334359694
0.00324152411786
0.00325091633077
0.00326328483103
0.00236545509678
0.00295047175909
0.00313343816163
0.0031984046246
0.00322230700194
0.00323333144777
0.00324119128747
0.00324904214661
0.00325814360638
0.00327008449749
0.00237178824977
0.00295784885604
0.00314130111531
0.00320637851818
0.00323019828704
0.00324106973776
0.00324875369837
0.0032563982455
0.00326526367975
0.00327680382478
0.00237774246629
0.00296483735282
0.00314877426399
0.00321398495072
0.00323777524841
0.00324853869679
0.00325607630847
0.00238336962949
0.00297134774564
0.00315581916695
0.00322121749225
0.00324500142741
0.00316242706292
0.0032280356773
)
;

boundaryField
{
    back
    {
        type            kqRWallFunction;
        value           nonuniform List<scalar> 
167
(
0.00180314785099
0.00210682949888
0.00220496752737
0.00224277400102
0.00226144481902
0.00227442921306
0.00228598562403
0.00229751206819
0.00211274821744
0.00259934534491
0.00274704276929
0.00280223248809
0.00282688769983
0.00284196392017
0.00285435059479
0.00286642631898
0.00221838890939
0.0027602866268
0.00292754048213
0.00298957610066
0.00301623642521
0.00303179113702
0.00304437181273
0.00305665548919
0.00226064031633
0.00282387508912
0.0029992402532
0.00306404198511
0.00309123633931
0.00310666223546
0.00311902956891
0.00313122014882
0.00314472182419
0.00228078615113
0.00285238472525
0.00303097370382
0.00309667033349
0.00312372999112
0.00313873063862
0.00315067302266
0.00316253801339
0.00317585954209
0.00319315410928
0.00229328261654
0.0028683331462
0.00304817517014
0.00311398314007
0.00314063244842
0.00315507902432
0.00316649656244
0.00317791360345
0.00319084399395
0.00320773502884
0.0023031111933
0.00287992338799
0.00306025693946
0.00312588692878
0.00315204579698
0.00316591276417
0.00317677762955
0.00318768651713
0.00320013360958
0.00321646394042
0.00231204131761
0.00288995249124
0.00307056555771
0.00313596470776
0.00316165245002
0.00317497439292
0.00318529336573
0.00319569038112
0.00320762974047
0.00322334444139
0.00232052734628
0.0028994010735
0.00308025044706
0.00314544348599
0.00317071132008
0.00318354848914
0.0031933690007
0.0032032746897
0.00321470118643
0.00322978839005
0.00232872629392
0.00290857535837
0.0030896668715
0.0031547022991
0.00317961024693
0.00319201371658
0.00320139246559
0.00321084761298
0.00322179541314
0.00323627069595
0.00233669033005
0.00291749385935
0.00309888451549
0.00316382007764
0.003188431813
0.00320046022668
0.00320944232238
0.00321849340225
0.00322899485045
0.00324289482619
0.00234439212095
0.00292617661987
0.0031079021329
0.00317278501236
0.00319715600383
0.00320886700786
0.00321750136475
0.00322618800678
0.00323628527681
0.00324964064261
0.00235172016592
0.00293458829286
0.00311669302362
0.00318156537374
0.00320573996766
0.0032171825416
0.00322552015142
0.00323388525893
0.00324361075596
0.00325645626331
0.00235873889389
0.00294271773113
0.00312522404768
0.00319011895971
0.00321413803584
0.0032253533671
0.0032334359694
0.00324152411786
0.00325091633077
0.00326328483103
0.00236545509678
0.00295047175909
0.00313343816163
0.0031984046246
0.00322230700194
0.00323333144777
0.00324119128747
0.00324904214661
0.00325814360638
0.00327008449749
0.00237178824977
0.00295784885604
0.00314130111531
0.00320637851818
0.00323019828704
0.00324106973776
0.00324875369837
0.0032563982455
0.00326526367975
0.00327680382478
0.00237774246629
0.00296483735282
0.00314877426399
0.00321398495072
0.00323777524841
0.00324853869679
0.00325607630847
0.00238336962949
0.00297134774564
0.00315581916695
0.00322121749225
0.00324500142741
0.00316242706292
0.0032280356773
)
;
    }
    sides
    {
        type            kqRWallFunction;
        value           nonuniform List<scalar> 8(0.00180314785099 0.00210682949888 0.00220496752737 0.00224277400102 0.00226144481902 0.00227442921306 0.00228598562403 0.00229751206819);
    }
    bottom
    {
        type            kqRWallFunction;
        value           nonuniform List<scalar> 
18
(
0.00180314785099
0.00211274821744
0.00221838890939
0.00226064031633
0.00228078615113
0.00229328261654
0.0023031111933
0.00231204131761
0.00232052734628
0.00232872629392
0.00233669033005
0.00234439212095
0.00235172016592
0.00235873889389
0.00236545509678
0.00237178824977
0.00237774246629
0.00238336962949
)
;
    }
    front
    {
        type            kqRWallFunction;
        value           nonuniform List<scalar> 
167
(
0.00180314785099
0.00210682949888
0.00220496752737
0.00224277400102
0.00226144481902
0.00227442921306
0.00228598562403
0.00229751206819
0.00211274821744
0.00259934534491
0.00274704276929
0.00280223248809
0.00282688769983
0.00284196392017
0.00285435059479
0.00286642631898
0.00221838890939
0.0027602866268
0.00292754048213
0.00298957610066
0.00301623642521
0.00303179113702
0.00304437181273
0.00305665548919
0.00226064031633
0.00282387508912
0.0029992402532
0.00306404198511
0.00309123633931
0.00310666223546
0.00311902956891
0.00313122014882
0.00314472182419
0.00228078615113
0.00285238472525
0.00303097370382
0.00309667033349
0.00312372999112
0.00313873063862
0.00315067302266
0.00316253801339
0.00317585954209
0.00319315410928
0.00229328261654
0.0028683331462
0.00304817517014
0.00311398314007
0.00314063244842
0.00315507902432
0.00316649656244
0.00317791360345
0.00319084399395
0.00320773502884
0.0023031111933
0.00287992338799
0.00306025693946
0.00312588692878
0.00315204579698
0.00316591276417
0.00317677762955
0.00318768651713
0.00320013360958
0.00321646394042
0.00231204131761
0.00288995249124
0.00307056555771
0.00313596470776
0.00316165245002
0.00317497439292
0.00318529336573
0.00319569038112
0.00320762974047
0.00322334444139
0.00232052734628
0.0028994010735
0.00308025044706
0.00314544348599
0.00317071132008
0.00318354848914
0.0031933690007
0.0032032746897
0.00321470118643
0.00322978839005
0.00232872629392
0.00290857535837
0.0030896668715
0.0031547022991
0.00317961024693
0.00319201371658
0.00320139246559
0.00321084761298
0.00322179541314
0.00323627069595
0.00233669033005
0.00291749385935
0.00309888451549
0.00316382007764
0.003188431813
0.00320046022668
0.00320944232238
0.00321849340225
0.00322899485045
0.00324289482619
0.00234439212095
0.00292617661987
0.0031079021329
0.00317278501236
0.00319715600383
0.00320886700786
0.00321750136475
0.00322618800678
0.00323628527681
0.00324964064261
0.00235172016592
0.00293458829286
0.00311669302362
0.00318156537374
0.00320573996766
0.0032171825416
0.00322552015142
0.00323388525893
0.00324361075596
0.00325645626331
0.00235873889389
0.00294271773113
0.00312522404768
0.00319011895971
0.00321413803584
0.0032253533671
0.0032334359694
0.00324152411786
0.00325091633077
0.00326328483103
0.00236545509678
0.00295047175909
0.00313343816163
0.0031984046246
0.00322230700194
0.00323333144777
0.00324119128747
0.00324904214661
0.00325814360638
0.00327008449749
0.00237178824977
0.00295784885604
0.00314130111531
0.00320637851818
0.00323019828704
0.00324106973776
0.00324875369837
0.0032563982455
0.00326526367975
0.00327680382478
0.00237774246629
0.00296483735282
0.00314877426399
0.00321398495072
0.00323777524841
0.00324853869679
0.00325607630847
0.00238336962949
0.00297134774564
0.00315581916695
0.00322121749225
0.00324500142741
0.00316242706292
0.0032280356773
)
;
    }
    atmosphere
    {
        type            inletOutlet;
        inletValue      nonuniform List<scalar> 0();
        value           nonuniform List<scalar> 0();
    }
    floatingObject
    {
        type            kqRWallFunction;
        value           nonuniform List<scalar> 0();
    }
    procBoundary2to0
    {
        type            processor;
        value           nonuniform List<scalar> 
14
(
0.00326356070988
0.00327220933982
0.00328342779704
0.00325569057563
0.00326356070988
0.0032631309843
0.00238852124322
0.0029773902949
0.00325569057563
0.00325186270655
0.0029773902949
0.00316856897244
0.00325186270655
0.00323442651389
)
;
    }
    procBoundary2to1
    {
        type            processor;
        value           nonuniform List<scalar> 
18
(
0.00230976067347
0.00287941289313
0.00307011455308
0.00307011455308
0.0031621955635
0.0031621955635
0.00322074524308
0.00323459704055
0.00324243518088
0.00324833846277
0.00325381296252
0.00325932179248
0.00326501852179
0.003270887176
0.00327684761274
0.00328283429828
0.0032888051349
0.00329479396509
)
;
    }
}


// ************************************************************************* //
