/*--------------------------------*- C++ -*----------------------------------*\
| =========                 |                                                 |
| \\      /  F ield         | OpenFOAM: The Open Source CFD Toolbox           |
|  \\    /   O peration     | Version:  v2012                                 |
|   \\  /    A nd           | Website:  www.openfoam.com                      |
|    \\/     M anipulation  |                                                 |
\*---------------------------------------------------------------------------*/
FoamFile
{
    version     2.0;
    format      ascii;
    class       volScalarField;
    location    "0.1";
    object      p;
}
// * * * * * * * * * * * * * * * * * * * * * * * * * * * * * * * * * * * * * //

dimensions      [1 -1 -2 0 0 0 0];


internalField   nonuniform List<scalar> 
164
(
6178.01428387
5685.96925548
5191.71239738
4694.02643698
4191.14377413
3680.72839874
3159.79828145
2624.35623055
2070.6382167
1496.5615867
881.584346528
263.994619455
-6.94284900527
9612.15363719
9123.25903697
8634.32730272
8145.63651717
7168.89550791
6680.54893911
6191.81249826
5702.0149496
5210.45042851
4715.82398752
4215.97764081
3707.83813265
3187.42351805
2648.50709507
2084.024591
1488.48346064
804.913470627
175.1326028
-5.45697807779
9618.9721452
9130.32645197
8641.76641391
8153.65826116
7666.0680979
7178.95312803
6692.20945863
6205.61390229
5718.34327719
5230.09703774
4739.66655305
4244.59127653
3741.13805936
3224.70458311
2688.82805502
2118.31363666
1490.66302312
709.731616185
60.3401288976
-3.58536464916
9625.20293638
9136.77489998
8648.54774118
8160.96838746
7674.16020155
7188.1550504
6702.94681666
6218.53932029
5733.61270598
5248.96803612
4763.58042216
4274.68310936
3777.61241088
3268.35364229
2742.36579806
2181.76624985
1551.57934156
744.386597896
77.613925212
-7.18976101768
9630.66978598
9142.41063052
8654.44950094
8167.29188899
7681.1053436
7195.99350724
6712.05054515
6229.54834239
5745.82052662
5264.5894923
4784.37866545
4302.1776298
3811.04987488
3309.74602459
2800.30194423
2263.88153709
1661.59596566
988.193656807
-60.6702414497
-109.404978641
9635.23082275
9147.08374196
8659.3090191
8172.429768
7686.62385285
7202.05995934
6719.3533715
6239.07010318
5753.68129259
5275.20491771
4799.03425371
4321.5287625
3828.20442179
3339.75205316
2850.26311934
2334.00274388
1752.53053156
1090.30952257
69.9521142572
-308.580819629
9638.78329434
9150.69956595
8663.03873593
8176.24844729
7690.31582002
7204.90423213
6718.85227883
6232.10031264
5749.09992881
5279.53171971
4806.0796033
4332.89511898
3794.68319822
3363.31254463
2886.65168275
2359.38690653
1748.32263576
1067.55898251
-28.486703403
-1416.02816227
9641.25719228
9153.24662383
8665.81768313
8179.53398713
7694.79802316
7212.42952776
6731.81791788
6254.49225604
9642.50025431
9154.48874482
8667.04619855
8180.57678017
7695.02242961
7209.58913217
6724.65921023
6239.43151334
9642.50043401
9154.48893241
8667.0463999
8180.57699937
7695.02267407
7209.58942696
6724.6595182
6239.4318344
9641.25772832
9153.2471779
8665.81827053
8179.53461962
7694.79871404
7212.43029372
6731.81876965
6254.49320965
)
;

boundaryField
{
    back
    {
        type            calculated;
        value           nonuniform List<scalar> 
164
(
6178.01428387
5685.96925548
5191.71239738
4694.02643698
4191.14377413
3680.72839874
3159.79828145
2624.35623055
2070.6382167
1496.5615867
881.584346528
263.994619455
-6.94284900527
9612.15363719
9123.25903697
8634.32730272
8145.63651717
7168.89550791
6680.54893911
6191.81249826
5702.0149496
5210.45042851
4715.82398752
4215.97764081
3707.83813265
3187.42351805
2648.50709507
2084.024591
1488.48346064
804.913470627
175.1326028
-5.45697807779
9618.9721452
9130.32645197
8641.76641391
8153.65826116
7666.0680979
7178.95312803
6692.20945863
6205.61390229
5718.34327719
5230.09703774
4739.66655305
4244.59127653
3741.13805936
3224.70458311
2688.82805502
2118.31363666
1490.66302312
709.731616185
60.3401288976
-3.58536464916
9625.20293638
9136.77489998
8648.54774118
8160.96838746
7674.16020155
7188.1550504
6702.94681666
6218.53932029
5733.61270598
5248.96803612
4763.58042216
4274.68310936
3777.61241088
3268.35364229
2742.36579806
2181.76624985
1551.57934156
744.386597896
77.613925212
-7.18976101768
9630.66978598
9142.41063052
8654.44950094
8167.29188899
7681.1053436
7195.99350724
6712.05054515
6229.54834239
5745.82052662
5264.5894923
4784.37866545
4302.1776298
3811.04987488
3309.74602459
2800.30194423
2263.88153709
1661.59596566
988.193656807
-60.6702414497
-109.404978641
9635.23082275
9147.08374196
8659.3090191
8172.429768
7686.62385285
7202.05995934
6719.3533715
6239.07010318
5753.68129259
5275.20491771
4799.03425371
4321.5287625
3828.20442179
3339.75205316
2850.26311934
2334.00274388
1752.53053156
1090.30952257
69.9521142572
-308.580819629
9638.78329434
9150.69956595
8663.03873593
8176.24844729
7690.31582002
7204.90423213
6718.85227883
6232.10031264
5749.09992881
5279.53171971
4806.0796033
4332.89511898
3794.68319822
3363.31254463
2886.65168275
2359.38690653
1748.32263576
1067.55898251
-28.486703403
-1416.02816227
9641.25719228
9153.24662383
8665.81768313
8179.53398713
7694.79802316
7212.42952776
6731.81791788
6254.49225604
9642.50025431
9154.48874482
8667.04619855
8180.57678017
7695.02242961
7209.58913217
6724.65921023
6239.43151334
9642.50043401
9154.48893241
8667.0463999
8180.57699937
7695.02267407
7209.58942696
6724.6595182
6239.4318344
9641.25772832
9153.2471779
8665.81827053
8179.53461962
7694.79871404
7212.43029372
6731.81876965
6254.49320965
)
;
    }
    sides
    {
        type            calculated;
        value           nonuniform List<scalar> 0();
    }
    bottom
    {
        type            calculated;
        value           nonuniform List<scalar> 10(9856.96217672 9863.78068839 9870.01147957 9875.4783291 9880.039366 9883.59183806 9886.06573671 9887.30879922 9887.3089793 9886.06627421);
    }
    front
    {
        type            calculated;
        value           nonuniform List<scalar> 
164
(
6178.01428387
5685.96925548
5191.71239738
4694.02643698
4191.14377413
3680.72839874
3159.79828145
2624.35623055
2070.6382167
1496.5615867
881.584346528
263.994619455
-6.94284900527
9612.15363719
9123.25903697
8634.32730272
8145.63651717
7168.89550791
6680.54893911
6191.81249826
5702.0149496
5210.45042851
4715.82398752
4215.97764081
3707.83813265
3187.42351805
2648.50709507
2084.024591
1488.48346064
804.913470627
175.1326028
-5.45697807779
9618.9721452
9130.32645197
8641.76641391
8153.65826116
7666.0680979
7178.95312803
6692.20945863
6205.61390229
5718.34327719
5230.09703774
4739.66655305
4244.59127653
3741.13805936
3224.70458311
2688.82805502
2118.31363666
1490.66302312
709.731616185
60.3401288976
-3.58536464916
9625.20293638
9136.77489998
8648.54774118
8160.96838746
7674.16020155
7188.1550504
6702.94681666
6218.53932029
5733.61270598
5248.96803612
4763.58042216
4274.68310936
3777.61241088
3268.35364229
2742.36579806
2181.76624985
1551.57934156
744.386597896
77.613925212
-7.18976101768
9630.66978598
9142.41063052
8654.44950094
8167.29188899
7681.1053436
7195.99350724
6712.05054515
6229.54834239
5745.82052662
5264.5894923
4784.37866545
4302.1776298
3811.04987488
3309.74602459
2800.30194423
2263.88153709
1661.59596566
988.193656807
-60.6702414497
-109.404978641
9635.23082275
9147.08374196
8659.3090191
8172.429768
7686.62385285
7202.05995934
6719.3533715
6239.07010318
5753.68129259
5275.20491771
4799.03425371
4321.5287625
3828.20442179
3339.75205316
2850.26311934
2334.00274388
1752.53053156
1090.30952257
69.9521142572
-308.580819629
9638.78329434
9150.69956595
8663.03873593
8176.24844729
7690.31582002
7204.90423213
6718.85227883
6232.10031264
5749.09992881
5279.53171971
4806.0796033
4332.89511898
3794.68319822
3363.31254463
2886.65168275
2359.38690653
1748.32263576
1067.55898251
-28.486703403
-1416.02816227
9641.25719228
9153.24662383
8665.81768313
8179.53398713
7694.79802316
7212.42952776
6731.81791788
6254.49225604
9642.50025431
9154.48874482
8667.04619855
8180.57678017
7695.02242961
7209.58913217
6724.65921023
6239.43151334
9642.50043401
9154.48893241
8667.0463999
8180.57699937
7695.02267407
7209.58942696
6724.6595182
6239.4318344
9641.25772832
9153.2471779
8665.81827053
8179.53461962
7694.79871404
7212.43029372
6731.81876965
6254.49320965
)
;
    }
    atmosphere
    {
        type            calculated;
        value           nonuniform List<scalar> 7(-10.1357919652 -10.2317536874 -10.4488092346 -10.4377000131 -10.6153745097 -9.85409122136 -3430.06804407);
    }
    floatingObject
    {
        type            calculated;
        value           nonuniform List<scalar> 8(5749.09992881 5279.53171971 4806.0796033 4332.89511898 6009.68370549 5994.62296268 5994.62328333 6009.68465877);
    }
    procBoundary3to4
    {
        type            processor;
        value           nonuniform List<scalar> 
13
(
6164.87352905
5671.06156641
5174.86799036
9604.94369435
9115.7894103
8626.47932725
8137.20515567
7158.487756
6668.64771977
6668.64771977
7657.19507983
7657.19507983
7657.19507983
)
;
    }
    procBoundary3to5
    {
        type            processor;
        value           nonuniform List<scalar> 10(4675.26780327 4170.86862048 3659.97224145 3140.53960312 2610.23026238 2067.24451145 1511.82157217 940.518570723 350.553564016 10.1025718937);
    }
    procBoundary3to6
    {
        type            processor;
        value           nonuniform List<scalar> 8(3697.99027664 3395.1845271 2912.23874369 2337.86774893 1632.99428331 680.248670602 -1070.26006067 -3637.47160628);
    }
    procBoundary3to8
    {
        type            processor;
        value           nonuniform List<scalar> 8(9638.78416787 9150.70046015 8663.03967282 8176.24944538 7690.31689766 7204.90540554 6718.85366803 6232.10200293);
    }
}


// ************************************************************************* //
