/*--------------------------------*- C++ -*----------------------------------*\
| =========                 |                                                 |
| \\      /  F ield         | OpenFOAM: The Open Source CFD Toolbox           |
|  \\    /   O peration     | Version:  v2012                                 |
|   \\  /    A nd           | Website:  www.openfoam.com                      |
|    \\/     M anipulation  |                                                 |
\*---------------------------------------------------------------------------*/
FoamFile
{
    version     2.0;
    format      ascii;
    class       volScalarField;
    location    "2.2";
    object      ddt0(epsilon);
}
// * * * * * * * * * * * * * * * * * * * * * * * * * * * * * * * * * * * * * //

dimensions      [0 2 -4 0 0 0 0];


internalField   nonuniform List<scalar> 
164
(
-0.00456701902017
-0.00471220031914
-0.00506163647432
-0.00515371713744
-0.00517591871188
-0.0051841119314
-0.00519104490446
-0.00519867683086
-0.00456885977158
-0.004710384152
-0.00506477552607
-0.00515998002688
-0.00518377777149
-0.00519260929432
-0.00519981327967
-0.00520764236659
-0.0045669154671
-0.00470845939311
-0.00506802952339
-0.00516659421566
-0.00519176076187
-0.00520114139788
-0.00520867606286
-0.00521684316843
-0.00522578601515
-0.00523534304413
-0.00456145617427
-0.00470719761805
-0.00507117177672
-0.00517284552649
-0.00519945181387
-0.00520948400825
-0.00521745963331
-0.00522606109468
-0.00523550102274
-0.00524558609939
-0.00455490215547
-0.00470457586021
-0.00507311637026
-0.005178272093
-0.00520661720349
-0.0052174911811
-0.00522605425936
-0.00523524534281
-0.0052453453705
-0.00525612987616
-0.00454810085179
-0.00470028919059
-0.00507364871768
-0.00518266322407
-0.00521303649446
-0.00522493566459
-0.00523422552299
-0.00524413787868
-0.00525504602358
-0.00526671101244
-0.0045400494718
-0.00469431985985
-0.00507250239343
-0.00518574912013
-0.00521844867607
-0.00523156838303
-0.00524171501891
-0.00525247189536
-0.00526434251079
-0.00527707464915
-0.00453090653735
-0.00468628445258
-0.0050693922378
-0.00518723107748
-0.00522256252634
-0.00523709832336
-0.00524824466548
-0.00525999140287
-0.00527300190835
-0.00528692291778
-0.00452014538039
-0.00467598257286
-0.00506396433785
-0.00518673932613
-0.00522503134212
-0.00524120842895
-0.00525352634655
-0.00526644885395
-0.00528071900194
-0.00529602576998
-0.00450759963482
-0.00466300914633
-0.00505587331482
-0.00518390493966
-0.00522548022048
-0.00524353727861
-0.00525720107234
-0.00527142168839
-0.0052871833903
-0.00530419787539
-0.00449308881275
-0.00464717616662
-0.00504474148729
-0.00517830766191
-0.00522353664103
-0.00524372358118
-0.0052588930578
-0.00527459044238
-0.00529208374328
-0.00531119986326
-0.00447568442455
-0.00462815607515
-0.00503022609236
-0.00516956408379
-0.00521871801682
-0.00524128223541
-0.00525814776518
-0.00527546322914
-0.00529478826974
-0.00531630591582
-0.00445583332467
-0.00460560847698
-0.00501192644279
-0.00515716836523
-0.00521056779263
-0.00523577249224
-0.00525453587367
-0.0052735474327
-0.00529472104723
-0.00531842734474
-0.00443263663624
-0.00457946942187
-0.00498954325803
-0.00514076258271
-0.00519863053713
-0.00522675919136
-0.00524758000136
-0.00526845057262
-0.0052916643364
-0.00531759882455
-0.00440627862858
-0.00454966119466
-0.00496297966498
-0.00511995106948
-0.00518247060131
-0.00521370139426
-0.00523677727476
-0.00525974464894
-0.00528522142906
-0.00531380348187
-0.00437641755014
-0.00451620705496
-0.00493205823407
-0.00509455900391
-0.00516169219962
-0.00519615044491
-0.00522170247715
-0.00524696236699
-0.00527505965459
-0.00530710694916
-0.00434334843158
-0.004479470076
-0.00489711642266
-0.00506454896971
-0.00513608735915
-0.0051738431231
-0.00520192156752
-0.00510579095575
)
;

boundaryField
{
    back
    {
        type            calculated;
        value           nonuniform List<scalar> 
164
(
-0.00456701902017
-0.00471220031914
-0.00506163647432
-0.00515371713744
-0.00517591871188
-0.0051841119314
-0.00519104490446
-0.00519867683086
-0.00456885977158
-0.00471038415201
-0.00506477552607
-0.00515998002688
-0.00518377777149
-0.00519260929432
-0.00519981327967
-0.00520764236659
-0.0045669154671
-0.00470845939311
-0.00506802952339
-0.00516659421566
-0.00519176076187
-0.00520114139788
-0.00520867606286
-0.00521684316843
-0.00522578601515
-0.00523534304413
-0.00456145617427
-0.00470719761805
-0.00507117177672
-0.00517284552649
-0.00519945181387
-0.00520948400825
-0.00521745963331
-0.00522606109468
-0.00523550102274
-0.00524558609939
-0.00455490215547
-0.00470457586021
-0.00507311637026
-0.005178272093
-0.00520661720349
-0.0052174911811
-0.00522605425936
-0.00523524534281
-0.0052453453705
-0.00525612987616
-0.00454810085179
-0.00470028919059
-0.00507364871768
-0.00518266322407
-0.00521303649446
-0.00522493566459
-0.00523422552299
-0.00524413787868
-0.00525504602358
-0.00526671101244
-0.0045400494718
-0.00469431985985
-0.00507250239343
-0.00518574912013
-0.00521844867607
-0.00523156838303
-0.00524171501891
-0.00525247189536
-0.00526434251079
-0.00527707464915
-0.00453090653735
-0.00468628445258
-0.0050693922378
-0.00518723107748
-0.00522256252634
-0.00523709832336
-0.00524824466548
-0.00525999140287
-0.00527300190835
-0.00528692291778
-0.00452014538039
-0.00467598257286
-0.00506396433785
-0.00518673932613
-0.00522503134212
-0.00524120842895
-0.00525352634655
-0.00526644885395
-0.00528071900194
-0.00529602576998
-0.00450759963482
-0.00466300914633
-0.00505587331482
-0.00518390493966
-0.00522548022048
-0.00524353727861
-0.00525720107234
-0.00527142168839
-0.0052871833903
-0.00530419787539
-0.00449308881275
-0.00464717616662
-0.00504474148729
-0.00517830766191
-0.00522353664103
-0.00524372358118
-0.0052588930578
-0.00527459044238
-0.00529208374328
-0.00531119986326
-0.00447568442455
-0.00462815607515
-0.00503022609236
-0.00516956408379
-0.00521871801682
-0.00524128223541
-0.00525814776518
-0.00527546322914
-0.00529478826974
-0.00531630591582
-0.00445583332467
-0.00460560847698
-0.00501192644279
-0.00515716836523
-0.00521056779263
-0.00523577249224
-0.00525453587367
-0.0052735474327
-0.00529472104723
-0.00531842734474
-0.00443263663624
-0.00457946942187
-0.00498954325803
-0.00514076258271
-0.00519863053713
-0.00522675919136
-0.00524758000136
-0.00526845057262
-0.0052916643364
-0.00531759882455
-0.00440627862858
-0.00454966119466
-0.00496297966498
-0.00511995106948
-0.00518247060131
-0.00521370139426
-0.00523677727476
-0.00525974464894
-0.00528522142906
-0.00531380348187
-0.00437641755014
-0.00451620705496
-0.00493205823407
-0.00509455900391
-0.00516169219962
-0.00519615044491
-0.00522170247715
-0.00524696236699
-0.00527505965459
-0.00530710694916
-0.00434334843158
-0.004479470076
-0.00489711642266
-0.00506454896971
-0.00513608735915
-0.0051738431231
-0.00520192156752
-0.00510579095575
)
;
    }
    sides
    {
        type            calculated;
        value           nonuniform List<scalar> 0();
    }
    bottom
    {
        type            calculated;
        value           nonuniform List<scalar> 
17
(
-0.00456701902017
-0.00456885977158
-0.0045669154671
-0.00456145617427
-0.00455490215547
-0.00454810085179
-0.0045400494718
-0.00453090653735
-0.00452014538039
-0.00450759963482
-0.00449308881275
-0.00447568442455
-0.00445583332467
-0.00443263663624
-0.00440627862858
-0.00437641755014
-0.00434334843158
)
;
    }
    front
    {
        type            calculated;
        value           nonuniform List<scalar> 
164
(
-0.00456701902017
-0.00471220031914
-0.00506163647432
-0.00515371713744
-0.00517591871188
-0.0051841119314
-0.00519104490446
-0.00519867683086
-0.00456885977158
-0.00471038415201
-0.00506477552607
-0.00515998002688
-0.00518377777149
-0.00519260929432
-0.00519981327967
-0.00520764236659
-0.0045669154671
-0.00470845939311
-0.00506802952339
-0.00516659421566
-0.00519176076187
-0.00520114139788
-0.00520867606286
-0.00521684316843
-0.00522578601515
-0.00523534304413
-0.00456145617427
-0.00470719761805
-0.00507117177672
-0.00517284552649
-0.00519945181387
-0.00520948400825
-0.00521745963331
-0.00522606109468
-0.00523550102274
-0.00524558609939
-0.00455490215547
-0.00470457586021
-0.00507311637026
-0.005178272093
-0.00520661720349
-0.0052174911811
-0.00522605425936
-0.00523524534281
-0.0052453453705
-0.00525612987616
-0.00454810085179
-0.00470028919059
-0.00507364871768
-0.00518266322407
-0.00521303649446
-0.00522493566459
-0.00523422552299
-0.00524413787868
-0.00525504602358
-0.00526671101244
-0.0045400494718
-0.00469431985985
-0.00507250239343
-0.00518574912013
-0.00521844867607
-0.00523156838303
-0.00524171501891
-0.00525247189536
-0.00526434251079
-0.00527707464915
-0.00453090653735
-0.00468628445258
-0.0050693922378
-0.00518723107748
-0.00522256252634
-0.00523709832336
-0.00524824466548
-0.00525999140287
-0.00527300190835
-0.00528692291778
-0.00452014538039
-0.00467598257286
-0.00506396433785
-0.00518673932613
-0.00522503134212
-0.00524120842895
-0.00525352634655
-0.00526644885395
-0.00528071900194
-0.00529602576998
-0.00450759963482
-0.00466300914633
-0.00505587331482
-0.00518390493966
-0.00522548022048
-0.00524353727861
-0.00525720107234
-0.00527142168839
-0.0052871833903
-0.00530419787539
-0.00449308881275
-0.00464717616662
-0.00504474148729
-0.00517830766191
-0.00522353664103
-0.00524372358118
-0.0052588930578
-0.00527459044238
-0.00529208374328
-0.00531119986326
-0.00447568442455
-0.00462815607515
-0.00503022609236
-0.00516956408379
-0.00521871801682
-0.00524128223541
-0.00525814776518
-0.00527546322914
-0.00529478826974
-0.00531630591582
-0.00445583332467
-0.00460560847698
-0.00501192644279
-0.00515716836523
-0.00521056779263
-0.00523577249224
-0.00525453587367
-0.0052735474327
-0.00529472104723
-0.00531842734474
-0.00443263663624
-0.00457946942187
-0.00498954325803
-0.00514076258271
-0.00519863053713
-0.00522675919136
-0.00524758000136
-0.00526845057262
-0.0052916643364
-0.00531759882455
-0.00440627862858
-0.00454966119466
-0.00496297966498
-0.00511995106948
-0.00518247060131
-0.00521370139426
-0.00523677727476
-0.00525974464894
-0.00528522142906
-0.00531380348187
-0.00437641755014
-0.00451620705496
-0.00493205823407
-0.00509455900391
-0.00516169219962
-0.00519615044491
-0.00522170247715
-0.00524696236699
-0.00527505965459
-0.00530710694916
-0.00434334843158
-0.004479470076
-0.00489711642266
-0.00506454896971
-0.00513608735915
-0.0051738431231
-0.00520192156752
-0.00510579095575
)
;
    }
    atmosphere
    {
        type            calculated;
        value           nonuniform List<scalar> 0();
    }
    floatingObject
    {
        type            calculated;
        value           nonuniform List<scalar> 0();
    }
    procBoundary4to0
    {
        type            processor;
        value           nonuniform List<scalar> 8(-0.00456461508639 -0.00471234290158 -0.00505777890646 -0.00514704697063 -0.00516791134702 -0.00517563845169 -0.00518246160181 -0.00519012099759);
    }
    procBoundary4to3
    {
        type            processor;
        value           nonuniform List<scalar> 
13
(
-0.00522952437105
-0.00526030029543
-0.00529563816184
-0.00430738699731
-0.00444012198783
-0.00485873660575
-0.00503026298207
-0.00514659516981
-0.00522952437105
-0.00517724398799
-0.00503026298207
-0.00514659516981
-0.00507127914008
)
;
    }
    procBoundary4to5
    {
        type            processor;
        value           nonuniform List<scalar> 
18
(
-0.00520712846907
-0.00521624911087
-0.00521624911087
-0.00522544566547
-0.00524609373856
-0.0052564082365
-0.00526732981781
-0.00527853507594
-0.00528961575778
-0.00530032296535
-0.00531050004618
-0.00531954075753
-0.00532868920197
-0.00533782079309
-0.00534302667283
-0.00534445871274
-0.00534296628509
-0.00534268542743
)
;
    }
}


// ************************************************************************* //
