/*--------------------------------*- C++ -*----------------------------------*\
| =========                 |                                                 |
| \\      /  F ield         | OpenFOAM: The Open Source CFD Toolbox           |
|  \\    /   O peration     | Version:  v2012                                 |
|   \\  /    A nd           | Website:  www.openfoam.com                      |
|    \\/     M anipulation  |                                                 |
\*---------------------------------------------------------------------------*/
FoamFile
{
    version     2.0;
    format      ascii;
    class       volScalarField;
    location    "2.2";
    object      p_rgh;
}
// * * * * * * * * * * * * * * * * * * * * * * * * * * * * * * * * * * * * * //

dimensions      [1 -1 -2 0 0 0 0];


internalField   nonuniform List<scalar> 
164
(
8618.5303921
8618.27000965
8617.7568067
8616.97626593
8615.93419257
8614.62902324
8613.06151182
8611.23582456
8617.72168251
8617.44829435
8616.93317237
8616.14647042
8615.09695008
8613.78233496
8612.20366245
8610.36601429
8617.18037142
8616.87703952
8616.37453842
8615.57966695
8614.52028667
8613.19264798
8611.59660765
8609.73487877
8607.61349544
8605.24261866
8616.88683211
8616.59056369
8616.07164859
8615.27541074
8614.20758182
8612.86559141
8611.24716642
8609.35156891
8607.18024815
8604.73788672
8616.85977887
8616.56573991
8616.03856584
8615.23955834
8614.16452119
8612.80852616
8611.16608746
8609.23231058
8607.00318599
8604.47596188
8617.09971089
8616.80628624
8616.27511352
8615.47603993
8614.39722197
8613.03072019
8611.36715691
8609.39655984
8607.10913679
8604.49528081
8617.60280004
8617.3104463
8616.78170314
8615.9875975
8614.91160808
8613.54210622
8611.86473764
8609.86415161
8607.52450214
8604.83131057
8618.36448024
8618.07568099
8617.55546927
8616.77490135
8615.71248923
8614.3522546
8612.6741939
8610.65625165
8608.27529492
8605.51194482
8619.37707608
8619.09519407
8618.59181196
8617.83628928
8616.80230251
8615.4689287
8613.81061831
8611.7961953
8609.39250243
8606.56869151
8620.62792566
8620.35819987
8619.88151903
8619.16593471
8618.1804495
8616.89939874
8615.28943886
8613.30878948
8610.91126777
8608.04916513
8622.09937129
8621.84810613
8621.41053136
8620.75356066
8619.84229743
8618.64620566
8617.12357167
8615.22036979
8612.87428126
8610.01239838
8623.76927969
8623.54250326
8623.15845731
8622.58217053
8621.77595183
8620.70516188
8619.32027544
8617.55712885
8615.33408429
8612.54932225
8625.60671359
8625.41238585
8625.09704678
8624.62565884
8623.9593696
8623.06077096
8621.87696687
8620.33594302
8618.34065519
8615.76271014
8627.57269622
8627.41862829
8627.1878386
8626.84667868
8626.35675279
8625.68244866
8624.77172296
8623.54997893
8621.91358068
8619.71950688
8629.6212887
8629.51453837
8629.38295076
8629.19559432
8628.91775441
8628.51928616
8627.95491176
8627.1562175
8626.02548513
8624.421335
8631.70179873
8631.64725771
8631.62579808
8631.61032013
8631.57529453
8631.49716509
8631.34541952
8631.06912835
8630.58755574
8629.77866152
8633.75646979
8633.75683063
8633.85093393
8634.02057386
8634.24370989
8634.52039575
8634.83338599
8636.83309417
)
;

boundaryField
{
    back
    {
        type            fixedFluxPressure;
        gradient        uniform 0;
        value           nonuniform List<scalar> 
164
(
8618.5303921
8618.27000965
8617.7568067
8616.97626593
8615.93419257
8614.62902324
8613.06151182
8611.23582456
8617.72168251
8617.44829435
8616.93317237
8616.14647042
8615.09695008
8613.78233496
8612.20366245
8610.36601429
8617.18037142
8616.87703952
8616.37453842
8615.57966695
8614.52028667
8613.19264798
8611.59660765
8609.73487877
8607.61349544
8605.24261866
8616.88683211
8616.59056369
8616.07164859
8615.27541074
8614.20758182
8612.86559141
8611.24716642
8609.35156891
8607.18024815
8604.73788672
8616.85977887
8616.56573991
8616.03856584
8615.23955834
8614.16452119
8612.80852616
8611.16608746
8609.23231058
8607.00318599
8604.47596188
8617.09971089
8616.80628624
8616.27511352
8615.47603993
8614.39722197
8613.03072019
8611.36715691
8609.39655984
8607.10913679
8604.49528081
8617.60280004
8617.3104463
8616.78170314
8615.9875975
8614.91160808
8613.54210622
8611.86473764
8609.86415161
8607.52450214
8604.83131057
8618.36448024
8618.07568099
8617.55546927
8616.77490135
8615.71248923
8614.3522546
8612.6741939
8610.65625165
8608.27529492
8605.51194482
8619.37707608
8619.09519407
8618.59181196
8617.83628928
8616.80230251
8615.4689287
8613.81061831
8611.7961953
8609.39250243
8606.56869151
8620.62792566
8620.35819987
8619.88151903
8619.16593471
8618.1804495
8616.89939874
8615.28943886
8613.30878948
8610.91126777
8608.04916513
8622.09937129
8621.84810613
8621.41053136
8620.75356066
8619.84229743
8618.64620566
8617.12357167
8615.22036979
8612.87428126
8610.01239838
8623.76927969
8623.54250326
8623.15845731
8622.58217053
8621.77595183
8620.70516188
8619.32027544
8617.55712885
8615.33408429
8612.54932225
8625.60671359
8625.41238585
8625.09704678
8624.62565884
8623.9593696
8623.06077096
8621.87696687
8620.33594302
8618.34065519
8615.76271014
8627.57269622
8627.41862829
8627.1878386
8626.84667868
8626.35675279
8625.68244866
8624.77172296
8623.54997893
8621.91358068
8619.71950688
8629.6212887
8629.51453837
8629.38295076
8629.19559432
8628.91775441
8628.51928616
8627.95491176
8627.1562175
8626.02548513
8624.421335
8631.70179873
8631.64725771
8631.62579808
8631.61032013
8631.57529453
8631.49716509
8631.34541952
8631.06912835
8630.58755574
8629.77866152
8633.75646979
8633.75683063
8633.85093393
8634.02057386
8634.24370989
8634.52039575
8634.83338599
8636.83309417
)
;
    }
    sides
    {
        type            fixedFluxPressure;
        gradient        nonuniform List<scalar> 0();
        value           nonuniform List<scalar> 0();
    }
    bottom
    {
        type            fixedFluxPressure;
        gradient        uniform 0;
        value           nonuniform List<scalar> 
17
(
8618.5303921
8617.72168251
8617.18037142
8616.88683211
8616.85977887
8617.09971089
8617.60280004
8618.36448024
8619.37707608
8620.62792566
8622.09937129
8623.76927969
8625.60671359
8627.57269622
8629.6212887
8631.70179873
8633.75646979
)
;
    }
    front
    {
        type            fixedFluxPressure;
        gradient        uniform 0;
        value           nonuniform List<scalar> 
164
(
8618.5303921
8618.27000965
8617.7568067
8616.97626593
8615.93419257
8614.62902324
8613.06151182
8611.23582456
8617.72168251
8617.44829435
8616.93317237
8616.14647042
8615.09695008
8613.78233496
8612.20366245
8610.36601429
8617.18037142
8616.87703952
8616.37453842
8615.57966695
8614.52028667
8613.19264798
8611.59660765
8609.73487877
8607.61349544
8605.24261866
8616.88683211
8616.59056369
8616.07164859
8615.27541074
8614.20758182
8612.86559141
8611.24716642
8609.35156891
8607.18024815
8604.73788672
8616.85977887
8616.56573991
8616.03856584
8615.23955834
8614.16452119
8612.80852616
8611.16608746
8609.23231058
8607.00318599
8604.47596188
8617.09971089
8616.80628624
8616.27511352
8615.47603993
8614.39722197
8613.03072019
8611.36715691
8609.39655984
8607.10913679
8604.49528081
8617.60280004
8617.3104463
8616.78170314
8615.9875975
8614.91160808
8613.54210622
8611.86473764
8609.86415161
8607.52450214
8604.83131057
8618.36448024
8618.07568099
8617.55546927
8616.77490135
8615.71248923
8614.3522546
8612.6741939
8610.65625165
8608.27529492
8605.51194482
8619.37707608
8619.09519407
8618.59181196
8617.83628928
8616.80230251
8615.4689287
8613.81061831
8611.7961953
8609.39250243
8606.56869151
8620.62792566
8620.35819987
8619.88151903
8619.16593471
8618.1804495
8616.89939874
8615.28943886
8613.30878948
8610.91126777
8608.04916513
8622.09937129
8621.84810613
8621.41053136
8620.75356066
8619.84229743
8618.64620566
8617.12357167
8615.22036979
8612.87428126
8610.01239838
8623.76927969
8623.54250326
8623.15845731
8622.58217053
8621.77595183
8620.70516188
8619.32027544
8617.55712885
8615.33408429
8612.54932225
8625.60671359
8625.41238585
8625.09704678
8624.62565884
8623.9593696
8623.06077096
8621.87696687
8620.33594302
8618.34065519
8615.76271014
8627.57269622
8627.41862829
8627.1878386
8626.84667868
8626.35675279
8625.68244866
8624.77172296
8623.54997893
8621.91358068
8619.71950688
8629.6212887
8629.51453837
8629.38295076
8629.19559432
8628.91775441
8628.51928616
8627.95491176
8627.1562175
8626.02548513
8624.421335
8631.70179873
8631.64725771
8631.62579808
8631.61032013
8631.57529453
8631.49716509
8631.34541952
8631.06912835
8630.58755574
8629.77866152
8633.75646979
8633.75683063
8633.85093393
8634.02057386
8634.24370989
8634.52039575
8634.83338599
8636.83309417
)
;
    }
    atmosphere
    {
        type            totalPressure;
        rho             rho;
        psi             none;
        gamma           1;
        p0              nonuniform List<scalar> 0();
        value           nonuniform List<scalar> 0();
    }
    floatingObject
    {
        type            fixedFluxPressure;
        gradient        nonuniform List<scalar> 0();
        value           nonuniform List<scalar> 0();
    }
    procBoundary4to0
    {
        type            processor;
        value           nonuniform List<scalar> 8(8619.60145066 8619.34871574 8618.83941878 8618.06443972 8617.02846968 8615.7291544 8614.16574573 8612.33995615);
    }
    procBoundary4to3
    {
        type            processor;
        value           nonuniform List<scalar> 
13
(
8635.15964783
8635.44963754
8635.62465645
8635.72427611
8635.77949784
8635.98993012
8636.34088606
8637.47099343
8635.15964783
8638.27328124
8636.34088606
8637.47099343
8639.2329021
)
;
    }
    procBoundary4to5
    {
        type            processor;
        value           nonuniform List<scalar> 
18
(
8609.162388
8608.27918148
8608.27918148
8605.95605831
8602.6433777
8602.03294733
8601.64819571
8601.5451938
8601.7711789
8602.3492552
8603.29995463
8604.67855705
8606.55480395
8609.07603718
8612.42727091
8616.76002879
8622.12910499
8628.46273023
)
;
    }
}


// ************************************************************************* //
