/*--------------------------------*- C++ -*----------------------------------*\
| =========                 |                                                 |
| \\      /  F ield         | OpenFOAM: The Open Source CFD Toolbox           |
|  \\    /   O peration     | Version:  v2012                                 |
|   \\  /    A nd           | Website:  www.openfoam.com                      |
|    \\/     M anipulation  |                                                 |
\*---------------------------------------------------------------------------*/
FoamFile
{
    version     2.0;
    format      ascii;
    class       surfaceVectorField;
    location    "1.6";
    object      ddtCorrDdt0(Uf);
}
// * * * * * * * * * * * * * * * * * * * * * * * * * * * * * * * * * * * * * //

dimensions      [0 1 -2 0 0 0 0];


internalField   nonuniform List<vector> 
306
(
(-0.0164057148319 0.200379789385 -4.2471700646e-22)
(-0.0256997180653 0.187547039131 3.88827038699e-22)
(-0.0172159055092 0.227568795023 -3.73635161311e-22)
(-0.0271891631854 0.213998473017 -2.5133377833e-22)
(-0.018148911923 0.256485207024 9.49246173437e-24)
(-0.0289169800407 0.242041880928 1.60451940656e-22)
(-0.0192773639349 0.287418035595 -3.28069894072e-22)
(-0.0309337792809 0.271889338675 6.3729792583e-22)
(-0.0206566089328 0.320622995064 -3.90906191799e-22)
(-0.0332061700489 0.30355616099 -1.03529285656e-21)
(-0.0219552758505 0.355290149518 -7.81966401556e-22)
(-0.0346684815269 0.33599332632 -6.22360531333e-22)
(-0.0120884986534 0.389917585995 -3.10110346918e-21)
(-0.0346285632804 0.346466188539 -8.49127977288e-21)
(-0.0217523687719 0.401592398273 -1.12285640527e-21)
(-0.0116754135643 0.472811111471 -1.39685888192e-20)
(-0.158241295457 0.453439757454 2.29769530231e-20)
(-0.0518475040659 0.485871784386 -2.4541737724e-21)
(-0.413993498687 0.643746052273 4.95905056839e-21)
(-0.190311952881 0.590859954359 3.12161578543e-20)
(-0.254974224301 0.894424439662 -1.62747884373e-20)
(-0.250683994574 0.551554213899 -2.09901463426e-22)
(-0.000685335305061 0.671844849453 -3.21950753702e-20)
(-0.0400801710095 0.200542956416 5.62210266828e-22)
(-0.0514505629009 0.186015013744 4.27313584905e-22)
(-0.0424998183978 0.227745117144 2.82753323636e-22)
(-0.0543916556189 0.212239735463 6.51398545839e-22)
(-0.0452668477585 0.256559495183 7.88257404751e-22)
(-0.057732131776 0.240023692059 -2.96487868981e-22)
(-0.048452540064 0.287118102791 -6.99250366555e-23)
(-0.0614935843214 0.26956090555 1.20411226282e-21)
(-0.0521007077012 0.319605064947 -1.26674719609e-21)
(-0.065694629792 0.300806489161 -9.12693221329e-22)
(-0.056240713309 0.355012146508 -8.33167390266e-21)
(-0.0700771102709 0.332364411851 1.49227718171e-21)
(-0.0500878410251 0.39408766933 -1.93587651229e-20)
(-0.0737054010129 0.354408990744 -1.10453969866e-20)
(-0.0554054438812 0.455922622033 -1.52999061863e-20)
(-0.0735110555903 0.481227085527 -3.76525311809e-20)
(-0.121134433625 0.495858559916 5.78503105877e-21)
(-0.0917836521476 0.495258626022 5.62304519544e-21)
(-0.131911545433 0.46444552887 2.60472058225e-20)
(-0.15890458098 0.595138807055 -7.5857685018e-21)
(-0.0574564088019 0.411340548267 -1.61301883963e-20)
(-0.197583613329 0.474068171258 -3.12902554305e-20)
(-0.0300071817939 0.434113135561 -3.71565357133e-20)
(-0.0641916983686 0.197175451758 5.16501863916e-22)
(-0.0681126371986 0.223892204334 7.21573532225e-23)
(-0.0811093460028 0.208002793718 5.98206953042e-23)
(-0.0725587031896 0.252244617409 1.19366989089e-22)
(-0.0860856405416 0.235226828974 -5.67526329516e-23)
(-0.0775287743337 0.282453137451 3.61344078148e-22)
(-0.0917036285474 0.26422136796 1.79444492206e-22)
(-0.08292934536 0.314771170238 1.84633115647e-21)
(-0.0980144613548 0.295003361532 1.83358176094e-22)
(-0.0885485683003 0.349715101923 -1.22144590223e-21)
(-0.105022899022 0.3260395347 2.12202874915e-21)
(-0.0948089325434 0.388525934338 -2.93391630446e-20)
(-0.112517750153 0.346701183438 -2.2804202725e-21)
(-0.102934949079 0.437693990673 -1.67295797991e-20)
(-0.122679912885 0.463737208819 -2.4371902602e-20)
(-0.141615180397 0.478371968286 -7.74775436513e-21)
(-0.132461855605 0.474731395256 8.73172347171e-21)
(-0.171418796301 0.508033565987 -6.49232297548e-20)
(-0.188572522538 0.571459607012 -1.94463992247e-20)
(-0.082984825333 0.503181549759 -5.23166027475e-20)
(-0.192738151133 0.493660782511 -5.11532224932e-20)
(0.00614864971526 0.536980890663 -3.90817700171e-21)
(-0.0970365127993 0.218739424109 -6.90892908699e-23)
(-0.103171108437 0.246435611758 3.32487016563e-24)
(-0.113783567444 0.228954262905 1.20458236257e-22)
(-0.110079552472 0.275943958574 1.45859015215e-24)
(-0.1212139347 0.257163753402 -8.80579819882e-23)
(-0.117790444681 0.307480802929 4.59055768772e-22)
(-0.12955351481 0.287117149559 2.51508058782e-22)
(-0.126237883143 0.341272757196 1.06305437888e-21)
(-0.138817027706 0.317345869746 1.58844989266e-21)
(-0.137087795262 0.377547577729 2.68684017012e-21)
(-0.148794328742 0.335447968652 4.65743588926e-22)
(-0.14871344438 0.418432578927 1.08940066888e-21)
(-0.163565842372 0.446276700185 1.81034309525e-21)
(-0.206839495125 0.456167767236 -2.96692138785e-21)
(-0.170197309721 0.458131601352 2.32914602762e-21)
(-0.247031732024 0.540701399083 -5.67639196312e-21)
(-0.273112870833 0.55428772313 -2.84421339999e-21)
(-0.11691106137 0.588844646938 -2.74479674742e-21)
(-0.240886996516 0.490564900877 -8.82497505205e-21)
(-0.0141479711785 0.575048254281 1.33787176961e-21)
(-0.131383058335 0.238960843549 2.90753841028e-23)
(-0.140621812971 0.221099465593 1.07276083394e-23)
(-0.14018981223 0.267555234928 1.61991486642e-22)
(-0.149810786494 0.248320959709 2.20814947258e-23)
(-0.150021759778 0.298122184951 1.38090218267e-21)
(-0.160123086368 0.277245986626 2.5727631229e-22)
(-0.160750230895 0.330884264067 9.91139102706e-22)
(-0.171581631169 0.306516742992 1.40449688725e-21)
(-0.174325660009 0.365963910947 -4.10753485948e-22)
(-0.183875991814 0.321566941804 -1.36940837954e-21)
(-0.185345114962 0.40378873536 3.05008845399e-21)
(-0.20139173212 0.429295697558 -4.63215490949e-21)
(-0.243587352801 0.440259393544 2.45185401548e-21)
(-0.206668267039 0.446299773062 6.99819114551e-21)
(-0.277317948113 0.492528896908 -5.99279648891e-21)
(-0.325389480853 0.54206141177 2.52708999086e-21)
(-0.133877274587 0.540584985486 -4.74230653502e-21)
(-0.288949238272 0.443731603232 -1.0831040519e-20)
(-0.0185206462316 0.535011745751 1.548405328e-21)
(-0.158540971995 0.229790306199 3.73371896232e-24)
(-0.166401130429 0.211653245741 -5.00480955808e-24)
(-0.169188091816 0.257269015817 1.17366320373e-22)
(-0.177292445763 0.237680507477 -3.99373795762e-23)
(-0.181084480084 0.286675474988 2.80871016877e-22)
(-0.189532587306 0.265380547114 2.48864301064e-22)
(-0.194050736519 0.318243227213 -9.56050594995e-22)
(-0.203152248886 0.293507288451 5.52073246998e-22)
(-0.209998626897 0.352095411034 -5.59080980309e-21)
(-0.217730442643 0.305295334233 -2.59586070042e-21)
(-0.222110173664 0.387945987113 -6.84052217971e-22)
(-0.237243507721 0.410038997478 -3.07064913312e-20)
(-0.288216637562 0.42449536324 7.07342712089e-21)
(-0.243217975943 0.433075747172 -1.51756436919e-21)
(-0.332217437693 0.474196678565 -2.31115403918e-21)
(-0.375097118971 0.529137607108 1.21224336732e-20)
(-0.168037021206 0.519461078994 -4.54032865594e-21)
(-0.334220546843 0.41579161135 -4.04788061346e-21)
(-0.028010831863 0.508947283663 -5.72754932195e-22)
(-0.18452629548 0.218934279292 -4.86759080966e-23)
(-0.190913070646 0.200651728756 1.54060920294e-23)
(-0.196962630312 0.245083671377 9.15606011141e-23)
(-0.203445240741 0.225264249353 -7.95568396758e-23)
(-0.21088779811 0.273118024787 5.20066531184e-22)
(-0.217570360778 0.251509501507 1.81514454847e-22)
(-0.226096749157 0.30329948363 -1.08773685842e-21)
(-0.233336876932 0.278286798022 1.24163926039e-22)
(-0.244063907036 0.335860726262 -2.77115422286e-20)
(-0.250294167927 0.286939895832 1.90792699297e-21)
(-0.257886007573 0.36977586514 -3.15400034825e-20)
(-0.271159964192 0.387473132583 -3.7685640421e-20)
(-0.330432747978 0.406322445215 3.53144218317e-21)
(-0.279764928846 0.417031942429 1.11833560974e-21)
(-0.37772075547 0.45186855735 1.0385707099e-20)
(-0.420649589521 0.512484569628 -8.83820285583e-21)
(-0.194203155757 0.493366134156 -8.03068897233e-23)
(-0.375724327572 0.383625042122 -2.80079468006e-20)
(-0.036314268262 0.475334312567 -3.02034266494e-21)
(-0.209108265974 0.206443551144 -1.54748395498e-23)
(-0.213940683332 0.188165222451 -1.58434395544e-23)
(-0.223270728235 0.231025048111 1.03970140567e-23)
(-0.228030521288 0.211129453444 -3.02358635362e-23)
(-0.239186463455 0.257426578727 -2.14388150299e-22)
(-0.24397561948 0.23565173186 1.15682395042e-22)
(-0.256672361716 0.285941614054 3.11982777744e-21)
(-0.261855321878 0.260818544249 -1.55006563393e-22)
(-0.276381280022 0.316917229782 -8.06617119948e-21)
(-0.281272438561 0.266753312118 3.23752363241e-21)
(-0.292337250083 0.348668499103 -5.02730132882e-21)
(-0.302912651956 0.361021731311 -2.02212902544e-20)
(-0.369611410493 0.384224231976 -1.12513094292e-20)
(-0.315321062613 0.397247338131 3.86101703551e-21)
(-0.418527818318 0.423402487565 -4.72318567554e-20)
(-0.45983430237 0.491856054875 -1.8505165879e-20)
(-0.217741322416 0.459983654035 -3.09479825758e-20)
(-0.412310527879 0.345655078329 -3.08710956701e-20)
(-0.0436575750672 0.434947609335 1.20189286051e-21)
(-0.232047043966 0.19240002018 -3.06044635408e-23)
(-0.235262220065 0.174291376143 -3.99031428149e-23)
(-0.247843161717 0.215157690951 7.50495174493e-23)
(-0.250792252327 0.195367562516 1.83122804006e-24)
(-0.265681196531 0.239627484118 1.75063981948e-22)
(-0.2684493546 0.21787307249 3.56682312603e-23)
(-0.285447324711 0.266146680711 -3.73107084223e-23)
(-0.288378092668 0.241096355302 -1.14666539762e-22)
(-0.306577359956 0.295159406564 -8.91759542255e-21)
(-0.310287938761 0.245047009738 -5.84295892364e-22)
(-0.324896521111 0.324125591603 -1.13329718901e-20)
(-0.33188033106 0.330455039764 -7.72571057652e-21)
(-0.404760074526 0.358098819469 -3.39283941428e-21)
(-0.349294712789 0.373204220528 2.26632561205e-21)
(-0.453191214135 0.390345962411 -2.14440479373e-21)
(-0.492087133839 0.467710793316 -5.6967850534e-21)
(-0.238165549533 0.420846021186 1.27877976625e-21)
(-0.442815045979 0.302784288371 -1.70220300916e-20)
(-0.050459577939 0.388395612281 2.20215356177e-21)
(-0.253103804583 0.176916485507 -7.46745123401e-24)
(-0.254654789099 0.159168015503 -7.30740795259e-24)
(-0.270392141017 0.197582179765 -3.75500581489e-23)
(-0.271462142828 0.178108895209 1.17259964605e-23)
(-0.290029609823 0.219795159872 -2.54062290449e-22)
(-0.290666375577 0.198300333871 6.20889867401e-23)
(-0.312005737167 0.243897531798 -6.61651723704e-22)
(-0.312484103668 0.219182990352 -3.96649071949e-22)
(-0.334151928714 0.270416017122 6.07588953666e-22)
(-0.336809236621 0.222229417922 -6.41365521546e-22)
(-0.355011154656 0.296147748995 5.87358692564e-21)
(-0.357613589799 0.295835002901 5.13424940867e-21)
(-0.435492924649 0.327950980257 -3.76200270591e-23)
(-0.381098376935 0.34449432925 7.7453974957e-21)
(-0.481030556693 0.353330116533 -2.05744103513e-20)
(-0.51747135224 0.440014862796 6.20831052283e-21)
(-0.254940020944 0.37650522081 -1.60986562961e-20)
(-0.465993744663 0.255374868308 -1.91084819053e-20)
(-0.0563008538739 0.335815669553 -3.34430148522e-21)
(-0.272042204228 0.160149677531 1.18860397419e-23)
(-0.271912582502 0.14297018027 -3.56775836667e-23)
(-0.290628412362 0.178468990138 1.11365041349e-22)
(-0.289785637244 0.159554104896 8.76403849232e-23)
(-0.311850524771 0.198087534789 -8.04977947592e-23)
(-0.310288923378 0.177154903632 1.67177713231e-22)
(-0.335825877836 0.21931254675 -3.7636286979e-22)
(-0.333712693787 0.195300747839 -3.16054657647e-22)
(-0.358691492344 0.242626831844 3.88529493346e-21)
(-0.360126280767 0.198621994346 -2.37677230623e-21)
(-0.382105710459 0.265118635748 7.00605997872e-21)
(-0.380106905969 0.257507284353 1.44926652951e-21)
(-0.461294474204 0.293490107928 1.39913280456e-20)
(-0.409470278664 0.310821055613 3.16128601454e-21)
(-0.501635387814 0.31170485571 7.67423896876e-21)
(-0.535690625293 0.407797473274 7.83876941846e-21)
(-0.267291109023 0.32733637327 -6.35412709448e-21)
(-0.48162794 0.204416711122 -4.93622941418e-21)
(-0.0606888738258 0.279205989014 -1.54038295506e-21)
(-0.28864405794 0.14230473463 4.00767615146e-23)
(-0.286850967636 0.125903816588 -2.8316564483e-23)
(-0.308278335973 0.158062187491 1.43453056805e-22)
(-0.305547075026 0.139954571387 2.03144703193e-22)
(-0.330775107094 0.1748086931 -6.83791496568e-23)
(-0.32703921714 0.154748521191 1.14303082192e-22)
(-0.356338422031 0.192752715384 -2.31646409409e-21)
(-0.351660095976 0.169871348354 -7.25846163254e-22)
(-0.379862194251 0.212171899467 -4.81280071018e-21)
(-0.37954807302 0.174305062079 -1.23942040447e-21)
(-0.405299934217 0.231539197181 -2.39550743468e-21)
(-0.399475646273 0.216535983408 -1.96160044634e-21)
(-0.48158020741 0.254203244263 -2.99127261258e-21)
(-0.432134732221 0.272115962733 1.48829220937e-20)
(-0.51538351352 0.266641290831 -4.77169896448e-21)
(-0.548132524795 0.368248430246 -9.2629852277e-21)
(-0.275402935321 0.275383622326 -1.22485274762e-22)
(-0.490372111924 0.154439624245 -1.6298599639e-20)
(-0.0641724815789 0.221102053142 2.00078580471e-22)
(-0.302731503314 0.123620253748 1.34751377195e-22)
(-0.299318927145 0.108204688196 5.93291612762e-24)
(-0.323138839194 0.136644964624 1.7399472858e-22)
(-0.318575413956 0.119580863677 1.50800245881e-22)
(-0.346555796971 0.150351698676 -5.43163931405e-22)
(-0.340749404183 0.131434272397 2.21345386471e-23)
(-0.373165276654 0.164835450489 3.51197526362e-22)
(-0.366146915234 0.143446705697 -8.52831814463e-22)
(-0.397584410438 0.180052890819 1.61177985937e-21)
(-0.394767872132 0.149090405772 -2.54392578953e-21)
(-0.423607924224 0.196727834584 1.53168290821e-20)
(-0.416151900019 0.175164449548 -2.30069760263e-21)
(-0.495615241125 0.21117394603 8.6112094786e-21)
(-0.446581203723 0.228377142079 7.96245049372e-21)
(-0.524052429729 0.218351724251 -2.07898859022e-20)
(-0.555313446638 0.316695249768 -3.36272987857e-21)
(-0.279909931045 0.225438242098 -1.59760357838e-20)
(-0.497459732528 0.121536975389 -1.33314490933e-20)
(-0.062853379959 0.166607834178 -5.30549408933e-21)
(-0.314163495849 0.104354873709 2.19817848129e-23)
(-0.309193778292 0.0901228179476 1.04896321982e-23)
(-0.335079368143 0.114522031107 -1.0599440523e-24)
(-0.328745863732 0.0986994744006 8.75539697502e-23)
(-0.359133157349 0.125121359716 -2.87533344411e-22)
(-0.351351915986 0.107501429396 -8.89209865635e-23)
(-0.386393969572 0.136277576687 -3.74795513036e-21)
(-0.377306005366 0.116442252876 -3.78046342963e-22)
(-0.412166605529 0.1477760513 -6.45640325153e-21)
(-0.406268555191 0.122503621786 -3.94567477543e-21)
(-0.43746654038 0.162141738856 -9.65507619097e-21)
(-0.430518877996 0.13539444683 -6.19144658934e-21)
(-0.503881282599 0.171832853909 -4.01148886346e-21)
(-0.456272696288 0.179679396247 -2.38993491699e-21)
(-0.526110437695 0.173947128096 4.09570693036e-21)
(-0.557430259475 0.250763242809 4.16250430878e-21)
(-0.278272889242 0.169103480966 -2.66090739885e-21)
(-0.492616621057 0.125706859214 -3.51785921331e-21)
(-0.0609418553505 0.116084179052 -3.21761604772e-21)
(-0.322807140661 0.0847647712607 7.60618171355e-23)
(-0.316357659019 0.0719321229992 -2.1937314053e-23)
(-0.343984300285 0.0919216704686 -3.07072760988e-25)
(-0.335905828722 0.0775558912141 7.30645686474e-23)
(-0.368546696481 0.0992944401207 -1.79433985116e-22)
(-0.358727823367 0.0830771595707 -9.36596634943e-23)
(-0.396521558577 0.107279945308 -5.7576598804e-22)
(-0.385294220455 0.088751228544 -2.08846837921e-22)
(-0.424097901728 0.116182410177 -3.68071811325e-21)
(-0.415173249117 0.094257361907 -4.33609382213e-22)
(-0.450819185807 0.124369768347 1.07369468464e-21)
(-0.438707441128 0.0959370214798 -6.11337783254e-21)
(-0.509931876403 0.140912236674 5.78405825524e-21)
(-0.472815523859 0.125669985494 6.95365849251e-21)
(-0.512429917533 0.137515743045 -3.4510618349e-21)
(-0.554035514712 0.17677754818 5.63046463238e-21)
(-0.269063140718 0.104525210385 -4.07456786218e-21)
(-0.459626874448 0.122823570887 -2.8600733057e-21)
(-0.0637991784065 0.0584897176451 -8.10683054516e-21)
(-0.328492892408 0.065145098046 -2.4934562541e-23)
(-0.349595098311 0.0690398014085 -2.02880220859e-23)
(-0.374568783776 0.0727448922077 -1.23072516299e-22)
(-0.40429762672 0.0771644015308 -6.66902320934e-23)
(-0.438014049298 0.0852404147228 -2.86626910151e-21)
(-0.470014191863 0.0808378053132 -2.33414024673e-22)
(-0.517221776992 0.104766056292 6.80006486965e-21)
(-0.512804472213 0.102070710303 6.22145316158e-21)
(-0.274033311664 0.0246538187643 -6.89233598867e-21)
)
;

boundaryField
{
    back
    {
        type            calculated;
        value           uniform (0 0 0);
    }
    sides
    {
        type            calculated;
        value           uniform (0 0 0);
    }
    bottom
    {
        type            calculated;
        value           nonuniform List<vector> 0();
    }
    front
    {
        type            calculated;
        value           uniform (0 0 0);
    }
    atmosphere
    {
        type            calculated;
        value           nonuniform List<vector> 
16
(
(0 0.895106656808 0)
(0.0287347227244 0.440657538768 -4.62242437506e-20)
(-0.55803374034 0.467019758636 -8.3154555775e-20)
(0 0.609137515426 0)
(0 0.544953815378 0)
(0 0.52894751013 0)
(0 0.501666048868 0)
(0 0.467323758341 0)
(0 0.427645207236 0)
(0 0.382344094224 0)
(0 0.331722430727 0)
(0 0.278865695269 0)
(0 0.224117987968 0)
(0 0.167191078459 0)
(0 0.107381543952 0)
(-0.0724368878711 0.0676706264474 -1.7952971204e-20)
)
;
    }
    floatingObject
    {
        type            calculated;
        value           nonuniform List<vector> 0();
    }
    procBoundary1to0
    {
        type            processor;
        value           nonuniform List<vector> 10((-0.320692695651 0.0539821215389 -3.88206002116e-23) (-0.339803273155 0.0564857198052 2.23245143709e-23) (-0.362435542892 0.0582498924251 -1.54688398991e-23) (-0.389716252749 0.059382347033 -2.84339560754e-22) (-0.423251083057 0.0602598879862 6.38761474796e-22) (-0.434305936483 0.0532165146639 -7.23654019943e-21) (-0.49674408832 0.0689263577842 -1.52934021797e-20) (-0.551341923577 0.100130786155 7.810442162e-21) (-0.382210690032 0.0674639149993 -3.86407794446e-21) (-0.10681678739 0.0267483803605 1.07037291253e-20));
    }
    procBoundary1to2
    {
        type            processor;
        value           nonuniform List<vector> 
18
(
(-0.0156818506305 0.174679784019 -2.24037820656e-23)
(-0.0379607510369 0.174792159184 1.01493273134e-22)
(-0.0607725929601 0.171887508509 5.23910839954e-22)
(-0.0767382389259 0.182318403597 3.57547419014e-22)
(-0.0916271956221 0.192640999379 -9.91337495978e-23)
(-0.107208657085 0.202468783941 -1.83984438142e-22)
(-0.123563319718 0.212125410693 5.56308898481e-24)
(-0.149096230831 0.204014820289 1.75683156683e-23)
(-0.173517874996 0.194427004795 1.15378415146e-22)
(-0.196612293206 0.183421354178 4.74294715918e-23)
(-0.21816447602 0.171084462504 -3.90865747666e-23)
(-0.237971025038 0.157530230786 4.43293485126e-23)
(-0.255833088965 0.142898259601 1.94005538932e-23)
(-0.27156798843 0.127372458599 3.73946553921e-23)
(-0.285023770268 0.111157895924 5.66802288637e-23)
(-0.296073218117 0.0944848498275 4.7119015956e-23)
(-0.30460843638 0.0776053405057 5.4487946642e-23)
(-0.310535240509 0.0608133553124 -1.08148829078e-23)
)
;
    }
}


// ************************************************************************* //
