/*--------------------------------*- C++ -*----------------------------------*\
| =========                 |                                                 |
| \\      /  F ield         | OpenFOAM: The Open Source CFD Toolbox           |
|  \\    /   O peration     | Version:  v2012                                 |
|   \\  /    A nd           | Website:  www.openfoam.com                      |
|    \\/     M anipulation  |                                                 |
\*---------------------------------------------------------------------------*/
FoamFile
{
    version     2.0;
    format      ascii;
    class       surfaceScalarField;
    location    "1.6";
    object      phi;
}
// * * * * * * * * * * * * * * * * * * * * * * * * * * * * * * * * * * * * * //

dimensions      [0 3 -1 0 0 0 0];
oriented        oriented;


internalField   nonuniform List<scalar> 
306
(
1.34753941201e-06
-1.05378903752e-08
1.30512310796e-06
4.28161497303e-08
1.17601223831e-06
1.29529731559e-07
1.0721803182e-06
1.0424162186e-07
1.65818810973e-06
-5.85658998129e-07
4.33656167579e-06
-2.67812388552e-06
9.48513712702e-06
-5.14844073294e-06
-4.01591610272e-06
1.3501097201e-05
-2.7058320466e-05
2.30424085332e-05
-5.51395768204e-05
2.80792312094e-05
-0.000161011236232
0.000105865664503
0.000126826378953
-1.17179562186e-05
1.49078155263e-06
-1.33083328092e-05
1.63368132373e-06
-1.5089220795e-05
1.91087021397e-06
-1.73065384709e-05
2.32196865753e-06
-2.06128382083e-05
2.72097238135e-06
-2.62463166016e-05
2.95557540279e-06
-3.58284224862e-05
4.43377714018e-06
-3.67309011474e-05
1.44036067626e-05
-3.7847330315e-05
2.41588133023e-05
1.15418086529e-05
-2.13120599224e-05
0.000102221893018
1.51798846699e-05
4.49427222412e-05
-1.53403643592e-05
-1.72411658703e-05
3.53502772736e-06
-1.92828835642e-05
3.95306261175e-06
-2.15916267596e-05
4.63111177651e-06
-2.4475128038e-05
5.60477434359e-06
-2.84376499714e-05
6.91828695191e-06
-3.32588590377e-05
9.25506996611e-06
-3.37954331707e-05
1.49401988198e-05
-3.4724009566e-05
2.5087363247e-05
-2.69914847603e-05
-2.90467090278e-05
1.14862447428e-05
-2.3303152842e-05
-2.72929260623e-06
-1.78681402872e-05
-1.97500140276e-05
5.83543418854e-06
-2.17946060506e-05
6.67608223886e-06
-2.41359827142e-05
7.94641750289e-06
-2.69083798241e-05
9.69083483369e-06
-2.9861969206e-05
1.22087152762e-05
-3.08831117294e-05
1.59613456583e-05
-3.17845015441e-05
2.59887271856e-05
-3.59012695955e-06
-5.72430425598e-05
1.15268439321e-05
-3.84248986573e-05
2.14476300712e-06
-1.90925884733e-05
7.36686874109e-06
-2.06391141216e-05
8.22294596058e-06
-2.22533036041e-05
9.56082780048e-06
-2.39181478855e-05
1.13557900592e-05
-2.53187837548e-05
1.36093780129e-05
-2.51429813289e-05
1.57855341582e-05
-2.43794690045e-05
2.52251889939e-05
-5.93377967356e-06
-7.56905026932e-05
8.22858617187e-06
-5.25913960505e-05
6.36476082827e-06
-1.82073289084e-05
8.47019471494e-06
-1.91468017871e-05
9.162697104e-06
-1.99116752302e-05
1.03258706137e-05
-2.04139091474e-05
1.18580928818e-05
-2.03683454708e-05
1.3563812933e-05
-1.90769629192e-05
1.4494130081e-05
-1.7247910339e-05
2.33961110228e-05
-1.77365335513e-06
-9.11662929016e-05
9.61358840525e-06
-6.39820779643e-05
1.22749377018e-05
-1.74396266604e-05
9.13813498584e-06
-1.77655001694e-05
9.48878345259e-06
-1.76950428158e-05
1.02555294374e-05
-1.71133102583e-05
1.12763893187e-05
-1.57629653827e-05
1.22134417232e-05
-1.33817097104e-05
1.21128424948e-05
-1.04579515739e-05
2.04723286597e-05
1.64395165747e-06
-0.000103269478336
1.16655663181e-05
-7.40064585071e-05
1.75212715556e-05
-1.69964888621e-05
9.40694643633e-06
-1.67553647973e-05
9.24780690594e-06
-1.591846602e-05
9.41869719796e-06
-1.43596353851e-05
9.71755349231e-06
-1.18409294452e-05
9.69469012488e-06
-8.38517337322e-06
8.6570471418e-06
-4.08648074825e-06
1.61736139977e-05
4.63387077648e-06
-0.000111990873458
1.26473928365e-05
-8.20221589332e-05
2.24904174322e-05
-1.70559215894e-05
9.34618108418e-06
-1.63271380971e-05
8.51911542563e-06
-1.48144724153e-05
7.90605847957e-06
-1.23735223465e-05
7.27657389772e-06
-8.74760236279e-06
6.0687130442e-06
-4.25030960174e-06
4.15971226572e-06
1.4414833534e-06
1.04817975102e-05
7.08843555108e-06
-0.000117638521808
1.27837049587e-05
-8.7719284907e-05
2.79002180504e-05
-1.77797434631e-05
9.0569146159e-06
-1.66728607329e-05
7.41228366579e-06
-1.45945118429e-05
5.82771075023e-06
-1.13666106933e-05
4.04863133836e-06
-6.69028584924e-06
1.3923292006e-06
-1.08618536561e-06
-1.4444283419e-06
6.3084826801e-06
3.08710951173e-06
9.20999769949e-06
-0.000120540615134
1.25305465876e-05
-9.10413238198e-05
3.40839412149e-05
-1.93201738104e-05
8.67444390121e-06
-1.7986902087e-05
6.07904132179e-06
-1.55060166015e-05
3.34681755405e-06
-1.1650719099e-05
1.93294735816e-07
-6.04804290928e-06
-4.21039738963e-06
9.95353388892e-07
-8.48785758827e-06
1.09062945249e-05
-6.8238451049e-06
1.11742265988e-05
-0.000120809079969
1.17842524619e-05
-9.16525338493e-05
4.14337952918e-05
-2.18138433108e-05
8.37087451205e-06
-2.04506155272e-05
4.71583957482e-06
-1.77829810768e-05
6.79182545049e-07
-1.35153837274e-05
-4.07432598849e-06
-7.1710110565e-06
-1.05548021482e-05
1.52839360696e-06
-1.71872823546e-05
1.37521723496e-05
-1.9047632563e-05
1.20105841102e-05
-0.00011906793841
1.02825433747e-05
-8.99254490529e-05
5.36392429543e-05
-2.53710305762e-05
8.35382245606e-06
-2.42265596459e-05
3.57140769235e-06
-2.16620958408e-05
-1.88526018642e-06
-1.73054563613e-05
-8.4309612923e-06
-1.05567207481e-05
-1.7303543003e-05
-1.57202188312e-07
-2.75868033715e-05
1.42779261255e-05
-3.34827630503e-05
1.16547483392e-05
-0.000116445122321
7.06090999971e-06
-8.53323774313e-05
7.53981529392e-05
-3.00652344986e-05
8.86554073743e-06
-2.94464935142e-05
2.95274678121e-06
-2.73663938317e-05
-3.96528586474e-06
-2.33812110434e-05
-1.2416081815e-05
-1.68081763835e-05
-2.38765325075e-05
-5.27893410624e-06
-3.91160153085e-05
1.1284570329e-05
-5.00462576486e-05
9.56156294152e-06
-0.000114722404284
4.0368520069e-07
-7.61753152906e-05
0.000111442606138
-3.59032483706e-05
1.01678583711e-05
-3.61608669169e-05
3.21051227075e-06
-3.50474255085e-05
-5.07857344659e-06
-3.21286404361e-05
-1.53347353415e-05
-2.65660784478e-05
-2.94389913606e-05
-1.61172253133e-05
-4.95648099242e-05
2.07369705067e-06
-6.82371620752e-05
5.20746301591e-06
-0.000117856499949
-5.05147579004e-06
-6.59173699679e-05
0.000158704559321
-4.27998430433e-05
-4.4285970901e-05
-4.46527750926e-05
-4.35659234788e-05
-4.03091412331e-05
-3.38686331467e-05
-1.44372586345e-05
1.8486773482e-06
3.82254963071e-05
)
;

boundaryField
{
    back
    {
        type            calculated;
        value           uniform 0;
    }
    sides
    {
        type            calculated;
        value           uniform 0;
    }
    bottom
    {
        type            calculated;
        value           nonuniform List<scalar> 0();
    }
    front
    {
        type            calculated;
        value           uniform 0;
    }
    atmosphere
    {
        type            calculated;
        value           nonuniform List<scalar> 
16
(
-0.000287839936866
0.000184103218017
5.91561095742e-05
6.65087109117e-06
4.00693760447e-06
3.70203201287e-06
6.41810587158e-06
7.67732814515e-06
7.37314227007e-06
6.34617761852e-06
4.43386296901e-06
-1.9233334602e-06
-1.4698346332e-05
-3.56412607018e-05
-5.23139184963e-05
6.76378324787e-05
)
;
    }
    floatingObject
    {
        type            calculated;
        value           nonuniform List<scalar> 0();
    }
    procBoundary1to0
    {
        type            processor;
        value           nonuniform List<scalar> 10(1.2514717601e-05 4.69682645294e-06 -4.7115812769e-06 -1.64214133758e-05 -3.26956455954e-05 -5.60052400437e-05 -8.76685144963e-05 -0.00013414278665 -0.000102295110762 0.000129291699086);
    }
    procBoundary1to2
    {
        type            processor;
        value           nonuniform List<scalar> 
18
(
-1.33645041222e-06
1.02172531616e-05
1.35080071405e-05
3.32382113791e-06
1.60623156942e-05
5.34166567586e-06
1.75619161921e-05
1.71046320483e-05
1.67721875365e-05
1.67280427018e-05
1.71169388652e-05
1.80691648964e-05
1.97027430234e-05
2.21174824644e-05
2.53881583353e-05
2.95536196363e-05
3.46011064702e-05
4.04531714367e-05
)
;
    }
}


// ************************************************************************* //
