/*--------------------------------*- C++ -*----------------------------------*\
| =========                 |                                                 |
| \\      /  F ield         | OpenFOAM: The Open Source CFD Toolbox           |
|  \\    /   O peration     | Version:  v2012                                 |
|   \\  /    A nd           | Website:  www.openfoam.com                      |
|    \\/     M anipulation  |                                                 |
\*---------------------------------------------------------------------------*/
FoamFile
{
    version     2.0;
    format      ascii;
    class       surfaceVectorField;
    location    "1.6";
    object      Uf_0;
}
// * * * * * * * * * * * * * * * * * * * * * * * * * * * * * * * * * * * * * //

dimensions      [0 1 -1 0 0 0 0];


internalField   nonuniform List<vector> 
306
(
(0.000750253414211 -0.00222394638938 2.00740199261e-21)
(0.000319116642936 -0.00326369671292 1.42087874472e-21)
(0.000774980798093 -0.00257373767417 1.05186509428e-21)
(0.00034989168445 -0.0037397090111 6.3616703335e-23)
(0.000775023828353 -0.00296535166776 2.15582496153e-22)
(0.000391723506958 -0.00427358351162 -3.94882180275e-22)
(0.000632893122788 -0.00338206951635 3.4121363138e-22)
(0.000416828814447 -0.00489029111943 -3.92394463261e-22)
(0.000126241164559 -0.00368947788649 5.01802593797e-22)
(0.000307506749627 -0.00552403240052 -3.19777751318e-22)
(-0.000656871977168 -0.00361194869736 2.29828849453e-22)
(-7.74524744815e-05 -0.00611099571356 6.11863473309e-22)
(0.000338938459693 -0.0032333680026 -1.59711242889e-21)
(-0.000378533706418 -0.00662620904017 -6.26839100485e-22)
(0.00624738901346 -0.00578989433087 -6.49657848455e-21)
(0.00255654549699 -0.00370071560648 -5.75245652298e-21)
(0.0224045173151 -0.0110730006426 -1.99691314685e-20)
(0.005283109685 -0.0253471679715 -9.15058717672e-21)
(0.044848481086 -0.0190358990495 -2.92434458305e-20)
(0.00796248950538 -0.00935969385926 -2.63607578553e-20)
(0.0332725971405 -0.0433168625936 -1.48834741115e-20)
(0.0242798021858 -0.00526408741609 -2.59134380257e-20)
(0.025457142027 -0.0178474355407 3.57945005396e-21)
(0.000230097875047 -0.00483913544597 -5.22906544557e-22)
(0.000941569966656 -0.0048110926068 6.45584805276e-22)
(0.000292214552797 -0.00549786521765 -1.38313057122e-21)
(0.00100874250615 -0.00546635544535 -1.36146366969e-21)
(0.000372550457431 -0.00621484104012 -1.00285913969e-21)
(0.00110881858548 -0.00617702914864 -4.27915993106e-22)
(0.000430488326725 -0.00704020305284 -1.05338584596e-21)
(0.00124230616225 -0.00698749865412 -5.83908439371e-22)
(0.00039225903461 -0.00811321860125 -2.09716871806e-22)
(0.00138062382467 -0.00788397619762 -2.80918865174e-22)
(0.000383063345037 -0.0096876832376 -2.4480447663e-22)
(0.00149708776391 -0.00887221739448 1.11154522927e-21)
(0.00155649566455 -0.0119340715197 -4.78218319457e-21)
(0.00186790187119 -0.00982805363416 -1.62429144932e-21)
(0.0023638971804 -0.0131043734868 -8.40646521515e-21)
(0.00372686631988 -0.00873012891597 -1.18863613763e-20)
(-0.00390464127608 -0.0138045346599 -1.55422135635e-20)
(0.00598326922183 -0.0277494898817 -7.69706929328e-21)
(-0.00515909826489 -0.00303047239409 -2.30307500505e-20)
(-0.00281200795966 -0.00937681001101 -2.46644526223e-20)
(0.0145869048918 0.0154237160952 -7.45051386029e-21)
(0.00582446301176 -0.00290206491372 -2.21215734619e-20)
(0.0092531613174 0.0195082888945 3.76232804157e-21)
(0.00129821925709 -0.00551960485618 -1.9297231986e-22)
(0.00139194915336 -0.00623288205021 -4.0624909158e-22)
(0.00172217760485 -0.005856088212 -2.35218893195e-22)
(0.00153178121511 -0.00699478925188 -8.96529278711e-24)
(0.00187085797457 -0.00657271175594 -1.07869952389e-22)
(0.00172657811789 -0.0078331044083 1.88558541414e-22)
(0.00208074310425 -0.00737644298739 1.06581609905e-22)
(0.00198724170973 -0.00881225673883 1.0403432359e-21)
(0.00235987899278 -0.00824161511317 8.85512028144e-23)
(0.00243063532667 -0.0100326897773 -2.67941743425e-22)
(0.00271759924023 -0.00907177040089 1.07578354611e-21)
(0.00363553982633 -0.011447448437 -8.72846963104e-21)
(0.00328270829001 -0.00954988332857 -1.1557001508e-21)
(0.00611456043317 -0.0122372838741 -1.11769654544e-20)
(0.00451672173056 -0.00786448171175 -5.64398101191e-21)
(0.00475560153859 -0.012932630848 -1.6819308352e-20)
(0.00667861508145 -0.026286127354 -5.35743802824e-21)
(0.00345999410739 -0.0128665048606 -2.37552760337e-20)
(-0.00287858817315 -0.00865230688281 -1.67163186964e-20)
(0.000220936810909 -0.00456496632448 -1.090873156e-20)
(-0.0024782088355 -0.00417535041365 -1.40537865533e-20)
(-0.000895991587911 0.000100934370126 -6.99884641757e-22)
(0.0021777145507 -0.00629103457318 6.31602459963e-23)
(0.0023813761137 -0.00701163067814 7.67695030378e-24)
(0.00259161363549 -0.00649962970747 -5.36970202483e-23)
(0.00266593485883 -0.00778693550565 6.57427130594e-24)
(0.0028561791644 -0.0072305563552 5.18380653924e-23)
(0.00304419712035 -0.00864589727822 1.23991513022e-22)
(0.0032189501844 -0.00799740972649 7.37272884571e-23)
(0.00355993816245 -0.00961658576739 1.8802513874e-22)
(0.00368836913506 -0.00867011390301 7.27001243825e-22)
(0.0043980212939 -0.0106523274244 1.92878846834e-21)
(0.00431850122379 -0.00890131097239 -9.94647127411e-23)
(0.00596355643039 -0.0114036930295 1.75546414275e-22)
(0.00526810934786 -0.00674010815894 1.01895826325e-21)
(5.4524250843e-05 -0.0120729034547 -5.25444837259e-21)
(0.00734782543448 -0.0245500739008 -5.07868923303e-21)
(-0.00643166801931 -0.00693623452752 -7.01482921602e-21)
(-0.00801569931521 -0.00736824400586 -6.58039750596e-21)
(-0.00234077484833 -0.00480662944751 -3.844939635e-21)
(-0.00460889948252 -0.00109480636522 -6.41620946105e-21)
(0.000474795781197 -0.0047540972691 -7.68363645386e-22)
(0.00309390310618 -0.0067832102107 -9.53590515974e-24)
(0.00323055634149 -0.00628674888457 -2.31573908936e-23)
(0.00342880297045 -0.0074465916257 1.18991082544e-22)
(0.00351970190061 -0.0069103739388 -1.21120067419e-23)
(0.0038702081184 -0.00814761496066 6.7673701926e-22)
(0.00392008932787 -0.00753452778798 2.64212169268e-22)
(0.00442362377613 -0.00888591067616 4.39511392344e-22)
(0.00442675249405 -0.00802129297527 1.0813230855e-21)
(0.00511361145118 -0.00960245518547 -1.00929491783e-21)
(0.00503510189647 -0.0080568315326 -3.66666272362e-22)
(0.00645271490819 -0.0100567089836 -4.23527738405e-21)
(0.00572238816455 -0.00539348382006 -2.63754396269e-21)
(-0.00118481241529 -0.0103676896146 -6.4046383664e-21)
(0.00765880732189 -0.022389032414 -7.61750985221e-21)
(-0.00758310963308 -0.00733748471828 -5.981777751e-21)
(-0.0110463358038 -0.0057194700687 -6.13599441199e-21)
(-0.00253057517125 -0.00507840921306 -3.33963347144e-21)
(-0.00686899086634 -0.00122300149529 -6.07775551231e-21)
(0.00142526361819 -0.0049003833733 -8.1093254839e-22)
(0.00367582537068 -0.00648849285748 -2.57334924758e-23)
(0.00376988447494 -0.00604806762198 -1.78340547312e-23)
(0.00401980183323 -0.00701567677477 1.33109079982e-22)
(0.00404703558026 -0.00655087921771 -1.43909693717e-23)
(0.00446951013202 -0.00753156493265 6.68798235503e-22)
(0.00443610169387 -0.00701630471884 2.65802951156e-22)
(0.00500457814715 -0.00802212638424 2.75145420789e-22)
(0.00491740910972 -0.00730586607198 8.80279847027e-22)
(0.00557353347043 -0.00843379864248 -1.99491531722e-21)
(0.00544683659125 -0.00716547779126 -1.41047698355e-21)
(0.00677195947602 -0.00862735653621 -6.01977643085e-21)
(0.00591597492645 -0.00405008021074 -1.11498544692e-20)
(-0.00239858499777 -0.00872345150937 -7.3488658978e-21)
(0.00775490515789 -0.0201338777232 -7.81923111117e-21)
(-0.0101323234602 -0.00624164780519 -6.2319721733e-21)
(-0.0135285423149 -0.00419417235762 -2.19688694447e-22)
(-0.00281740270763 -0.00452209788206 -3.54905458926e-21)
(-0.00858946748644 -0.000702902025894 -6.67658213702e-22)
(0.00267941855039 -0.00444410662819 1.45050563174e-22)
(0.00414903220992 -0.00619677474213 -6.49153162706e-24)
(0.00420561644961 -0.00583340534136 -3.29181644931e-23)
(0.00446011069195 -0.00658366547581 1.18302901803e-22)
(0.00443408464792 -0.00621507731665 -3.8088479174e-23)
(0.00486611991579 -0.00691393774971 4.77284562681e-22)
(0.00476650682907 -0.0065238205237 1.97729114172e-22)
(0.00532399898911 -0.00716827586026 -8.05342557309e-22)
(0.00517185076313 -0.00662546775884 6.69755439636e-22)
(0.00574753422257 -0.00729967591885 -1.05654161356e-20)
(0.00557830622211 -0.00633513045678 -2.83923611202e-21)
(0.00681992432 -0.00723924212011 -1.29493091496e-20)
(0.00585557436566 -0.00285040351119 -1.85864742109e-20)
(-0.00346350442263 -0.00711651984379 -6.90053907816e-22)
(0.00763218764428 -0.0178097024275 -1.29586664828e-20)
(-0.0120278547867 -0.00525527630156 5.34462526516e-21)
(-0.0153901506235 -0.00269993822439 -8.33593334144e-21)
(-0.00308394790443 -0.00375328122405 3.02644693874e-21)
(-0.0100922852411 -0.000279574530898 -8.33613891431e-21)
(0.00377502436284 -0.00379957907077 -4.08569569204e-22)
(0.00450704399748 -0.00595038130501 -6.451511204e-23)
(0.00454244146179 -0.0056785415585 -2.59855388548e-23)
(0.00474592880192 -0.00620334310894 4.13377331957e-23)
(0.00468721214879 -0.00594730374818 -7.12438484508e-23)
(0.00506361602222 -0.00635820707191 3.90199991128e-22)
(0.00492151161135 -0.00610966046669 4.9014988075e-23)
(0.00540078937733 -0.00639286818504 -1.36413811507e-21)
(0.00520662345249 -0.00603787764467 2.18163162294e-22)
(0.00565860040873 -0.00626415525462 -1.08602941873e-20)
(0.00544966985544 -0.0056139842988 -2.3220336256e-21)
(0.00660110896524 -0.00594235311788 -1.85958315441e-20)
(0.00553380983636 -0.00185721431096 -9.6803188442e-21)
(-0.00437062525796 -0.00552611507087 -2.06045459164e-20)
(0.00721595634763 -0.0154234355585 -1.36434885651e-20)
(-0.0134870336132 -0.00424914348087 -2.20166975209e-20)
(-0.0166674458862 -0.00122425260331 -1.64760775851e-20)
(-0.0032515792121 -0.00308915858243 -1.17711554222e-20)
(-0.0112529798612 0.000130104984185 -1.60682559202e-20)
(0.0048137929144 -0.00339841811783 -1.58627386111e-21)
(0.0047534430443 -0.00578627542572 -3.27142752656e-23)
(0.00479190240212 -0.0056158311244 -5.59257669719e-24)
(0.00488323647922 -0.00591851603534 -6.35665935715e-23)
(0.00481962359635 -0.00578696115974 -4.96634968971e-23)
(0.00507124627718 -0.00591296307265 -1.23021840759e-22)
(0.0049161056426 -0.00581927213853 3.67309572695e-23)
(0.00524438243756 -0.00574302143913 -7.39732348237e-22)
(0.00503679990937 -0.00559078964688 1.48959716803e-22)
(0.00530839430431 -0.00535955797255 -1.14205828247e-21)
(0.00506628884878 -0.00503567661987 -1.10683508582e-21)
(0.00608568703853 -0.00475900097964 -4.7279758652e-21)
(0.00493329435095 -0.00112690342676 -2.25393842581e-21)
(-0.00515489649954 -0.00397858467634 -9.51502023383e-21)
(0.00643554867033 -0.0130181042527 -1.01070836599e-20)
(-0.0144554963384 -0.00323984332593 -1.05276359844e-20)
(-0.017406467949 0.000156562973347 -1.01863855789e-20)
(-0.00318769101682 -0.00252115707593 -5.88337435902e-21)
(-0.0119722643409 0.000502221541382 -1.02573499709e-20)
(0.00595437103162 -0.00319358340544 -1.24244980135e-21)
(0.0049041786648 -0.00573851820364 -2.25417983287e-23)
(0.00497196895677 -0.0056750936402 -1.43829989881e-23)
(0.00488894664368 -0.00576962011163 5.06340539439e-23)
(0.00485089760268 -0.00577131677504 -4.50678734576e-23)
(0.00490476809761 -0.0056235081071 3.08712514831e-22)
(0.00477014340263 -0.00569761849049 5.28296609633e-23)
(0.00486357734006 -0.00526656675666 -2.18143020778e-22)
(0.00467998038656 -0.00533662202134 4.53423242053e-22)
(0.00469075783024 -0.00464011305719 -2.21871522916e-21)
(0.00443992156014 -0.00464821309142 -5.1588175776e-22)
(0.00523670384764 -0.00375422397942 -7.6330462205e-21)
(0.00404744979085 -0.000748526965861 4.75989468056e-22)
(-0.0058668877168 -0.002560389723 -1.0778449005e-20)
(0.00524172465385 -0.0106848943963 -1.06374254607e-20)
(-0.0149381239389 -0.00231604435277 -9.91609956539e-21)
(-0.0176510520061 0.00133152170446 -1.30196203623e-20)
(-0.00281905624673 -0.00201487867076 -5.61642541318e-21)
(-0.0122739217484 0.000796964041916 -1.30039548778e-20)
(0.00728153976354 -0.00315341021577 -1.26890050636e-21)
(0.00498250133284 -0.00583923695679 -3.6909074117e-23)
(0.00510754602491 -0.00588329941432 -1.91401902051e-23)
(0.00478822812612 -0.00579738921888 -4.28722664382e-23)
(0.00480921883883 -0.00593539866534 -5.53145335221e-23)
(0.00459032518641 -0.00554158917718 1.97540388185e-22)
(0.00451449200099 -0.00578924802464 5.71153473732e-23)
(0.00428535427707 -0.00502963214804 1.55684505072e-22)
(0.00416814568642 -0.00533035298472 5.60818364613e-22)
(0.00381704543435 -0.00419094109203 2.17882293946e-21)
(0.00360131850395 -0.00450870749469 1.45319850614e-22)
(0.00402706554157 -0.00301373505496 -2.52838977218e-21)
(0.00287029014195 -0.000797524422292 2.48779660329e-21)
(-0.00656638426625 -0.00136606418474 -1.28785968181e-20)
(0.0035940652242 -0.00851910504751 -1.02851123934e-20)
(-0.0149976969934 -0.0015258800639 -1.61074756747e-20)
(-0.0174914349287 0.00218447763984 -1.30742475953e-20)
(-0.00215144507338 -0.00159850030952 -8.65642997098e-21)
(-0.0122016971966 0.000977615335041 -1.2981629876e-20)
(0.00895197228878 -0.00355244855426 -1.33728610633e-21)
(0.00501881658827 -0.00611753003879 -3.75456496101e-23)
(0.00523082065863 -0.00626333469418 -2.54704573826e-23)
(0.00461471137357 -0.00603950146055 4.46730802893e-23)
(0.00473135063459 -0.00631041316494 -5.3736148037e-23)
(0.00416253949295 -0.00571442589605 4.20393323801e-22)
(0.00418955922479 -0.00613595558473 1.79389361503e-22)
(0.00353956094099 -0.00508755861264 5.50453710155e-22)
(0.0035413975178 -0.00562623790446 7.77292623989e-22)
(0.00269252198045 -0.00407014574043 4.54293514447e-22)
(0.00258399244415 -0.00468674913581 -4.5806353977e-22)
(0.0024343861494 -0.00259328063804 -5.2689260179e-21)
(0.00139347186912 -0.00133465910029 -5.85208708407e-21)
(-0.00731607588168 -0.000480652043349 -1.04807631706e-20)
(0.00148144863558 -0.00663906772618 -1.66847533836e-20)
(-0.0146878284886 -0.000976643461725 -9.94840179663e-21)
(-0.0169956062704 0.00254047270773 -1.07448093448e-20)
(-0.00101302412802 -0.00145878002969 -5.66248601137e-21)
(-0.0117198712215 0.00107421156419 -1.08622194288e-20)
(0.0115022666554 -0.00469431767517 -1.25648952441e-21)
(0.00505141672827 -0.00659747044919 -4.16609558095e-23)
(0.0053809647738 -0.00683218635298 -3.00316276145e-23)
(0.00441252919561 -0.00652995773773 8.09801331767e-23)
(0.00466398535938 -0.00692204759312 -4.91618752687e-23)
(0.00366925983083 -0.00618965586155 5.36288661691e-22)
(0.00384939065632 -0.00677632116967 9.99810233334e-23)
(0.00267404551859 -0.00550706078328 -2.31224625936e-22)
(0.00285891518339 -0.00628147324198 6.0712316383e-22)
(0.00134220922263 -0.00436855475215 -6.76444413829e-21)
(0.00144556967401 -0.00528459284054 -1.39004325992e-21)
(0.00046699079704 -0.00259393016386 -1.72679144497e-20)
(-0.000381106886438 -0.00242308190386 -5.6445535665e-21)
(-0.00815916776638 -2.60396167018e-05 -1.69487995577e-20)
(-0.00108642995887 -0.00522558220345 -1.35486123515e-20)
(-0.0140234703975 -0.000632692184999 -1.16586269769e-20)
(-0.0163890834729 0.00209645700992 -1.11565375557e-20)
(0.00099012540963 -0.00153419185424 -6.4562229418e-21)
(-0.0108186118512 0.00121410930811 -1.11268062943e-20)
(0.0157896756108 -0.0067453257992 -9.67731102942e-22)
(0.00512791357547 -0.00729647412714 -3.75325470736e-23)
(0.00560411210715 -0.0075979985105 -2.6381681302e-23)
(0.00423885374112 -0.00729754120038 -3.0160985112e-23)
(0.00466519230588 -0.00778590641435 -2.70444576625e-23)
(0.00317737373997 -0.00701347820217 1.70815525472e-22)
(0.0035654594409 -0.00773981760326 6.42175410912e-23)
(0.0017599552781 -0.00636100433672 -5.51695470153e-22)
(0.00220655828002 -0.00734932067963 5.14978198817e-22)
(-0.000191333038568 -0.00519539411182 -2.70152688136e-22)
(0.000280047718152 -0.00643044984954 -7.19543238795e-22)
(-0.00187471897577 -0.00317116133154 -1.92525146822e-21)
(-0.00240528691821 -0.00412140293876 3.68554507898e-22)
(-0.00925234633123 -0.000131259379463 -7.75635034945e-21)
(-0.00412631634038 -0.00455827258635 -9.84436939559e-21)
(-0.0131162952018 -0.000496896535784 -1.0624716873e-20)
(-0.0160235461111 0.000354081671348 -1.20840791186e-20)
(0.00436422671377 -0.00199111528601 -5.6383144554e-21)
(-0.0093246733351 0.00130957211542 -1.19827110086e-20)
(0.0230200639562 -0.00850038801608 1.01844778843e-21)
(0.00530377203994 -0.00821959639463 -1.58935918909e-23)
(0.00595062689839 -0.00855636343096 -2.43856548749e-23)
(0.00416566778699 -0.00835594679679 6.73340685406e-23)
(0.00480168503747 -0.00890084027749 -1.0291363315e-23)
(0.00277934051185 -0.00821837064181 4.08380214436e-22)
(0.0034280302468 -0.00903474612751 6.49795297795e-23)
(0.000913186361019 -0.00771900332866 3.47130430175e-22)
(0.00170731561601 -0.00886215349297 3.60157886543e-22)
(-0.00176282222891 -0.0066980341178 -8.08360427613e-23)
(-0.000740818138577 -0.00822519488752 -2.72527326686e-22)
(-0.00453844980217 -0.0047292852889 -7.55056341947e-21)
(-0.00437397991921 -0.00655948776278 -1.5976011806e-22)
(-0.010852828166 -0.00114218897622 -1.41720981647e-20)
(-0.0077133956286 -0.0050750140677 -9.70865541963e-21)
(-0.012096996313 -0.000475288153479 -1.34420732542e-20)
(-0.016690569304 -0.00352193911914 -1.20322646572e-20)
(0.007865630153 -0.0022561830692 -5.32594876477e-21)
(-0.0075441493601 0.00115461414107 -1.20740533373e-20)
(0.0325705642105 0.00364930262643 -1.76503202063e-21)
(0.00563816211313 -0.00935497078703 -1.8783426299e-23)
(0.0042754662228 -0.00969482783862 -1.26459020762e-23)
(0.00259613820943 -0.00980404115958 1.6757201886e-23)
(0.00032449457826 -0.0096161738913 -2.59499870318e-22)
(-0.00307245860261 -0.00900767165425 -3.51451401985e-22)
(-0.00741078497444 -0.00775910056379 -2.31785211822e-21)
(-0.013571850677 -0.0040502097779 -7.56882191207e-21)
(-0.0130247150414 -0.000738553082802 -1.06642447404e-20)
(0.0180811382634 0.00732616959421 -8.51313659319e-21)
)
;

boundaryField
{
    back
    {
        type            calculated;
        value           uniform (0 0 0);
    }
    sides
    {
        type            calculated;
        value           uniform (0 0 0);
    }
    bottom
    {
        type            calculated;
        value           nonuniform List<vector> 0();
    }
    front
    {
        type            calculated;
        value           uniform (0 0 0);
    }
    atmosphere
    {
        type            calculated;
        value           nonuniform List<vector> 
16
(
(0 -0.0687744783001 0)
(0.0296411829488 0.0316271962046 8.2176107146e-21)
(-0.0046502811695 0.00558370624641 -6.92954631459e-22)
(0 -0.00617785870848 0)
(0 -0.00602929120149 0)
(0 -0.0057766318709 0)
(0 -0.00484922615924 0)
(0 -0.00412822475108 0)
(0 -0.00366199116574 0)
(0 -0.00334226351254 0)
(0 -0.00326911183554 0)
(0 -0.00400922071875 0)
(0 -0.0058217194891 0)
(0 -0.00922168822434 0)
(0 -0.0118068785068 0)
(0.0447565384935 0.0129501711576 -6.33775857843e-21)
)
;
    }
    floatingObject
    {
        type            calculated;
        value           nonuniform List<vector> 0();
    }
    procBoundary1to0
    {
        type            processor;
        value           nonuniform List<vector> 10((0.00647014110303 -0.00968784115229 -8.47491343975e-24) (0.00514168184255 -0.0102421966284 2.28984964531e-24) (0.00353737743053 -0.0106301203779 3.75382363383e-23) (0.00151957846579 -0.0107896548624 1.3108706219e-22) (-0.00134922650898 -0.0106432644286 -4.88902531559e-22) (-0.00562249262439 -0.00998416619998 3.80443662116e-22) (-0.0114222700699 -0.00741089562651 -1.11063893267e-21) (-0.0200023604955 -0.0106208781083 -8.20988496051e-21) (-0.0156092369447 0.00159264006483 -8.05977885003e-21) (0.0269463514194 0.0732604291879 -8.74578131754e-21));
    }
    procBoundary1to2
    {
        type            processor;
        value           nonuniform List<vector> 
18
(
(0.000729903920402 -0.00190496579607 1.84084870277e-21)
(0.000189939455828 -0.0042168473697 1.48813026946e-22)
(0.00123997555578 -0.00483795957883 3.63536712599e-22)
(0.00162336798104 -0.00518355769979 1.09127957616e-22)
(0.00203913028903 -0.00560538791862 6.68813842811e-23)
(0.00240803011866 -0.0058357511309 1.28170221073e-22)
(0.0028562783915 -0.00614451927666 1.1312954828e-23)
(0.00343585093301 -0.00594943088799 -1.71380518575e-23)
(0.00393926114507 -0.00576132005517 -1.54880318222e-23)
(0.0043594002151 -0.00561384352279 -3.62787297844e-23)
(0.00469863558365 -0.00553710789679 -1.88913875491e-24)
(0.00497139343824 -0.0055587437637 -4.91825319274e-24)
(0.00519848146648 -0.00570394457225 -8.43500265337e-24)
(0.0054063219723 -0.00599452096909 -7.03993506365e-24)
(0.00562750831171 -0.00644756753179 -1.83189553415e-23)
(0.00590061226461 -0.00707353598085 -1.56037475095e-23)
(0.00626876300186 -0.00787328934699 -1.02497741184e-23)
(0.0067762594938 -0.00883561510774 4.02142922606e-24)
)
;
    }
}


// ************************************************************************* //
