/*--------------------------------*- C++ -*----------------------------------*\
| =========                 |                                                 |
| \\      /  F ield         | OpenFOAM: The Open Source CFD Toolbox           |
|  \\    /   O peration     | Version:  v2012                                 |
|   \\  /    A nd           | Website:  www.openfoam.com                      |
|    \\/     M anipulation  |                                                 |
\*---------------------------------------------------------------------------*/
FoamFile
{
    version     2.0;
    format      ascii;
    class       volScalarField;
    location    "1.9";
    object      p;
}
// * * * * * * * * * * * * * * * * * * * * * * * * * * * * * * * * * * * * * //

dimensions      [1 -1 -2 0 0 0 0];


internalField   nonuniform List<scalar> 
164
(
5093.77658704
4609.28567611
4125.61441514
3642.77364903
3160.79967892
2679.69420962
2199.39717796
1719.67485647
1240.16648539
759.785877379
288.393686563
21.5848833898
-11.2699851806
8508.90002016
8019.84233654
7531.37215318
7043.53000329
6069.80309559
5584.00958188
5098.99288099
4614.78513549
4131.44841854
3648.94782856
3167.26603075
2686.30867416
2205.78216736
1725.30114512
1244.28161304
761.299259251
288.730799725
22.8835828954
-10.6681995761
8512.70973772
8023.66680657
7535.22129727
7047.42071837
6560.27843178
6073.8532061
5588.20125671
5103.38259751
4619.39420268
4136.4172038
3654.26912918
3172.94460638
2692.42908801
2211.95247563
1731.28197511
1250.05528939
766.037388733
292.193006988
23.8029066332
-11.0022782926
8515.92235437
8026.88232387
7538.43685161
7050.64078864
6563.51213883
6077.12609279
5591.56304798
5106.94422979
4623.39495046
4140.62775177
3658.76029989
3177.80578254
2698.42690274
2218.11020438
1737.64831222
1258.17485778
773.730616895
300.725969851
24.0197232987
-13.2131278259
8518.53809384
8029.48681387
7541.01481301
7053.17973517
6565.99943775
6079.56349376
5593.97801553
5109.42985086
4626.12756994
4143.71224093
3662.25856285
3181.21764224
2705.11599403
2224.23972549
1744.39789129
1265.87849872
781.891271426
313.07776413
17.1965413133
-19.9710064767
8520.57059764
8031.49599146
7542.97189376
7055.0530649
6567.74461755
6081.13195275
5595.27139739
5110.51774346
4628.0178399
4145.95522502
3664.98919476
3184.69073821
2710.64161107
2229.33191178
1750.18599511
1274.29738322
789.694202455
351.360992075
-73.6061334793
-60.9304581456
8522.04378033
8032.93567799
7544.33903284
7056.30456056
6568.83009188
6082.0466483
5596.05805403
5111.20287342
4628.91844659
4147.32960145
3667.03649074
3187.90622099
2715.60990793
2233.04683648
1754.00594226
1276.98831642
790.317194243
330.991485056
27.7766147269
-26.1786685985
8522.99379848
8033.84647648
7545.15727043
7056.93221873
6569.0274038
6081.39962413
5593.68854749
5105.51114059
8523.46015462
8034.29088528
7545.55918778
7057.26091058
6569.268522
6081.50970692
5593.60056078
5105.32744407
8523.46015895
8034.2908737
7545.55919286
7057.26097258
6569.26867193
6081.5099947
5593.60100454
5105.32805081
8522.99367354
8033.84632712
7545.15720196
7056.93235991
6569.02787093
6081.40047432
5593.68991633
5105.51296141
)
;

boundaryField
{
    back
    {
        type            calculated;
        value           nonuniform List<scalar> 
164
(
5093.77658704
4609.28567611
4125.61441514
3642.77364903
3160.79967892
2679.69420962
2199.39717796
1719.67485647
1240.16648539
759.785877379
288.393686563
21.5848833898
-11.2699851806
8508.90002016
8019.84233654
7531.37215318
7043.53000329
6069.80309559
5584.00958188
5098.99288099
4614.78513549
4131.44841854
3648.94782856
3167.26603075
2686.30867416
2205.78216736
1725.30114512
1244.28161304
761.299259251
288.730799725
22.8835828954
-10.6681995761
8512.70973772
8023.66680657
7535.22129727
7047.42071837
6560.27843178
6073.8532061
5588.20125671
5103.38259751
4619.39420268
4136.4172038
3654.26912918
3172.94460638
2692.42908801
2211.95247563
1731.28197511
1250.05528939
766.037388733
292.193006988
23.8029066332
-11.0022782926
8515.92235437
8026.88232387
7538.43685161
7050.64078864
6563.51213883
6077.12609279
5591.56304798
5106.94422979
4623.39495046
4140.62775177
3658.76029989
3177.80578254
2698.42690274
2218.11020438
1737.64831222
1258.17485778
773.730616895
300.725969851
24.0197232987
-13.2131278259
8518.53809384
8029.48681387
7541.01481301
7053.17973517
6565.99943775
6079.56349376
5593.97801553
5109.42985086
4626.12756994
4143.71224093
3662.25856285
3181.21764224
2705.11599403
2224.23972549
1744.39789129
1265.87849872
781.891271426
313.07776413
17.1965413133
-19.9710064767
8520.57059764
8031.49599146
7542.97189376
7055.0530649
6567.74461755
6081.13195275
5595.27139739
5110.51774346
4628.0178399
4145.95522502
3664.98919476
3184.69073821
2710.64161107
2229.33191178
1750.18599511
1274.29738322
789.694202455
351.360992075
-73.6061334793
-60.9304581456
8522.04378033
8032.93567799
7544.33903284
7056.30456056
6568.83009188
6082.0466483
5596.05805403
5111.20287342
4628.91844659
4147.32960145
3667.03649074
3187.90622099
2715.60990793
2233.04683648
1754.00594226
1276.98831642
790.317194243
330.991485056
27.7766147269
-26.1786685985
8522.99379848
8033.84647648
7545.15727043
7056.93221873
6569.0274038
6081.39962413
5593.68854749
5105.51114059
8523.46015462
8034.29088528
7545.55918778
7057.26091058
6569.268522
6081.50970692
5593.60056078
5105.32744407
8523.46015895
8034.2908737
7545.55919286
7057.26097258
6569.26867193
6081.5099947
5593.60100454
5105.32805081
8522.99367354
8033.84632712
7545.15720196
7056.93235991
6569.02787093
6081.40047432
5593.68991633
5105.51296141
)
;
    }
    sides
    {
        type            calculated;
        value           nonuniform List<scalar> 0();
    }
    bottom
    {
        type            calculated;
        value           nonuniform List<scalar> 10(8753.70863807 8757.51829952 8760.73095568 8763.34669015 8765.37916419 8766.85236838 8767.80240125 8768.26877765 8768.26880216 8767.80231211);
    }
    front
    {
        type            calculated;
        value           nonuniform List<scalar> 
164
(
5093.77658704
4609.28567611
4125.61441514
3642.77364903
3160.79967892
2679.69420962
2199.39717796
1719.67485647
1240.16648539
759.785877379
288.393686563
21.5848833898
-11.2699851806
8508.90002016
8019.84233654
7531.37215318
7043.53000329
6069.80309559
5584.00958188
5098.99288099
4614.78513549
4131.44841854
3648.94782856
3167.26603075
2686.30867416
2205.78216736
1725.30114512
1244.28161304
761.299259251
288.730799725
22.8835828954
-10.6681995761
8512.70973772
8023.66680657
7535.22129727
7047.42071837
6560.27843178
6073.8532061
5588.20125671
5103.38259751
4619.39420268
4136.4172038
3654.26912918
3172.94460638
2692.42908801
2211.95247563
1731.28197511
1250.05528939
766.037388733
292.193006988
23.8029066332
-11.0022782926
8515.92235437
8026.88232387
7538.43685161
7050.64078864
6563.51213883
6077.12609279
5591.56304798
5106.94422979
4623.39495046
4140.62775177
3658.76029989
3177.80578254
2698.42690274
2218.11020438
1737.64831222
1258.17485778
773.730616895
300.725969851
24.0197232987
-13.2131278259
8518.53809384
8029.48681387
7541.01481301
7053.17973517
6565.99943775
6079.56349376
5593.97801553
5109.42985086
4626.12756994
4143.71224093
3662.25856285
3181.21764224
2705.11599403
2224.23972549
1744.39789129
1265.87849872
781.891271426
313.07776413
17.1965413133
-19.9710064767
8520.57059764
8031.49599146
7542.97189376
7055.0530649
6567.74461755
6081.13195275
5595.27139739
5110.51774346
4628.0178399
4145.95522502
3664.98919476
3184.69073821
2710.64161107
2229.33191178
1750.18599511
1274.29738322
789.694202455
351.360992075
-73.6061334793
-60.9304581456
8522.04378033
8032.93567799
7544.33903284
7056.30456056
6568.83009188
6082.0466483
5596.05805403
5111.20287342
4628.91844659
4147.32960145
3667.03649074
3187.90622099
2715.60990793
2233.04683648
1754.00594226
1276.98831642
790.317194243
330.991485056
27.7766147269
-26.1786685985
8522.99379848
8033.84647648
7545.15727043
7056.93221873
6569.0274038
6081.39962413
5593.68854749
5105.51114059
8523.46015462
8034.29088528
7545.55918778
7057.26091058
6569.268522
6081.50970692
5593.60056078
5105.32744407
8523.46015895
8034.2908737
7545.55919286
7057.26097258
6569.26867193
6081.5099947
5593.60100454
5105.32805081
8522.99367354
8033.84632712
7545.15720196
7056.93235991
6569.02787093
6081.40047432
5593.68991633
5105.51296141
)
;
    }
    atmosphere
    {
        type            calculated;
        value           nonuniform List<scalar> 7(-9.89371985511 -9.865419958 -9.87711978541 -9.96700884648 -10.0936611017 -744.608474767 -10.4247975051);
    }
    floatingObject
    {
        type            calculated;
        value           nonuniform List<scalar> 8(4628.91844659 4147.32960145 3667.03649074 3187.90622099 4860.70262614 4860.51895244 4860.5195753 4860.70449105);
    }
    procBoundary3to4
    {
        type            processor;
        value           nonuniform List<scalar> 
13
(
5087.77792045
4602.9435684
4118.87455648
8504.50445804
8015.42161374
7526.90668204
7038.99220299
6065.01751226
5579.03429393
5579.03429393
6556.32509811
6556.32509811
6556.32509811
)
;
    }
    procBoundary3to5
    {
        type            processor;
        value           nonuniform List<scalar> 10(3635.66980157 3153.38116598 2672.19334573 2192.30335294 1713.84796936 1236.33241713 757.66128226 289.405640473 23.8205208951 -12.2850144509);
    }
    procBoundary3to6
    {
        type            processor;
        value           nonuniform List<scalar> 8(2726.00790559 2240.44148411 1757.86865187 1278.15071957 791.762476725 307.51698326 0.509846618573 -31.9743468932);
    }
    procBoundary3to8
    {
        type            processor;
        value           nonuniform List<scalar> 8(8522.04322909 8032.93514382 7544.33870335 7056.3046281 6568.83072022 6082.04802189 5596.06029552 5111.20617664);
    }
}


// ************************************************************************* //
