/*--------------------------------*- C++ -*----------------------------------*\
| =========                 |                                                 |
| \\      /  F ield         | OpenFOAM: The Open Source CFD Toolbox           |
|  \\    /   O peration     | Version:  v2012                                 |
|   \\  /    A nd           | Website:  www.openfoam.com                      |
|    \\/     M anipulation  |                                                 |
\*---------------------------------------------------------------------------*/
FoamFile
{
    version     2.0;
    format      ascii;
    class       volScalarField;
    location    "2.8";
    object      epsilon_0;
}
// * * * * * * * * * * * * * * * * * * * * * * * * * * * * * * * * * * * * * //

dimensions      [0 2 -3 0 0 0 0];


internalField   nonuniform List<scalar> 
167
(
0.00313474930446
0.00319067603405
0.00331771322134
0.00359801692092
0.00417575539152
0.00536960109393
0.00874699499263
0.0275438306189
0.137735525928
0.00318480562948
0.00331396705395
0.00359323141014
0.00414953938933
0.00526279207676
0.00855046284983
0.0291741555987
0.151500955411
0.00317914915282
0.0033109903776
0.00359220896169
0.00414597479175
0.00525253384899
0.00846877242052
0.027399549978
0.146006834844
0.00311263847841
0.00317403593011
0.00330984640496
0.00359687890946
0.00415957144745
0.00529295045706
0.00849174741062
0.0229854873132
0.115465832301
0.00310546074974
0.00316943975506
0.00331007118682
0.00360422231315
0.00417453050645
0.00531032297346
0.00857474525609
0.025478873386
0.131303286415
0.00309840437884
0.0031651918673
0.00331110083014
0.00361298281933
0.00418927376969
0.00530139173951
0.00846395094892
0.0250426708413
0.107289210742
0.00305779288162
0.00309146712167
0.00316122889712
0.00331264249544
0.00362279366336
0.0042079089605
0.00531358123148
0.00833856660303
0.0229098618527
0.103033341456
0.00302923331704
0.00304954644553
0.00308478776222
0.00315755375196
0.00331460446131
0.00363363768407
0.00422964666328
0.00534299787239
0.00831010988071
0.0208160039383
0.0684085376616
0.0030203771939
0.00304159385228
0.00307837637899
0.00315422625718
0.00331699703559
0.00364498655092
0.00425407609265
0.00539183802496
0.00853512024743
0.0235859292353
0.100161743122
0.00303383181502
0.00307212714622
0.0031510877288
0.00331985204686
0.00365758836809
0.00427939424355
0.00544305794357
0.0088770906836
0.0274907441428
0.136698788764
0.00302581613125
0.00306567231461
0.00314781388441
0.0033225784763
0.00367025453925
0.00430595999101
0.00550345818819
0.00941422364842
0.0335582214165
0.155552277903
0.00301612006561
0.00305747479758
0.00314276367387
0.00332386547865
0.00368255966283
0.0043374505743
0.00560923744475
0.0101634109738
0.038108543629
0.159498831449
0.00300019206349
0.00304278797272
0.00313098890901
0.00331849140979
0.00368974130062
0.00437229806571
0.00579826076902
0.0112854116846
0.0416009390228
0.160579093571
0.00296485651473
0.00300803464176
0.00309808540364
0.00329022236909
0.00367140627192
0.00438161706656
0.00598349650752
0.012389255461
0.0442183543136
0.161014844066
0.00285006607389
0.00287397108227
0.00291618180813
0.00300501617899
0.00319604243037
0.00357715417515
0.00429765654502
0.00603086372968
0.0130166173079
0.0449827995507
0.16081896731
0.00260874503454
0.00263065599821
0.00266863149578
0.00274870169466
0.00292302782006
0.00327449743168
0.00395409694898
0.00564822155625
0.012466743472
0.0431685546651
0.159675307425
0.00250899008992
0.00253304028798
0.0025705796464
0.00264478558646
0.00280506088077
0.00313748034179
0.00379657907634
0.00531580754281
0.0114460616916
0.0478247786505
0.203619064814
)
;

boundaryField
{
    back
    {
        lowReCorrection 0;
        blending        stepwise;
        n               2;
        type            epsilonWallFunction;
        value           nonuniform List<scalar> 
167
(
0.00313474930446
0.00319067603405
0.00331771322134
0.00359801692092
0.00417575539152
0.00536960109393
0.00874699499263
0.0275438306189
0.137735525928
0.00318480562948
0.00331396705395
0.00359323141014
0.00414953938933
0.00526279207676
0.00855046284983
0.0291741555987
0.151500955411
0.00317914915282
0.0033109903776
0.00359220896169
0.00414597479175
0.00525253384899
0.00846877242052
0.027399549978
0.146006834844
0.00311263847841
0.00317403593011
0.00330984640496
0.00359687890946
0.00415957144745
0.00529295045706
0.00849174741062
0.0229854873132
0.115465832301
0.00310546074974
0.00316943975506
0.00331007118682
0.00360422231315
0.00417453050645
0.00531032297346
0.00857474525609
0.025478873386
0.131303286415
0.00309840437884
0.0031651918673
0.00331110083014
0.00361298281933
0.00418927376969
0.00530139173951
0.00846395094892
0.0250426708413
0.107289210742
0.00305779288162
0.00309146712167
0.00316122889712
0.00331264249544
0.00362279366336
0.0042079089605
0.00531358123148
0.00833856660303
0.0229098618527
0.103033341456
0.00302923331704
0.00304954644553
0.00308478776222
0.00315755375196
0.00331460446131
0.00363363768407
0.00422964666328
0.00534299787239
0.00831010988071
0.0208160039383
0.0684085376616
0.0030203771939
0.00304159385228
0.00307837637899
0.00315422625718
0.00331699703559
0.00364498655092
0.00425407609265
0.00539183802496
0.00853512024743
0.0235859292353
0.100161743122
0.00303383181502
0.00307212714622
0.0031510877288
0.00331985204686
0.00365758836809
0.00427939424355
0.00544305794357
0.0088770906836
0.0274907441428
0.136698788764
0.00302581613125
0.00306567231461
0.00314781388441
0.0033225784763
0.00367025453925
0.00430595999101
0.00550345818819
0.00941422364842
0.0335582214165
0.155552277903
0.00301612006561
0.00305747479758
0.00314276367387
0.00332386547865
0.00368255966283
0.0043374505743
0.00560923744475
0.0101634109738
0.038108543629
0.159498831449
0.00300019206349
0.00304278797272
0.00313098890901
0.00331849140979
0.00368974130062
0.00437229806571
0.00579826076902
0.0112854116846
0.0416009390228
0.160579093571
0.00296485651473
0.00300803464176
0.00309808540364
0.00329022236909
0.00367140627192
0.00438161706656
0.00598349650752
0.012389255461
0.0442183543136
0.161014844066
0.00285006607389
0.00287397108227
0.00291618180813
0.00300501617899
0.00319604243037
0.00357715417515
0.00429765654502
0.00603086372968
0.0130166173079
0.0449827995507
0.16081896731
0.00260874503454
0.00263065599821
0.00266863149578
0.00274870169466
0.00292302782006
0.00327449743168
0.00395409694898
0.00564822155625
0.012466743472
0.0431685546651
0.159675307425
0.00250899008992
0.00253304028798
0.0025705796464
0.00264478558646
0.00280506088077
0.00313748034179
0.00379657907634
0.00531580754281
0.0114460616916
0.0478247786505
0.203619064814
)
;
    }
    sides
    {
        lowReCorrection 0;
        blending        stepwise;
        n               2;
        type            epsilonWallFunction;
        value           nonuniform List<scalar> 
11
(
0.00250899008992
0.00253304028798
0.0025705796464
0.00264478558646
0.00280506088077
0.00313748034179
0.00379657907634
0.00531580754281
0.0114460616916
0.0478247786505
0.203619064814
)
;
    }
    bottom
    {
        lowReCorrection 0;
        blending        stepwise;
        n               2;
        type            epsilonWallFunction;
        value           nonuniform List<scalar> 0();
    }
    front
    {
        lowReCorrection 0;
        blending        stepwise;
        n               2;
        type            epsilonWallFunction;
        value           nonuniform List<scalar> 
167
(
0.00313474930446
0.00319067603405
0.00331771322134
0.00359801692092
0.00417575539152
0.00536960109393
0.00874699499263
0.0275438306189
0.137735525928
0.00318480562948
0.00331396705395
0.00359323141014
0.00414953938933
0.00526279207676
0.00855046284983
0.0291741555987
0.151500955411
0.00317914915282
0.0033109903776
0.00359220896169
0.00414597479175
0.00525253384899
0.00846877242052
0.027399549978
0.146006834844
0.00311263847841
0.00317403593011
0.00330984640496
0.00359687890946
0.00415957144745
0.00529295045706
0.00849174741062
0.0229854873132
0.115465832301
0.00310546074974
0.00316943975506
0.00331007118682
0.00360422231315
0.00417453050645
0.00531032297346
0.00857474525609
0.025478873386
0.131303286415
0.00309840437884
0.0031651918673
0.00331110083014
0.00361298281933
0.00418927376969
0.00530139173951
0.00846395094892
0.0250426708413
0.107289210742
0.00305779288162
0.00309146712167
0.00316122889712
0.00331264249544
0.00362279366336
0.0042079089605
0.00531358123148
0.00833856660303
0.0229098618527
0.103033341456
0.00302923331704
0.00304954644553
0.00308478776222
0.00315755375196
0.00331460446131
0.00363363768407
0.00422964666328
0.00534299787239
0.00831010988071
0.0208160039383
0.0684085376616
0.0030203771939
0.00304159385228
0.00307837637899
0.00315422625718
0.00331699703559
0.00364498655092
0.00425407609265
0.00539183802496
0.00853512024743
0.0235859292353
0.100161743122
0.00303383181502
0.00307212714622
0.0031510877288
0.00331985204686
0.00365758836809
0.00427939424355
0.00544305794357
0.0088770906836
0.0274907441428
0.136698788764
0.00302581613125
0.00306567231461
0.00314781388441
0.0033225784763
0.00367025453925
0.00430595999101
0.00550345818819
0.00941422364842
0.0335582214165
0.155552277903
0.00301612006561
0.00305747479758
0.00314276367387
0.00332386547865
0.00368255966283
0.0043374505743
0.00560923744475
0.0101634109738
0.038108543629
0.159498831449
0.00300019206349
0.00304278797272
0.00313098890901
0.00331849140979
0.00368974130062
0.00437229806571
0.00579826076902
0.0112854116846
0.0416009390228
0.160579093571
0.00296485651473
0.00300803464176
0.00309808540364
0.00329022236909
0.00367140627192
0.00438161706656
0.00598349650752
0.012389255461
0.0442183543136
0.161014844066
0.00285006607389
0.00287397108227
0.00291618180813
0.00300501617899
0.00319604243037
0.00357715417515
0.00429765654502
0.00603086372968
0.0130166173079
0.0449827995507
0.16081896731
0.00260874503454
0.00263065599821
0.00266863149578
0.00274870169466
0.00292302782006
0.00327449743168
0.00395409694898
0.00564822155625
0.012466743472
0.0431685546651
0.159675307425
0.00250899008992
0.00253304028798
0.0025705796464
0.00264478558646
0.00280506088077
0.00313748034179
0.00379657907634
0.00531580754281
0.0114460616916
0.0478247786505
0.203619064814
)
;
    }
    atmosphere
    {
        type            inletOutlet;
        inletValue      uniform 0.1;
        value           nonuniform List<scalar> 
17
(
0.1
0.1
0.1
0.1
0.1
0.1
0.1
0.1
0.1
0.1
0.1
0.1
0.1
0.1
0.16081896731
0.159675307425
0.1
)
;
    }
    floatingObject
    {
        lowReCorrection 0;
        blending        stepwise;
        n               2;
        type            epsilonWallFunction;
        value           nonuniform List<scalar> 0();
    }
    procBoundary11to9
    {
        type            processor;
        value           nonuniform List<scalar> 9(0.00314207335421 0.00319625101594 0.00332032346315 0.00360048177296 0.00420731339838 0.00554459267569 0.0093046688335 0.0289581203949 0.142969951117);
    }
    procBoundary11to10
    {
        type            processor;
        value           nonuniform List<scalar> 
23
(
0.00310795952098
0.00312735832882
0.00312735832882
0.00311992983866
0.00311992983866
0.00308293242442
0.00307448414754
0.00306608607604
0.00306608607604
0.00303817920417
0.00303817920417
0.00301443154902
0.00300501568854
0.0030117369792
0.0030117369792
0.00300280918439
0.00299232500467
0.00297579792509
0.00294031669801
0.00294031669801
0.00283256589178
0.00259229625747
0.00248966111538
)
;
    }
}


// ************************************************************************* //
