/*--------------------------------*- C++ -*----------------------------------*\
| =========                 |                                                 |
| \\      /  F ield         | OpenFOAM: The Open Source CFD Toolbox           |
|  \\    /   O peration     | Version:  v2012                                 |
|   \\  /    A nd           | Website:  www.openfoam.com                      |
|    \\/     M anipulation  |                                                 |
\*---------------------------------------------------------------------------*/
FoamFile
{
    version     2.0;
    format      ascii;
    class       surfaceScalarField;
    location    "4.4";
    object      phi;
}
// * * * * * * * * * * * * * * * * * * * * * * * * * * * * * * * * * * * * * //

dimensions      [0 3 -1 0 0 0 0];
oriented        oriented;


internalField   nonuniform List<scalar> 
304
(
1.59670326672e-05
0.000224675435247
1.9531729684e-05
0.000229559407762
2.29722815498e-05
0.000236488024922
2.6254088579e-05
0.000245243192364
2.9452739256e-05
0.000255785832093
3.23804205756e-05
0.000268196616598
3.50913050582e-05
0.000282689334754
0.000299697068779
1.11821092849e-05
0.000217486449594
1.64413676569e-05
0.000217096563711
2.15861355797e-05
0.000219531704654
2.66834132655e-05
0.000224464651997
3.1742015719e-05
0.000231434763956
3.67927609966e-05
0.000240202869845
4.18242074136e-05
0.000250771280555
4.67990470236e-05
0.000263249320701
5.17101929224e-05
0.000277824545736
5.67681146829e-05
0.00029472754253
0.000314224190107
1.38998200768e-05
0.000210637730666
2.05963540176e-05
0.000210404301813
2.72282109103e-05
0.000212904505711
3.38568538157e-05
0.000217842367046
4.05491539758e-05
0.000224752107806
4.73508230153e-05
0.000233415752868
5.42397975055e-05
0.00024390289938
6.12715836398e-05
0.00025624521862
6.84765835203e-05
0.000270686187574
7.59464012294e-05
0.000287335147535
1.66115803529e-05
0.000202412433796
2.47210366258e-05
0.000202301896238
3.2806013643e-05
0.000204827041279
4.09522905055e-05
0.000209705483181
4.92634806054e-05
0.000216453355492
5.77525169107e-05
0.000224943615704
6.65261833893e-05
0.000235150821906
7.56025337517e-05
0.000247202501185
8.50270798174e-05
0.000261318749086
0.000277520619777
9.71602107175e-06
0.000193714804663
1.93008891505e-05
0.00019283637774
2.87653977521e-05
0.000192846125851
3.82510321369e-05
0.000195350787767
4.7907563236e-05
0.000200059807112
5.77903720215e-05
0.00020658380318
6.79807844395e-05
0.000214769279705
7.85362921824e-05
0.000224614311563
8.9536602917e-05
0.000236231145167
0.000101142049648
0.000249773655867
0.000265338237091
1.09946611519e-05
0.000182729102958
2.18745224393e-05
0.000181965880662
3.26731270846e-05
0.000182057145378
4.35200330319e-05
0.000184513921214
5.46041960287e-05
0.000188986505034
6.59926700267e-05
0.000195207086994
7.77888827667e-05
0.000202985683589
9.00875360768e-05
0.000212328560064
0.00010299629633
0.000223364328467
0.000116658017616
0.000236137512594
1.22350953071e-05
0.000170502949143
2.4329014185e-05
0.00016988147883
3.63678994867e-05
0.000170027967159
4.85529327968e-05
0.000172338570777
6.09857856039e-05
0.000176563079325
7.38087914979e-05
0.000182392834113
8.71237871605e-05
0.000189677938012
0.000101047481979
0.000198424825044
0.000115719638378
0.000208702536971
1.33473204061e-05
0.000157164399117
2.66266065937e-05
0.000156611282701
3.9864581215e-05
0.000156798924577
5.32623988689e-05
0.000158949032793
6.69705795242e-05
0.000162861962459
8.11271717394e-05
0.000168241244388
9.58518152517e-05
0.000174959031889
0.000111301912491
0.000182982332756
0.000192405249496
1.44175680671e-05
0.000142754793008
2.87551207741e-05
0.000142281431075
4.3089031737e-05
0.00014247205797
5.76103142553e-05
0.00014443360434
7.24928515433e-05
0.000147983440538
8.78672988255e-05
0.000152868616707
0.000103896258288
0.000158933490301
0.000120703890989
0.000166176232269
0.000174625958936
1.53858805784e-05
0.000127374898644
3.06800286993e-05
0.000126992239494
4.60070508503e-05
0.000127148868854
6.15546626485e-05
0.000128888323672
7.74900966916e-05
0.000132048682576
9.39735590483e-05
0.000136384171856
0.000111156077997
0.000141750985311
0.000129184102676
0.000148152741705
0.000148213393135
0.000155605927065
0.000164117914221
1.62252158239e-05
0.000111152164326
3.23743662852e-05
0.00011084372656
4.85979903371e-05
0.000110924401956
6.5063365319e-05
0.000112420633078
8.19431394801e-05
0.000115165485651
9.94172471187e-05
0.000118906394981
0.000117598053389
0.000123568593913
0.0001366585737
0.000129099606414
0.000156781363041
0.000135506793805
0.000142816858205
1.69192505008e-05
9.42303067203e-05
3.38322052046e-05
9.39255679587e-05
5.08449696385e-05
9.39047450937e-05
6.8121423002e-05
9.51361806543e-05
8.5837039817e-05
9.74419200258e-05
0.000104132521842
0.000100605131184
0.000123179768203
0.00010452083133
0.00014312776168
0.000109166913371
0.000164159292944
0.000114521993004
0.000120655583448
1.74699135433e-05
7.67514535712e-05
3.50865822689e-05
7.62967895581e-05
5.27913327961e-05
7.61862480058e-05
7.07590172905e-05
7.71544422867e-05
8.91811947594e-05
7.9007641876e-05
0.000108200363257
8.15793511689e-05
0.000127976953947
8.47474713817e-05
0.000148681405677
8.84912788644e-05
0.00017048734791
9.28442448236e-05
9.77400395726e-05
1.79371036566e-05
5.87985304733e-05
3.61511883741e-05
5.80635008666e-05
5.44934742909e-05
5.78235817113e-05
7.31046412895e-05
5.85240656371e-05
9.21328059651e-05
5.99649609373e-05
0.000111776580836
6.19305669362e-05
0.000132171689912
6.43619652982e-05
0.000153551081828
6.72077842349e-05
0.000176029909504
7.04857236397e-05
1.85088083151e-05
4.02656789786e-05
3.72978937114e-05
3.9248753926e-05
5.62333936039e-05
3.88627162011e-05
7.54043026361e-05
3.93312169254e-05
9.49928052129e-05
4.03626673529e-05
0.000115164894218
4.1758463582e-05
0.000136147801377
4.34140214339e-05
0.00015811229876
4.53472550309e-05
4.75722972552e-05
1.95073571849e-05
2.0729390989e-05
3.88465575547e-05
1.98805444569e-05
5.82263629966e-05
1.9455929459e-05
7.78388693833e-05
1.96976440883e-05
9.78903558922e-05
2.03015627044e-05
0.000118590647596
2.10660021212e-05
0.000140132189758
2.19253281986e-05
0.000162697048325
2.29372246761e-05
2.40643473787e-05
2.07143222144e-05
4.05804769983e-05
6.00242968337e-05
7.97147019065e-05
0.000100017056288
0.000121094936246
0.000143090197789
0.000166116452209
)
;

boundaryField
{
    back
    {
        type            calculated;
        value           uniform 0;
    }
    sides
    {
        type            calculated;
        value           uniform 0;
    }
    bottom
    {
        type            calculated;
        value           uniform 0;
    }
    front
    {
        type            calculated;
        value           uniform 0;
    }
    atmosphere
    {
        type            calculated;
        value           nonuniform List<scalar> 0();
    }
    floatingObject
    {
        type            calculated;
        value           nonuniform List<scalar> 0();
    }
    procBoundary10to9
    {
        type            processor;
        value           nonuniform List<scalar> 
15
(
-0.000228371512234
-0.000233127410868
-0.00023992935479
-0.000248518810886
-0.000258968815648
-0.000271086762678
-0.000285351305185
-0.000301913750535
-0.000222995381134
-1.22781574223e-05
-0.000222357674517
-5.67619386041e-06
-7.04715289453e-06
-8.37058179438e-06
-0.00020341370737
)
;
    }
    procBoundary10to11
    {
        type            processor;
        value           nonuniform List<scalar> 
23
(
3.74134387732e-05
-0.0003190580812
6.17294359653e-05
8.3797528146e-05
0.000306466172639
9.49237864708e-05
0.000113376372076
0.000131109738846
0.000250934521665
0.000131260944902
0.000220628230171
0.000127609542252
0.000138496905023
-0.000184340868864
0.000168465065103
0.000178121994736
0.000186407610736
0.000193503492498
0.000199733521639
7.42146431778e-05
0.000181207522904
0.000186392397757
0.000190302609786
)
;
    }
}


// ************************************************************************* //
