/*--------------------------------*- C++ -*----------------------------------*\
| =========                 |                                                 |
| \\      /  F ield         | OpenFOAM: The Open Source CFD Toolbox           |
|  \\    /   O peration     | Version:  v2012                                 |
|   \\  /    A nd           | Website:  www.openfoam.com                      |
|    \\/     M anipulation  |                                                 |
\*---------------------------------------------------------------------------*/
FoamFile
{
    version     2.0;
    format      ascii;
    class       surfaceScalarField;
    location    "2.6";
    object      alphaPhi0.water;
}
// * * * * * * * * * * * * * * * * * * * * * * * * * * * * * * * * * * * * * //

dimensions      [0 3 -1 0 0 0 0];
oriented        oriented;


internalField   nonuniform List<scalar> 
296
(
-7.27813467426e-05
-0.000121898847455
-8.13897390138e-05
-0.00013587787045
-8.91597674492e-05
-0.000152279940017
-9.43056076971e-05
-0.000173085985491
-9.42416515541e-05
-0.000198390055909
-8.86450073085e-05
-0.000223182498794
-7.87573387647e-05
-0.000242774603324
-6.47498776412e-05
-0.000267192884957
-5.9646193939e-05
-0.000289710658275
-5.7260675068e-05
-0.000276916161873
1.33123157526e-10
-4.83988001488e-05
-1.16162969624e-13
-1.55155612118e-10
-6.17700075965e-12
-1.05091441876e-05
-8.72948818855e-05
-2.05992781246e-05
-8.16886684559e-05
-3.05804202435e-05
-7.86560648726e-05
-7.97900646367e-05
-6.2861221818e-05
-8.9950506099e-05
-7.46402605004e-05
-9.84375069628e-05
-8.63772965366e-05
-0.000110162094591
-9.79178232946e-05
-0.00012433803134
-0.00010938746863
-0.00014081158771
-0.000117866120641
-0.0001646092059
-0.000117702583784
-0.000198556369601
-0.000108697095474
-0.000232192061983
-9.53388964121e-05
-0.000256135722568
-7.68864896725e-05
-0.000285647655598
-6.52067011127e-05
-0.000301392748686
-4.29104770402e-05
-0.000282136368474
-2.0446405767e-08
-5.44687541594e-05
-2.18995709146e-08
1.53087878403e-09
-2.14392428911e-08
-1.15036671512e-05
-7.57914966737e-05
-2.26325271547e-05
-7.05601200326e-05
-3.37643929016e-05
-6.75244301791e-05
-4.53678389943e-05
-6.81864771314e-05
-5.77673115879e-05
-7.13183416059e-05
-7.10933878753e-05
-7.66244623608e-05
-8.5578033232e-05
-8.39531373245e-05
-0.000100451405394
-9.52894734403e-05
-0.00011599243039
-0.000108798265004
-0.000133928944354
-0.000122876769841
-0.000149716691432
-0.000148823579754
-0.000150759543241
-0.000197515371814
-0.000137400485597
-0.00024555301984
-0.000129533168627
-0.000264005068239
-0.000124893549252
-0.00029028931399
-0.00012189548149
-0.000304392689291
-7.97017462591e-05
-0.000288069035897
-1.61421610998e-06
-6.1690507862e-05
-1.63554566246e-06
2.1521043488e-08
2.07769436904e-08
-1.22633431396e-05
-6.35284415051e-05
-2.42150367476e-05
-5.86086625535e-05
-3.62560893279e-05
-5.54835429447e-05
-4.90885502214e-05
-5.5354043161e-05
-6.31878322191e-05
-5.72191068806e-05
-7.89518449654e-05
-6.08606563071e-05
-9.7011769429e-05
-6.58937323816e-05
-0.000116494144317
-7.58081949624e-05
-0.000137496400479
-8.7797632764e-05
-0.000165899453564
-9.44756416123e-05
-0.000195945451867
-0.000118779074783
-0.00019914630337
-0.00019431629382
-0.000170537493334
-0.000274163393013
-0.000168981144321
-0.000265562089764
-0.00019024813406
-0.00026902373554
-0.000220165410699
-0.000274478113402
-0.000166864166927
-0.000252988203766
-9.69348251956e-07
-3.71809976487e-05
-9.41968591534e-07
1.43654963306e-09
2.75459733156e-09
-1.27624037269e-05
-5.07663133746e-05
-2.5218275064e-05
-4.61529868798e-05
-3.78200847714e-05
-4.28818316474e-05
-5.13674217247e-05
-4.18067144751e-05
-6.6947009168e-05
-4.16395534881e-05
-8.63531357763e-05
-4.14547593547e-05
-0.000111501242615
-4.07462190869e-05
-0.000140722193925
-4.65884540133e-05
-0.000170499791193
-5.80218356503e-05
-0.000213828360358
-5.11493631482e-05
-0.000266738482553
-6.5871032507e-05
-0.000272060844071
-0.000188994164155
-0.000217363000545
-0.000328860764744
-0.000217750716427
-0.000265173179673
-0.000258980721438
-0.000227797450301
-0.000346195676014
-0.000187268470522
-0.000275635350203
-0.000127209008515
-2.08320365191e-07
1.05318868249e-05
-2.09772433719e-07
-4.83309385582e-11
1.4133090368e-11
-1.30433848626e-05
-3.77231571968e-05
-2.5696262142e-05
-3.35002519605e-05
-3.84851692656e-05
-3.00929482304e-05
-5.23781671538e-05
-2.79136494836e-05
-6.94077749152e-05
-2.46099047617e-05
-9.47895936665e-05
-1.6073093518e-05
-0.000134713484439
-8.22836414239e-07
-0.000177893147599
-3.40998602899e-06
-0.000209589645014
-2.6327201815e-05
-0.00025765781328
-3.08339159692e-06
-0.000310793748732
-1.27369389327e-05
-0.000334375372758
-0.000165412154282
-0.000276774330682
-0.000386458788585
-0.000278508747474
-0.000263435632086
-0.000336130266449
-0.000170172343369
-0.000465974632369
-5.74299402684e-05
-0.000327775788677
5.3473489022e-05
-1.03162175237e-08
4.10357100703e-05
-3.41916805264e-09
-5.47693246944e-10
-2.28106119802e-10
-1.30085680922e-05
-2.47147476992e-05
-2.54403142296e-05
-2.10685772204e-05
-3.82420357904e-05
-1.72911630217e-05
-5.33920842795e-05
-1.27634327091e-05
-7.32718221193e-05
-4.7299909195e-06
-0.000101272129682
1.19272643067e-05
-0.000138546153328
3.64508189964e-05
-0.000174686149413
3.27290939351e-05
-0.000201014209965
-0.000204098626631
-0.000216835691289
-0.000382246285085
-0.000277663123409
-0.000288165550711
-0.000357181555191
-0.000479058843423
-0.000269032940983
-1.97279967749e-08
-6.48964515998e-11
-1.24228468867e-05
-1.22920125031e-05
-2.3086481015e-05
-1.04049731835e-05
-3.1700738695e-05
-8.67678540275e-06
-3.76100469661e-05
-6.85386468928e-06
-3.91364462183e-05
-3.20327081419e-06
-3.29790705816e-05
5.77012994432e-06
-1.75582995033e-05
2.10301843642e-05
1.51709918197e-05
-1.23661641478e-05
7.38898183725e-08
-2.28459076102e-05
7.46184660378e-08
-3.15973482317e-05
7.46987460199e-08
-3.85234896479e-05
7.25403609412e-08
-4.17975185896e-05
7.12032102246e-08
-3.60901950211e-05
6.33814370331e-08
-1.51186201162e-05
5.9235641671e-08
5.29160591559e-08
-1.23663146379e-05
1.24396795369e-05
-2.28453249656e-05
1.05532463832e-05
-3.1594493958e-05
8.82375938672e-06
-3.85188934785e-05
6.99717194862e-06
-4.17990773572e-05
3.3519929538e-06
-3.60859714825e-05
-5.64881235357e-06
-1.51169807795e-05
-2.09085862307e-05
-1.50634311878e-05
-1.24224533057e-05
-2.30849684726e-05
-3.16971519985e-05
-3.76030622489e-05
-3.91103062773e-05
-3.29625465727e-05
-1.75444380172e-05
)
;

boundaryField
{
    back
    {
        type            calculated;
        value           uniform 0;
    }
    sides
    {
        type            calculated;
        value           nonuniform List<scalar> 0();
    }
    bottom
    {
        type            calculated;
        value           uniform 0;
    }
    front
    {
        type            calculated;
        value           uniform 0;
    }
    atmosphere
    {
        type            calculated;
        value           nonuniform List<scalar> 7(6.04821745707e-23 -1.86309066043e-53 -1.67776328082e-06 -9.23946245171e-07 -2.07031969437e-07 -3.16062713862e-09 -1.19501898016e-10);
    }
    floatingObject
    {
        type            calculated;
        value           uniform 0;
    }
    procBoundary3to4
    {
        type            processor;
        value           nonuniform List<scalar> 
13
(
0.000130996946192
0.0001444866181
0.000160049261357
9.78037316847e-05
9.17784671371e-05
8.86376686776e-05
9.00423805229e-05
0.000101242275529
6.36838606438e-05
0.000110216837525
-4.08333144122e-05
5.15697795001e-05
8.37175397544e-05
)
;
    }
    procBoundary3to5
    {
        type            processor;
        value           nonuniform List<scalar> 10(0.000178230222831 0.000198325325751 0.000217585559593 0.0002328850309 0.000253182719637 0.00028460513391 0.000289443157381 7.04700123364e-05 2.58591524829e-10 1.30233794918e-13);
    }
    procBoundary3to6
    {
        type            processor;
        value           nonuniform List<scalar> 8(-0.000491036371714 -0.000252927190048 -0.000101151715445 6.44319992728e-05 0.000188412206972 5.03562707613e-05 -3.45359519073e-08 -1.73500175953e-10);
    }
    procBoundary3to8
    {
        type            processor;
        value           nonuniform List<scalar> 8(2.4861418936e-05 2.12151770469e-05 1.74356690329e-05 1.29032277604e-05 4.85984923449e-06 -1.1795513405e-05 -3.63254613081e-05 -3.2607311499e-05);
    }
}


// ************************************************************************* //
