/*--------------------------------*- C++ -*----------------------------------*\
| =========                 |                                                 |
| \\      /  F ield         | OpenFOAM: The Open Source CFD Toolbox           |
|  \\    /   O peration     | Version:  v2012                                 |
|   \\  /    A nd           | Website:  www.openfoam.com                      |
|    \\/     M anipulation  |                                                 |
\*---------------------------------------------------------------------------*/
FoamFile
{
    version     2.0;
    format      ascii;
    class       volScalarField;
    location    "2.6";
    object      p;
}
// * * * * * * * * * * * * * * * * * * * * * * * * * * * * * * * * * * * * * //

dimensions      [1 -1 -2 0 0 0 0];


internalField   nonuniform List<scalar> 
164
(
4835.38578861
4341.08856762
3846.35532444
3351.34881412
2856.30337788
2361.53171842
1867.44988291
1374.62302347
883.760047082
401.056868296
77.586592752
-9.11231799951
-9.56460747531
8273.76883712
7783.48204838
7292.59177803
6801.0545432
5815.89242515
5322.19935569
4827.73723906
4332.53056419
3836.66139823
3340.28654668
2843.65627606
2347.11928151
1851.16978128
1356.49759928
863.975561436
381.944336284
68.2962056948
-9.08267674885
-9.57123022001
8268.99025448
7778.65475179
7287.66532862
6795.96637901
6303.5023736
5810.20706971
5315.99942939
4820.80495834
4324.59795656
3827.42799276
3329.4235762
2830.83812507
2332.06742368
1833.70159021
1336.54023941
841.313071249
360.562949702
59.345752598
-9.0882500486
-9.57112588145
8264.87654181
7774.50647331
7283.44624648
6791.63034638
6298.98525052
5805.41061484
5310.75839319
4814.85220083
4317.57794502
3818.95328062
3319.02613829
2818.07302078
2316.56916306
1815.16758486
1314.62895014
815.28163556
335.485100551
49.3182508159
-9.12717472523
-9.56191752742
8261.45901871
7771.07234955
7279.97876869
6788.10721676
6295.37290736
5801.64940801
5306.71187388
4810.20536473
4311.82997982
3811.67782318
3309.53205149
2805.78490485
2300.88044488
1795.66865453
1290.94323233
786.248874
306.260915346
36.3821016567
-9.14315428306
-9.5445709549
8258.75259351
7768.36900773
7277.28581771
6785.43482172
6292.72943089
5799.0224104
5304.0316756
4807.20880748
4307.6657827
3806.37108175
3302.60326241
2794.98173862
2284.58208205
1775.61664513
1266.79453933
755.981508078
275.361452394
24.166500618
-9.10527184537
-9.52913388439
8256.75322791
7766.38946064
7275.36021761
6783.62677383
6291.14830165
5797.80403126
5303.3051891
4806.34507993
4304.88792658
3801.02063776
3293.44309078
2775.64360179
2264.87199825
1755.58127466
1244.16812311
727.6379738
247.379579262
14.8052882483
-9.01893928339
-9.52667187078
8255.43887264
7765.09739827
7274.123233
6782.50380061
6290.26619467
5797.54127851
5304.67064674
4810.33286164
8254.79344512
7764.47010139
7273.5454736
6782.03938392
6290.04341468
5797.72533439
5305.44186109
4813.02459756
8254.79634913
7764.47229799
7273.54639841
6782.03865887
6290.04099253
5797.72202677
5305.43843754
4813.02213671
8255.4475849
7765.10418515
7274.12659013
6782.50292828
6290.26114766
5797.53269385
5304.66150697
4810.32698525
)
;

boundaryField
{
    back
    {
        type            calculated;
        value           nonuniform List<scalar> 
164
(
4835.38578861
4341.08856762
3846.35532444
3351.34881412
2856.30337788
2361.53171842
1867.44988291
1374.62302347
883.760047082
401.056868296
77.586592752
-9.11231799951
-9.56460747531
8273.76883712
7783.48204838
7292.59177803
6801.0545432
5815.89242515
5322.19935569
4827.73723906
4332.53056419
3836.66139823
3340.28654668
2843.65627606
2347.11928151
1851.16978128
1356.49759928
863.975561436
381.944336284
68.2962056948
-9.08267674885
-9.57123022001
8268.99025448
7778.65475179
7287.66532862
6795.96637901
6303.5023736
5810.20706971
5315.99942939
4820.80495834
4324.59795656
3827.42799276
3329.4235762
2830.83812507
2332.06742368
1833.70159021
1336.54023941
841.313071249
360.562949702
59.345752598
-9.0882500486
-9.57112588145
8264.87654181
7774.50647331
7283.44624648
6791.63034638
6298.98525052
5805.41061484
5310.75839319
4814.85220083
4317.57794502
3818.95328062
3319.02613829
2818.07302078
2316.56916306
1815.16758486
1314.62895014
815.28163556
335.485100551
49.3182508159
-9.12717472523
-9.56191752742
8261.45901871
7771.07234955
7279.97876869
6788.10721676
6295.37290736
5801.64940801
5306.71187388
4810.20536473
4311.82997982
3811.67782318
3309.53205149
2805.78490485
2300.88044488
1795.66865453
1290.94323233
786.248874
306.260915346
36.3821016567
-9.14315428306
-9.5445709549
8258.75259351
7768.36900773
7277.28581771
6785.43482172
6292.72943089
5799.0224104
5304.0316756
4807.20880748
4307.6657827
3806.37108175
3302.60326241
2794.98173862
2284.58208205
1775.61664513
1266.79453933
755.981508078
275.361452394
24.166500618
-9.10527184537
-9.52913388439
8256.75322791
7766.38946064
7275.36021761
6783.62677383
6291.14830165
5797.80403126
5303.3051891
4806.34507993
4304.88792658
3801.02063776
3293.44309078
2775.64360179
2264.87199825
1755.58127466
1244.16812311
727.6379738
247.379579262
14.8052882483
-9.01893928339
-9.52667187078
8255.43887264
7765.09739827
7274.123233
6782.50380061
6290.26619467
5797.54127851
5304.67064674
4810.33286164
8254.79344512
7764.47010139
7273.5454736
6782.03938392
6290.04341468
5797.72533439
5305.44186109
4813.02459756
8254.79634913
7764.47229799
7273.54639841
6782.03865887
6290.04099253
5797.72202677
5305.43843754
4813.02213671
8255.4475849
7765.10418515
7274.12659013
6782.50292828
6290.26114766
5797.53269385
5304.66150697
4810.32698525
)
;
    }
    sides
    {
        type            calculated;
        value           nonuniform List<scalar> 0();
    }
    bottom
    {
        type            calculated;
        value           nonuniform List<scalar> 10(8518.57745784 8513.7988582 8509.68519384 8506.26767523 8503.56122851 8501.56186905 8500.24750536 8499.6020766 8499.60499048 8500.25622655);
    }
    front
    {
        type            calculated;
        value           nonuniform List<scalar> 
164
(
4835.38578861
4341.08856762
3846.35532444
3351.34881412
2856.30337788
2361.53171842
1867.44988291
1374.62302347
883.760047082
401.056868296
77.586592752
-9.11231799951
-9.56460747531
8273.76883712
7783.48204838
7292.59177803
6801.0545432
5815.89242515
5322.19935569
4827.73723906
4332.53056419
3836.66139823
3340.28654668
2843.65627606
2347.11928151
1851.16978128
1356.49759928
863.975561436
381.944336284
68.2962056948
-9.08267674885
-9.57123022001
8268.99025448
7778.65475179
7287.66532862
6795.96637901
6303.5023736
5810.20706971
5315.99942939
4820.80495834
4324.59795656
3827.42799276
3329.4235762
2830.83812507
2332.06742368
1833.70159021
1336.54023941
841.313071249
360.562949702
59.345752598
-9.0882500486
-9.57112588145
8264.87654181
7774.50647331
7283.44624648
6791.63034638
6298.98525052
5805.41061484
5310.75839319
4814.85220083
4317.57794502
3818.95328062
3319.02613829
2818.07302078
2316.56916306
1815.16758486
1314.62895014
815.28163556
335.485100551
49.3182508159
-9.12717472523
-9.56191752742
8261.45901871
7771.07234955
7279.97876869
6788.10721676
6295.37290736
5801.64940801
5306.71187388
4810.20536473
4311.82997982
3811.67782318
3309.53205149
2805.78490485
2300.88044488
1795.66865453
1290.94323233
786.248874
306.260915346
36.3821016567
-9.14315428306
-9.5445709549
8258.75259351
7768.36900773
7277.28581771
6785.43482172
6292.72943089
5799.0224104
5304.0316756
4807.20880748
4307.6657827
3806.37108175
3302.60326241
2794.98173862
2284.58208205
1775.61664513
1266.79453933
755.981508078
275.361452394
24.166500618
-9.10527184537
-9.52913388439
8256.75322791
7766.38946064
7275.36021761
6783.62677383
6291.14830165
5797.80403126
5303.3051891
4806.34507993
4304.88792658
3801.02063776
3293.44309078
2775.64360179
2264.87199825
1755.58127466
1244.16812311
727.6379738
247.379579262
14.8052882483
-9.01893928339
-9.52667187078
8255.43887264
7765.09739827
7274.123233
6782.50380061
6290.26619467
5797.54127851
5304.67064674
4810.33286164
8254.79344512
7764.47010139
7273.5454736
6782.03938392
6290.04341468
5797.72533439
5305.44186109
4813.02459756
8254.79634913
7764.47229799
7273.54639841
6782.03865887
6290.04099253
5797.72202677
5305.43843754
4813.02213671
8255.4475849
7765.10418515
7274.12659013
6782.50292828
6290.26114766
5797.53269385
5304.66150697
4810.32698525
)
;
    }
    atmosphere
    {
        type            calculated;
        value           nonuniform List<scalar> 7(-9.81063207053 -9.81047151948 -9.81056149425 -9.81328555264 -9.82687186982 -9.83876766174 -9.82937178197);
    }
    floatingObject
    {
        type            calculated;
        value           nonuniform List<scalar> 8(4304.88792658 3801.02063776 3293.44309078 2775.64360179 4565.52435367 4568.21610573 4568.21365083 4565.51856986);
    }
    procBoundary3to4
    {
        type            processor;
        value           nonuniform List<scalar> 
13
(
4843.54989808
4350.05576982
3856.2906501
8279.16863406
7788.93998217
7298.16723085
6806.81638225
5822.31140315
5329.1444845
5329.1444845
6308.83228913
6308.83228913
6308.83228913
)
;
    }
    procBoundary3to5
    {
        type            processor;
        value           nonuniform List<scalar> 10(3362.41240294 2868.63234221 2375.22239811 1882.52406664 1390.93669234 900.950339113 417.6367016 85.6409208537 -9.13226562406 -9.55731640344);
    }
    procBoundary3to6
    {
        type            processor;
        value           nonuniform List<scalar> 8(2243.93862915 1737.81207975 1224.93270269 700.582263493 223.838912151 8.8930124939 -8.93682539551 -9.54425835401);
    }
    procBoundary3to8
    {
        type            processor;
        value           nonuniform List<scalar> 8(8256.7679017 7766.40133572 7275.36705405 6783.62724195 6291.14236748 5797.79342081 5303.29342959 4806.3388296);
    }
}


// ************************************************************************* //
