/*--------------------------------*- C++ -*----------------------------------*\
| =========                 |                                                 |
| \\      /  F ield         | OpenFOAM: The Open Source CFD Toolbox           |
|  \\    /   O peration     | Version:  v2012                                 |
|   \\  /    A nd           | Website:  www.openfoam.com                      |
|    \\/     M anipulation  |                                                 |
\*---------------------------------------------------------------------------*/
FoamFile
{
    version     2.0;
    format      ascii;
    class       volScalarField;
    location    "3.7";
    object      p;
}
// * * * * * * * * * * * * * * * * * * * * * * * * * * * * * * * * * * * * * //

dimensions      [1 -1 -2 0 0 0 0];


internalField   nonuniform List<scalar> 
166
(
8383.82264364
7894.04015511
7404.06511538
6913.89229674
6423.50727828
5932.88646231
5441.99862078
4950.80397518
4459.25239664
3967.28099263
3474.81030093
2981.73866766
2487.93451239
1993.22919845
1497.40414884
1000.25350274
500.879639461
119.124037107
-8.34386258079
-9.53818399766
8375.49359519
7885.67481883
7395.62845748
6905.34783222
6414.8181747
5924.01491238
5432.90551656
4941.44836503
4449.59087836
3957.26654593
3464.39074841
2970.85443944
2476.51554728
1981.18973046
1484.63427123
986.572764799
486.032790373
111.046200199
-8.69046953898
-9.57180823121
8367.37327955
7877.52302312
7387.41611035
6897.0446696
6406.39422056
5915.44043692
5424.15112087
4932.4849299
4440.38949204
3947.79840834
3454.62683135
2960.76517553
2466.07055335
1970.35695676
1473.3781803
974.864004653
473.927900607
104.913662951
-8.86908349672
-9.57162544844
8359.49253526
7869.61600103
7379.45917201
6889.01385478
6398.26638281
5907.19384767
5415.76579592
4923.94333787
4431.67703267
3938.90425806
3445.54517141
2951.49707085
2456.62657091
1960.76091817
1463.67341223
965.121640265
464.866267968
100.993273107
-8.98155355108
-9.56606801412
8351.87725709
7861.97932495
7371.78277125
6881.27967958
6390.45770266
5899.29630122
5407.76825297
4915.8388073
4423.46402195
3930.58853014
3437.14233123
2943.03630717
2448.15586506
1952.35495855
1455.44490496
957.209688224
458.405622903
98.7500230415
-9.02961954256
-9.5804111136
8344.5484261
7854.63332037
7364.4064807
6873.86007372
6382.98377797
5891.76018181
5400.16635993
4908.17321156
4415.74435718
3922.83454736
3429.3874714
2935.3325434
2440.58118952
1945.02386783
1448.521289
950.919569228
453.669338761
97.29385813
-9.04582555456
-9.56754830318
8337.52262243
7847.59380344
7357.34467148
6866.76737925
6375.8538417
5884.59032595
5392.95894351
4900.93739466
4408.49822531
3915.6081866
3422.22709526
2928.3062451
2433.78689253
1938.60147344
1442.68022897
946.043604925
450.311344066
96.3710322814
-9.05589185427
-9.56285191038
8330.81286145
7840.87184369
7350.60783864
6860.00942718
6369.07195582
5877.78554663
5386.13784169
4894.11375092
4401.69543721
3908.86254546
3415.59180399
2921.85781755
2427.63257051
1932.88510717
1437.57772082
942.601597184
448.034403855
95.7643563749
-9.06512930571
-9.56229395344
8324.4299383
7834.47435862
7344.20311473
8318.38996302
8312.66938146
8307.28437371
)
;

boundaryField
{
    back
    {
        type            calculated;
        value           nonuniform List<scalar> 
166
(
8383.82264364
7894.04015511
7404.06511538
6913.89229674
6423.50727828
5932.88646231
5441.99862078
4950.80397518
4459.25239664
3967.28099263
3474.81030093
2981.73866766
2487.93451239
1993.22919845
1497.40414884
1000.25350274
500.879639461
119.124037107
-8.34386258079
-9.53818399766
8375.49359519
7885.67481883
7395.62845748
6905.34783222
6414.8181747
5924.01491238
5432.90551656
4941.44836503
4449.59087836
3957.26654593
3464.39074841
2970.85443944
2476.51554728
1981.18973046
1484.63427123
986.572764799
486.032790373
111.046200199
-8.69046953898
-9.57180823121
8367.37327955
7877.52302312
7387.41611035
6897.0446696
6406.39422056
5915.44043692
5424.15112087
4932.4849299
4440.38949204
3947.79840834
3454.62683135
2960.76517553
2466.07055335
1970.35695676
1473.3781803
974.864004653
473.927900607
104.913662951
-8.86908349672
-9.57162544844
8359.49253526
7869.61600103
7379.45917201
6889.01385478
6398.26638281
5907.19384767
5415.76579592
4923.94333787
4431.67703267
3938.90425806
3445.54517141
2951.49707085
2456.62657091
1960.76091817
1463.67341223
965.121640265
464.866267968
100.993273107
-8.98155355108
-9.56606801412
8351.87725709
7861.97932495
7371.78277125
6881.27967958
6390.45770266
5899.29630122
5407.76825297
4915.8388073
4423.46402195
3930.58853014
3437.14233123
2943.03630717
2448.15586506
1952.35495855
1455.44490496
957.209688224
458.405622903
98.7500230415
-9.02961954256
-9.5804111136
8344.5484261
7854.63332037
7364.4064807
6873.86007372
6382.98377797
5891.76018181
5400.16635993
4908.17321156
4415.74435718
3922.83454736
3429.3874714
2935.3325434
2440.58118952
1945.02386783
1448.521289
950.919569228
453.669338761
97.29385813
-9.04582555456
-9.56754830318
8337.52262243
7847.59380344
7357.34467148
6866.76737925
6375.8538417
5884.59032595
5392.95894351
4900.93739466
4408.49822531
3915.6081866
3422.22709526
2928.3062451
2433.78689253
1938.60147344
1442.68022897
946.043604925
450.311344066
96.3710322814
-9.05589185427
-9.56285191038
8330.81286145
7840.87184369
7350.60783864
6860.00942718
6369.07195582
5877.78554663
5386.13784169
4894.11375092
4401.69543721
3908.86254546
3415.59180399
2921.85781755
2427.63257051
1932.88510717
1437.57772082
942.601597184
448.034403855
95.7643563749
-9.06512930571
-9.56229395344
8324.4299383
7834.47435862
7344.20311473
8318.38996302
8312.66938146
8307.28437371
)
;
    }
    sides
    {
        type            calculated;
        value           nonuniform List<scalar> 0();
    }
    bottom
    {
        type            calculated;
        value           nonuniform List<scalar> 
12
(
8628.63118184
8620.30213749
8612.18191223
8604.30119161
8596.68592499
8589.35708669
8582.33129473
8575.62152486
8569.23861024
8563.19880087
8557.47860414
8552.0935979
)
;
    }
    front
    {
        type            calculated;
        value           nonuniform List<scalar> 
166
(
8383.82264364
7894.04015511
7404.06511538
6913.89229674
6423.50727828
5932.88646231
5441.99862078
4950.80397518
4459.25239664
3967.28099263
3474.81030093
2981.73866766
2487.93451239
1993.22919845
1497.40414884
1000.25350274
500.879639461
119.124037107
-8.34386258079
-9.53818399766
8375.49359519
7885.67481883
7395.62845748
6905.34783222
6414.8181747
5924.01491238
5432.90551656
4941.44836503
4449.59087836
3957.26654593
3464.39074841
2970.85443944
2476.51554728
1981.18973046
1484.63427123
986.572764799
486.032790373
111.046200199
-8.69046953898
-9.57180823121
8367.37327955
7877.52302312
7387.41611035
6897.0446696
6406.39422056
5915.44043692
5424.15112087
4932.4849299
4440.38949204
3947.79840834
3454.62683135
2960.76517553
2466.07055335
1970.35695676
1473.3781803
974.864004653
473.927900607
104.913662951
-8.86908349672
-9.57162544844
8359.49253526
7869.61600103
7379.45917201
6889.01385478
6398.26638281
5907.19384767
5415.76579592
4923.94333787
4431.67703267
3938.90425806
3445.54517141
2951.49707085
2456.62657091
1960.76091817
1463.67341223
965.121640265
464.866267968
100.993273107
-8.98155355108
-9.56606801412
8351.87725709
7861.97932495
7371.78277125
6881.27967958
6390.45770266
5899.29630122
5407.76825297
4915.8388073
4423.46402195
3930.58853014
3437.14233123
2943.03630717
2448.15586506
1952.35495855
1455.44490496
957.209688224
458.405622903
98.7500230415
-9.02961954256
-9.5804111136
8344.5484261
7854.63332037
7364.4064807
6873.86007372
6382.98377797
5891.76018181
5400.16635993
4908.17321156
4415.74435718
3922.83454736
3429.3874714
2935.3325434
2440.58118952
1945.02386783
1448.521289
950.919569228
453.669338761
97.29385813
-9.04582555456
-9.56754830318
8337.52262243
7847.59380344
7357.34467148
6866.76737925
6375.8538417
5884.59032595
5392.95894351
4900.93739466
4408.49822531
3915.6081866
3422.22709526
2928.3062451
2433.78689253
1938.60147344
1442.68022897
946.043604925
450.311344066
96.3710322814
-9.05589185427
-9.56285191038
8330.81286145
7840.87184369
7350.60783864
6860.00942718
6369.07195582
5877.78554663
5386.13784169
4894.11375092
4401.69543721
3908.86254546
3415.59180399
2921.85781755
2427.63257051
1932.88510717
1437.57772082
942.601597184
448.034403855
95.7643563749
-9.06512930571
-9.56229395344
8324.4299383
7834.47435862
7344.20311473
8318.38996302
8312.66938146
8307.28437371
)
;
    }
    atmosphere
    {
        type            calculated;
        value           nonuniform List<scalar> 8(-9.81 -9.81002222762 -9.81001254457 -9.81019152794 -9.84763597123 -9.81355263769 -9.81000104869 -9.80999968215);
    }
    floatingObject
    {
        type            calculated;
        value           nonuniform List<scalar> 0();
    }
    procBoundary9to6
    {
        type            processor;
        value           nonuniform List<scalar> 4(518.002581117 129.197333779 -7.53182800658 -9.52227857834);
    }
    procBoundary9to7
    {
        type            processor;
        value           nonuniform List<scalar> 
16
(
8392.32269208
7902.58082933
7412.68710541
6922.6376632
6432.41966033
5942.01179174
5451.38599648
4960.50654724
4469.32851362
3977.79585522
3485.83819101
2993.36614163
2500.26513231
2006.39185126
1511.56839888
1015.67229621
)
;
    }
    procBoundary9to10
    {
        type            processor;
        value           nonuniform List<scalar> 
15
(
6853.59019132
6362.63802465
5871.34031506
5379.6900997
4887.67944173
4395.30001866
3902.54371182
3409.40448188
7828.39571201
6853.59019132
7338.1366958
7828.39571201
7822.68309887
7817.30376987
8302.24235169
)
;
    }
    procBoundary9to11
    {
        type            processor;
        value           nonuniform List<scalar> 9(2915.88025368 2421.97521746 1927.71869625 1433.20897525 938.782086662 446.259329606 95.3023916186 -9.07045312939 -9.56257986257);
    }
}


// ************************************************************************* //
