/*--------------------------------*- C++ -*----------------------------------*\
| =========                 |                                                 |
| \\      /  F ield         | OpenFOAM: The Open Source CFD Toolbox           |
|  \\    /   O peration     | Version:  v2012                                 |
|   \\  /    A nd           | Website:  www.openfoam.com                      |
|    \\/     M anipulation  |                                                 |
\*---------------------------------------------------------------------------*/
FoamFile
{
    version     2.0;
    format      ascii;
    class       volVectorField;
    location    "3.7";
    object      U_0;
}
// * * * * * * * * * * * * * * * * * * * * * * * * * * * * * * * * * * * * * //

dimensions      [0 1 -1 0 0 0 0];


internalField   nonuniform List<vector> 
166
(
(-0.00508354940314 0.000649750799773 -4.96932489953e-22)
(-0.0068421266796 0.00198821048819 -2.32833162315e-22)
(-0.00800568808909 0.00325553451279 -1.21500056491e-22)
(-0.00876671074179 0.00459098420282 3.05735361117e-23)
(-0.00929693282984 0.00598986206536 1.69537356385e-23)
(-0.00980126690715 0.00749943661218 3.90501736781e-24)
(-0.0103913285837 0.0091553703411 -7.71872025793e-25)
(-0.0111169932916 0.0109902890982 2.52900291426e-24)
(-0.0120155874839 0.0130452856471 2.18359142559e-24)
(-0.0131233564252 0.015366438541 1.01720763881e-23)
(-0.0144809313059 0.0180011664559 1.29560607347e-23)
(-0.0161352893472 0.0210050518507 -2.23327025824e-23)
(-0.018128057856 0.024441378762 -6.23992804341e-23)
(-0.0204739701583 0.0283562086401 -2.95902578227e-22)
(-0.0233725306944 0.0326190603621 -1.42089613193e-21)
(-0.0276385537264 0.0395723546064 -8.58293485648e-22)
(-0.0341482827343 0.0358479740202 -8.07561458318e-21)
(-0.0380866069919 0.035955777295 -2.24068459479e-20)
(-0.0163582555409 0.059360024632 -2.19345616366e-20)
(-0.105556386697 0.123902635724 -5.04081040299e-21)
(-0.00635217110193 0.000599804088507 -5.18644768303e-22)
(-0.00808182097054 0.00185274643874 -2.12342728908e-22)
(-0.00925632641977 0.00301677743355 -8.08107126322e-23)
(-0.0100657191699 0.00424577819822 4.66078955817e-24)
(-0.0106817834558 0.00552707424328 -3.61995802703e-24)
(-0.0113048391908 0.00690298868335 -1.07798310577e-23)
(-0.0120444925743 0.00840536663652 -2.88280918562e-24)
(-0.0129545399392 0.0100613498837 1.29174902222e-23)
(-0.0140717356186 0.011903059866 -5.0607182053e-24)
(-0.0154388440453 0.0139686738339 2.43819249147e-24)
(-0.0171041360045 0.0162948068283 1.06603091577e-24)
(-0.0191166035048 0.0189156638534 -1.14686890653e-22)
(-0.0215247037706 0.0218667869244 -2.62228050762e-22)
(-0.024331993319 0.0252365988023 -8.97285195489e-22)
(-0.0275433354232 0.028717171988 -1.99968596286e-21)
(-0.0317047694835 0.0345152416616 -1.145698845e-21)
(-0.0380893060572 0.0297165726218 -6.53795057366e-21)
(-0.0427271348615 0.0292882925899 -2.20706431242e-20)
(-0.042531995438 0.0462206930476 -2.14818864805e-20)
(-0.106709940861 0.0297662512737 -1.97640271292e-21)
(-0.00752213891062 0.0005412166846 -4.9265217771e-22)
(-0.00921743190943 0.00169013736005 -1.84322232751e-22)
(-0.0103939507011 0.00272909022207 -1.03829288416e-22)
(-0.0112416274976 0.00382874648542 -4.66898839338e-23)
(-0.0119303287683 0.00496648082446 -2.66081278767e-23)
(-0.0126544721743 0.00618240547726 -1.51260012909e-23)
(-0.0135176038808 0.00750254447752 -3.00710017827e-24)
(-0.0145785575735 0.00894907339381 -5.14153977325e-24)
(-0.0158751125297 0.0105447248651 8.98428934293e-24)
(-0.0174522018477 0.0123142088479 5.12813554338e-24)
(-0.0193620495627 0.0142859400152 -1.34436873455e-23)
(-0.0216600631024 0.016474695036 -1.59696863377e-22)
(-0.0243746090557 0.0188927096933 -4.34465095026e-22)
(-0.0274724457356 0.0216086041293 -1.37803475974e-21)
(-0.0308703581148 0.0243535819298 -2.72564505142e-21)
(-0.0345110452901 0.029028121769 -2.98138131553e-21)
(-0.0403223361357 0.0236449175184 -4.06913598764e-21)
(-0.0448819209348 0.0230241842016 -1.4242429662e-20)
(-0.0464876581647 0.0345162980262 -1.4567759769e-20)
(-0.0550251600164 0.00749196088296 -4.10142174267e-21)
(-0.00856824665727 0.00047148430399 -5.10536396791e-22)
(-0.0102307854696 0.00149982386777 -2.37423150366e-22)
(-0.0113980205417 0.00239747303797 -1.91904502407e-22)
(-0.0122719689505 0.00334842711816 -8.54434172843e-23)
(-0.0130166096837 0.00432313960736 -4.84043364879e-23)
(-0.0138187981971 0.00536219518752 -1.48787676586e-23)
(-0.0147811919998 0.00648069180253 -1.28435812475e-23)
(-0.0159606083142 0.00769208898648 3.18658704702e-24)
(-0.0173962760719 0.00901551465896 8.85091726301e-24)
(-0.0191330803571 0.010464546929 -3.88158859412e-24)
(-0.0212228871483 0.0120501531645 9.91916439249e-24)
(-0.0237192518573 0.0137810851651 -1.72395077668e-22)
(-0.0266330733338 0.0156510172292 -5.21237843321e-22)
(-0.0298932148193 0.0176813136264 -1.6433657148e-21)
(-0.0332191475364 0.0196137045029 -3.04799352306e-21)
(-0.0363225318352 0.0232002875904 -4.1059972511e-22)
(-0.0411685359361 0.0178119793173 -3.33330934601e-21)
(-0.0453059443296 0.0173133391338 -1.93279180724e-20)
(-0.0438121893297 0.0254890249263 -1.97712026338e-20)
(-0.0215708627916 0.0108137332446 -4.2898497512e-21)
(-0.00948358752849 0.000392118432468 -5.24623777335e-22)
(-0.0111024780544 0.00128504538126 -2.61276774012e-22)
(-0.0122528789326 0.00203200419684 -2.81638589616e-22)
(-0.0131404035702 0.00281919759998 -1.15756938166e-22)
(-0.013925064467 0.00361770087884 -5.42336490325e-23)
(-0.0147846632188 0.00446191846575 -1.62830819643e-23)
(-0.0158216634531 0.00536156752859 -9.53819986874e-24)
(-0.0170867589107 0.00632518641118 4.46412779964e-24)
(-0.0186191727482 0.00736122108032 -2.7610101217e-23)
(-0.0204639267973 0.0084726382222 -3.70574606278e-23)
(-0.0226680011231 0.00966285029084 -6.23945768956e-24)
(-0.0252716027172 0.0109308753727 -1.27862611545e-22)
(-0.0282876909416 0.0122446849829 -4.63540084e-22)
(-0.0316049574395 0.0136147558351 -1.41695322173e-21)
(-0.0347311553743 0.0146510059013 -2.67635290569e-21)
(-0.037219261337 0.0172702806173 1.23451728025e-21)
(-0.0413737519568 0.0124585478966 -3.95212219932e-21)
(-0.0453474015296 0.0123107130634 -2.09102433345e-20)
(-0.0414991493582 0.0193675514044 -2.06070502285e-20)
(-0.00841941743403 0.0120322887714 -3.36212910676e-21)
(-0.0102542756208 0.000309518884921 -4.54758343649e-22)
(-0.0118205186913 0.00105521080737 -2.3204784282e-22)
(-0.0129457175244 0.00163984872734 -1.8573906936e-22)
(-0.0138371599206 0.00225273256249 -4.54292442644e-23)
(-0.0146452122933 0.00286450957343 -2.00948994393e-23)
(-0.0155430236704 0.00350600333013 -1.12577336234e-23)
(-0.0166262384446 0.00417845679652 -6.49596808323e-24)
(-0.0179439722704 0.00488558141105 -5.0334528058e-24)
(-0.0195326748068 0.00562728019877 -1.36882263559e-23)
(-0.0214310678364 0.00640002521535 -2.0255047478e-23)
(-0.0236775271722 0.00720227667257 -4.86497553831e-23)
(-0.0263136386089 0.00801271149142 -7.99489285473e-23)
(-0.02933953325 0.00877491570904 -2.39421829646e-22)
(-0.0326075033502 0.00950911826197 -9.1915690129e-22)
(-0.0355164692492 0.00977215141915 -2.19132163772e-21)
(-0.0373540745834 0.0113957982705 -1.68178420173e-21)
(-0.0413591647191 0.00737804508776 -7.53263455695e-21)
(-0.0457955254517 0.00767205360984 -1.19303249417e-20)
(-0.0405742604281 0.013151428756 -1.16483945437e-20)
(-0.00414437183206 0.0103595418222 -1.02032316605e-21)
(-0.0108624868061 0.000220154003722 -2.26159524787e-22)
(-0.0123721563965 0.000814171178941 1.67578140797e-23)
(-0.0134658444104 0.00123172139738 6.08163667157e-23)
(-0.0143519851897 0.00166410906545 6.3380677548e-23)
(-0.0151686791994 0.00208488302579 1.67357355991e-23)
(-0.0160858978151 0.00251755246937 -1.44607002469e-23)
(-0.0171913885389 0.002959765888 -9.41721550759e-24)
(-0.0185293136452 0.00340958052136 1.05604434145e-23)
(-0.020132527204 0.00386313047564 1.52707391446e-23)
(-0.0220321701035 0.00431141147624 7.0600009589e-24)
(-0.0242644133447 0.00473788955075 -3.49361563402e-23)
(-0.0268627583279 0.00510853275244 -8.42529606105e-23)
(-0.0298023513384 0.00535326093449 -2.26597248004e-22)
(-0.032911809502 0.00548821852663 -8.59911761983e-22)
(-0.0355999110957 0.00525482354441 -2.2406721328e-21)
(-0.0370649926854 0.00600134656125 -2.50289611989e-21)
(-0.0411549057238 0.00259984411783 -5.93182326125e-21)
(-0.046281243495 0.00314982722009 -1.04668888815e-20)
(-0.0409091645137 0.00683134055554 -1.06581234918e-20)
(-0.00381519707921 0.00669365962947 -2.44895681632e-21)
(-0.0113121725668 0.000126968734028 -1.04387902617e-22)
(-0.0127546205529 0.000566112558002 1.82442530567e-22)
(-0.0138131219836 0.000811320448818 1.39884020395e-22)
(-0.0146825023483 0.00106200991465 7.15927916961e-23)
(-0.0154963394213 0.00129141314689 -2.66215686868e-23)
(-0.0164148078401 0.00151653622917 -1.62004058883e-23)
(-0.017519816209 0.00173271411013 -1.2197366109e-24)
(-0.0188478627608 0.00193426839131 1.65995076644e-23)
(-0.0204304079044 0.00211249805184 4.12484144814e-23)
(-0.0222929157151 0.0022504360388 1.33171277292e-23)
(-0.0244651207917 0.00232788733059 -1.57945468736e-23)
(-0.0269596372144 0.00230660768433 -8.3719079701e-23)
(-0.0297341674618 0.00210489118817 -2.50197394692e-22)
(-0.0326004252279 0.00174555368695 -9.41344768077e-22)
(-0.0350656595063 0.00127833930898 -3.53699817207e-21)
(-0.0367854703757 0.00123285706605 -7.73239900664e-21)
(-0.0408656584085 -0.00193263549505 -7.08705237936e-21)
(-0.0465139903906 -0.0013850007715 -1.06200639957e-20)
(-0.0413526608902 0.001690014313 -1.05034398712e-20)
(-0.00423390602276 0.00183718318242 -1.52971014808e-21)
(-0.0115950726934 4.19083916932e-05 -5.2363689666e-23)
(-0.0129774177108 0.000320554650158 2.02279241886e-22)
(-0.013988857874 0.000391515554572 8.39240132934e-23)
(-0.0117128945584 -5.14522977803e-05 -2.87212173708e-23)
(-0.0116749164889 -0.00014136676774 1.2615962463e-22)
(-0.0114830809003 -0.000223981247116 2.69417810266e-22)
)
;

boundaryField
{
    back
    {
        type            noSlip;
    }
    sides
    {
        type            noSlip;
    }
    bottom
    {
        type            noSlip;
    }
    front
    {
        type            noSlip;
    }
    atmosphere
    {
        type            pressureInletOutletVelocity;
        value           nonuniform List<vector> 8((-0.105556386697 0.123902635724 -5.04081040299e-21) (0 0.0297662512737 0) (0 0.00749196088296 0) (-0.0215708627916 0.0108137332446 -4.2898497512e-21) (-0.00841941743403 0.0120322887714 -3.36212910676e-21) (-0.00414437183206 0.0103595418222 -1.02032316605e-21) (-0.00381519707921 0.00669365962947 -2.44895681632e-21) (-0.00423390602276 0.00183718318242 -1.52971014808e-21));
    }
    floatingObject
    {
        type            movingWallVelocity;
        value           nonuniform List<vector> 0();
    }
    procBoundary9to6
    {
        type            processor;
        value           nonuniform List<vector> 4((-0.0284737413042 0.0416950059965 -5.11712163845e-21) (-0.0316073255079 0.0421431354946 -1.29069737259e-20) (0.0189489707971 0.0630932845844 -1.2049309033e-20) (-0.044588311424 0.152138810346 1.43727379533e-20));
    }
    procBoundary9to7
    {
        type            processor;
        value           nonuniform List<vector> 
16
(
(-0.00373654840729 0.000694866452558 -4.37894039533e-22)
(-0.00551863113301 0.00209011943109 -2.24762249041e-22)
(-0.00666600415177 0.00343556716435 -1.59739907498e-22)
(-0.00737022420138 0.00485291751686 6.01230742794e-23)
(-0.00780339011411 0.00634211940633 2.27401890174e-23)
(-0.00817398266553 0.0079543634463 -4.60721493552e-24)
(-0.00859311552125 0.00972863512966 -1.70639381195e-23)
(-0.00910855382458 0.0117040375986 4.15842414729e-24)
(-0.0097525434064 0.0139288486605 -3.86309813828e-24)
(-0.0105537255281 0.0164547969252 -1.81693717485e-23)
(-0.0115460214301 0.0193414322846 2.01088874757e-23)
(-0.0127702801782 0.0226586034308 5.70533823221e-23)
(-0.0142574928737 0.0264771269087 2.7489707768e-22)
(-0.0160254625135 0.030917771753 6.57205189144e-22)
(-0.0184390208904 0.0357733593597 -5.13959786946e-22)
(-0.0222768976877 0.0437530051597 1.71767626281e-21)
)
;
    }
    procBoundary9to10
    {
        type            processor;
        value           nonuniform List<vector> 
15
(
(-0.0148313742557 0.000462434321964 2.97119232577e-23)
(-0.015628702526 0.00050169590992 -2.88034673219e-23)
(-0.0165305346164 0.00052348388531 -9.51360927332e-24)
(-0.0176121859148 0.000523488952012 2.33337040603e-24)
(-0.0189088012902 0.000488054516471 1.4650312075e-23)
(-0.0204460924892 0.00040348486592 2.9943315586e-23)
(-0.0222439464432 0.000253525760379 8.7318504978e-24)
(-0.0243211018431 2.00010536066e-05 -1.90088883618e-23)
(-0.0130314405483 7.04677539758e-05 1.79175288857e-22)
(-0.0148313742557 0.000462434321964 2.97119232577e-23)
(-0.0139919464196 -1.66878840081e-05 -1.54237851445e-23)
(-0.0130314405483 7.04677539758e-05 1.79175288857e-22)
(-0.012915435284 -0.000170401744745 1.78542734902e-22)
(-0.0126454956389 -0.000397339187624 4.32401382966e-22)
(-0.0111515849578 -0.000299392399434 6.50743944231e-22)
)
;
    }
    procBoundary9to11
    {
        type            processor;
        value           nonuniform List<vector> 9((-0.0266785202531 -0.000333323579588 -4.90737748987e-23) (-0.029267392247 -0.000874656748113 -2.7749014732e-22) (-0.0318946409763 -0.00153581678429 -1.130752737e-21) (-0.0342351968256 -0.0021514028252 -3.65241568947e-21) (-0.0365394299143 -0.00261205233766 -5.84877337639e-21) (-0.040622650607 -0.00586515673101 -1.16547856522e-20) (-0.0462341882435 -0.0061960485138 -1.60470481516e-20) (-0.0410941530528 -0.00308528326202 -1.59479998805e-20) (-0.00567495446637 -0.00470796944448 -2.98444403565e-21));
    }
}


// ************************************************************************* //
