/*--------------------------------*- C++ -*----------------------------------*\
| =========                 |                                                 |
| \\      /  F ield         | OpenFOAM: The Open Source CFD Toolbox           |
|  \\    /   O peration     | Version:  v2012                                 |
|   \\  /    A nd           | Website:  www.openfoam.com                      |
|    \\/     M anipulation  |                                                 |
\*---------------------------------------------------------------------------*/
FoamFile
{
    version     2.0;
    format      ascii;
    class       surfaceScalarField;
    location    "0.9";
    object      alphaPhi0.water;
}
// * * * * * * * * * * * * * * * * * * * * * * * * * * * * * * * * * * * * * //

dimensions      [0 3 -1 0 0 0 0];
oriented        oriented;


internalField   nonuniform List<scalar> 
300
(
4.68825963286e-05
-0.00012841958088
9.60307899298e-05
-0.000133071115821
0.000146444542235
-0.000128461811562
0.000199697158977
-0.000116314559761
0.000260477838814
-9.54960977516e-05
0.000335566686429
-6.2450128273e-05
0.000442392698938
-1.38058744193e-05
0.000614419952636
6.36334398671e-05
0.000654491661144
-4.00728502618e-05
0.000800418512654
-0.000145929291743
0.00101128166455
-0.000210868822957
0.00129815721219
-0.000286885434522
0.00119716482728
-0.000546935580912
-0.000652445784448
5.06987847121e-05
-0.000179118205903
0.000104113844844
-0.000186485913261
0.000160027952749
-0.000184375480314
0.000220515861068
-0.000176801819831
0.000289392216495
-0.000164371733616
0.000373708195277
-0.000146765494282
0.00048835603398
-0.000128453393657
0.000655345454636
-0.000103356411691
0.000789752785526
-0.000174481799606
0.000903339851978
-0.00025951933687
0.00104235762642
-0.000349891652786
0.00119599782309
-0.00044053329703
0.00121716205478
-0.000568109201021
-0.000704049354366
5.31480342428e-05
-0.000232266033614
0.000109279442288
-0.000242617019646
0.000168298140665
-0.000243393706617
0.000232444257366
-0.000240947283422
0.000305154858254
-0.00023708165775
0.000391775488282
-0.000233385540117
0.00049803809314
-0.000234715767837
0.000635473156164
-0.000240792072506
0.000751018974037
-0.000290029183202
0.000855033589406
-0.000363536789662
0.000954754174505
-0.000449616364695
0.00105368519947
-0.000539470405073
0.00112892113272
-0.000643352695353
-0.000765310839264
5.40710761155e-05
-0.000286336866553
0.000111154372356
-0.000299700103456
0.00017094912109
-0.000303187839576
0.000235311791359
-0.000305309115581
0.000306604513797
-0.000308373643521
0.000387591985607
-0.00031437237818
0.0004798353521
-0.000326958848492
0.000587169327249
-0.000348126646838
0.000689031501316
-0.000391892671784
0.000781367797734
-0.000455875403667
0.000864668513147
-0.000532920524649
0.000943868382644
-0.000618675077564
0.0010153067452
-0.000714796963111
-0.000827673157029
5.3639652835e-05
-0.000339976331258
0.000110117135603
-0.000356177231485
0.000168895403776
-0.000361965638519
0.000231299087303
-0.000367712345001
0.000298781116941
-0.000375854852426
0.000372629330357
-0.000388219864139
0.00045306000553
-0.000407389507674
0.000540516894956
-0.000435583819154
0.000626808158658
-0.000478184951195
0.000706686568713
-0.000535755689294
0.000779128188409
-0.000605364856657
0.000845203648919
-0.000684754219281
0.000904198007394
-0.000773795783583
-0.000877261543505
5.21167107147e-05
-0.000392092698874
0.000106760319051
-0.000410820403244
0.000163243541706
-0.000418448391437
0.000222408409412
-0.000426876747491
0.000285091581065
-0.000438537484548
0.000351836872764
-0.000454964806384
0.000422427749741
-0.000477980369662
0.000496152610313
-0.000509308879619
0.000569223254363
-0.000551256334549
0.000637985365456
-0.000604519204897
0.000700598136332
-0.000667979612607
0.000756088911296
-0.000740247647508
0.000802708732521
-0.000820418733863
-0.000909833234294
4.97684356566e-05
-0.000441861345675
0.000101686754069
-0.000462738953444
0.000155015930617
-0.000471777839768
0.00021022267751
-0.000482083488951
0.00026774878214
-0.000496063577167
0.000327759194084
-0.000514975146193
0.000389883158193
-0.000540104272916
0.000453201316568
-0.000572627166358
0.000515604917823
-0.000613660439506
0.000574702303435
-0.000663617538961
0.00062869193623
-0.000721970574019
0.000676097663109
-0.000787655104375
0.00071486872438
-0.000859191708738
-0.000934644997228
4.6833201459e-05
-0.000488694912252
9.54198921986e-05
-0.000511325984301
0.000145046838333
-0.000521405026664
0.00019591497536
-0.000532951769329
0.000248220572262
-0.000548369201101
0.00030193944386
-0.000568694018297
0.00035666703526
-0.000594831861984
0.000411580738156
-0.000627540954397
0.000465325112174
-0.000667405122456
0.000516308988881
-0.000714601992534
0.000563110916587
-0.000768773295217
0.000604540415821
-0.000829085563934
0.000639516935013
-0.000894169128274
-0.000961770113924
4.3496873071e-05
-0.000532192245263
8.83643092423e-05
-0.000556193848195
0.000133962603287
-0.000567003678993
0.000180320456379
-0.00057930995211
0.000227488254879
-0.000595537190843
0.000275353569428
-0.000616559420915
0.000323534507743
-0.000643012901662
0.000371362480445
-0.000675369059704
0.000417891958037
-0.000713934801561
0.000462041467578
-0.000758751832362
0.000502799524766
-0.000809531779661
0.000539360883884
-0.000865647336962
0.000571353590393
-0.000926162032426
-0.000990065356092
3.98874322952e-05
-0.000572080231899
8.08050697821e-05
-0.000597112032938
0.000122204683925
-0.00060840379004
0.000164011964473
-0.000621117621501
0.000206195636629
-0.000637721251759
0.000248607329607
-0.000658971333201
0.000290907817123
-0.000685313700919
0.000332574007194
-0.000717035484871
0.000372921576894
-0.000754282629473
0.00041119184427
-0.000797022390436
0.000446662737358
-0.000845002962287
0.000478787428227
-0.000897772164047
0.000507382164981
-0.000954756635337
-0.00101567839206
3.61055341966e-05
7.29520706098e-05
0.000110087137959
0.00014738209724
0.000184762324959
0.000222070689573
0.000259016518077
0.000295188160682
0.000330085056461
-0.000789179960714
0.000363160658018
-0.000830098368906
0.00039390213628
-0.000875744767665
0.000421864507189
-0.000925734693308
0.000446720966697
-0.000979613030743
-0.00103702368454
0.000289104015144
0.000317502522367
0.00034393822733
0.000368076952224
-0.000949873844961
0.000389566295158
-0.00100110263836
-0.00105529800471
0.000316946408459
0.000335565179878
-0.00107165909845
)
;

boundaryField
{
    back
    {
        type            calculated;
        value           uniform 0;
    }
    sides
    {
        type            calculated;
        value           nonuniform List<scalar> 0();
    }
    bottom
    {
        type            calculated;
        value           uniform 0;
    }
    front
    {
        type            calculated;
        value           uniform 0;
    }
    atmosphere
    {
        type            calculated;
        value           nonuniform List<scalar> 0();
    }
    floatingObject
    {
        type            calculated;
        value           uniform 0;
    }
    procBoundary8to3
    {
        type            processor;
        value           nonuniform List<scalar> 8(8.15371058366e-05 8.39232280183e-05 7.80486532744e-05 6.30628687263e-05 3.47165589782e-05 -1.26375233666e-05 -9.3019441029e-05 -0.00023566038125);
    }
    procBoundary8to6
    {
        type            processor;
        value           nonuniform List<scalar> 
16
(
0.000647908613153
0.000594506168725
0.00125508321651
0.00126875663268
0.00119017513926
0.00107766319442
0.000953781991754
0.000835277411216
0.000739678748808
0.000666641364299
0.000599648861201
0.00053299553752
0.000468066525801
0.000407840394588
0.000351925388577
0.000298424983489
)
;
    }
    procBoundary8to7
    {
        type            processor;
        value           nonuniform List<scalar> 
17
(
-0.000608186361409
-0.000633959148009
-0.000645539401468
-0.000658412970741
-0.00067510187004
-0.000696280169734
-0.000722260014976
-0.000753207563135
-0.000259129958966
-0.000819154780644
-0.00085849740923
-0.00090218096281
-0.000296308218814
-0.000970513068104
-0.00101972217493
-0.000283763842851
-0.00108632180839
)
;
    }
}


// ************************************************************************* //
