/*--------------------------------*- C++ -*----------------------------------*\
| =========                 |                                                 |
| \\      /  F ield         | OpenFOAM: The Open Source CFD Toolbox           |
|  \\    /   O peration     | Version:  v2012                                 |
|   \\  /    A nd           | Website:  www.openfoam.com                      |
|    \\/     M anipulation  |                                                 |
\*---------------------------------------------------------------------------*/
FoamFile
{
    version     2.0;
    format      ascii;
    class       volVectorField;
    location    "0.9";
    object      U_0;
}
// * * * * * * * * * * * * * * * * * * * * * * * * * * * * * * * * * * * * * //

dimensions      [0 1 -1 0 0 0 0];


internalField   nonuniform List<vector> 
164
(
(-0.0210491841369 0.00626236243561 1.66309458164e-21)
(-0.021644455651 0.0137924929802 -9.54015329097e-22)
(-0.0204345457698 0.0241972282295 -2.07832010261e-22)
(-0.0173582987588 0.0349078323685 8.82136990874e-22)
(-0.0116471355269 0.0463364536973 9.34497058925e-21)
(-0.00215917804772 0.0605786650055 5.13967603744e-20)
(0.0128042151166 0.077163222072 3.55202286032e-19)
(0.0409194693716 0.10513820218 2.94374227168e-18)
(0.0186238305292 0.129855388967 9.20710535974e-18)
(-0.0103449125144 0.148575281722 2.18585245516e-17)
(-0.0276390116253 0.179333088122 1.24399493375e-17)
(-0.0425646444311 0.239895402671 1.66190483522e-17)
(-0.12360807928 0.258779949046 1.12751348979e-17)
(-0.128751528756 0.246436561262 5.4092894789e-18)
(-0.0310379285919 0.00669097100235 2.50481117826e-21)
(-0.0321448959925 0.014960406023 -1.63958862982e-21)
(-0.0314195085792 0.0262639710658 -7.76832092865e-22)
(-0.0293906783833 0.0382176971189 9.70683059908e-23)
(-0.0261041386668 0.0511189478074 1.82077624428e-21)
(-0.0215527234339 0.0663924693891 4.95263605519e-21)
(-0.0169519616627 0.0855065583879 4.10171269548e-20)
(-0.00994271607359 0.115423086632 4.73495682601e-19)
(-0.0307593920212 0.14455440243 1.06093574631e-18)
(-0.044889520092 0.172462465853 3.17350530948e-18)
(-0.0589607707181 0.196889926825 2.54724141378e-18)
(-0.0745313654771 0.226129974164 1.33532524292e-18)
(-0.110173404258 0.246926540965 9.12850061438e-19)
(-0.13168884764 0.252879681698 3.99242495442e-19)
(-0.0416645086637 0.00692270634166 5.55787259988e-21)
(-0.043342344794 0.015742719725 -1.4233787411e-21)
(-0.043195914494 0.027574917046 -2.10475079828e-22)
(-0.0422166360002 0.0402389738084 4.00825555932e-22)
(-0.0406690935578 0.0539626812013 7.1406413939e-22)
(-0.0387228695716 0.0699029768193 1.30728590568e-21)
(-0.037197201198 0.0890350314181 5.71163223953e-21)
(-0.0355403830226 0.113994233671 3.60874411304e-20)
(-0.0459262086159 0.139885455579 8.92723000657e-20)
(-0.0626537666127 0.162935806668 1.19514055516e-19)
(-0.0809481176757 0.183499854505 4.55509216089e-20)
(-0.100552811534 0.203447479937 1.14711685432e-20)
(-0.124894268206 0.221142646645 -1.06943549196e-19)
(-0.148132693119 0.234885655317 4.26951317312e-20)
(-0.0526195091635 0.00695549206052 4.85600697584e-21)
(-0.0548940496045 0.0160715005573 -1.50723012481e-21)
(-0.0553294536516 0.0280357448347 2.1133872028e-22)
(-0.0553605035774 0.0408248036451 5.14639930239e-22)
(-0.0554032656241 0.0544788415351 3.99198919683e-22)
(-0.0558423248939 0.0697789806176 2.52156803514e-22)
(-0.0575356952925 0.08718746784 5.89927427329e-22)
(-0.0609153570134 0.107531905416 -7.12520826646e-22)
(-0.0704271965834 0.128869544612 1.31173108934e-21)
(-0.0842726219096 0.148939007792 1.12423714324e-21)
(-0.100622714021 0.166947152532 -1.26805743391e-21)
(-0.11868715287 0.183363791633 -2.05440132758e-21)
(-0.138775564936 0.198883049092 1.73179974876e-20)
(-0.161405831125 0.212345669346 -9.71980684115e-21)
(-0.0635951053899 0.00682508784298 2.91040769235e-21)
(-0.0664486760922 0.0159834149982 -1.96064424398e-21)
(-0.0673935903827 0.0277521948158 6.31568658887e-23)
(-0.0682563819664 0.0402500641924 1.29552224336e-21)
(-0.0695028653278 0.0533555580497 5.3253841475e-22)
(-0.0715272125018 0.0675913883876 2.53682945766e-22)
(-0.0749574016489 0.0831838288519 3.13505335765e-22)
(-0.0803058850949 0.100272142227 -3.91459346625e-22)
(-0.0891910561981 0.117966859389 1.50247305342e-22)
(-0.101406477625 0.134984677433 1.46227461233e-21)
(-0.116139618143 0.150595367116 1.66765322701e-21)
(-0.132848660072 0.164697572662 2.68729397404e-21)
(-0.151633683169 0.177686174278 -8.85512297351e-22)
(-0.173403133221 0.188519062242 4.60049280391e-21)
(-0.0743406692322 0.00656917129864 3.17019056377e-21)
(-0.0777227174807 0.0155534577 -2.4715008187e-21)
(-0.0790832427758 0.0268809891223 -2.08944065951e-22)
(-0.0805770969988 0.0388129474609 1.02470798244e-21)
(-0.0826747631929 0.05112434878 3.54653011365e-22)
(-0.0857146836988 0.0641770846961 2.756171544e-22)
(-0.0901346601424 0.0780796641893 3.32002528465e-22)
(-0.0963467986208 0.0927484484516 1.13147611736e-22)
(-0.105029183477 0.107685762169 3.21936601881e-22)
(-0.116270528851 0.122156634315 8.3315774081e-22)
(-0.129726436757 0.135589640758 3.61139484505e-22)
(-0.145082788879 0.147649375402 4.10035968814e-22)
(-0.162253162007 0.158229452831 8.85590985101e-22)
(-0.181733561354 0.166249713752 8.47344998173e-23)
(-0.0846636542267 0.00621937532123 4.50510069417e-21)
(-0.0885050290103 0.0148644182369 -8.50216130711e-22)
(-0.0901895374733 0.0255777939974 5.67363693689e-22)
(-0.092135196275 0.0367713938664 4.7242677873e-22)
(-0.0948058888052 0.0481679840008 3.1051537211e-22)
(-0.0984786241941 0.0600267682492 3.98869736852e-22)
(-0.103460786338 0.0723919389882 2.78792934548e-22)
(-0.110041919077 0.0851280051414 1.03986280301e-22)
(-0.118540202136 0.0979085001283 6.04228332541e-22)
(-0.129045418723 0.110280221086 6.46648568532e-22)
(-0.141403556389 0.121815427222 6.03394062773e-22)
(-0.155391093435 0.132153733693 5.66370276417e-22)
(-0.170787451892 0.140990627849 5.12557371159e-22)
(-0.187492984796 0.147367682239 1.1902318431e-21)
(-0.0944217638563 0.00580203466904 3.13243119742e-21)
(-0.0986482514477 0.0139923321825 -1.09771429282e-21)
(-0.100576770159 0.0239753272794 2.41013122189e-22)
(-0.102829427764 0.034327858368 8.65054604244e-22)
(-0.105866320916 0.0447575532393 2.37459619671e-22)
(-0.109913527264 0.0554544014828 2.03600992461e-22)
(-0.115187587147 0.0664280462301 2.06110149407e-22)
(-0.121878635989 0.0775469162771 9.2585583402e-23)
(-0.130149177179 0.0885791316769 4.23560135613e-22)
(-0.140049078928 0.0992261894428 7.75589926194e-22)
(-0.151490225597 0.109180352906 3.20794602806e-22)
(-0.164290462557 0.118160506473 3.41909446685e-22)
(-0.178174009927 0.12593712825 -1.04741051769e-22)
(-0.192712750535 0.132006931339 -3.79931325646e-22)
(-0.103517220881 0.00533681671349 1.22639697627e-21)
(-0.108056817926 0.0129973769121 -1.98374844418e-21)
(-0.110162296791 0.0221757212765 -4.28805621549e-22)
(-0.112610650013 0.0316316455156 3.19948947587e-22)
(-0.115864693893 0.0410812551852 1.77354204373e-22)
(-0.120112109492 0.0506649133601 4.33529371018e-23)
(-0.125505112032 0.060374732385 8.03995891304e-23)
(-0.132164169601 0.0700979808264 -6.65686413436e-24)
(-0.140175116863 0.0796645192494 8.59463412311e-23)
(-0.149555865612 0.0888687173713 -4.1407133519e-23)
(-0.160241245714 0.0974956825738 -2.4326715936e-22)
(-0.172086804748 0.105354533353 6.87923731164e-24)
(-0.184868338542 0.112338184431 -6.67324241627e-23)
(-0.198278357249 0.118397765665 6.78497040094e-25)
(-0.11189043186 0.00483773193882 3.67128257185e-22)
(-0.116674417966 0.0119212843729 -1.9008968667e-21)
(-0.118901081712 0.0202516202612 -2.242324773e-22)
(-0.121462062863 0.0287874226857 2.58361178926e-22)
(-0.124828592695 0.0372658410546 1.58709936037e-22)
(-0.12916053976 0.0457896390565 1.41322756309e-22)
(-0.134564455991 0.0543427167831 1.47759752305e-22)
(-0.141114648517 0.062832785543 1.68873047633e-22)
(-0.148855521825 0.0711334047894 1.73426692344e-22)
(-0.157786014705 0.0790980793046 -3.68744746915e-23)
(-0.167851241354 0.0865771656158 1.22807971733e-23)
(-0.178942309828 0.0934408157516 -2.73793708892e-23)
(-0.190908061618 0.0996259951037 2.64890169333e-22)
(-0.203612738725 0.105098203614 5.46893743945e-22)
(-0.119504670712 0.00431828795199 3.81053131007e-22)
(-0.124469769543 0.0107945357877 2.42292960228e-22)
(-0.12677280581 0.0182556709602 1.90435398983e-22)
(-0.129386374807 0.0258687559827 4.86836307027e-22)
(-0.132793708952 0.033396589698 2.12421977902e-22)
(-0.137134978754 0.0409124977868 1.54080969732e-22)
(-0.142484545113 0.0483969725653 1.73985248264e-22)
(-0.148886500561 0.0557754258412 -4.76261221373e-23)
(-0.156361232625 0.0629525757502 1.4881249363e-22)
(-0.164898457413 0.069822356647 2.16843364465e-22)
(-0.174449141276 0.0762792934957 -3.01129253229e-22)
(-0.184929543263 0.0822275677298 5.8342658674e-23)
(-0.196233253614 0.0876002244022 -4.5667765963e-22)
(-0.208286032059 0.0922967949519 -4.54660865368e-23)
(-0.162816185643 0.0550885673692 1.03369871138e-22)
(-0.171009910022 0.0609681753771 1.79820705573e-22)
(-0.180130375968 0.0664967569673 1.98024277444e-22)
(-0.190106096604 0.0716032539236 9.17437335036e-23)
(-0.200841898296 0.0762258366436 3.66022954308e-22)
(-0.212238413472 0.0802622282294 3.3884326154e-23)
(-0.194532779621 0.0614687720589 3.66096762126e-24)
(-0.2048154035 0.0654180852618 -7.74465074989e-23)
(-0.215697857864 0.0689523589272 -2.93324156475e-22)
(-0.218757036941 0.0580728182566 1.0127113605e-24)
)
;

boundaryField
{
    back
    {
        type            noSlip;
    }
    sides
    {
        type            noSlip;
    }
    bottom
    {
        type            noSlip;
    }
    front
    {
        type            noSlip;
    }
    atmosphere
    {
        type            pressureInletOutletVelocity;
        value           nonuniform List<vector> 0();
    }
    floatingObject
    {
        type            movingWallVelocity;
        value           nonuniform List<vector> 4((0 -4.4408920985e-15 5.55111512313e-16) (0 -4.4408920985e-15 5.55111512313e-16) (0 0 0) (0 -8.881784197e-15 5.55111512313e-16));
    }
    procBoundary8to3
    {
        type            processor;
        value           nonuniform List<vector> 8((-0.0120362200493 0.00567688749859 2.70469490306e-21) (-0.0122929205561 0.0123672476229 4.61670530009e-21) (-0.0111885602777 0.0213633380548 1.27630232687e-21) (-0.00849889088943 0.0293263139853 3.33560498755e-21) (-0.00320457370864 0.0354268228039 3.23976361162e-20) (0.00628679960857 0.0389040785392 2.72237806889e-19) (0.020731343683 0.0325240397814 1.4862871713e-18) (0.0422725717762 0.0309789325616 7.31677117808e-18));
    }
    procBoundary8to6
    {
        type            processor;
        value           nonuniform List<vector> 
16
(
(-0.104222813601 0.147589412693 9.63123528278e-18)
(-0.115575328424 0.140486261772 6.37102121492e-18)
(-0.132287414537 0.254555449948 3.44286164847e-18)
(-0.144414852868 0.263951562012 -8.42245741317e-19)
(-0.167194628387 0.252728377211 3.3576160569e-19)
(-0.185882749672 0.228189866708 -9.24803334048e-20)
(-0.198603457228 0.199723008804 1.98969194673e-20)
(-0.204088584181 0.172300211357 -3.89652418278e-21)
(-0.20517485721 0.150835374409 -1.37929766103e-21)
(-0.206672455161 0.13619064783 1.48648244585e-21)
(-0.211647167306 0.124568309978 -1.78688645282e-21)
(-0.217015437727 0.110433313816 -1.31721834287e-21)
(-0.221092531251 0.0964247733448 1.68862806551e-21)
(-0.224160904858 0.0836498987222 -5.65537069682e-22)
(-0.226982885002 0.0720813257231 9.8736857092e-22)
(-0.229748320373 0.0609081187952 -6.26064882969e-22)
)
;
    }
    procBoundary8to7
    {
        type            processor;
        value           nonuniform List<vector> 
17
(
(-0.126335773459 0.00379023237276 -1.63956817404e-22)
(-0.131427417799 0.00964157003646 -1.13604821946e-21)
(-0.13377308546 0.0162277657595 -1.25119831375e-22)
(-0.136397610802 0.0229287402347 1.18613815619e-22)
(-0.139797779461 0.0295316159362 5.57533404834e-23)
(-0.144099969032 0.0360866449707 5.05809458818e-23)
(-0.149356812986 0.0425733680043 5.74335723933e-23)
(-0.155593630893 0.0489317170665 1.01988975304e-22)
(-0.155593630893 0.0489317170665 1.01988975304e-22)
(-0.168309951773 0.0475085989121 1.10200060115e-22)
(-0.176205065637 0.0524736056665 -1.51985227117e-23)
(-0.184966779318 0.0571419777899 -2.32184004627e-22)
(-0.184966779318 0.0571419777899 -2.32184004627e-22)
(-0.198251689527 0.0517140478073 1.37281322528e-22)
(-0.208203387007 0.055019764867 -4.05174696586e-22)
(-0.208203387007 0.055019764867 -4.05174696586e-22)
(-0.221394415182 0.0473851287787 2.37623992912e-23)
)
;
    }
}


// ************************************************************************* //
