/*--------------------------------*- C++ -*----------------------------------*\
| =========                 |                                                 |
| \\      /  F ield         | OpenFOAM: The Open Source CFD Toolbox           |
|  \\    /   O peration     | Version:  v2012                                 |
|   \\  /    A nd           | Website:  www.openfoam.com                      |
|    \\/     M anipulation  |                                                 |
\*---------------------------------------------------------------------------*/
FoamFile
{
    version     2.0;
    format      ascii;
    class       surfaceVectorField;
    location    "0.9";
    object      ddtCorrDdt0(Uf);
}
// * * * * * * * * * * * * * * * * * * * * * * * * * * * * * * * * * * * * * //

dimensions      [0 1 -2 0 0 0 0];


internalField   nonuniform List<vector> 
306
(
(0.00492263582183 -0.0508439631842 2.7439110095e-21)
(0.00742102797101 -0.0481064393592 1.85279844475e-21)
(0.00533038591214 -0.0589729658247 1.89049236955e-21)
(0.00813193934125 -0.0560041261772 1.02897771162e-21)
(0.00578737301085 -0.0679046355356 4.79661140173e-24)
(0.00893287186927 -0.0646570612431 -9.2012653357e-23)
(0.00627283851882 -0.0777321285553 2.64737520578e-22)
(0.0098270872644 -0.0742108811429 -2.42743420113e-22)
(0.0066210645965 -0.0885260256689 7.32888191198e-22)
(0.0107918917938 -0.0847273610704 -7.58086536317e-22)
(0.00633261670046 -0.100095678614 6.07535361642e-22)
(0.0115655292911 -0.0957134420347 8.89813527441e-22)
(0.00519271161974 -0.1117193569 1.46486986068e-22)
(0.0116180271801 -0.107725527588 2.39825876528e-22)
(0.00538365755559 -0.123349185066 6.03909039469e-22)
(0.0116232564181 -0.124144320285 -1.3908618285e-21)
(0.0166208400319 -0.137129793858 -9.14963235838e-21)
(0.0137751686165 -0.139667922146 1.60381302123e-21)
(0.0879558541685 -0.156685216083 -3.76572367424e-20)
(0.0195527420344 -0.146692717427 4.85968204869e-21)
(0.813102008418 -0.232533687256 -1.62576521692e-19)
(0.0758510102202 -0.156723197226 -6.55157953076e-20)
(0.302231077966 -0.264150893747 -6.63784507638e-20)
(0.0115170414984 -0.0531553708229 1.37865146868e-22)
(0.0151173264585 -0.0488308758253 1.25888578757e-21)
(0.0126686329906 -0.0615667805016 -9.53527311286e-22)
(0.0165474454094 -0.0568121842279 -1.19701253022e-21)
(0.0139564543256 -0.0707867324783 -3.39552684872e-22)
(0.0181539166262 -0.0655495723931 1.99460077822e-23)
(0.0153756683909 -0.0808990704566 -1.26556747701e-21)
(0.0199378116921 -0.075193013068 -4.62923883152e-22)
(0.0168439817065 -0.0919891218577 -6.01161200074e-22)
(0.021877693069 -0.0858555844695 -7.03820601748e-22)
(0.0181856269719 -0.104308570406 5.22104042326e-22)
(0.0238787019846 -0.0970464935798 9.73543367258e-22)
(0.019590865432 -0.118558433482 -1.29752293804e-21)
(0.0258597880425 -0.109166285754 -6.19387231225e-22)
(0.0212510400577 -0.135081212663 -3.90957846737e-22)
(0.0281376906251 -0.12694056883 -5.56060176633e-21)
(0.0213572673316 -0.152156649849 1.56131274283e-20)
(0.0308437445467 -0.146973378179 4.97069669099e-22)
(0.0206715807329 -0.167441141134 -2.29988765165e-20)
(0.0348340875235 -0.14963615977 8.25261991312e-21)
(-0.123073711801 -0.150136453323 3.06822756204e-20)
(0.0585480787874 -0.155838475513 -5.9415102972e-20)
(0.223739457074 -0.155546569397 2.85050242844e-20)
(0.0195539976293 -0.052379532965 -7.59918895245e-23)
(0.0214375775587 -0.0606801291887 -2.23539211155e-22)
(0.0248469236085 -0.0553265736117 1.07237748544e-22)
(0.0235470478925 -0.0697905691612 -1.03425190497e-22)
(0.027264132714 -0.0638764139067 -1.67468866119e-22)
(0.0258756196822 -0.0798129159143 9.88229921081e-23)
(0.0299565950934 -0.0733387632503 -2.97919592461e-23)
(0.0283851567968 -0.0908557682562 8.70883965584e-22)
(0.0329140407614 -0.0838507897906 3.16447114241e-22)
(0.0310369627166 -0.103078951675 -1.67947906293e-22)
(0.0360925668688 -0.0949299560384 9.24081935706e-22)
(0.0339759505566 -0.116733491753 -4.88246605951e-21)
(0.0395035811192 -0.106809358946 -6.38706671575e-22)
(0.037416194756 -0.131721757125 -4.67257425049e-21)
(0.0431150048603 -0.12384697657 -1.76380863104e-21)
(0.0408542460912 -0.147252428971 -6.86343784608e-21)
(0.0463661291801 -0.142589804005 -1.66596564326e-21)
(0.0602838368217 -0.161006753363 -2.81636065424e-20)
(0.048584866329 -0.143539724262 -9.05446397766e-21)
(0.186693242463 -0.173652462329 -6.15923543081e-20)
(0.0711951083187 -0.150653261606 -2.69711805774e-20)
(0.127570387039 -0.0286663651749 -5.05614985212e-20)
(0.0302856920127 -0.058412016112 1.63308093581e-22)
(0.0332666913742 -0.0672625437044 -9.38356348674e-23)
(0.0361105344507 -0.0609813063674 -1.48337640969e-22)
(0.0365771982249 -0.0770290019832 1.87832162887e-22)
(0.0397168973301 -0.0701203638042 1.77604456662e-23)
(0.0401993504924 -0.0878379047518 3.69645084363e-22)
(0.0437133953954 -0.0803079900149 2.24939266516e-22)
(0.0441253208263 -0.0998356514916 4.53323170425e-22)
(0.0480781897186 -0.0910560887788 5.71421647425e-22)
(0.0483087801002 -0.113189371642 2.4799507569e-21)
(0.0528436163237 -0.102625339435 3.0235092026e-22)
(0.0524477612681 -0.127968888699 1.2427999762e-21)
(0.0578816453632 -0.11931670388 2.33361354488e-21)
(0.0568297511009 -0.144310064134 -3.85699177484e-21)
(0.0626980044114 -0.137459657069 -1.69434415181e-21)
(0.0655383085212 -0.165027735427 -7.86203801263e-21)
(0.0692987524922 -0.138892836862 -3.67919250861e-21)
(-0.0484014490163 -0.166022652075 -1.59403247905e-20)
(0.07219225864 -0.145584514886 -2.68801132899e-20)
(-0.468315966877 0.148391773079 -9.10676799512e-20)
(0.0424107143315 -0.0636838344985 -3.6741560435e-23)
(0.0445745209117 -0.0571579045709 -2.49849726037e-23)
(0.0466918260202 -0.0730547655999 5.48675492953e-23)
(0.0490791383218 -0.0658516203378 -1.32712332096e-23)
(0.0514156843581 -0.0834467179998 4.26715829577e-22)
(0.0540934465395 -0.0755681500181 1.73396716957e-22)
(0.0565959813426 -0.0949914786384 4.20449397259e-22)
(0.0596083695973 -0.0857926037371 6.82659578711e-22)
(0.0621732392666 -0.107840648163 1.56013708238e-22)
(0.0656773626136 -0.0968059227399 8.6515400914e-23)
(0.06781621353 -0.12210702536 -6.03530583124e-22)
(0.0721341194651 -0.112847351494 8.90955880156e-23)
(0.0745137765354 -0.137965338897 -1.51654488558e-21)
(0.0785467944036 -0.129934094848 6.90795311821e-23)
(0.0759257526277 -0.156378757535 -2.26972677859e-20)
(0.0877085440868 -0.132211176813 -2.25248420178e-21)
(-0.314556148533 -0.158421208468 -1.02007468451e-19)
(0.0742355914413 -0.13428564205 -3.95404519328e-20)
(-1.20132160223 0.280213444918 -2.34748010818e-19)
(0.0510512948779 -0.0591868516825 -1.51464537822e-24)
(0.0525464950293 -0.0524893053698 -2.41930311199e-23)
(0.0562713788917 -0.068039213205 1.05257934452e-22)
(0.0579210764018 -0.0606293659639 -5.72860168823e-23)
(0.0620483127075 -0.0778679929634 4.29340466091e-22)
(0.0639086509188 -0.0697519982339 1.78303511535e-22)
(0.0684037317789 -0.0887753128434 3.48725582366e-22)
(0.0704999811747 -0.0793131236826 9.26959649992e-22)
(0.0752751995231 -0.100861971449 1.95972806916e-23)
(0.0777480377782 -0.0895950880267 -7.9574692879e-22)
(0.0824060570925 -0.114207902751 7.61705702322e-22)
(0.0854662560453 -0.104692155323 -2.89920653951e-21)
(0.0913099513559 -0.129092779675 -6.66859785014e-22)
(0.0934225975196 -0.120101850523 5.68665038813e-21)
(0.0884422413941 -0.146785062584 -1.90956683487e-20)
(0.105397543245 -0.122677784158 2.85138635243e-21)
(-0.624897974253 -0.158150927391 -1.72280994301e-19)
(0.0856041966686 -0.122944281188 -3.55391603883e-20)
(-2.23697862624 0.417803638741 -3.46036701121e-19)
(0.0591555826733 -0.0538170809397 -7.9964402624e-23)
(0.0599297788853 -0.0470146724313 -2.30580547019e-23)
(0.0652751931157 -0.0620461887091 1.57595602006e-23)
(0.0661389827835 -0.0545034235673 -1.73602274823e-22)
(0.072043052174 -0.0712018558024 6.75922695437e-22)
(0.0730503192618 -0.0629333406481 2.20386025461e-22)
(0.0794645892386 -0.0813562080703 -2.17512861164e-22)
(0.0806386904505 -0.0717462695266 1.17374730096e-21)
(0.0874194364686 -0.0925355477487 -3.714550749e-21)
(0.0889120329349 -0.0812364010027 -2.46104584832e-21)
(0.0956331635153 -0.104596583775 2.02573814629e-21)
(0.0975144752237 -0.0953241956728 -9.72540182231e-21)
(0.105663108491 -0.117261258559 9.20489652557e-21)
(0.10607907463 -0.109064511111 1.49975568817e-21)
(0.0980513189601 -0.129504810116 -1.35921056871e-20)
(0.117638359506 -0.110963191314 -1.50585813157e-20)
(-1.45809390939 -0.130614764414 -2.09294867208e-19)
(0.0867199069282 -0.112419249003 -2.32662665252e-20)
(-3.13065561635 0.0449627602568 -4.47762212671e-19)
(0.0666137045055 -0.0476129847242 -1.16695926901e-22)
(0.0666321352351 -0.0407677114253 -1.94436088323e-23)
(0.0735943439557 -0.055128285392 3.10241904378e-23)
(0.0736430082801 -0.0475144912658 -9.75819587218e-23)
(0.0813007560993 -0.0635324965635 7.18210630987e-22)
(0.0814409319049 -0.055167553239 1.59317024577e-22)
(0.0897053971396 -0.07288912785 -1.06978568619e-21)
(0.0899806141419 -0.0631812567213 6.93528162872e-22)
(0.0985777520637 -0.0832115184707 -8.47189692163e-21)
(0.099220414891 -0.07190980606 -1.72044928615e-21)
(0.10741630683 -0.0943398530008 -1.02513842804e-20)
(0.108631383284 -0.0851881336831 -4.00854094456e-21)
(0.117119797635 -0.105714328845 -2.27637221531e-20)
(0.117446394144 -0.0982256904323 -6.11756104398e-21)
(0.102950971596 -0.115288875892 -2.47327421538e-20)
(0.127210593292 -0.10073363251 -2.49009582197e-20)
(-1.7931494523 -0.111984360188 -2.61733611988e-19)
(0.0834195671868 -0.102691574498 -1.82219002109e-20)
(-1.97029776397 -0.871055007748 -2.40164937119e-19)
(0.0733294358919 -0.0406084303862 -3.29640653195e-25)
(0.072564674171 -0.0337803049635 -1.60478981893e-23)
(0.0811409264701 -0.0473234410484 3.07108754173e-23)
(0.080347282022 -0.0396934690784 -6.96685716922e-23)
(0.0897610194886 -0.0549051407077 1.34634556462e-22)
(0.0890099910799 -0.0464808583845 9.63636159956e-23)
(0.0991439795423 -0.0634422246568 4.28645629136e-23)
(0.0985043531967 -0.0536271723692 2.18636168845e-22)
(0.109000020603 -0.0730220940008 2.74290669093e-21)
(0.108787853562 -0.061565633011 -1.00559909054e-22)
(0.118681434602 -0.0837146209459 1.25282291898e-22)
(0.119313953766 -0.074106451241 2.5176785663e-21)
(0.128574907708 -0.0955785302656 -8.25479711061e-21)
(0.129304179494 -0.0866656132816 -1.79279622945e-21)
(0.114072933022 -0.108622295248 -1.83901162768e-20)
(0.140252291247 -0.0903412673514 -8.69206596268e-21)
(-0.274350219421 -0.129357331618 3.34677465769e-21)
(0.104165113834 -0.0962847003189 -3.76802006341e-20)
(1.06920788509 -1.07888749001 2.25177055832e-19)
(0.0792136760713 -0.0328331473908 -8.53868292283e-23)
(0.0776344343884 -0.0260849111972 -1.19559321248e-23)
(0.0878299901825 -0.0386529645581 -4.0158311139e-24)
(0.0861570442259 -0.0310665299272 -5.81116029449e-23)
(0.0973542565469 -0.0453172664238 1.80365228378e-22)
(0.0956627405039 -0.0368836695676 1.0690651473e-22)
(0.107748714873 -0.0529371077567 7.52116968779e-23)
(0.106112276717 -0.0430554789343 4.67462573301e-22)
(0.1187368573 -0.0616491838101 -3.25788033681e-22)
(0.117489061388 -0.050063920632 4.63040712611e-22)
(0.12977515896 -0.0716223645336 5.99600044955e-22)
(0.129278590489 -0.0615565179799 1.64976246886e-21)
(0.141453848233 -0.0834170907343 -2.23006508151e-21)
(0.14109375571 -0.0728849715261 -4.31646692393e-21)
(0.132017314271 -0.0982272130724 -2.798215032e-20)
(0.155060778012 -0.0757245966427 -1.23757072544e-20)
(1.93643889514 -0.122341659047 1.8415008054e-19)
(0.128288949824 -0.0893351741301 -2.87059062995e-20)
(1.76404226745 -0.203365257655 1.51318520077e-19)
(0.0841701247034 -0.0243184602649 1.53192941586e-23)
(0.0817450946623 -0.0177192921957 2.03149027256e-23)
(0.0935598309896 -0.0291382255553 5.28107428992e-23)
(0.0909676454095 -0.0216651593243 -4.39168201681e-23)
(0.103968610449 -0.034769102574 3.94003859653e-22)
(0.101283291073 -0.0263963705232 9.57075744777e-23)
(0.115374656409 -0.0413298387951 8.55291589035e-22)
(0.112662559504 -0.0314682799611 9.99513283378e-22)
(0.127509109828 -0.0489579732192 2.43859121515e-21)
(0.125107884586 -0.0374004679248 1.06806378962e-21)
(0.13984487359 -0.0577441737765 -3.26630450003e-21)
(0.138057629049 -0.0475786220244 2.76832036568e-21)
(0.152915832074 -0.0674636616621 -1.44621090968e-20)
(0.150809073199 -0.0572510618978 -5.90428053218e-21)
(0.14524642929 -0.0768818634705 -1.3099463234e-20)
(0.164477710677 -0.059107680242 -1.43963104069e-20)
(-0.193006688405 -0.0824040378863 -6.15374667627e-20)
(0.133820344399 -0.0776567724495 -1.85029981532e-20)
(-0.621268480523 0.171583885394 -9.97746737282e-20)
(0.0880951523188 -0.0151040330311 -3.89212116011e-23)
(0.0847951969028 -0.00873037843483 9.4458476833e-24)
(0.0982164166489 -0.0188116562078 -1.01998858957e-24)
(0.0946669303937 -0.0115311534902 -1.77122585887e-22)
(0.109475634742 -0.0232855063353 7.01216998203e-22)
(0.105748047952 -0.0150536206692 1.69992785472e-22)
(0.121865081855 -0.028655126741 1.21228548396e-21)
(0.118023185272 -0.0188966878519 8.7789361473e-22)
(0.135094940493 -0.0350623391514 1.39779294014e-21)
(0.131507360743 -0.0236315156069 -4.52573776762e-22)
(0.148469369946 -0.0425804090917 1.3034433353e-22)
(0.145569876957 -0.0324183707589 -7.49416096012e-22)
(0.161629125752 -0.0510355486528 -5.83848184226e-21)
(0.159260963722 -0.0406689654437 2.07776665784e-21)
(0.152950031255 -0.0582935072307 -1.97998453261e-20)
(0.171734743672 -0.0432718609819 -8.96534925651e-21)
(-0.636638566002 -0.0665606248317 -5.67402051187e-20)
(0.142077826274 -0.0648824173051 -3.97330595117e-20)
(-0.0936169550058 -0.135208562012 -2.57243651283e-21)
(0.0908799870694 -0.00524000560759 -1.28755526603e-22)
(0.0866813279815 0.00082265491585 1.0863072483e-23)
(0.101678335948 -0.00771716921321 -6.10981182629e-24)
(0.0971366881708 -0.000718955349399 -9.17152530015e-23)
(0.113744001648 -0.0109020579296 3.46669401998e-22)
(0.108925129118 -0.00290053546281 1.78212874935e-22)
(0.127090043435 -0.0149419301564 -7.86965645994e-22)
(0.122055571442 -0.0053714267945 5.39940484877e-22)
(0.141426023368 -0.020015573405 -2.59978281292e-21)
(0.136574766444 -0.00874474361024 -3.9509863867e-22)
(0.156005227809 -0.0263234725253 1.1980062283e-21)
(0.151873169738 -0.0159030884629 -1.97365327034e-21)
(0.169576679174 -0.0341586139038 -1.04910075641e-21)
(0.167093547168 -0.0226143453545 -1.59131373265e-22)
(0.163864855612 -0.0423211351221 -2.88985634421e-20)
(0.179896197661 -0.0258306765195 4.07764722337e-21)
(0.974103157013 -0.062027283293 1.44347090942e-20)
(0.161790265959 -0.0507887742254 -1.0260555462e-20)
(0.819226052572 -0.0719208375603 5.61146475941e-20)
(0.0924110256038 0.00520861537446 4.79033460846e-23)
(0.0872965517 0.010864934253 2.66923092688e-23)
(0.103814651342 0.00408747299215 9.26074337598e-23)
(0.0982506116676 0.0106995664092 -1.98219547361e-22)
(0.116625267755 0.00233918972958 3.71483957813e-22)
(0.110666580682 0.00999980222826 1.76330419863e-22)
(0.130886819574 -0.000195943619583 9.318074922e-22)
(0.124583649235 0.0090632256751 9.27845020546e-22)
(0.146333903251 -0.00371101787028 2.31030903904e-22)
(0.140084516896 0.00726153746578 8.59557798345e-22)
(0.162207661211 -0.00840638687177 -3.33079087191e-21)
(0.156563832174 0.00208038961666 -2.17390157727e-21)
(0.176056570781 -0.0143173392423 4.96761660652e-21)
(0.17300227249 -0.002715374286 -7.96528415753e-21)
(0.173638892333 -0.0184889260719 2.27156552034e-20)
(0.184066755258 -0.00637790498331 -1.77088770926e-21)
(-0.0887078367595 -0.0256545311815 3.14193830379e-20)
(0.168959696405 -0.0338477984557 1.01390857257e-20)
(-0.138711187104 0.0351218388068 1.21487894114e-20)
(0.0925704788583 0.0161576198248 -2.19430584176e-22)
(0.0865321456966 0.0213016122226 4.44392820959e-23)
(0.104484736222 0.0165228616679 -1.14496561257e-22)
(0.0978789454239 0.0226298646378 -2.1590760489e-22)
(0.117951150175 0.0163676343095 7.32691482596e-22)
(0.110813061801 0.0235564082592 1.32538083848e-22)
(0.133047922849 0.0155291509664 8.55595326691e-22)
(0.125416536269 0.0243248631493 7.87932845339e-22)
(0.149531440691 0.0138076375176 -1.54537468283e-21)
(0.14179834396 0.024315509932 8.41952270056e-22)
(0.16655795262 0.0109974691118 -6.80839486289e-21)
(0.159370754094 0.0214169709557 -6.22836793864e-22)
(0.180266532861 0.00706723940044 -1.47037884733e-20)
(0.176928669858 0.0186488610965 -1.17662348718e-20)
(0.179904393287 0.00435507350721 -1.4347457187e-20)
(0.186777677396 0.0138378976697 -2.48758813852e-20)
(0.142763969668 -0.00676965720505 -9.13150790093e-21)
(0.180085418221 -0.0144824933035 -7.88980734544e-21)
(0.185511428182 0.01034656032 -7.13182603543e-21)
(0.0912423725526 0.0275024702333 4.79622613822e-23)
(0.1035444675 0.0294802412144 3.11270402151e-23)
(0.117544765276 0.0310813351288 1.8777944659e-22)
(0.133357951046 0.0321342193614 7.74289788704e-22)
(0.150767212297 0.0324445775027 1.76449015903e-21)
(0.168856746568 0.0317776748395 -5.58067680274e-21)
(0.182471887273 0.0300540905963 -2.19383277837e-20)
(0.185548301796 0.0296946509107 -1.84182315436e-20)
(0.203090217148 0.0215362185554 -5.89012547994e-21)
)
;

boundaryField
{
    back
    {
        type            calculated;
        value           uniform (0 0 0);
    }
    sides
    {
        type            calculated;
        value           uniform (0 0 0);
    }
    bottom
    {
        type            calculated;
        value           nonuniform List<vector> 0();
    }
    front
    {
        type            calculated;
        value           uniform (0 0 0);
    }
    atmosphere
    {
        type            calculated;
        value           nonuniform List<vector> 
16
(
(0 -0.534764436885 0)
(0 -0.0716503371759 0)
(0 -0.0774921071273 0)
(0 0.429855981143 0)
(0 0.574584785475 0)
(0 0.877505055476 0)
(0 0.763035117419 0)
(0 -1.27234871631 0)
(0 -3.16886348691 0)
(0 -0.817190488678 0)
(0 2.3028929776 0)
(0 -0.594200558987 0)
(0 -0.974881651523 0)
(0 0.932284229059 0)
(0 -0.330993057771 0)
(0 0.0825692850106 0)
)
;
    }
    floatingObject
    {
        type            calculated;
        value           nonuniform List<vector> 0();
    }
    procBoundary1to0
    {
        type            processor;
        value           nonuniform List<vector> 10((0.0842920026566 0.0320147661584 5.51362450077e-23) (0.0958923083782 0.0349490857093 -6.098104985e-23) (0.109206103131 0.0376453396956 1.02694237422e-22) (0.124354409897 0.0402941169091 3.67875713981e-22) (0.141482873732 0.0423136430265 1.3478601232e-21) (0.160030345815 0.042017754798 7.86638300951e-22) (0.178648811389 0.0414050837939 -1.00318948125e-20) (0.187135660683 0.035022459431 -2.04966180118e-20) (0.188241737362 0.00748247997743 -6.50087713151e-21) (0.124480883563 0.0492458927903 -4.09853316518e-21));
    }
    procBoundary1to2
    {
        type            processor;
        value           nonuniform List<vector> 
18
(
(0.00456536359879 -0.0434293999683 8.21387263863e-22)
(0.0104997175672 -0.0454623742117 2.37862375022e-21)
(0.017893345748 -0.0448016135003 4.65020022273e-22)
(0.0227076231413 -0.0475296137303 -3.42179859284e-23)
(0.0276307017288 -0.050376144273 1.4901165214e-22)
(0.0328917569856 -0.0527495120137 3.34513795392e-22)
(0.0385742981807 -0.0552166396347 2.28680608426e-23)
(0.0463824017769 -0.0512064206559 -2.26164521817e-23)
(0.0536834882856 -0.046423875904 -6.88652215038e-23)
(0.0603699222131 -0.0408995415124 -3.74080422676e-23)
(0.0663451477845 -0.034665373062 -5.41118611238e-24)
(0.0715211809907 -0.0277527819278 -3.89975182534e-23)
(0.0758071330728 -0.0201982631305 -1.5907720926e-23)
(0.0791085528957 -0.0120444972188 -1.8840234787e-23)
(0.0813289208192 -0.00334566656284 -2.94856956613e-23)
(0.0823702996863 0.00583203819961 4.09327636565e-23)
(0.082135127417 0.0154058656188 1.16140166498e-23)
(0.0805305132984 0.0252695330305 3.71080969346e-23)
)
;
    }
}


// ************************************************************************* //
