/*--------------------------------*- C++ -*----------------------------------*\
| =========                 |                                                 |
| \\      /  F ield         | OpenFOAM: The Open Source CFD Toolbox           |
|  \\    /   O peration     | Version:  v2012                                 |
|   \\  /    A nd           | Website:  www.openfoam.com                      |
|    \\/     M anipulation  |                                                 |
\*---------------------------------------------------------------------------*/
FoamFile
{
    version     2.0;
    format      ascii;
    class       volVectorField;
    location    "5";
    object      ddtCorrDdt0(U);
}
// * * * * * * * * * * * * * * * * * * * * * * * * * * * * * * * * * * * * * //

dimensions      [0 1 -2 0 0 0 0];


internalField   nonuniform List<vector> 
167
(
(0.005148342432 -0.00513488463482 -1.05288658701e-23)
(0.00540396966043 -0.0148750512085 -2.10747515665e-22)
(0.00554726187387 -0.0252135054919 -1.16583442077e-22)
(0.00577083260496 -0.0358633945091 -7.97038677265e-23)
(0.00609486482948 -0.0469935663164 2.8169768252e-23)
(0.00652658228893 -0.0588136307201 1.07588186763e-22)
(0.00709028822118 -0.0715338689218 2.6574721688e-22)
(0.00781614856275 -0.0854204480752 -2.03000241464e-23)
(0.014740913012 -0.00526575550468 -3.30389490678e-23)
(0.0151207653126 -0.0148541381215 -2.34678255199e-22)
(0.0154965594993 -0.0250122714284 -1.33067569237e-22)
(0.016113172009 -0.0355507224435 -3.91851756228e-23)
(0.017006401861 -0.0465516399745 -3.56508562424e-23)
(0.0182131999085 -0.0582044757195 1.39067547223e-22)
(0.0197931965913 -0.0707132707423 2.16277770262e-22)
(0.021808145626 -0.0843439862827 1.17906219673e-22)
(0.0245298004097 -0.00515560237582 -2.47517650064e-22)
(0.0249968689385 -0.0144303094165 -4.56036705663e-22)
(0.0256425506862 -0.0243010495916 -1.50323708752e-22)
(0.0266663370895 -0.0345183110134 -1.47117859696e-22)
(0.0281214118594 -0.0451418111651 -3.50954459801e-23)
(0.0300725406954 -0.0563539187732 7.55495851576e-24)
(0.0326004365044 -0.0683331182973 9.14279431657e-23)
(0.0358377131683 -0.0812976058576 -3.63260929758e-23)
(0.0339428929377 -0.00496663700002 -2.13594581286e-23)
(0.0345848559343 -0.0138455311307 -2.28654006666e-22)
(0.0354434863683 -0.023305669653 -1.97304765314e-22)
(0.0368188248115 -0.033063961303 -1.67522464964e-22)
(0.0387578101907 -0.0431509309174 -1.10181498861e-22)
(0.0413506382429 -0.053739127297 -8.08469290279e-23)
(0.0447108203019 -0.0649683238282 -9.45376713368e-23)
(0.0490074121129 -0.0769976218359 2.66590007014e-23)
(0.0544654282812 -0.0900075454688 7.68767695413e-23)
(0.0429237784003 -0.00472029087559 9.98289580553e-24)
(0.0436942672272 -0.0131126651761 -2.63163928508e-22)
(0.0447200660243 -0.0220508113243 -1.5047714541e-22)
(0.0463775168373 -0.0312265926852 -1.32183796117e-22)
(0.0487120988348 -0.0406521809727 -8.70936130457e-23)
(0.0518152150546 -0.050459198635 -7.95102601509e-23)
(0.0558310450976 -0.0607501776752 -3.07041656048e-23)
(0.0609399124339 -0.0716217540362 -1.06628694657e-23)
(0.0674116569734 -0.0831854544727 1.41328388723e-23)
(0.0755691400924 -0.0955750238871 -6.00313358805e-23)
(0.0513783177062 -0.00442162251224 8.5897103977e-23)
(0.0522547754853 -0.0122492486094 -1.49047515428e-22)
(0.0534060287169 -0.0205804099887 -7.61836918336e-23)
(0.0552731685653 -0.0290801099005 -5.97325049036e-23)
(0.0578976985985 -0.0377435530302 -1.51406792519e-23)
(0.0613736756993 -0.0466638139853 -4.69474629754e-23)
(0.0658410737095 -0.0558975323694 -1.64787578046e-23)
(0.0714938329581 -0.0654771033485 -2.91296111019e-24)
(0.0785906562116 -0.075423406228 -1.00401307272e-23)
(0.0874826227751 -0.0857681884233 -2.17459446922e-23)
(0.0592336378569 -0.00408973205623 3.69147433302e-23)
(0.06019565898 -0.0112923956134 -9.09127175288e-23)
(0.0614270899901 -0.0189541534212 -1.89380087577e-23)
(0.0634298884468 -0.026717079165 -3.86219010668e-23)
(0.0662366602704 -0.0345583849482 -7.70369403257e-23)
(0.0699360900956 -0.042533224264 -3.58590351043e-24)
(0.0746582871348 -0.0506502003318 -1.98859278438e-23)
(0.0805815909507 -0.0588945157441 -1.90956524063e-24)
(0.0879388917293 -0.0672121008 1.27048605682e-23)
(0.0970370399552 -0.075521098745 -8.2130517995e-24)
(0.0664421160157 -0.00373575465903 -5.6833651541e-23)
(0.0674704259863 -0.0102810883636 -2.69938362032e-22)
(0.0687358054204 -0.0172390743793 -1.56116698581e-22)
(0.070803363393 -0.0242328361158 -7.91973670313e-23)
(0.0736920149056 -0.0312271484347 -2.48125605549e-23)
(0.0774749217634 -0.0382423912691 -2.89522080365e-23)
(0.0822684089907 -0.0452519721142 -1.3710070083e-23)
(0.0882182768989 -0.0521903336083 -1.05398475907e-23)
(0.0955190909504 -0.058956890044 -1.67579754493e-23)
(0.104410079984 -0.0654045509219 -2.69189082554e-23)
(0.0729795129398 -0.00337094192763 4.86843732108e-23)
(0.074053192947 -0.00924953069432 -1.48900982235e-22)
(0.0753101566071 -0.0154932978844 -1.05565033341e-22)
(0.0773803007372 -0.021711565086 -5.15777026408e-23)
(0.0802604814604 -0.0278685338038 -1.17339658549e-23)
(0.0840084549104 -0.0339493806839 7.63136629327e-24)
(0.0887141348668 -0.0399000453727 -4.04573000525e-23)
(0.0944935616265 -0.0456301451331 -3.09920639106e-24)
(0.101488314422 -0.0509994269097 -8.09401455686e-24)
(0.109875366381 -0.0558268618988 -2.20602442898e-23)
(0.0788430856773 -0.00300470627927 1.3594899056e-22)
(0.0799289901104 -0.00822821410047 9.0253552194e-24)
(0.0811585433583 -0.0137659430512 -3.39519077391e-23)
(0.0831759015867 -0.01922560951 7.38941028086e-24)
(0.0859728741481 -0.0245775122782 8.44841104676e-24)
(0.0895880752084 -0.0297796212855 5.46083877849e-24)
(0.0940829795999 -0.0347594130449 5.73830952574e-24)
(0.0995399917145 -0.0394046316736 3.27309417929e-24)
(0.106060654205 -0.0435659238315 -6.76886498471e-24)
(0.113746335149 -0.0470512281532 -2.48895624134e-23)
(0.0840410371146 -0.00265043181376 2.06701701479e-22)
(0.0851228491761 -0.00723905870492 1.81459901179e-23)
(0.0862993511022 -0.0120863644126 9.72419927417e-23)
(0.0882211793188 -0.0168353756735 -1.43112267384e-23)
(0.0908803937773 -0.0214323694479 1.16490755548e-23)
(0.0942879576532 -0.0258285162221 7.53735540795e-24)
(0.0984882389305 -0.0299422553048 2.59426769273e-24)
(0.103520582008 -0.0336528719129 5.93788364037e-24)
(0.109458062196 -0.036816375537 4.79473766836e-24)
(0.116346921291 -0.0392480009262 -1.52335962722e-23)
(0.0885989200645 -0.00231125115086 6.56000642406e-23)
(0.0896737329748 -0.00629769607069 -4.30904086616e-23)
(0.0907624673655 -0.0104946675445 -4.01426568912e-23)
(0.0925656023744 -0.0145787786538 -2.70820267909e-23)
(0.0950489911914 -0.0184843594969 4.10150469531e-24)
(0.0982011168931 -0.0221580742225 6.40747437693e-24)
(0.102047692062 -0.0255233067888 2.13111767634e-23)
(0.106616058876 -0.02845556402 4.28815850091e-24)
(0.111916044813 -0.0308032162112 2.42096847446e-23)
(0.117964109162 -0.0324057853435 1.57090734534e-23)
(0.0925478496964 -0.00199100029356 1.15832311014e-22)
(0.0936095390286 -0.00541772481635 -4.35136026391e-23)
(0.0946005728291 -0.00900776504646 -5.48793565233e-23)
(0.0962675486056 -0.0124813925961 3.4142143685e-24)
(0.0985486499008 -0.0157705003384 2.61497829838e-23)
(0.101430565426 -0.0188176369774 1.06485956346e-23)
(0.104902352412 -0.0215336023604 4.58850317127e-24)
(0.108980544621 -0.023821503825 2.43118645291e-23)
(0.113624790436 -0.0255396543986 5.15286093029e-23)
(0.118833540838 -0.0265227744307 -1.41444010684e-23)
(0.0959268453997 -0.00168793654345 2.70056916326e-22)
(0.0969717595877 -0.00460007505613 1.25339922919e-22)
(0.0978609377597 -0.00763905188645 1.31556190066e-22)
(0.0993885715185 -0.0105600725962 6.8711150072e-23)
(0.101467722442 -0.0132969596526 3.68966060812e-23)
(0.104073388384 -0.0158019224397 2.74038869797e-23)
(0.107171286616 -0.0179911222021 2.80740129728e-23)
(0.11075072713 -0.0197710949457 -2.79852051785e-23)
(0.114776530622 -0.021011075821 1.00912774787e-23)
(0.119182843893 -0.0215571033695 4.68645384711e-23)
(0.0987821562979 -0.00140505749305 2.63541701e-22)
(0.0997975064099 -0.00384733407252 2.09706338941e-22)
(0.100602688658 -0.00638524520768 2.18344819436e-22)
(0.101994860406 -0.00880783154944 1.01902311157e-22)
(0.103881349046 -0.0110694477139 3.18364242304e-23)
(0.106213641528 -0.0131183548296 1.18757428266e-23)
(0.108965390773 -0.0148748414915 8.10805966588e-24)
(0.112086711146 -0.0162543072361 -6.01142382639e-23)
(0.115532663371 -0.0171701855124 -1.48912692013e-23)
(0.11920704657 -0.0174830428081 5.59632181092e-23)
(0.101152900942 -0.00114942818108 2.04993851666e-22)
(0.102141382896 -0.00315778548765 9.21349975919e-23)
(0.102872070875 -0.00523681814684 1.34510751103e-22)
(0.104139297408 -0.00721864253694 5.3754976417e-23)
(0.105852207245 -0.00905870411058 1.62285063961e-23)
(0.107947274145 -0.0107132694332 7.10756241116e-24)
(0.110386437743 -0.0121261550507 3.9968382608e-26)
(0.113110224423 -0.0132300181663 -9.30760101242e-24)
(0.116037332928 -0.0139524586165 3.37768631637e-23)
(0.119091904888 -0.0141897103519 -1.75972742016e-25)
(0.103075344442 -0.000909018206883 -5.32505556696e-23)
(0.104043144682 -0.00251922038583 -7.2441853052e-23)
(0.104699091228 -0.00417445255626 -6.85005979466e-23)
(0.105868577386 -0.00574750655253 -4.24558475301e-23)
(0.107439312576 -0.00720972428424 -3.61994724351e-23)
(0.109343397023 -0.00853626454898 2.50509389547e-23)
(0.111522436901 -0.00968255787862 4.46171348938e-23)
(0.104577864237 -0.000685740619844 -2.08030043411e-22)
(0.105522686881 -0.00191795784836 -2.10667060022e-22)
(0.106122987811 -0.00318070469023 -1.43946318358e-22)
(0.107217281741 -0.00438300246477 -7.91541284733e-23)
(0.108684632571 -0.00550902213565 1.60972533831e-23)
(0.107169179862 -0.00224146618318 -8.13962140026e-23)
(0.108212873493 -0.00310193415812 -4.21991006714e-23)
)
;

boundaryField
{
    back
    {
        type            calculated;
        value           uniform (0 0 0);
    }
    sides
    {
        type            calculated;
        value           uniform (0 0 0);
    }
    bottom
    {
        type            calculated;
        value           uniform (0 0 0);
    }
    front
    {
        type            calculated;
        value           uniform (0 0 0);
    }
    atmosphere
    {
        type            calculated;
        value           nonuniform List<vector> 0();
    }
    floatingObject
    {
        type            calculated;
        value           nonuniform List<vector> 0();
    }
    procBoundary2to0
    {
        type            processor;
        value           nonuniform List<vector> 
14
(
(0.113924488798 -0.0106024405592 1.77281369268e-26)
(0.116466368749 -0.0112159466494 9.95713299684e-24)
(0.119027846447 -0.0114659225315 2.21404329089e-23)
(0.110453039928 -0.00654330376334 3.44104638002e-23)
(0.113924488798 -0.0106024405592 1.77281369268e-26)
(0.112458367407 -0.00746557792258 2.54734655932e-23)
(0.105698407081 -0.000449719413616 -8.67695381361e-23)
(0.106611273536 -0.00134065637706 -1.38570097815e-22)
(0.110453039928 -0.00654330376334 3.44104638002e-23)
(0.109615857001 -0.00391569513846 1.17872892935e-23)
(0.106611273536 -0.00134065637706 -1.38570097815e-22)
(0.10785909363 -0.00135484496475 4.82546105931e-23)
(0.109615857001 -0.00391569513846 1.17872892935e-23)
(0.108880844384 -0.00189017546746 3.36159998607e-23)
)
;
    }
    procBoundary2to1
    {
        type            processor;
        value           nonuniform List<vector> 
18
(
(0.00873731394563 -0.100804705071 -2.74186026629e-22)
(0.0243705575774 -0.0993944280101 1.42676327382e-22)
(0.0399678296969 -0.0954996961575 -1.53870113329e-22)
(0.0399678296969 -0.0954996961575 -1.53870113329e-22)
(0.0613853715231 -0.104262911892 -1.89840789761e-22)
(0.0613853715231 -0.104262911892 -1.89840789761e-22)
(0.0859175828402 -0.108987321797 -5.77432723939e-23)
(0.0986309646265 -0.0965088856763 -4.85045920117e-23)
(0.10828517696 -0.0836675913838 -8.80005066971e-23)
(0.115191789922 -0.0712716822468 -1.0421738819e-22)
(0.119831589797 -0.0598314355306 -8.09547257591e-23)
(0.122693292111 -0.0495902861631 -6.65277608254e-23)
(0.124214979338 -0.0406865678668 -6.40184184567e-23)
(0.12473343441 -0.033035293873 -5.81812228013e-23)
(0.124554545652 -0.0265868635587 -2.8694504763e-23)
(0.123907367093 -0.0212835716096 -6.95919173757e-23)
(0.123007405942 -0.0170530539878 -1.16165288748e-22)
(0.122120390451 -0.0137761752016 -9.79906768578e-23)
)
;
    }
}


// ************************************************************************* //
