/*--------------------------------*- C++ -*----------------------------------*\
| =========                 |                                                 |
| \\      /  F ield         | OpenFOAM: The Open Source CFD Toolbox           |
|  \\    /   O peration     | Version:  v2012                                 |
|   \\  /    A nd           | Website:  www.openfoam.com                      |
|    \\/     M anipulation  |                                                 |
\*---------------------------------------------------------------------------*/
FoamFile
{
    version     2.0;
    format      ascii;
    class       volScalarField;
    location    "5";
    object      p;
}
// * * * * * * * * * * * * * * * * * * * * * * * * * * * * * * * * * * * * * //

dimensions      [1 -1 -2 0 0 0 0];


internalField   nonuniform List<scalar> 
167
(
8482.2028225
7992.96817181
7504.14725715
7015.74533748
6527.77513387
6040.25845776
5553.22692406
5066.72213344
8481.79653426
7992.55675371
7503.72675517
7015.30968104
6527.31648948
6039.76823721
5552.69487264
5066.13596161
8480.9615176
7991.70945381
7502.85760194
7014.40721923
6526.367011
6038.75566282
5551.59954221
5064.93337873
8479.71184998
7990.44298645
7501.55907882
7013.05970936
6524.95104386
6037.24854611
5549.97337365
5063.15360636
4576.82534508
8478.06597158
7988.77785938
7499.85412145
7011.29315031
6523.09841502
6035.28141068
5547.85776685
5060.84737456
4574.27622256
4088.17801627
8476.04623691
7986.73635837
7497.76681299
7009.13459193
6520.84043546
6032.89146567
5545.29727605
5058.06936218
4571.2224855
4084.77428484
8473.67769969
7984.34414976
7495.32454169
7006.61447871
6518.21196617
6030.11980276
5542.34152219
5054.88059547
4567.74050262
4080.92322049
8470.98753295
7981.62923494
7492.55713891
7003.76565738
6515.25029049
6027.00983808
5539.04236872
5051.34406174
4563.90875414
4076.72472403
8468.0042349
7978.62091232
7489.49567829
7000.62204674
6511.99340777
6023.6051598
5535.45084354
5047.52077392
4559.80078704
4072.26937958
8464.75670499
7975.34871829
7486.17136702
6997.21726215
6508.47834088
6019.94743064
5531.61462821
5043.46593759
4555.48186999
4067.63331198
8461.27341369
7971.84176487
7482.61442304
6993.58349961
6504.73989087
6016.07489753
5527.57634847
5039.22758919
4551.00553112
4062.87767444
8457.58164429
7968.12788887
7478.85347738
6989.75062703
6500.80980593
6012.02146526
5523.37257971
5034.84487693
4546.41381406
4058.04603208
8453.70699885
7964.23295893
7474.91495346
6985.74582864
6496.7162867
6007.81650096
5519.03334697
5030.34875335
4541.73803494
4053.16994426
8449.67322771
7960.18069604
7470.8227912
6981.59325863
6492.48359606
6003.48442864
5514.58305044
5025.76275582
4537.00090009
4048.26847024
8445.502216
7955.99270185
7466.59843321
6977.31415393
6488.13244291
5999.04500156
5510.04047062
5021.1037729
4532.21536899
4043.3504383
8441.21395916
7951.68869082
7462.26099652
6972.92683179
6483.68019872
5994.51420866
5505.41867517
5016.381636
4527.38703154
4038.41559495
8436.8262047
7947.28637592
7457.8276567
6968.44759963
6479.14126363
5989.90382029
5500.72753975
8432.35543525
7942.80209301
7453.31437483
6963.89061517
6474.52874351
7448.73516535
6959.26983397
)
;

boundaryField
{
    back
    {
        type            calculated;
        value           nonuniform List<scalar> 
167
(
8482.2028225
7992.96817181
7504.14725715
7015.74533748
6527.77513387
6040.25845776
5553.22692406
5066.72213344
8481.79653426
7992.55675371
7503.72675517
7015.30968104
6527.31648948
6039.76823721
5552.69487264
5066.13596161
8480.9615176
7991.70945381
7502.85760194
7014.40721923
6526.367011
6038.75566282
5551.59954221
5064.93337873
8479.71184998
7990.44298645
7501.55907882
7013.05970936
6524.95104386
6037.24854611
5549.97337365
5063.15360636
4576.82534508
8478.06597158
7988.77785938
7499.85412145
7011.29315031
6523.09841502
6035.28141068
5547.85776685
5060.84737456
4574.27622256
4088.17801627
8476.04623691
7986.73635837
7497.76681299
7009.13459193
6520.84043546
6032.89146567
5545.29727605
5058.06936218
4571.2224855
4084.77428484
8473.67769969
7984.34414976
7495.32454169
7006.61447871
6518.21196617
6030.11980276
5542.34152219
5054.88059547
4567.74050262
4080.92322049
8470.98753295
7981.62923494
7492.55713891
7003.76565738
6515.25029049
6027.00983808
5539.04236872
5051.34406174
4563.90875414
4076.72472403
8468.0042349
7978.62091232
7489.49567829
7000.62204674
6511.99340777
6023.6051598
5535.45084354
5047.52077392
4559.80078704
4072.26937958
8464.75670499
7975.34871829
7486.17136702
6997.21726215
6508.47834088
6019.94743064
5531.61462821
5043.46593759
4555.48186999
4067.63331198
8461.27341369
7971.84176487
7482.61442304
6993.58349961
6504.73989087
6016.07489753
5527.57634847
5039.22758919
4551.00553112
4062.87767444
8457.58164429
7968.12788887
7478.85347738
6989.75062703
6500.80980593
6012.02146526
5523.37257971
5034.84487693
4546.41381406
4058.04603208
8453.70699885
7964.23295893
7474.91495346
6985.74582864
6496.7162867
6007.81650096
5519.03334697
5030.34875335
4541.73803494
4053.16994426
8449.67322771
7960.18069604
7470.8227912
6981.59325863
6492.48359606
6003.48442864
5514.58305044
5025.76275582
4537.00090009
4048.26847024
8445.502216
7955.99270185
7466.59843321
6977.31415393
6488.13244291
5999.04500156
5510.04047062
5021.1037729
4532.21536899
4043.3504383
8441.21395916
7951.68869082
7462.26099652
6972.92683179
6483.68019872
5994.51420866
5505.41867517
5016.381636
4527.38703154
4038.41559495
8436.8262047
7947.28637592
7457.8276567
6968.44759963
6479.14126363
5989.90382029
5500.72753975
8432.35543525
7942.80209301
7453.31437483
6963.89061517
6474.52874351
7448.73516535
6959.26983397
)
;
    }
    sides
    {
        type            calculated;
        value           nonuniform List<scalar> 8(8482.2028225 7992.96817181 7504.14725715 7015.74533748 6527.77513387 6040.25845776 5553.22692406 5066.72213344);
    }
    bottom
    {
        type            calculated;
        value           nonuniform List<scalar> 
18
(
8727.01109747
8726.60478083
8725.76977969
8724.52015815
8722.87434051
8720.85467149
8718.48619522
8715.79607124
8712.81279422
8709.56525773
8706.08193554
8702.39010158
8698.5153706
8694.48147435
8690.31030128
8686.02214792
8681.63443181
8677.16364656
)
;
    }
    front
    {
        type            calculated;
        value           nonuniform List<scalar> 
167
(
8482.2028225
7992.96817181
7504.14725715
7015.74533748
6527.77513387
6040.25845776
5553.22692406
5066.72213344
8481.79653426
7992.55675371
7503.72675517
7015.30968104
6527.31648948
6039.76823721
5552.69487264
5066.13596161
8480.9615176
7991.70945381
7502.85760194
7014.40721923
6526.367011
6038.75566282
5551.59954221
5064.93337873
8479.71184998
7990.44298645
7501.55907882
7013.05970936
6524.95104386
6037.24854611
5549.97337365
5063.15360636
4576.82534508
8478.06597158
7988.77785938
7499.85412145
7011.29315031
6523.09841502
6035.28141068
5547.85776685
5060.84737456
4574.27622256
4088.17801627
8476.04623691
7986.73635837
7497.76681299
7009.13459193
6520.84043546
6032.89146567
5545.29727605
5058.06936218
4571.2224855
4084.77428484
8473.67769969
7984.34414976
7495.32454169
7006.61447871
6518.21196617
6030.11980276
5542.34152219
5054.88059547
4567.74050262
4080.92322049
8470.98753295
7981.62923494
7492.55713891
7003.76565738
6515.25029049
6027.00983808
5539.04236872
5051.34406174
4563.90875414
4076.72472403
8468.0042349
7978.62091232
7489.49567829
7000.62204674
6511.99340777
6023.6051598
5535.45084354
5047.52077392
4559.80078704
4072.26937958
8464.75670499
7975.34871829
7486.17136702
6997.21726215
6508.47834088
6019.94743064
5531.61462821
5043.46593759
4555.48186999
4067.63331198
8461.27341369
7971.84176487
7482.61442304
6993.58349961
6504.73989087
6016.07489753
5527.57634847
5039.22758919
4551.00553112
4062.87767444
8457.58164429
7968.12788887
7478.85347738
6989.75062703
6500.80980593
6012.02146526
5523.37257971
5034.84487693
4546.41381406
4058.04603208
8453.70699885
7964.23295893
7474.91495346
6985.74582864
6496.7162867
6007.81650096
5519.03334697
5030.34875335
4541.73803494
4053.16994426
8449.67322771
7960.18069604
7470.8227912
6981.59325863
6492.48359606
6003.48442864
5514.58305044
5025.76275582
4537.00090009
4048.26847024
8445.502216
7955.99270185
7466.59843321
6977.31415393
6488.13244291
5999.04500156
5510.04047062
5021.1037729
4532.21536899
4043.3504383
8441.21395916
7951.68869082
7462.26099652
6972.92683179
6483.68019872
5994.51420866
5505.41867517
5016.381636
4527.38703154
4038.41559495
8436.8262047
7947.28637592
7457.8276567
6968.44759963
6479.14126363
5989.90382029
5500.72753975
8432.35543525
7942.80209301
7453.31437483
6963.89061517
6474.52874351
7448.73516535
6959.26983397
)
;
    }
    atmosphere
    {
        type            calculated;
        value           nonuniform List<scalar> 0();
    }
    floatingObject
    {
        type            calculated;
        value           nonuniform List<scalar> 0();
    }
    procBoundary2to0
    {
        type            processor;
        value           nonuniform List<scalar> 
14
(
5011.60262795
4522.51690395
4033.45871782
5985.22518739
5011.60262795
5495.97337385
8427.81763209
7938.2511692
5985.22518739
6469.85422113
7938.2511692
7444.10349271
6469.85422113
6954.59722259
)
;
    }
    procBoundary2to1
    {
        type            processor;
        value           nonuniform List<scalar> 
18
(
4580.7960895
4580.14210357
4578.80192547
4578.80192547
4091.03872873
4091.03872873
3602.59324813
3598.74133409
3594.42423558
3589.77066102
3584.89252529
3579.8799786
3574.79977392
3569.6984808
3564.60406432
3559.53080928
3554.48019638
3549.44449471
)
;
    }
}


// ************************************************************************* //
