/*--------------------------------*- C++ -*----------------------------------*\
| =========                 |                                                 |
| \\      /  F ield         | OpenFOAM: The Open Source CFD Toolbox           |
|  \\    /   O peration     | Version:  v2012                                 |
|   \\  /    A nd           | Website:  www.openfoam.com                      |
|    \\/     M anipulation  |                                                 |
\*---------------------------------------------------------------------------*/
FoamFile
{
    version     2.0;
    format      ascii;
    class       surfaceVectorField;
    location    "5";
    object      Uf;
}
// * * * * * * * * * * * * * * * * * * * * * * * * * * * * * * * * * * * * * //

dimensions      [0 1 -1 0 0 0 0];


internalField   nonuniform List<vector> 
305
(
(0.00160053462378 -0.00329043353276 6.76143755825e-22)
(0.00329121545032 -0.00159678733685 7.91465178931e-22)
(0.00174330927109 -0.00675322224608 5.56609777634e-22)
(0.00346366458776 -0.00510694303383 8.79857679672e-22)
(0.00184304711627 -0.0104158789561 8.33484093847e-23)
(0.00366352890748 -0.00865265464276 4.73472051603e-22)
(0.00190475534107 -0.0142198704352 -4.62044955149e-22)
(0.00380474247393 -0.0123690867189 -1.81269554115e-22)
(0.00197003648634 -0.018163416192 -7.19968879165e-22)
(0.00394399094643 -0.0162282848909 -5.9447765657e-22)
(0.0020580867371 -0.0222832900994 -6.28153623233e-22)
(0.0041188758248 -0.0202555290081 -7.25984499698e-22)
(0.00217650612686 -0.0266547279798 -2.80692422318e-22)
(0.00436853208723 -0.0244939300783 -4.8524844532e-22)
(0.00467004212364 -0.0289991867245 -8.9059657845e-23)
(0.00512391085509 -0.00340780750869 9.95179102778e-22)
(0.00669989451906 -0.00168334043437 1.15659087606e-21)
(0.00537932620558 -0.00693470788305 7.96719953641e-22)
(0.00699149521991 -0.00522615802298 1.17677012551e-21)
(0.00561535211053 -0.010552998058 2.08854088103e-22)
(0.00728270876351 -0.00875152332926 7.05891824348e-22)
(0.00583294059093 -0.0143086238185 -3.13702255537e-22)
(0.00756107743328 -0.0124193597979 1.59921386341e-23)
(0.00608004283789 -0.0182300958716 -6.00493277103e-22)
(0.00786577672069 -0.0162321537418 -4.06519354752e-22)
(0.00639151882113 -0.0223456202404 -5.83079321784e-22)
(0.00823334449572 -0.0202223543286 -5.76715854923e-22)
(0.00678807173864 -0.0266840094257 -2.93615680847e-22)
(0.00870391670876 -0.0244206494911 -4.03075518734e-22)
(0.00930484565276 -0.0288678984265 -1.19055361249e-22)
(0.00858023336601 -0.00348691770467 1.3381818988e-21)
(0.0101876985304 -0.0016906293407 1.34001048891e-21)
(0.00889979549106 -0.00697989235021 1.08594199622e-21)
(0.0104854038222 -0.00521652111224 1.35619270037e-21)
(0.0092418161998 -0.0105649653218 5.13029874879e-22)
(0.010868673926 -0.0086965669987 9.3834528213e-22)
(0.0095993769181 -0.0142742634058 -7.68249605811e-23)
(0.0112710871161 -0.0122968334708 2.85656288158e-22)
(0.0100152375666 -0.0181328901085 -3.82741932572e-22)
(0.0117247096236 -0.0160347162466 -1.63533973247e-22)
(0.0105376193047 -0.0221882564281 -3.96712051873e-22)
(0.0122877394959 -0.0199369107435 -3.0522695631e-22)
(0.0111973500877 -0.0264582782938 -2.28515199137e-22)
(0.0129713757912 -0.024033083282 -2.42896938713e-22)
(0.0138386603894 -0.0283605648145 -7.67795973792e-23)
(0.0120428071452 -0.00342905479641 1.35802129048e-21)
(0.0136176063382 -0.001633595773 1.23112859166e-21)
(0.0124017185582 -0.00686099414544 1.20859598628e-21)
(0.0139182439616 -0.0050770856863 1.28867012387e-21)
(0.0128426470173 -0.0103725665001 7.10971695409e-22)
(0.0143811204152 -0.00846667642918 1.01341347279e-21)
(0.0133335701051 -0.0139954264866 1.98947275492e-22)
(0.0148946634846 -0.0119652271667 4.64010077082e-22)
(0.0139119568482 -0.017758347381 -8.60189969858e-23)
(0.0154879655329 -0.0155878893711 7.30635542742e-23)
(0.0146265721162 -0.0216813182112 -1.5141184315e-22)
(0.0162102465958 -0.0193550819711 -7.61152546613e-23)
(0.0155155347185 -0.025814888859 -9.11613369553e-23)
(0.0171025746307 -0.0232933870976 -8.42136015459e-23)
(0.016609333751 -0.0301831617328 -2.03245158866e-23)
(0.0182022095305 -0.0274372901279 -2.21174333718e-23)
(0.0195481000877 -0.0318215704262 9.06632628027e-26)
(0.0154169352598 -0.00329364812588 1.16177742505e-21)
(0.0169120427263 -0.00154792488979 1.03262329166e-21)
(0.01582059228 -0.0066122571881 1.09348761038e-21)
(0.0172376929875 -0.00485724079973 1.11710988075e-21)
(0.0163521897865 -0.0100071604952 7.66451854466e-22)
(0.0177768562301 -0.00810987063768 9.57470722832e-22)
(0.0169608441621 -0.0135021204294 3.38126355864e-22)
(0.0183903293862 -0.0114690749941 5.07481661379e-22)
(0.0176844756904 -0.017116838132 8.29672965987e-23)
(0.0191030404465 -0.0149357642799 1.76330910856e-22)
(0.0185709010855 -0.0208767419854 -8.91701305675e-24)
(0.0199698466746 -0.0185272267262 3.36754053506e-23)
(0.0196604412992 -0.0248122442021 -1.51696979623e-23)
(0.021036580229 -0.022264433692 -8.82329341472e-24)
(0.0209914023529 -0.0289532334992 -1.70225422235e-24)
(0.0223392146339 -0.0261768187167 -1.68826667138e-24)
(0.02260669991 -0.0333318578799 1.23342885654e-24)
(0.0239192228303 -0.0302909882347 -8.2096882888e-25)
(0.0258289721014 -0.0346343340859 1.59659132235e-24)
(0.0186447969993 -0.00312444671456 9.87955747365e-22)
(0.0200371932611 -0.00145192682878 8.63242199026e-22)
(0.0191032198017 -0.00629017936625 9.81092993197e-22)
(0.020404185766 -0.00459374620486 1.04974842252e-21)
(0.0197181493891 -0.00952876460212 6.98500529745e-22)
(0.021016214674 -0.00767245883337 8.60324782688e-22)
(0.0204291287266 -0.0128560363887 3.45686216371e-22)
(0.0217182778237 -0.0108586141269 4.7350383747e-22)
(0.0212756282136 -0.0162864609538 1.27039019608e-22)
(0.0225338467265 -0.0141363289775 1.91937949577e-22)
(0.0223091821121 -0.0198422059952 3.37691249926e-23)
(0.0235253822839 -0.0175181678694 6.14719867459e-23)
(0.0235709544513 -0.0235422736824 4.6581378762e-24)
(0.0247355272215 -0.0210212987596 9.10306250853e-24)
(0.0251007223157 -0.0274171739116 -8.06981277913e-25)
(0.0262107326422 -0.024668066512 -2.29181118663e-24)
(0.0269444962292 -0.0314836269619 -4.57806363064e-25)
(0.0279797095512 -0.02847949751 -8.29091530551e-24)
(0.0301008248935 -0.0324699274265 -7.90498197089e-24)
(0.0216962526669 -0.00293528693554 9.25034874178e-22)
(0.0229730899108 -0.00135006825408 8.71939556769e-22)
(0.0222139871717 -0.00591761924486 9.28980212008e-22)
(0.0233871891294 -0.00430171594025 9.85145168496e-22)
(0.0229066138829 -0.00897013930693 6.35328090413e-22)
(0.0240694370567 -0.00717940725737 8.24654841971e-22)
(0.0237066445143 -0.0121012994949 3.19755570677e-22)
(0.0248500798118 -0.0101658415696 4.61700127388e-22)
(0.0246567696996 -0.0153204368453 1.26370916716e-22)
(0.0257533789925 -0.0132287584328 1.94033917273e-22)
(0.0258123927499 -0.0186394258252 3.68059242618e-23)
(0.0268442909601 -0.0163761809785 6.78404741057e-23)
(0.0272163721401 -0.0220799932763 2.1531134457e-24)
(0.0281752347263 -0.0196215463343 1.60035919696e-23)
(0.0289077227431 -0.0256550512285 -9.77574521423e-24)
(0.029783211997 -0.0229808097726 -2.46343099848e-24)
(0.0309304032625 -0.0293881764366 -1.57380909133e-23)
(0.0317078955344 -0.0264683964343 -7.30743800513e-24)
(0.0339865587032 -0.0300939117452 -1.96742964016e-23)
(0.0245512278327 -0.00273105882259 9.32049851087e-22)
(0.0257046638632 -0.00124493613 8.84688582197e-22)
(0.025127678421 -0.00550731576254 8.80819798459e-22)
(0.0261640272186 -0.00398630107443 9.37157169821e-22)
(0.0258925150049 -0.00835202307316 6.51026878946e-22)
(0.0269147746391 -0.00664267834972 8.11652496453e-22)
(0.0267687676891 -0.0112646327771 3.35978473985e-22)
(0.0277632918497 -0.00941047058069 4.66431400669e-22)
(0.0278043771053 -0.0142489243318 1.35503474663e-22)
(0.028738098129 -0.0122388770441 1.99295431235e-22)
(0.0290583865232 -0.017314700159 4.70381418135e-23)
(0.029910096683 -0.0151342154069 7.69356399179e-23)
(0.0305764100706 -0.020474295903 1.13870475254e-23)
(0.0313342828595 -0.0181050613889 2.54925444825e-23)
(0.0323965968168 -0.0237414613819 4.87621061981e-27)
(0.0330483859099 -0.0211624799004 4.4626927329e-24)
(0.0345572739789 -0.0271269823263 -1.12436434934e-23)
(0.0350900335292 -0.0243160658521 -2.57860964912e-25)
(0.0374940379522 -0.0275737200299 -2.01026303029e-23)
(0.0271943607242 -0.00251141030969 8.8979590093e-22)
(0.0282165046908 -0.00113792292223 7.15972451041e-22)
(0.0278267853867 -0.00506694948364 8.67989867814e-22)
(0.0287200691674 -0.00365035400359 7.80486323214e-22)
(0.0286568603519 -0.0076877274428 6.27057018176e-22)
(0.0295361177326 -0.00607108451598 7.10966724387e-22)
(0.029596665655 -0.0103658384405 3.2974835792e-22)
(0.0304419740707 -0.00860725921522 4.2241630509e-22)
(0.0306997934483 -0.0131014942573 1.4072759649e-22)
(0.0314742036122 -0.0111868090913 1.81520070019e-22)
(0.0320299644886 -0.0158976038663 5.53900425869e-23)
(0.0327063949656 -0.013817091373 6.77544885423e-23)
(0.0336350072254 -0.0187623107195 1.856818969e-23)
(0.03419871658 -0.0165021917907 2.22380364954e-23)
(0.0355530554005 -0.0217074485152 4.19995555736e-24)
(0.0359923637183 -0.0192483709695 5.92830007329e-24)
(0.0378190963878 -0.0247367131155 -9.11684777435e-24)
(0.0381168948625 -0.022062898961 -7.52723418738e-26)
(0.0406176255797 -0.0249516655973 -1.54104994987e-23)
(0.0296155399841 -0.002279598475 6.06662873325e-22)
(0.0304964705424 -0.00102655911074 4.05850333297e-22)
(0.0302995512992 -0.00461689798491 6.23463179786e-22)
(0.0310578155605 -0.00329722931014 5.73335508622e-22)
(0.0311828827483 -0.00699315176372 5.063260113e-22)
(0.0319128926725 -0.00547676070909 5.44196358829e-22)
(0.0321751188714 -0.00941818566757 2.74188017189e-22)
(0.0328675588626 -0.00776770162195 3.41598862862e-22)
(0.0333295702712 -0.0118895780092 1.08546962071e-22)
(0.0339460925032 -0.0100890264998 1.45290697326e-22)
(0.034715094133 -0.0144068623888 3.46024824509e-23)
(0.0352239806386 -0.0124456150857 4.55045657293e-23)
(0.0363827729394 -0.0169724042459 9.59814687873e-24)
(0.0367642943788 -0.0148374814668 1.1743349914e-23)
(0.0383696330377 -0.0195910957816 1.65307217405e-24)
(0.0386104180693 -0.0172695304968 -1.58375484991e-25)
(0.0407120960798 -0.0222688837769 -6.36892406623e-24)
(0.0407937378646 -0.0197434904185 -3.39674305977e-24)
(0.0433570881875 -0.0222620109018 -1.32349899262e-23)
(0.0318028681241 -0.00204175616869 3.72522968594e-22)
(0.0325385636077 -0.000908878795947 1.87075668894e-22)
(0.0325337786862 -0.00412827117842 4.94068687665e-22)
(0.0331447565147 -0.00293140262315 4.53273692233e-22)
(0.033461264695 -0.00626241511026 3.79469210391e-22)
(0.0340475439471 -0.00486812431635 4.49227209702e-22)
(0.034494871899 -0.00843461276252 2.12701542999e-22)
(0.0350403158511 -0.00690269947765 2.90541708461e-22)
(0.0356863418685 -0.0106387938551 8.22483009837e-23)
(0.0361508132589 -0.00896018250578 1.19863726065e-22)
(0.0371086019665 -0.012871664571 2.26454331925e-23)
(0.0374573136828 -0.0110390352579 3.39082931409e-23)
(0.0388174206444 -0.0151305380887 1.9868275503e-24)
(0.0390234447795 -0.0131329419223 7.74455841463e-24)
(0.0408499793985 -0.0174277480066 -5.20819071881e-24)
(0.0409077185357 -0.0152499784076 -1.03382272564e-23)
(0.0432394525079 -0.0197584039128 -1.02628089197e-23)
(0.0431241283155 -0.0173869950469 -1.34525421223e-23)
(0.0457171759449 -0.0195332328742 -1.77554590755e-23)
(0.033743824363 -0.00179802528702 2.67826392533e-22)
(0.0343369357567 -0.000786926874101 1.38376383645e-22)
(0.0345189364164 -0.00363409121704 4.08432214271e-22)
(0.0349812676761 -0.00255678979597 3.18074269828e-22)
(0.0354872360286 -0.00551620388194 3.60299707773e-22)
(0.0359301902855 -0.00424836481346 4.14032023024e-22)
(0.0365511520078 -0.00743145136422 1.97703891527e-22)
(0.0369561603796 -0.00602322674801 2.71358344516e-22)
(0.0377670964868 -0.00936198842222 7.15237182221e-23)
(0.0380819736097 -0.00781323255624 1.07524572213e-22)
(0.0392113321384 -0.0113125936382 1.90074183631e-23)
(0.0394084928293 -0.00961346826581 2.73440482599e-23)
(0.0409379233191 -0.0132784384602 -4.58049639207e-24)
(0.0409898301043 -0.0114139949578 6.66885842253e-24)
(0.0429892139673 -0.01523640611 -1.85825786599e-23)
(0.0428661128237 -0.0132154524822 -1.50642328958e-23)
(0.0453961868312 -0.017203072455 -2.09451922781e-23)
(0.0450916287406 -0.0150135317988 -1.94442979328e-23)
(0.0476774891691 -0.0167870376762 -2.37094311548e-23)
(0.0354358988817 -0.00155360721728 1.8862426094e-22)
(0.0358909412553 -0.00066434809828 7.03216986414e-24)
(0.036251335011 -0.00313667792939 3.23674078581e-22)
(0.0365648445181 -0.00217786453387 1.85880991038e-22)
(0.0372568153675 -0.00476347199366 3.25090659767e-22)
(0.0375575821564 -0.00362147198095 2.9182626002e-22)
(0.0383430272689 -0.00641804177187 1.81179025202e-22)
(0.0386114025736 -0.00513714105549 2.08641488703e-22)
(0.0395696221168 -0.00808329287779 6.33449022511e-23)
(0.0397479336016 -0.00666221691057 8.13228152639e-23)
(0.0410193761144 -0.00973963489146 1.50054883194e-23)
(0.0410655737173 -0.00818597959709 1.86899542826e-23)
(0.042744405726 -0.0113908528095 -3.8148780812e-24)
(0.0426417651702 -0.00969808227524 3.48340293298e-24)
(0.0447873549155 -0.0130316802973 -1.59259521687e-23)
(0.044507875423 -0.01118623223 -1.37699243867e-23)
(0.0471792083783 -0.0146515541315 -2.22085368096e-23)
(0.0467125586679 -0.0126477872366 -1.8690129101e-23)
(0.0492555706273 -0.0140637609465 -1.93633356614e-23)
(0.0368798178901 -0.00130239746611 4.28889996266e-24)
(0.0371938216635 -0.00054526371151 -2.56858499295e-22)
(0.0377318903804 -0.00263626379912 1.54033172477e-22)
(0.0378993060346 -0.00179937885964 -6.44972158859e-23)
(0.0387692623336 -0.00401107863503 1.75377088956e-22)
(0.0389330855225 -0.00299383652904 6.16077200645e-23)
(0.039869425441 -0.00539974903677 1.08785278765e-22)
(0.0400008356077 -0.00425451131896 7.44301160843e-23)
(0.0410952433782 -0.00679136740516 3.66678672955e-23)
(0.0411403688388 -0.00551761442695 2.69724656803e-23)
(0.0425343982789 -0.00817206291021 7.16786889625e-24)
(0.0424470881283 -0.00676623592528 3.07866443493e-24)
(0.0442426267657 -0.00953423237182 -6.47164337247e-24)
(0.0440047894017 -0.00799088497954 -2.12984353777e-24)
(0.0462541712637 -0.0108649999846 -1.6534101319e-23)
(0.0458398096094 -0.00917878272041 -1.1317368319e-23)
(0.0485995110738 -0.0121313321323 -1.58449279528e-23)
(0.0479810196545 -0.0103203449717 -1.04552316592e-23)
(0.0504668389984 -0.0114002831814 2.46007295835e-24)
(0.0380769765804 -0.00105193976223 -3.25644615143e-22)
(0.0382463422876 -0.000427439632534 -5.47730776876e-22)
(0.0389630015918 -0.00214472262762 -1.56922668299e-22)
(0.0389927770162 -0.00142631471361 -3.30733504505e-22)
(0.0400246669431 -0.00326000798594 -3.93392528076e-23)
(0.0400491430021 -0.00237334008256 -1.63149846266e-22)
(0.0411313484848 -0.0043909322176 -7.38269700086e-24)
(0.0411325927884 -0.00337861465794 -6.1978555205e-23)
(0.0423482963684 -0.00551782296754 -6.61673718023e-24)
(0.0422681090662 -0.00437820748435 -2.5595206447e-23)
(0.0437644219221 -0.00662427238823 -6.21904799909e-24)
(0.0435544716343 -0.00535578588362 -8.71901014743e-24)
(0.0454391397052 -0.00768623022291 -6.97556848429e-24)
(0.0450682925776 -0.00630187491203 4.39414428056e-25)
(0.0474023347823 -0.00870704761323 -5.23849865924e-24)
(0.0468625970066 -0.00720442102568 1.3407322524e-24)
(0.049683047128 -0.00966703128699 7.84976925194e-24)
(0.0489434800331 -0.00804188469934 1.49549257337e-23)
(0.0513473209562 -0.00880104059809 2.70504934568e-23)
(0.039026727732 -0.000808094658368 -5.52819666238e-22)
(0.0390552251801 -0.000310150533522 -6.66437765851e-22)
(0.0399432603828 -0.00164707410295 -3.36960682473e-22)
(0.0398326231677 -0.00106022310393 -4.00140776218e-22)
(0.0410232895683 -0.00251422043552 -1.85789148664e-22)
(0.0409171282405 -0.00176123504043 -2.35408609451e-22)
(0.0421313157671 -0.00338729602236 -8.01910646511e-23)
(0.0420064916415 -0.0025088500174 -1.04474636453e-22)
(0.0433325137259 -0.00424531523241 -2.76974794142e-23)
(0.0431272484784 -0.00324691888556 -4.0214308625e-23)
(0.0447172059949 -0.00507700425282 -2.06054772028e-24)
(0.0443878287444 -0.00395926735672 -8.43335127899e-24)
(0.0463488967418 -0.00586938977219 8.75571516474e-24)
(0.0458619772927 -0.00463665285776 1.4836672125e-23)
(0.0482621755621 -0.00660730969306 2.15341566453e-23)
(0.0504647408875 -0.00725410521564 3.41556499385e-23)
(0.0397291164452 -0.000569957060812 -5.13758875831e-22)
(0.0396261991937 -0.000196123815766 -4.63824503279e-22)
(0.0406724093346 -0.001163633989 -2.98588703196e-22)
(0.0404272194352 -0.000700603575221 -2.46055107123e-22)
(0.0417661524867 -0.00177788568523 -1.54094097241e-22)
(0.0415322554279 -0.00116268255435 -1.22269267758e-22)
(0.0428684648759 -0.00239297703942 -6.44978804268e-23)
(0.0426228159058 -0.0016621837127 -4.79924570119e-23)
(0.0440481251331 -0.00299036649 -2.09501804898e-23)
(0.0437258074452 -0.00214734066321 -2.04741904163e-23)
(0.0454017691904 -0.00355604814103 8.46386856632e-24)
(0.0401929468914 -0.000336504832116 -1.96120734571e-22)
(0.0411589908911 -0.000692709921469 -6.97356716845e-23)
(0.0422617244828 -0.00106990935615 -1.61676275291e-23)
(0.0419105162043 -0.000587625340168 4.55255129153e-23)
(0.0433528680614 -0.00144126640096 -3.96876700139e-24)
(0.042994912918 -0.000854626230096 4.63797387222e-23)
(0.042524094528 -0.000392936007066 1.08072879167e-22)
)
;

boundaryField
{
    back
    {
        type            calculated;
        value           uniform (0 0 0);
    }
    sides
    {
        type            calculated;
        value           uniform (0 0 0);
    }
    bottom
    {
        type            calculated;
        value           uniform (0 0 0);
    }
    front
    {
        type            calculated;
        value           uniform (0 0 0);
    }
    atmosphere
    {
        type            calculated;
        value           nonuniform List<vector> 0();
    }
    floatingObject
    {
        type            calculated;
        value           nonuniform List<vector> 0();
    }
    procBoundary2to0
    {
        type            processor;
        value           nonuniform List<vector> 
14
(
(0.0476026386394 -0.00526425983227 1.68065270555e-23)
(0.0495929313077 -0.00582290610005 2.4466816033e-23)
(0.0519142594738 -0.00628880247188 2.38896125599e-23)
(0.0449544902076 -0.00260279108907 -3.18821154639e-24)
(0.0469897365345 -0.00408434536928 2.28874840158e-23)
(0.0463918657225 -0.00302183457113 1.12707459127e-23)
(0.0399637102112 -8.10305790922e-05 -1.3748904928e-22)
(0.0407844137127 -0.000351744148605 4.13436760923e-24)
(0.0445082501723 -0.00179041089618 -2.71222147295e-24)
(0.0440759045357 -0.00110316746123 1.33223234255e-23)
(0.0414168712288 -0.000241681060483 1.19395552209e-22)
(0.0420628314495 -4.49286754498e-05 1.04078020991e-22)
(0.0436018297897 -0.00053788293554 6.36708291491e-23)
(0.043140498346 -9.48427257928e-05 8.85062075374e-23)
)
;
    }
    procBoundary2to1
    {
        type            processor;
        value           nonuniform List<vector> 
18
(
(0.00233628298364 -0.0313290425664 1.83994616683e-22)
(0.00728712540889 -0.0313239474947 -4.18929462263e-23)
(0.0120131362191 -0.0309973835257 -5.66118864965e-23)
(0.0149057618813 -0.0329694759169 -1.56805003939e-25)
(0.0179406817494 -0.0348364990491 -1.51075078152e-23)
(0.0211853989441 -0.0364941021936 -1.39647422215e-23)
(0.0245534440433 -0.0379887089726 -2.08604078696e-23)
(0.0291501215275 -0.0357631777116 -2.25939265141e-23)
(0.0333261066054 -0.0332798805952 -4.11764645286e-23)
(0.0370933491116 -0.0306390986533 -5.20477739316e-23)
(0.0404653348826 -0.0278630591206 -3.65694871317e-23)
(0.043444996889 -0.025009954272 -3.85707992809e-23)
(0.0460233086108 -0.0221185619882 -4.23966900727e-23)
(0.0481908099472 -0.0191628373373 -4.70532530164e-23)
(0.0499438623598 -0.0162280363243 -4.65671929992e-23)
(0.051300167456 -0.0133405478567 -4.2698019128e-23)
(0.0523029769472 -0.0105445116162 -1.91518897758e-23)
(0.0529675302064 -0.00781793410729 -3.41298697455e-24)
)
;
    }
}


// ************************************************************************* //
