/*--------------------------------*- C++ -*----------------------------------*\
| =========                 |                                                 |
| \\      /  F ield         | OpenFOAM: The Open Source CFD Toolbox           |
|  \\    /   O peration     | Version:  v2012                                 |
|   \\  /    A nd           | Website:  www.openfoam.com                      |
|    \\/     M anipulation  |                                                 |
\*---------------------------------------------------------------------------*/
FoamFile
{
    version     2.0;
    format      ascii;
    class       surfaceScalarField;
    location    "5.7";
    object      phi;
}
// * * * * * * * * * * * * * * * * * * * * * * * * * * * * * * * * * * * * * //

dimensions      [0 3 -1 0 0 0 0];
oriented        oriented;


internalField   nonuniform List<scalar> 
296
(
2.61108509318e-05
3.92289985649e-05
3.07206977215e-05
4.50819826984e-05
3.52486476389e-05
5.22144165659e-05
4.05611771084e-05
5.9374396702e-05
4.76460413362e-05
6.6685694452e-05
5.62767113354e-05
7.61961776043e-05
6.40559210564e-05
9.02594238909e-05
6.79394441085e-05
0.000107715900991
6.59970414386e-05
0.000130375796968
5.90323679138e-05
0.000156372641984
4.8129884545e-05
0.000196818900957
2.94967961867e-05
0.000302678599922
0.0005163294532
2.062982136e-06
1.19700296624e-05
4.63615680614e-06
1.63077950247e-05
7.68766511153e-06
2.01925488082e-05
2.32097393615e-05
2.0280775393e-05
2.72443344393e-05
2.57668095008e-05
2.96087935475e-05
3.1785829956e-05
3.32140660674e-05
3.72927920449e-05
3.95775825408e-05
4.21837259667e-05
4.73237388279e-05
4.83537134537e-05
5.32013683986e-05
5.78157984143e-05
5.72172080681e-05
7.06280454803e-05
6.33745191517e-05
8.24932654662e-05
7.83834239368e-05
8.87483155813e-05
0.000101450497874
8.80463710537e-05
0.00013107012516
8.22829603713e-05
0.000162132818219
5.2588957696e-05
0.000226511935666
-2.54721819972e-05
0.000380655515012
0.000330688470257
2.27065411942e-06
9.70084464325e-06
5.08449404256e-06
1.3495926539e-05
8.44370270341e-06
1.68362341806e-05
1.24313237635e-05
1.92257298133e-05
1.71472908084e-05
2.06536081491e-05
2.2743236258e-05
2.16538380564e-05
2.93594582457e-05
2.29983953173e-05
3.66916294117e-05
2.58873438867e-05
4.25909814846e-05
3.36821439431e-05
4.65757088065e-05
4.33403379521e-05
5.25621683191e-05
4.72128121628e-05
6.43729503706e-05
4.54008419669e-05
8.23873689286e-05
4.53517192633e-05
9.89597882741e-05
6.18014604294e-05
0.000108687889033
9.17137668893e-05
0.000112138875335
0.000127613340106
0.000116193017155
0.000158076508361
0.000134429989153
0.000208274771
0.000200876788825
0.000314215387819
0.000163052528927
2.38291741746e-06
7.31926371046e-06
5.28488549104e-06
1.05955580681e-05
8.77387232882e-06
1.33498069736e-05
1.29136228016e-05
1.50897764925e-05
1.78098529246e-05
1.5762560708e-05
2.37391931777e-05
1.57308741225e-05
3.10656797155e-05
1.56788447864e-05
3.99882507938e-05
1.6971298917e-05
4.54590329753e-05
2.82162205175e-05
4.69477891412e-05
4.18536324564e-05
5.17069331834e-05
4.24521598483e-05
6.61617994277e-05
3.09409472886e-05
9.04084114279e-05
2.10974866508e-05
0.000111924926609
4.02766096987e-05
0.00012464547605
7.89864341747e-05
0.00013171515326
0.00012054001678
0.000143969875709
0.000145821084038
0.000180626973896
0.000171617656132
0.000220241218431
0.00027462807854
0.000185183004537
2.30812882314e-06
5.01194018182e-06
5.15693618769e-06
7.74769850962e-06
8.53030584959e-06
9.97837293787e-06
1.24521397048e-05
1.1171398057e-05
1.68860529156e-05
1.13337983563e-05
2.22805871354e-05
1.03429173143e-05
2.99711057407e-05
7.99557270087e-06
4.10791391289e-05
5.8700980886e-06
4.67429496759e-05
2.25577615305e-05
4.72512536441e-05
4.1347705701e-05
5.21672546602e-05
3.75348227475e-05
6.84672448051e-05
1.46361402322e-05
9.61450217035e-05
-6.58872893337e-06
0.000118624426874
1.77884673117e-05
0.000130947843338
6.66573969496e-05
0.000139299705639
0.000112187219984
0.000154416542266
0.000130706591312
0.000175651443316
0.000150384377814
0.000130171462667
0.000320049652244
0.000316504576286
2.06880844558e-06
2.94273473765e-06
4.70387102715e-06
5.11227559741e-06
7.90253342172e-06
6.78038730692e-06
1.12529693395e-05
7.82330670318e-06
1.42308720886e-05
8.36009753999e-06
1.7062679004e-05
7.51683402175e-06
2.44598407714e-05
6.04920216147e-07
4.14168737414e-05
-1.10800838847e-05
5.0128924468e-05
1.38508725703e-05
5.60288592523e-05
3.54497602678e-05
6.66374073623e-05
2.69246509968e-05
9.04225035301e-05
-9.15684600222e-06
0.000109846094259
-2.6023538547e-05
0.000117206428895
1.04185216487e-05
0.000122268507139
6.1592107965e-05
0.000133622909573
0.000100836613293
0.000158532331104
0.000105802094903
0.000202342543741
0.000106576273734
0.00023801480972
0.000284373545337
0.000414575653816
1.57306403108e-06
1.36745817292e-06
3.82637473069e-06
2.85670288521e-06
6.6932883115e-06
3.91228472368e-06
1.01929635124e-05
4.32417442128e-06
1.46085082134e-05
3.94699458506e-06
1.98051135109e-05
2.32431198592e-06
2.70603850639e-05
-6.64469826771e-06
3.64249746986e-05
-2.04390112848e-05
5.02775930543e-05
8.57273636101e-05
0.000112648565926
0.000103485662544
0.000116916724919
0.000100849400661
9.75212959394e-05
0.000113108000506
0.000142930281053
0.000205630719206
0.000326861658765
1.33027723982e-06
3.28809255594e-08
3.35910710147e-06
8.23533190746e-07
5.82860864521e-06
1.43957061682e-06
8.14682286314e-06
2.00453745733e-06
9.77117328899e-06
2.32326609931e-06
1.05970840812e-05
1.50108808224e-06
7.01013843071e-06
-3.05353954e-06
-1.3426330864e-05
1.01305854351e-06
-9.87670557554e-07
2.84813932312e-06
-1.01855145601e-06
5.33292886741e-06
-1.05068165552e-06
8.40728842543e-06
-1.07289350889e-06
1.18455773699e-05
-1.11518205234e-06
1.44887292637e-05
-1.13913337605e-06
1.24405221338e-05
-9.99333846252e-07
-9.79848531923e-07
1.01968674591e-06
-2.01778259578e-06
2.84667371405e-06
-2.85473147192e-06
5.29248920768e-06
-3.50313352776e-06
8.30460997192e-06
-4.08777442167e-06
1.16879176684e-05
-4.49665303884e-06
1.44696652163e-05
-3.91372351784e-06
1.23007533607e-05
1.18256155254e-06
1.1330017583e-05
1.35959744696e-06
3.34816317631e-06
5.75533503185e-06
8.01621174294e-06
9.53873671827e-06
1.0064170489e-05
6.83920846628e-06
)
;

boundaryField
{
    back
    {
        type            calculated;
        value           uniform 0;
    }
    sides
    {
        type            calculated;
        value           nonuniform List<scalar> 0();
    }
    bottom
    {
        type            calculated;
        value           uniform 0;
    }
    front
    {
        type            calculated;
        value           uniform 0;
    }
    atmosphere
    {
        type            calculated;
        value           nonuniform List<scalar> 7(-4.18950520815e-05 0.000160275477526 0.000368488416611 0.00019807330897 -1.02724672268e-06 0.000140175057262 0.000347942707082);
    }
    floatingObject
    {
        type            calculated;
        value           uniform 0;
    }
    procBoundary3to4
    {
        type            processor;
        value           nonuniform List<scalar> 
13
(
-4.39152869164e-05
-4.969126458e-05
-5.67439573729e-05
-1.40306477661e-05
-1.88777100161e-05
-2.32413553436e-05
-2.67930527793e-05
-3.20690653738e-05
-2.14193933592e-05
-3.50888302198e-05
1.12777102408e-05
-1.54465476279e-05
-2.53615616836e-05
)
;
    }
    procBoundary3to5
    {
        type            processor;
        value           nonuniform List<scalar> 10(-6.46940231944e-05 -7.3781970937e-05 -8.48435119616e-05 -9.80574275082e-05 -0.000111618769471 -0.000128448391697 -0.000149416266803 -0.000185918483616 -0.000283971396068 -0.00044505201405);
    }
    procBoundary3to6
    {
        type            processor;
        value           nonuniform List<scalar> 8(-3.94680108822e-05 2.64762070654e-05 6.49185844284e-05 8.52547856991e-05 7.59853807937e-05 4.38739283447e-05 0.000163673719084 0.000392626145507);
    }
    procBoundary3to8
    {
        type            processor;
        value           nonuniform List<scalar> 8(-3.38820244238e-06 -4.85228079947e-06 -5.91584232121e-06 -6.34931395598e-06 -6.01358777995e-06 -4.42685245736e-06 4.42570729464e-06 1.81801031635e-05);
    }
}


// ************************************************************************* //
