/*--------------------------------*- C++ -*----------------------------------*\
| =========                 |                                                 |
| \\      /  F ield         | OpenFOAM: The Open Source CFD Toolbox           |
|  \\    /   O peration     | Version:  v2012                                 |
|   \\  /    A nd           | Website:  www.openfoam.com                      |
|    \\/     M anipulation  |                                                 |
\*---------------------------------------------------------------------------*/
FoamFile
{
    version     2.0;
    format      ascii;
    class       volScalarField;
    location    "6";
    object      alpha.water;
}
// * * * * * * * * * * * * * * * * * * * * * * * * * * * * * * * * * * * * * //

dimensions      [0 0 0 0 0 0 0];


internalField   nonuniform List<scalar> 
164
(
0.99998794856
0.999994064566
0.999993932193
0.999994129951
0.999992683776
0.999991330318
0.999990137499
0.999995694404
0.999145100303
0.56232915393
4.05973837616e-09
1.81290847727e-10
0.999987281565
0.999986884878
0.999992065755
0.999988589119
0.999987772286
0.999987834187
0.99999014522
0.999991815686
0.999599501411
0.581038852505
1.16046596255e-07
-1.68290326447e-27
0.999971439788
0.999984105188
0.999987757594
0.999990202813
0.999990206539
0.999990714753
0.999863035817
0.599733228711
0.000468519171849
-9.02329516826e-15
0.999969040683
0.999984102897
0.99998942162
0.999989355632
0.999990206437
0.999990179699
0.999989791148
0.615854928976
0.00536730096972
-3.25213161487e-15
0.999969040562
0.999969334301
0.999988707394
0.999974780282
0.999989459937
0.999990093994
0.999989691974
0.633043759898
0.0103420752329
-7.89906607136e-18
0.999969040498
0.999969040498
0.999975626968
0.999969053367
0.999982185746
0.999988329095
0.999987335176
0.650775087515
0.0159086150497
-8.50753814814e-22
0.999969042709
0.999969040498
0.999969043716
0.99996905015
0.999969053367
0.999985621789
0.999984337652
0.668958485079
0.0219060614933
-2.07570085185e-24
0.999978572401
0.99997583747
0.99996905015
0.999969528074
0.999985374546
0.999999502161
0.999995582914
0.687262098736
0.0284263667716
0
0.999988003093
0.999969721588
0.999969053367
0.999986272393
0.999999986084
0.999999827108
0.999999504162
0.705233688509
0.0356635409212
-1.99453799357e-27
0.999980648963
0.999981448007
0.999985933908
0.999996692536
0.999999981969
0.999999959241
0.999999835678
0.722534199124
0.0436848728914
-2.19831278557e-24
0.99998189432
0.999994730956
1.00000014692
1.00000045464
1.00000101528
1.00000000014
0.999999999221
0.739370114469
0.0522593022243
-1.65208235403e-14
0.999993771871
1.0000003127
1.0000015118
1.00000281734
1.00000182553
1
0.999999985808
0.756435468793
0.0609391370249
-4.72998478638e-15
0.999999932289
1.00000157397
1.00000616081
1.00000677939
1.00000269616
1.00000000044
0.999999976329
0.773271467102
0.069592153898
-6.5489347142e-31
1.00000236747
1.00000547685
1.00000784644
1.00000690088
1.00000265204
1
0.999999959915
0.789491261499
0.0781848852403
-1.91533050332e-28
1.00001034447
1.00000783445
1.00000663059
1.00000165975
1.00000080989
1.00000000115
0.999999932739
0.804259756153
0.0880229748745
4.78309875823e-44
1.00001280948
1.00000723665
1.00000096014
0.999998016076
0.99999791935
0.999999907038
0.999999073336
0.818602324803
0.100316666202
-1.35953752516e-25
)
;

boundaryField
{
    back
    {
        type            zeroGradient;
    }
    sides
    {
        type            zeroGradient;
    }
    bottom
    {
        type            zeroGradient;
    }
    front
    {
        type            zeroGradient;
    }
    atmosphere
    {
        type            inletOutlet;
        inletValue      uniform 0;
        value           nonuniform List<scalar> 
16
(
1.81290847727e-10
-1.68290326447e-27
-9.02329516826e-15
0
0
0
0
0
0
0
0
0
0
0
0
0
)
;
    }
    floatingObject
    {
        type            zeroGradient;
    }
    procBoundary5to0
    {
        type            processor;
        value           nonuniform List<scalar> 
12
(
0.999994279338
0.999997708138
0.999998415737
0.999998838519
0.999999138625
0.999998120388
0.999992600263
0.999999631458
0.998584494164
0.545169367942
1.89148499047e-10
1.85394765316e-11
)
;
    }
    procBoundary5to3
    {
        type            processor;
        value           nonuniform List<scalar> 10(1.00001565538 1.00001375548 1.00000897827 1.00000126143 0.999999984948 0.999999995444 0.999999731721 0.832271221952 0.115205765954 0);
    }
    procBoundary5to4
    {
        type            processor;
        value           nonuniform List<scalar> 
18
(
0.99999198084
0.999997664113
0.999990670139
0.999972149111
0.999972149111
0.999977491903
0.999983021465
0.999978242117
0.999978620634
0.999986292996
0.99999194959
0.99998957124
0.999990553372
0.999995872312
1.00000024014
1.00000319319
1.00000579877
1.00001021313
)
;
    }
}


// ************************************************************************* //
