/*--------------------------------*- C++ -*----------------------------------*\
| =========                 |                                                 |
| \\      /  F ield         | OpenFOAM: The Open Source CFD Toolbox           |
|  \\    /   O peration     | Version:  v2012                                 |
|   \\  /    A nd           | Website:  www.openfoam.com                      |
|    \\/     M anipulation  |                                                 |
\*---------------------------------------------------------------------------*/
FoamFile
{
    version     2.0;
    format      ascii;
    class       surfaceScalarField;
    location    "6";
    object      alphaPhi0.water;
}
// * * * * * * * * * * * * * * * * * * * * * * * * * * * * * * * * * * * * * //

dimensions      [0 3 -1 0 0 0 0];
oriented        oriented;


internalField   nonuniform List<scalar> 
300
(
-8.68900805821e-06
-0.00020479011393
-1.0646237099e-05
-0.000211066598216
-1.28950977036e-05
-0.000218038226806
-1.55490924437e-05
-0.000225511701071
-1.89478571975e-05
-0.000233354073499
-2.33634437723e-05
-0.000241224018018
-2.93624611507e-05
-0.000247782548438
-3.68480356971e-05
-0.000253019797874
-4.25094443483e-05
-0.00026205894059
7.11776513911e-07
-0.00016486748714
-4.93579970139e-09
-2.16551553485e-07
-3.7656069954e-09
-1.4661835515e-05
-1.71597220413e-05
-1.9868347183e-05
-0.000215327683829
-2.28909045621e-05
-0.000222487553221
-2.64592266898e-05
-0.000229783663701
-3.09046607433e-05
-0.000236776488232
-3.64642718387e-05
-0.000242219575677
-4.33542620884e-05
-0.000246132161779
-5.08154397204e-05
-0.000253217648198
-4.06708481225e-06
-0.000167299480285
-1.76923317174e-08
-4.08108364246e-07
-2.19766529006e-08
-2.62592059973e-05
-0.00021211069738
-2.97902604743e-05
-0.00021895538856
-3.37307934843e-05
-0.00022584097082
-3.84270951384e-05
-0.000232078401927
-4.46237811279e-05
-0.000236021003385
-5.26894641357e-05
-0.000238066222636
-6.08726895467e-05
-0.000244285064267
-1.21094955099e-05
-0.000169941776768
2.06898141122e-08
-2.56723757938e-06
6.44301682493e-15
-3.26191175696e-05
-0.000208638450892
-3.63316489869e-05
-0.000215240672283
-4.0380516248e-05
-0.000221792282599
-4.53884958016e-05
-0.000227070556791
-5.25188152378e-05
-0.000228888096008
-6.19041869371e-05
-0.000228679091973
-7.25515505561e-05
-0.000233633007113
-1.74109151072e-05
-0.000168225501676
-1.43665137161e-10
-6.78652128772e-06
-4.74771118094e-12
-3.86751664392e-05
-0.000205045648378
-4.24425443018e-05
-0.000211469365526
-4.64493240011e-05
-0.000217784957373
-5.13872997075e-05
-0.000222127553661
-5.91184318276e-05
-0.000221157303273
-6.98839908236e-05
-0.000217911851408
-8.23623155769e-05
-0.00022115419403
-2.13156448805e-05
-0.000165735540098
-1.49525981523e-10
-1.10664549881e-05
-8.84945234613e-12
-4.48556251779e-05
-0.000201126241845
-4.8637967977e-05
-0.000207686658903
-5.245454411e-05
-0.000213959287132
-5.71394665664e-05
-0.00021743905229
-6.44346516206e-05
-0.00021385722977
-7.58353247885e-05
-0.000206508512041
-8.87353418488e-05
-0.000208252991866
-2.49306406093e-05
-0.000162202630234
-2.88920331219e-10
-1.51061132906e-05
-2.97794773259e-10
-5.15359458019e-05
-0.000196719251382
-5.55578376894e-05
-0.00020366429666
-5.95665031023e-05
-0.000209949875696
-6.42493986354e-05
-0.000212753658799
-7.08523860532e-05
-0.00020725066454
-8.06141557865e-05
-0.000196746597003
-9.18544640835e-05
-0.000197014531262
-2.8279462754e-05
-0.000156657388186
-4.43142366457e-09
-1.88882404072e-05
-1.4552059736e-11
-5.89637689509e-05
-0.000191611985574
-6.39245161541e-05
-0.000198698834535
-6.8637641166e-05
-0.000205234032573
-7.36938338495e-05
-0.000207694205241
-7.93715762458e-05
-0.000201579567185
-8.52472861183e-05
-0.000190866383368
-9.26663074577e-05
-0.000189594172787
-3.13648611244e-05
-0.00014849243575
-2.0282816908e-10
-2.26266607914e-05
-2.17308938419e-10
-6.69040439695e-05
-0.000185557709039
-7.30043385781e-05
-0.000192593589421
-7.93686134225e-05
-0.00019886674433
-8.56586072467e-05
-0.000201409434219
-8.99478543326e-05
-0.000197289905912
-9.17027631298e-05
-0.000189109547741
-9.50462015021e-05
-0.000186246509201
-3.45059015515e-05
-0.000139000092735
-1.53471043204e-10
-2.59702841389e-05
-3.68873875217e-10
-7.48302747254e-05
-0.000178391062342
-8.24114182191e-05
-0.000185015677073
-9.02765305596e-05
-0.000191008096669
-9.73390059838e-05
-0.000194348167365
-0.000101234714815
-0.000193395080024
-0.000100102430776
-0.000190241416361
-9.92140927085e-05
-0.000187132969825
-3.75208176081e-05
-0.000130269115987
-8.35896770421e-11
-2.82652291265e-05
-5.89876276868e-14
-8.23475520537e-05
-0.000170282717855
-9.09399890328e-05
-0.000176426956739
-9.97232471281e-05
-0.000182223407803
-0.000107336613482
-0.000186733475603
-0.000111195290343
-0.000189528781655
-0.000109990845858
-0.000191445826812
-0.000107092538903
-0.000190031326277
-4.11782917536e-05
-0.000124173389299
1.27807632497e-11
-2.92030933326e-05
6.44097318686e-13
-8.9057133857e-05
-0.000161787655985
-9.78352361774e-05
-0.000167647981386
-0.000106694313053
-0.000173363812189
-0.000114497669002
-0.000178929143106
-0.000118955488012
-0.000185062441336
-0.000119436508235
-0.000190964795648
-0.000118560169641
-0.000190907661932
-4.60923506597e-05
-0.000121302056573
7.5281570986e-11
-3.02100947465e-05
-2.52243697561e-12
-9.50873606333e-05
-0.000153147902625
-0.000103699615698
-0.000159035622594
-0.000112147927681
-0.000164914643415
-0.00011962304007
-0.000171452326275
-0.000124903273224
-0.000179772786378
-0.000127610082204
-0.000188258104051
-0.000129837437735
-0.000188680156877
-5.12990222236e-05
-0.000121390457961
5.49544822448e-11
-3.22207112981e-05
-1.32371028053e-11
-0.000100890292989
-0.000144413131063
-0.000109224182549
-0.000150701513054
-0.000117071892733
-0.000157065589192
-0.000124005606723
-0.000164516255579
-0.000129556137463
-0.000174212262365
-0.000134298865664
-0.000183514687074
-0.000139006036421
-0.000183972890056
-5.69882552724e-05
-0.000121791329345
2.39656758876e-10
-3.54971304222e-05
6.92041317372e-11
-0.000106665529687
-0.000135695034777
-0.000114519816653
-0.000142846118173
-0.000121428219327
-0.000150154741811
-0.000127680701797
-0.000158262408958
-0.000133614566191
-0.00016826841222
-0.000140101875477
-0.000177027228681
-0.000146288430557
-0.000177786262355
-6.20419214715e-05
-0.000123444556224
-2.30558670276e-11
-3.95129498347e-05
-1.59651490361e-10
-0.000112936369025
-0.000120001578932
-0.000125570560148
-0.000130706882292
-0.000136614238509
-0.00014395984125
-0.000150885843062
-6.82470231017e-05
2.44009654983e-09
)
;

boundaryField
{
    back
    {
        type            calculated;
        value           uniform 0;
    }
    sides
    {
        type            calculated;
        value           nonuniform List<scalar> 0();
    }
    bottom
    {
        type            calculated;
        value           nonuniform List<scalar> 0();
    }
    front
    {
        type            calculated;
        value           uniform 0;
    }
    atmosphere
    {
        type            calculated;
        value           nonuniform List<scalar> 
16
(
-8.467545545e-10
5.16361211951e-10
-1.28698648334e-09
-1.38910956094e-10
-1.45425067839e-10
-2.77695164159e-16
-4.71474660408e-09
4.96989250135e-14
-4.11624626252e-13
-4.53012290956e-10
3.09133948167e-12
1.11672855638e-11
-8.52636658781e-12
3.78562771485e-12
2.55307205593e-12
8.32894117683e-11
)
;
    }
    floatingObject
    {
        type            calculated;
        value           nonuniform List<scalar> 0();
    }
    procBoundary5to0
    {
        type            processor;
        value           nonuniform List<scalar> 
12
(
0.000206463384671
0.000213022902368
0.000220286817509
0.000228167075628
0.000236755762355
0.000245644187816
0.000253784525608
0.000260501923699
0.000269580743506
0.000163483202647
-2.59617647531e-08
-3.37705804043e-10
)
;
    }
    procBoundary5to3
    {
        type            processor;
        value           nonuniform List<scalar> 10(-0.000126981969893 -0.000135780061472 -0.000144585591238 -0.000153126425139 -0.000162362252555 -0.000169683674063 -0.00017085936772 -0.000124542516243 -4.45152939825e-05 2.45210979207e-10);
    }
    procBoundary5to4
    {
        type            processor;
        value           nonuniform List<scalar> 
18
(
7.0144177695e-06
1.2488930363e-05
-0.000202617561609
-0.000208567309814
2.30462681912e-05
2.91472299072e-05
3.50827269561e-05
4.09365838502e-05
4.71292988248e-05
5.38561521757e-05
6.08510559498e-05
6.76649560319e-05
7.42411773663e-05
8.05596729542e-05
8.64468913111e-05
9.21545520049e-05
9.79477744753e-05
0.000104223948174
)
;
    }
}


// ************************************************************************* //
