/*--------------------------------*- C++ -*----------------------------------*\
| =========                 |                                                 |
| \\      /  F ield         | OpenFOAM: The Open Source CFD Toolbox           |
|  \\    /   O peration     | Version:  v2012                                 |
|   \\  /    A nd           | Website:  www.openfoam.com                      |
|    \\/     M anipulation  |                                                 |
\*---------------------------------------------------------------------------*/
FoamFile
{
    version     2.0;
    format      ascii;
    class       volScalarField;
    location    "6";
    object      ddt0(epsilon);
}
// * * * * * * * * * * * * * * * * * * * * * * * * * * * * * * * * * * * * * //

dimensions      [0 2 -4 0 0 0 0];


internalField   nonuniform List<scalar> 
164
(
-0.00020371214005
-0.000204682569342
-0.000205780656919
-0.000206786827959
-0.000206177269871
-0.000198024325515
-0.000164715118353
7.80972503399e-06
0.00145681165322
0.00508119230308
-0.054893808219
-0.497177261652
-0.00020413245915
-0.000205105431474
-0.000206144356703
-0.000206932606782
-0.000205637389399
-0.000195650990523
-0.000159694099791
1.85500636528e-05
0.00171280817545
0.00865997596251
-0.033669291482
-0.684781598116
-0.000206477135819
-0.0002070708726
-0.000205119098851
-0.000192705208358
-0.000146756460181
6.83281969143e-05
0.0018089038917
0.0103462579687
-0.00329909417572
-0.035708813861
-0.000206726966737
-0.000207168137013
-0.000204693329911
-0.000190253625231
-0.000133835227191
0.00012759455671
0.00182125696453
0.00931279348542
0.0192231975032
-0.00451607362877
-0.000206874752725
-0.000207173128031
-0.000204314294426
-0.000188655328664
-0.000126290946368
0.000158711860637
0.00183760570248
0.00892707632627
0.0265139576217
0.00387524377709
-0.00020689175864
-0.000207007423568
-0.000203762334642
-0.00018729305839
-0.000123086554275
0.000159525006694
0.00181251416029
0.00941671898434
0.030979549667
0.00818744856115
-0.00020677202568
-0.000206625383826
-0.000202841860034
-0.000185648310064
-0.000123721219004
0.000130855795099
0.00175232991434
0.0102978059206
0.0310460930096
0.00791764991314
-0.000206535845315
-0.0002060566781
-0.000201668554927
-0.000184100716412
-0.000128687765842
7.7940345894e-05
0.00165324559479
0.0111608608385
0.0276854447407
0.00480801982346
-0.000206237471159
-0.000205462206881
-0.000200584523813
-0.00018319101827
-0.000136518909543
1.53333147308e-05
0.00149194547745
0.0120790345572
0.0301738288159
0.00524375164701
-0.000205948449894
-0.000205002168597
-0.000199966722247
-0.00018345029521
-0.000144234301347
-3.41738513105e-05
0.00126735027157
0.0124031631031
0.0375791018162
0.00996944929337
-0.000205692124146
-0.000204743420052
-0.000199905132849
-0.000184555581263
-0.000149419498779
-5.49678780406e-05
0.00109470451102
0.0116544013406
0.0461305710279
0.0174971778223
-0.000205454466035
-0.000204658942046
-0.000200275390263
-0.000186024591522
-0.000152403885612
-5.19609265519e-05
0.00107660266228
0.0104625171041
0.0428130880051
0.0191590343922
-0.000205190857841
-0.000204648096104
-0.000200833173964
-0.000187587027444
-0.000154482155473
-4.61158929925e-05
0.00112617016939
0.00995229941817
0.0353794825539
0.0151723970209
-0.000204888243361
-0.000204662103719
-0.000201475568157
-0.000189263970957
-0.000157508038902
-5.47098256864e-05
0.00113209217071
0.0107749149426
0.0385417992956
0.015233705281
-0.000204526508371
-0.000204573203433
-0.000201910607725
-0.00019046079832
-0.000160139933942
-7.24507180609e-05
0.00100134638375
0.0111619489657
0.0490877714166
0.0229381793839
-0.000203944000273
-0.000204092155078
-0.000201487289811
-0.000190430141458
-0.000163677817127
-0.000109793132362
0.000712523618852
0.0104166798251
0.0566832972069
0.0482558617681
)
;

boundaryField
{
    back
    {
        type            calculated;
        value           nonuniform List<scalar> 
164
(
-0.00020371214005
-0.000204682569342
-0.000205780656919
-0.000206786827959
-0.000206177269871
-0.000198024325515
-0.000164715118353
7.80972503399e-06
0.00145681165322
0.00508119230308
-0.054893808219
-0.497177261652
-0.00020413245915
-0.000205105431474
-0.000206144356703
-0.000206932606782
-0.000205637389399
-0.000195650990523
-0.000159694099791
1.85500636528e-05
0.00171280817545
0.00865997596251
-0.033669291482
-0.684781598116
-0.000206477135819
-0.0002070708726
-0.000205119098851
-0.000192705208358
-0.000146756460181
6.83281969143e-05
0.0018089038917
0.0103462579687
-0.00329909417572
-0.035708813861
-0.000206726966737
-0.000207168137013
-0.000204693329911
-0.000190253625231
-0.000133835227191
0.00012759455671
0.00182125696453
0.00931279348542
0.0192231975032
-0.00451607362877
-0.000206874752725
-0.000207173128031
-0.000204314294426
-0.000188655328664
-0.000126290946368
0.000158711860637
0.00183760570248
0.00892707632627
0.0265139576217
0.00387524377709
-0.00020689175864
-0.000207007423568
-0.000203762334642
-0.00018729305839
-0.000123086554275
0.000159525006694
0.00181251416029
0.00941671898434
0.030979549667
0.00818744856115
-0.00020677202568
-0.000206625383826
-0.000202841860034
-0.000185648310064
-0.000123721219004
0.000130855795099
0.00175232991434
0.0102978059206
0.0310460930096
0.00791764991314
-0.000206535845315
-0.0002060566781
-0.000201668554927
-0.000184100716412
-0.000128687765842
7.7940345894e-05
0.00165324559479
0.0111608608385
0.0276854447407
0.00480801982346
-0.000206237471159
-0.000205462206881
-0.000200584523813
-0.00018319101827
-0.000136518909543
1.53333147308e-05
0.00149194547745
0.0120790345572
0.0301738288159
0.00524375164701
-0.000205948449894
-0.000205002168597
-0.000199966722247
-0.00018345029521
-0.000144234301347
-3.41738513105e-05
0.00126735027157
0.0124031631031
0.0375791018162
0.00996944929337
-0.000205692124146
-0.000204743420052
-0.000199905132849
-0.000184555581263
-0.000149419498779
-5.49678780406e-05
0.00109470451102
0.0116544013406
0.0461305710279
0.0174971778223
-0.000205454466035
-0.000204658942046
-0.000200275390263
-0.000186024591522
-0.000152403885612
-5.19609265519e-05
0.00107660266228
0.0104625171041
0.0428130880051
0.0191590343922
-0.000205190857841
-0.000204648096104
-0.000200833173964
-0.000187587027444
-0.000154482155473
-4.61158929925e-05
0.00112617016939
0.00995229941817
0.0353794825539
0.0151723970209
-0.000204888243361
-0.000204662103719
-0.000201475568157
-0.000189263970957
-0.000157508038902
-5.47098256864e-05
0.00113209217071
0.0107749149426
0.0385417992956
0.015233705281
-0.000204526508371
-0.000204573203433
-0.000201910607725
-0.00019046079832
-0.000160139933942
-7.24507180609e-05
0.00100134638375
0.0111619489657
0.0490877714166
0.0229381793839
-0.000203944000273
-0.000204092155078
-0.000201487289811
-0.000190430141458
-0.000163677817127
-0.000109793132362
0.000712523618852
0.0104166798251
0.0566832972069
0.0482558617681
)
;
    }
    sides
    {
        type            calculated;
        value           nonuniform List<scalar> 0();
    }
    bottom
    {
        type            calculated;
        value           nonuniform List<scalar> 0();
    }
    front
    {
        type            calculated;
        value           nonuniform List<scalar> 
164
(
-0.00020371214005
-0.000204682569342
-0.000205780656919
-0.000206786827959
-0.000206177269871
-0.000198024325515
-0.000164715118353
7.80972503399e-06
0.00145681165322
0.00508119230308
-0.054893808219
-0.497177261652
-0.00020413245915
-0.000205105431474
-0.000206144356703
-0.000206932606782
-0.000205637389399
-0.000195650990523
-0.000159694099791
1.85500636528e-05
0.00171280817545
0.00865997596251
-0.033669291482
-0.684781598116
-0.000206477135819
-0.0002070708726
-0.000205119098851
-0.000192705208358
-0.000146756460181
6.83281969143e-05
0.0018089038917
0.0103462579687
-0.00329909417572
-0.035708813861
-0.000206726966737
-0.000207168137013
-0.000204693329911
-0.000190253625231
-0.000133835227191
0.00012759455671
0.00182125696453
0.00931279348542
0.0192231975032
-0.00451607362877
-0.000206874752725
-0.000207173128031
-0.000204314294426
-0.000188655328664
-0.000126290946368
0.000158711860637
0.00183760570248
0.00892707632627
0.0265139576217
0.00387524377709
-0.00020689175864
-0.000207007423568
-0.000203762334642
-0.00018729305839
-0.000123086554275
0.000159525006694
0.00181251416029
0.00941671898434
0.030979549667
0.00818744856115
-0.00020677202568
-0.000206625383826
-0.000202841860034
-0.000185648310064
-0.000123721219004
0.000130855795099
0.00175232991434
0.0102978059206
0.0310460930096
0.00791764991314
-0.000206535845315
-0.0002060566781
-0.000201668554927
-0.000184100716412
-0.000128687765842
7.7940345894e-05
0.00165324559479
0.0111608608385
0.0276854447407
0.00480801982346
-0.000206237471159
-0.000205462206881
-0.000200584523813
-0.00018319101827
-0.000136518909543
1.53333147308e-05
0.00149194547745
0.0120790345572
0.0301738288159
0.00524375164701
-0.000205948449894
-0.000205002168597
-0.000199966722247
-0.00018345029521
-0.000144234301347
-3.41738513105e-05
0.00126735027157
0.0124031631031
0.0375791018162
0.00996944929337
-0.000205692124146
-0.000204743420052
-0.000199905132849
-0.000184555581263
-0.000149419498779
-5.49678780406e-05
0.00109470451102
0.0116544013406
0.0461305710279
0.0174971778223
-0.000205454466035
-0.000204658942046
-0.000200275390263
-0.000186024591522
-0.000152403885612
-5.19609265519e-05
0.00107660266228
0.0104625171041
0.0428130880051
0.0191590343922
-0.000205190857841
-0.000204648096104
-0.000200833173964
-0.000187587027444
-0.000154482155473
-4.61158929925e-05
0.00112617016939
0.00995229941817
0.0353794825539
0.0151723970209
-0.000204888243361
-0.000204662103719
-0.000201475568157
-0.000189263970957
-0.000157508038902
-5.47098256864e-05
0.00113209217071
0.0107749149426
0.0385417992956
0.015233705281
-0.000204526508371
-0.000204573203433
-0.000201910607725
-0.00019046079832
-0.000160139933942
-7.24507180609e-05
0.00100134638375
0.0111619489657
0.0490877714166
0.0229381793839
-0.000203944000273
-0.000204092155078
-0.000201487289811
-0.000190430141458
-0.000163677817127
-0.000109793132362
0.000712523618852
0.0104166798251
0.0566832972069
0.0482558617681
)
;
    }
    atmosphere
    {
        type            calculated;
        value           nonuniform List<scalar> 
16
(
0.220334310008
-2.08946425014
2.73401886562
-1.00579566446e-11
1.4294229936e-11
1.43952929629e-10
2.85396525233e-08
1.10392372126e-07
-1.01618904016e-06
-2.94661266094e-06
7.29187917135e-06
1.99235719664e-05
0.000104251587469
7.44917779512e-05
-5.05456460214e-05
0.00125739396244
)
;
    }
    floatingObject
    {
        type            calculated;
        value           nonuniform List<scalar> 0();
    }
    procBoundary5to0
    {
        type            processor;
        value           nonuniform List<scalar> 
12
(
-0.000203224544244
-0.000204200595614
-0.000205363423294
-0.000206614037996
-0.000206809879608
-0.0002006165709
-0.000167497337749
2.57239685998e-05
0.00133210498925
0.00249705007768
-0.0407740255414
-0.493396872356
)
;
    }
    procBoundary5to3
    {
        type            processor;
        value           nonuniform List<scalar> 10(-0.000203115189953 -0.000203036541883 -0.000199921611282 -0.000188549752036 -0.000166493249882 -0.00015058829545 0.000356746216207 0.0083343151517 0.05621361351 0.0794981743405);
    }
    procBoundary5to4
    {
        type            processor;
        value           nonuniform List<scalar> 
18
(
-0.000202848245333
-0.000203250079876
-0.000204485479502
-0.000205474040573
-0.000205474040573
-0.000205741785277
-0.000205929505581
-0.000206019196389
-0.000206001959742
-0.000205890919784
-0.000205715828676
-0.000205501213214
-0.000205241878089
-0.000204926722807
-0.000204547521584
-0.000204093358575
-0.000203534120105
-0.000202876560586
)
;
    }
}


// ************************************************************************* //
