/*--------------------------------*- C++ -*----------------------------------*\
| =========                 |                                                 |
| \\      /  F ield         | OpenFOAM: The Open Source CFD Toolbox           |
|  \\    /   O peration     | Version:  v2012                                 |
|   \\  /    A nd           | Website:  www.openfoam.com                      |
|    \\/     M anipulation  |                                                 |
\*---------------------------------------------------------------------------*/
FoamFile
{
    version     2.0;
    format      ascii;
    class       volVectorField;
    location    "6";
    object      ddtCorrDdt0(U);
}
// * * * * * * * * * * * * * * * * * * * * * * * * * * * * * * * * * * * * * //

dimensions      [0 1 -2 0 0 0 0];


internalField   nonuniform List<vector> 
164
(
(-0.119883333321 0.0371157708943 -9.45385523481e-24)
(-0.124773818448 0.0430164596944 1.44643598604e-23)
(-0.130327725453 0.0494586950072 5.61568821398e-24)
(-0.136552294847 0.0565025006566 -5.90620030448e-25)
(-0.143425439767 0.0641697954756 -5.10784254709e-24)
(-0.150919390061 0.0725304897377 1.52146254188e-22)
(-0.159105525356 0.0818334706978 7.34518005401e-22)
(-0.168605059916 0.0936407115534 3.40892423799e-22)
(-0.179245910008 0.094761430437 3.22637032138e-21)
(-0.156333705857 0.0704356245978 -1.24098049747e-20)
(-0.150297294052 0.0592017823321 8.00055738007e-21)
(0.25216440828 -0.459262006924 -1.60549264142e-19)
(-0.125301099165 0.032342475796 -1.85634834452e-23)
(-0.130666565014 0.0376129515901 -5.77519801041e-24)
(-0.136761121643 0.0433668173283 3.12302014062e-24)
(-0.143572234652 0.0496745559592 4.93432775234e-24)
(-0.151077944462 0.0565888272001 -3.95949712503e-23)
(-0.159246516434 0.0641618394148 1.28826208787e-22)
(-0.168166189283 0.0725205861341 -5.46915215562e-23)
(-0.178238631633 0.0825229124513 1.52024435403e-21)
(-0.189458105032 0.083777748115 -3.48251876557e-21)
(-0.182670625803 0.0545508995664 -4.99464213386e-20)
(1.17502244111 -0.0593538583817 2.47731107152e-20)
(-0.284339463722 0.0101159355906 -1.29612551012e-18)
(-0.142421760534 0.036705754419 8.69269659255e-24)
(-0.149780387954 0.0422253788671 -2.42208715179e-23)
(-0.157896020547 0.0483240662634 -1.48034526756e-22)
(-0.166710296115 0.0550833198884 -3.35430173361e-22)
(-0.176276013743 0.0626249418021 -1.33518784378e-21)
(-0.186888066688 0.0713396418072 -1.89814658309e-21)
(-0.1992403421 0.0745615503474 -4.29315143537e-21)
(-0.23625919465 0.0487699440422 -1.22540223536e-21)
(0.0754816452904 0.272396343818 -6.6257359908e-20)
(-0.621898997337 1.33262940662 -4.41749101352e-20)
(-0.147326722226 0.0294801024119 1.25021936032e-23)
(-0.155192296141 0.0341998344278 -6.99910381668e-23)
(-0.163861639225 0.0394502957551 -2.98868548247e-22)
(-0.173249842806 0.0453252949682 -8.16404868653e-22)
(-0.183439565017 0.0519804033657 -5.227942648e-22)
(-0.194966478987 0.0590572359189 1.19817979038e-21)
(-0.209244376708 0.062950644813 -3.22233671835e-22)
(-0.262820529535 0.0437217420884 6.46200891064e-21)
(-0.378659140301 0.106559151603 3.70526371499e-20)
(-0.0587076158174 0.191518706212 5.01431540466e-22)
(-0.151409843598 0.0218164485073 -1.13547485799e-23)
(-0.159745567426 0.025681227181 -8.89994186161e-23)
(-0.168912412164 0.0300337254622 -3.26770414187e-22)
(-0.178821072807 0.0349170509077 -5.62858767342e-22)
(-0.18959894607 0.0405762393954 5.0523589916e-22)
(-0.201890727621 0.045665816282 -2.65297802349e-21)
(-0.217754372175 0.0498601124517 9.14746448685e-22)
(-0.269791709191 0.0337437726189 -6.15721299428e-21)
(-0.418114051185 0.0707025231437 5.3521722635e-20)
(-0.091645233748 0.0812663059129 1.27745326345e-19)
(-0.154612358219 0.0136717225773 -7.71464774313e-24)
(-0.163385216601 0.0166139150914 -3.56318478616e-23)
(-0.172984783225 0.0200289312373 -2.00536702728e-23)
(-0.183296547424 0.0237782044426 -1.31340314485e-22)
(-0.194576149336 0.0284046520012 1.83235326908e-21)
(-0.20759118457 0.0317205462435 -4.11234447311e-21)
(-0.224372329632 0.0364573931186 5.0054946669e-21)
(-0.271067269702 0.0223152536168 1.73081015952e-20)
(-0.404753569902 0.0462169530165 8.13242248419e-20)
(-0.109741669707 0.0444001514621 4.66024552369e-20)
(-0.156872520978 0.00507224207557 6.05739537153e-24)
(-0.166061594346 0.00702182032265 1.3062399009e-22)
(-0.176006063238 0.00942784570659 5.39403060471e-22)
(-0.186615639992 0.0119703072574 2.05060990861e-21)
(-0.198174310077 0.0154885845946 3.07322145211e-21)
(-0.212299252346 0.0174858502319 5.73817984681e-21)
(-0.229500900609 0.0226534978719 1.51775959431e-20)
(-0.269287126271 0.0102539125923 2.65923586458e-20)
(-0.393789956707 0.0287422435005 4.73481768106e-20)
(-0.136413404053 0.0562204983617 1.91026387547e-21)
(-0.15815384382 -0.00397021897758 1.00082412245e-22)
(-0.167711969773 -0.0030292267221 5.40257105628e-22)
(-0.177943337002 -0.00166130137055 1.97312780924e-21)
(-0.188841709503 -0.000302370596086 6.26794832587e-21)
(-0.200836200321 0.00227996241648 1.15287382182e-20)
(-0.216003287117 0.00336421587894 1.42484742823e-20)
(-0.233119813585 0.00782342465396 1.95033463925e-20)
(-0.268170964788 -0.00206063305507 1.46938697938e-20)
(-0.405370487338 0.0163856349815 2.38137078197e-20)
(-0.176476575135 0.0598219590022 -2.13917348999e-24)
(-0.158429691281 -0.0132826480335 2.84749327999e-22)
(-0.168273228285 -0.0133794761946 1.3580961304e-21)
(-0.178810622688 -0.0130684434777 4.21904611999e-21)
(-0.190088452851 -0.0127789121598 1.09653262222e-20)
(-0.202778869713 -0.0108428996491 1.50866131606e-20)
(-0.218321912609 -0.0107512940569 1.72479348744e-20)
(-0.235377560093 -0.00754823499804 1.31117376393e-20)
(-0.267805200903 -0.0144465937173 2.47018897343e-20)
(-0.426001690828 -0.00200852725566 1.34368447667e-20)
(-0.216510521722 0.0378559536669 -5.44827058998e-20)
(-0.157644111808 -0.0229011106492 4.38189657264e-22)
(-0.167780094948 -0.0240570484696 1.94948878734e-21)
(-0.178725929354 -0.0247539439307 5.52549667495e-21)
(-0.190539857698 -0.0253478906807 1.41655831774e-20)
(-0.20409717441 -0.0238481057031 1.47564207637e-20)
(-0.219561706545 -0.0251515925053 1.53352450208e-20)
(-0.235463420589 -0.0208380326223 1.54472586529e-20)
(-0.266184882696 -0.0286038917822 5.02696063171e-21)
(-0.444719003346 -0.0215263256047 -4.6354189873e-21)
(-0.249879939182 0.0106964892787 -3.76651671491e-20)
(-0.155797461933 -0.0328236711765 4.85339935266e-22)
(-0.166279157995 -0.035005677071 1.82594347067e-21)
(-0.177754903114 -0.0366721533427 5.21778602407e-21)
(-0.190347405295 -0.0381749330521 1.35799521794e-20)
(-0.204503983244 -0.0373209420051 8.70561742547e-21)
(-0.219924123437 -0.0403009080228 -6.84896731347e-21)
(-0.234037332398 -0.036266893213 -1.22244718068e-20)
(-0.262853707358 -0.0417691673538 -2.06488456066e-20)
(-0.454663595487 -0.0460155834863 -3.9045236983e-20)
(-0.275441637038 -0.0315503324495 -8.32591045642e-20)
(-0.152902149696 -0.0430280880162 2.85285682044e-22)
(-0.163772522627 -0.0462608755249 1.15068564675e-21)
(-0.175795879634 -0.0489763761475 3.52215979919e-21)
(-0.189216655015 -0.0515369710303 1.03248833741e-20)
(-0.203821352502 -0.0518004041247 -8.62463543147e-22)
(-0.218957653962 -0.0564817912423 -8.21318835166e-21)
(-0.231038426356 -0.0535802020419 -2.1328452024e-20)
(-0.255138942683 -0.0571478887449 -4.1804886168e-20)
(-0.440337959336 -0.0700775078846 -4.42042227061e-20)
(-0.289286573959 -0.0814390767051 -7.15073017724e-20)
(-0.148889629432 -0.0535224698395 1.2365926025e-22)
(-0.160144686471 -0.0579106606477 6.34079515731e-22)
(-0.172699003669 -0.0617856090378 1.8306115712e-21)
(-0.186847748435 -0.0654207651536 4.24451056133e-21)
(-0.201914764117 -0.067054330724 6.45100360974e-22)
(-0.216838051795 -0.0729401148217 -1.05902783203e-21)
(-0.227455013944 -0.069936282234 -1.83883241709e-20)
(-0.245998182815 -0.0709118254107 -1.8007207989e-20)
(-0.402962600966 -0.0839886088693 -1.84848870008e-20)
(-0.29970217693 -0.128108507109 3.95019135693e-22)
(-0.143664933656 -0.0643274971367 2.27954231187e-22)
(-0.155300851434 -0.0699620869936 4.57083117177e-22)
(-0.168384187989 -0.0750750874141 1.03585731934e-21)
(-0.183165288401 -0.0798187042484 2.67943428295e-21)
(-0.199029960557 -0.0827659825581 2.41803464426e-21)
(-0.214140365121 -0.089546937253 -3.61687719318e-21)
(-0.224970763073 -0.0855503434708 2.21287768763e-21)
(-0.242613553629 -0.0830939644173 -1.62028177549e-20)
(-0.391699589625 -0.0870611551637 -3.93366921434e-21)
(-0.316862549022 -0.0540114733116 7.04877215599e-21)
(-0.137149958807 -0.0754590243988 8.73393206872e-22)
(-0.149178204831 -0.0824356880221 1.15297359128e-21)
(-0.162774002561 -0.0889232695828 1.48046225808e-21)
(-0.178191339633 -0.0950454001797 1.78020657655e-21)
(-0.19491438549 -0.0994202634715 8.07942362774e-22)
(-0.211624459575 -0.106981515767 -1.92534957247e-21)
(-0.225724699651 -0.0999560537211 1.16818104414e-20)
(-0.250647791155 -0.0914836932633 5.045970295e-21)
(-0.439777732581 -0.0857792606759 8.65932699835e-21)
(-0.331609326207 0.00599084480742 -7.72615795872e-21)
(-0.129217345749 -0.0869036321644 4.76486668107e-21)
(-0.141597312545 -0.0953626960186 5.42347127538e-21)
(-0.155612238427 -0.103426089459 5.60674019239e-21)
(-0.171578085132 -0.11137698247 5.09883976442e-21)
(-0.189088691854 -0.118069549246 2.51090461992e-21)
(-0.208249143856 -0.127590999926 -3.89055763543e-21)
(-0.228450415902 -0.121727353501 7.05237554523e-22)
(-0.264921760647 -0.106741545877 1.12585148102e-21)
(-0.50894168285 -0.104741750901 -4.79133518173e-21)
(-0.331448044277 -0.0588748721178 4.25960837685e-21)
)
;

boundaryField
{
    back
    {
        type            calculated;
        value           uniform (0 0 0);
    }
    sides
    {
        type            calculated;
        value           nonuniform List<vector> 0();
    }
    bottom
    {
        type            calculated;
        value           nonuniform List<vector> 0();
    }
    front
    {
        type            calculated;
        value           uniform (0 0 0);
    }
    atmosphere
    {
        type            calculated;
        value           nonuniform List<vector> 
16
(
(-0.228944885202 -0.459262006924 -1.95769929132e-19)
(0.599217586236 0.0101159355906 -1.1211813213e-18)
(-2.55836809416 1.33262940662 -2.91111660347e-19)
(-2.6379052308e-10 0.191518706212 2.09506975472e-29)
(1.27557819996e-09 0.0812663059129 -1.14653643294e-28)
(1.45521315475e-09 0.0444001514621 -4.20901895794e-29)
(8.1118294917e-07 0.0562204983617 -8.46669660807e-26)
(-1.91794366861e-06 0.0598219590022 -2.50712354808e-25)
(1.31262260202e-05 0.0378559536669 6.76399915031e-24)
(4.99897891409e-05 0.0106964892787 5.45439472577e-23)
(0.000221631984651 -0.0315503324495 3.01005309676e-22)
(7.60868294726e-05 -0.0814390767051 -6.9661703971e-24)
(5.72569938194e-05 -0.128108507109 6.92542932961e-23)
(0.000132823649316 -0.0540114733116 9.90743522676e-23)
(-0.00326204422277 0.00599084480742 -2.30523997521e-24)
(0.00640571866663 -0.0588748721178 2.79205857819e-21)
)
;
    }
    floatingObject
    {
        type            calculated;
        value           nonuniform List<vector> 0();
    }
    procBoundary5to0
    {
        type            processor;
        value           nonuniform List<vector> 
12
(
(-0.113881399683 0.0414472497047 -4.70336340571e-24)
(-0.118266234696 0.0479484985407 1.6756335621e-23)
(-0.123239946194 0.0550179202799 2.75667090119e-23)
(-0.128827312247 0.0626999887666 -8.3160953407e-24)
(-0.135030935158 0.071038983775 6.84553682898e-24)
(-0.141822551584 0.0800973098026 3.80113054388e-22)
(-0.149167746797 0.0901485420732 8.85881344553e-22)
(-0.157634122459 0.102841941173 1.21844597343e-21)
(-0.167307125258 0.101385965802 -1.0976382299e-20)
(-0.141143441635 0.0817805356074 -4.44594753186e-21)
(-0.0547395454922 0.141106914517 1.01182443506e-20)
(0.28366822702 -0.0538806587583 2.08244399538e-19)
)
;
    }
    procBoundary5to3
    {
        type            processor;
        value           nonuniform List<vector> 10((-0.119730992641 -0.0986929227753 2.33809949083e-20) (-0.132449560216 -0.10873063539 2.89176548739e-20) (-0.146638112323 -0.118469538208 3.03923601525e-20) (-0.162646796121 -0.128552189067 2.34106511065e-20) (-0.180502161993 -0.138403597058 9.67796624952e-21) (-0.201946346169 -0.151771600625 7.1961624976e-21) (-0.226127512026 -0.15418776655 1.94163375176e-20) (-0.263928557972 -0.136961225535 7.83690399327e-21) (-0.488906726895 -0.168273640527 1.62498726838e-20) (-0.309708542149 -0.337981079475 1.50965626873e-21));
    }
    procBoundary5to4
    {
        type            processor;
        value           nonuniform List<vector> 
18
(
(-0.115643726955 0.0316613340125 1.62949028335e-24)
(-0.120630638841 0.0274983622955 2.85574745469e-24)
(-0.130045778739 0.027111916609 -9.93636873555e-25)
(-0.135850672464 0.0316882510923 1.82534139684e-24)
(-0.135850672464 0.0316882510923 1.82534139684e-24)
(-0.140297930072 0.0252400644157 -3.46585695625e-24)
(-0.143935302394 0.0184002402098 -1.7352470705e-23)
(-0.146724797344 0.0111465678992 -9.29566760179e-24)
(-0.148615339261 0.00347100289499 1.91876238487e-23)
(-0.149549995316 -0.00458186447204 2.55971294493e-23)
(-0.149500751088 -0.0129051468228 7.11694521516e-23)
(-0.148443683782 -0.021478405122 1.42378388365e-22)
(-0.146348345802 -0.0303374702934 1.14942295203e-22)
(-0.143168757919 -0.0394524172647 1.14734328105e-22)
(-0.138867950638 -0.0487875341761 6.8825627916e-23)
(-0.13337082682 -0.0583442350389 1.39766085684e-22)
(-0.126587202533 -0.0681277397319 7.92120698955e-22)
(-0.11839832351 -0.0781008074006 4.11693954907e-21)
)
;
    }
}


// ************************************************************************* //
