/*--------------------------------*- C++ -*----------------------------------*\
| =========                 |                                                 |
| \\      /  F ield         | OpenFOAM: The Open Source CFD Toolbox           |
|  \\    /   O peration     | Version:  v2012                                 |
|   \\  /    A nd           | Website:  www.openfoam.com                      |
|    \\/     M anipulation  |                                                 |
\*---------------------------------------------------------------------------*/
FoamFile
{
    version     2.0;
    format      ascii;
    class       volScalarField;
    location    "6";
    object      epsilon_0;
}
// * * * * * * * * * * * * * * * * * * * * * * * * * * * * * * * * * * * * * //

dimensions      [0 2 -3 0 0 0 0];


internalField   nonuniform List<scalar> 
164
(
0.000468170000151
0.000471097766752
0.000475244981517
0.000482740479569
0.000500906974589
0.000555731537139
0.000736856485399
0.00133753878634
0.0034373273005
0.0122854081692
0.0452835838651
0.13023227384
0.000468310899017
0.000471230558086
0.000475329629673
0.000482683574886
0.00050048721947
0.000554349434501
0.000731869620918
0.00131080943457
0.00327793064995
0.0117033917602
0.0456821562601
0.145597140697
0.000475287348505
0.000482523034308
0.000499986045453
0.000552977053099
0.000729314972122
0.00131389945691
0.00332326842389
0.0117611661468
0.0471485395769
0.160756185293
0.000475141147465
0.000482299622603
0.000499479891518
0.000551632727863
0.000726900943147
0.00132148353495
0.00342376355205
0.0119705210741
0.0466461544281
0.160812102351
0.000474905543633
0.00048206711836
0.000499102285534
0.000550384842885
0.00072312564917
0.00131734777952
0.00344207104706
0.0119356413586
0.0458362172902
0.160617554084
0.000474615594844
0.000481935662884
0.000499164860876
0.000550024774823
0.000719200394862
0.00130247689733
0.00338955188721
0.0117501013239
0.0458271539223
0.161069125352
0.000474319627017
0.000482056189911
0.000500174346924
0.000552199690231
0.000719940776278
0.00128488160715
0.00328004540708
0.0114680955426
0.0463103050649
0.161851740828
0.000474052830489
0.000482537734394
0.000502474565469
0.000557946181762
0.000728101582667
0.00127107188141
0.00312317038776
0.0110235216548
0.0464831557972
0.162504456381
0.0004737973721
0.00048330258662
0.000505839306577
0.000566785852373
0.000743435929266
0.00127028302508
0.00296436729474
0.0103302233869
0.0458474172036
0.162783249679
0.000473471146739
0.000484062242927
0.000509302509982
0.000575958095389
0.000760739361832
0.00128187374902
0.00286264430413
0.00962655489551
0.0444110480545
0.162543149496
0.000472961070016
0.000484410623394
0.00051162590033
0.000582175503192
0.000772186901098
0.00129227281305
0.00281874942302
0.00912360574988
0.0421482463779
0.161561604918
0.000472195620521
0.000484106620154
0.000512093971663
0.000583618602659
0.000773604856376
0.00128758419401
0.00278622607361
0.00886776048506
0.0401092027355
0.160352599784
0.000471194538812
0.000483242495008
0.000511036824931
0.000581208940105
0.000766737809024
0.00126701394211
0.0027205783968
0.00860357618352
0.0386009523697
0.159539020252
0.000470010108346
0.000481983925804
0.000509045614401
0.00057675973942
0.000755909960699
0.00123945048295
0.00262344533683
0.00820173148687
0.0377917177249
0.159386690776
0.000468643500196
0.000480314550936
0.000506178977338
0.000570777340069
0.000743162343045
0.00121069226518
0.00252180671751
0.00765157586886
0.0361801648664
0.158832069438
0.000467101916974
0.00047827358573
0.000502569270472
0.000563726927656
0.000729525981157
0.00118036810411
0.00240042282569
0.00690769439023
0.0331722660448
0.156591619149
)
;

boundaryField
{
    back
    {
        lowReCorrection 0;
        blending        stepwise;
        n               2;
        type            epsilonWallFunction;
        value           nonuniform List<scalar> 
164
(
0.000468170000151
0.000471097766752
0.000475244981517
0.000482740479569
0.000500906974589
0.000555731537139
0.000736856485399
0.00133753878634
0.0034373273005
0.0122854081692
0.0452835838651
0.13023227384
0.000468310899017
0.000471230558086
0.000475329629673
0.000482683574886
0.00050048721947
0.000554349434501
0.000731869620918
0.00131080943457
0.00327793064995
0.0117033917602
0.0456821562601
0.145597140697
0.000475287348505
0.000482523034308
0.000499986045453
0.000552977053099
0.000729314972122
0.00131389945691
0.00332326842389
0.0117611661468
0.0471485395769
0.160756185293
0.000475141147465
0.000482299622603
0.000499479891518
0.000551632727863
0.000726900943147
0.00132148353495
0.00342376355205
0.0119705210741
0.0466461544281
0.160812102351
0.000474905543633
0.00048206711836
0.000499102285534
0.000550384842885
0.00072312564917
0.00131734777952
0.00344207104706
0.0119356413586
0.0458362172902
0.160617554084
0.000474615594844
0.000481935662884
0.000499164860876
0.000550024774823
0.000719200394862
0.00130247689733
0.00338955188721
0.0117501013239
0.0458271539223
0.161069125352
0.000474319627017
0.000482056189911
0.000500174346924
0.000552199690231
0.000719940776278
0.00128488160715
0.00328004540708
0.0114680955426
0.0463103050649
0.161851740828
0.000474052830489
0.000482537734394
0.000502474565469
0.000557946181762
0.000728101582667
0.00127107188141
0.00312317038776
0.0110235216548
0.0464831557972
0.162504456381
0.0004737973721
0.00048330258662
0.000505839306577
0.000566785852373
0.000743435929266
0.00127028302508
0.00296436729474
0.0103302233869
0.0458474172036
0.162783249679
0.000473471146739
0.000484062242927
0.000509302509982
0.000575958095389
0.000760739361832
0.00128187374902
0.00286264430413
0.00962655489551
0.0444110480545
0.162543149496
0.000472961070016
0.000484410623394
0.00051162590033
0.000582175503192
0.000772186901098
0.00129227281305
0.00281874942302
0.00912360574988
0.0421482463779
0.161561604918
0.000472195620521
0.000484106620154
0.000512093971663
0.000583618602659
0.000773604856376
0.00128758419401
0.00278622607361
0.00886776048506
0.0401092027355
0.160352599784
0.000471194538812
0.000483242495008
0.000511036824931
0.000581208940105
0.000766737809024
0.00126701394211
0.0027205783968
0.00860357618352
0.0386009523697
0.159539020252
0.000470010108346
0.000481983925804
0.000509045614401
0.00057675973942
0.000755909960699
0.00123945048295
0.00262344533683
0.00820173148687
0.0377917177249
0.159386690776
0.000468643500196
0.000480314550936
0.000506178977338
0.000570777340069
0.000743162343045
0.00121069226518
0.00252180671751
0.00765157586886
0.0361801648664
0.158832069438
0.000467101916974
0.00047827358573
0.000502569270472
0.000563726927656
0.000729525981157
0.00118036810411
0.00240042282569
0.00690769439023
0.0331722660448
0.156591619149
)
;
    }
    sides
    {
        lowReCorrection 0;
        blending        stepwise;
        n               2;
        type            epsilonWallFunction;
        value           nonuniform List<scalar> 0();
    }
    bottom
    {
        lowReCorrection 0;
        blending        stepwise;
        n               2;
        type            epsilonWallFunction;
        value           nonuniform List<scalar> 0();
    }
    front
    {
        lowReCorrection 0;
        blending        stepwise;
        n               2;
        type            epsilonWallFunction;
        value           nonuniform List<scalar> 
164
(
0.000468170000151
0.000471097766752
0.000475244981517
0.000482740479569
0.000500906974589
0.000555731537139
0.000736856485399
0.00133753878634
0.0034373273005
0.0122854081692
0.0452835838651
0.13023227384
0.000468310899017
0.000471230558086
0.000475329629673
0.000482683574886
0.00050048721947
0.000554349434501
0.000731869620918
0.00131080943457
0.00327793064995
0.0117033917602
0.0456821562601
0.145597140697
0.000475287348505
0.000482523034308
0.000499986045453
0.000552977053099
0.000729314972122
0.00131389945691
0.00332326842389
0.0117611661468
0.0471485395769
0.160756185293
0.000475141147465
0.000482299622603
0.000499479891518
0.000551632727863
0.000726900943147
0.00132148353495
0.00342376355205
0.0119705210741
0.0466461544281
0.160812102351
0.000474905543633
0.00048206711836
0.000499102285534
0.000550384842885
0.00072312564917
0.00131734777952
0.00344207104706
0.0119356413586
0.0458362172902
0.160617554084
0.000474615594844
0.000481935662884
0.000499164860876
0.000550024774823
0.000719200394862
0.00130247689733
0.00338955188721
0.0117501013239
0.0458271539223
0.161069125352
0.000474319627017
0.000482056189911
0.000500174346924
0.000552199690231
0.000719940776278
0.00128488160715
0.00328004540708
0.0114680955426
0.0463103050649
0.161851740828
0.000474052830489
0.000482537734394
0.000502474565469
0.000557946181762
0.000728101582667
0.00127107188141
0.00312317038776
0.0110235216548
0.0464831557972
0.162504456381
0.0004737973721
0.00048330258662
0.000505839306577
0.000566785852373
0.000743435929266
0.00127028302508
0.00296436729474
0.0103302233869
0.0458474172036
0.162783249679
0.000473471146739
0.000484062242927
0.000509302509982
0.000575958095389
0.000760739361832
0.00128187374902
0.00286264430413
0.00962655489551
0.0444110480545
0.162543149496
0.000472961070016
0.000484410623394
0.00051162590033
0.000582175503192
0.000772186901098
0.00129227281305
0.00281874942302
0.00912360574988
0.0421482463779
0.161561604918
0.000472195620521
0.000484106620154
0.000512093971663
0.000583618602659
0.000773604856376
0.00128758419401
0.00278622607361
0.00886776048506
0.0401092027355
0.160352599784
0.000471194538812
0.000483242495008
0.000511036824931
0.000581208940105
0.000766737809024
0.00126701394211
0.0027205783968
0.00860357618352
0.0386009523697
0.159539020252
0.000470010108346
0.000481983925804
0.000509045614401
0.00057675973942
0.000755909960699
0.00123945048295
0.00262344533683
0.00820173148687
0.0377917177249
0.159386690776
0.000468643500196
0.000480314550936
0.000506178977338
0.000570777340069
0.000743162343045
0.00121069226518
0.00252180671751
0.00765157586886
0.0361801648664
0.158832069438
0.000467101916974
0.00047827358573
0.000502569270472
0.000563726927656
0.000729525981157
0.00118036810411
0.00240042282569
0.00690769439023
0.0331722660448
0.156591619149
)
;
    }
    atmosphere
    {
        type            inletOutlet;
        inletValue      uniform 0.1;
        value           nonuniform List<scalar> 
16
(
0.13023227384
0.145597140697
0.160756185293
0.1
0.1
0.1
0.1
0.1
0.1
0.1
0.1
0.1
0.1
0.1
0.1
0.1
)
;
    }
    floatingObject
    {
        lowReCorrection 0;
        blending        stepwise;
        n               2;
        type            epsilonWallFunction;
        value           nonuniform List<scalar> 0();
    }
    procBoundary5to0
    {
        type            processor;
        value           nonuniform List<scalar> 
12
(
0.000467887303913
0.000470833836958
0.000475041549189
0.000482683308956
0.000501147156377
0.000556573987136
0.000740285237341
0.00136363229085
0.00361840912267
0.0128631475417
0.0448156963178
0.127396633444
)
;
    }
    procBoundary5to3
    {
        type            processor;
        value           nonuniform List<scalar> 10(0.000465550295285 0.000476259013682 0.000499139080101 0.000557444556102 0.000718395139866 0.00115571845136 0.00229732779685 0.00627864854379 0.0299825814463 0.153411331361);
    }
    procBoundary5to4
    {
        type            processor;
        value           nonuniform List<scalar> 
18
(
0.000465791148985
0.00046592479657
0.000468301504455
0.000471221481372
0.000471221481372
0.000471085417117
0.000470823411247
0.000470444858216
0.000469968462489
0.000469408509073
0.000468762354335
0.000468007806328
0.000467117804836
0.000466074302676
0.000464883791469
0.000463566314326
0.000462129183147
0.000460600491769
)
;
    }
}


// ************************************************************************* //
