/*--------------------------------*- C++ -*----------------------------------*\
| =========                 |                                                 |
| \\      /  F ield         | OpenFOAM: The Open Source CFD Toolbox           |
|  \\    /   O peration     | Version:  v2012                                 |
|   \\  /    A nd           | Website:  www.openfoam.com                      |
|    \\/     M anipulation  |                                                 |
\*---------------------------------------------------------------------------*/
FoamFile
{
    version     2.0;
    format      ascii;
    class       surfaceScalarField;
    location    "6";
    object      phi;
}
// * * * * * * * * * * * * * * * * * * * * * * * * * * * * * * * * * * * * * //

dimensions      [0 3 -1 0 0 0 0];
oriented        oriented;


internalField   nonuniform List<scalar> 
300
(
-8.67267990234e-06
-0.000204753904622
-1.06154960043e-05
-0.000211027677165
-1.2845850053e-05
-0.000217998175773
-1.54789210279e-05
-0.000225471661546
-1.88560204807e-05
-0.00023331705983
-2.32514942656e-05
-0.000241193577281
-2.9233801406e-05
-0.000247759787563
-3.67033642664e-05
-0.000253012651501
-4.43645746765e-05
-0.000262224785378
-5.12798851675e-05
-0.000293185660198
-1.63511443452e-05
-0.000311542924035
-0.000283585111359
-1.4644589598e-05
-1.7127913486e-05
-1.98188515058e-05
-0.000215290317994
-2.28231004956e-05
-0.000222448344045
-2.63729967509e-05
-0.000229746981767
-3.08013518786e-05
-0.000236745746054
-3.63471738091e-05
-0.000242197518175
-4.32265891706e-05
-0.000246122823152
-5.21817483416e-05
-0.00025326638218
-5.78547132868e-05
-0.000287516041257
0.000187601099543
-0.000556997995073
-0.000394689258545
-2.62089488444e-05
-0.000212074839427
-2.97250297219e-05
-0.000218916425392
-3.36496185623e-05
-0.000225805998086
-3.83315215398e-05
-0.000232048224513
-4.45162365643e-05
-0.000235999764474
-5.25705026743e-05
-0.000238060360662
-6.1541054833e-05
-0.000244293312862
-6.5374085612e-05
-0.000283681394973
0.000268985938139
-0.000891335094407
-0.000290053893201
-3.25695528917e-05
-0.000208602563646
-3.62689820904e-05
-0.000215203476974
-4.03047989894e-05
-0.000221756624515
-4.53007009964e-05
-0.00022703971496
-5.24219843269e-05
-0.00022886817542
-6.18008300326e-05
-0.000228675121312
-7.24805566988e-05
-0.000233611525604
-8.31233398915e-05
-0.000273038451551
-8.44975006673e-05
-0.000889973591254
-0.000310260384298
-3.86275904561e-05
-0.000205009834893
-4.23836182995e-05
-0.000211436129163
-4.63799496075e-05
-0.000217749359443
-5.13081151438e-05
-0.000222101689988
-5.90308167275e-05
-0.000221137630044
-6.97931478336e-05
-0.000217908017801
-8.21106649531e-05
-0.000221292457251
-9.34970563515e-05
-0.000261652326173
-0.000122278969485
-0.000861196678338
-0.000345049866395
-4.48104215621e-05
-0.000201090868191
-4.85831242705e-05
-0.000207654501423
-5.23918345022e-05
-0.000213932375886
-5.70685454846e-05
-0.000217417780064
-6.43567078427e-05
-0.000213843920508
-7.57504747569e-05
-0.000206510953381
-8.8529222085e-05
-0.000208512647057
-0.000101154989497
-0.000249026554362
-0.000145942291951
-0.000816413794568
-0.000375486894882
-5.14936492794e-05
-0.000196684751558
-5.55082200042e-05
-0.00020363359855
-5.95098339824e-05
-0.000209925135422
-6.4186379756e-05
-0.000212736525242
-7.07813383899e-05
-0.000207245450368
-8.05385210257e-05
-0.000196751717497
-9.17415693596e-05
-0.000197308926011
-0.000106877650161
-0.000233890468644
-0.00015519463596
-0.000768101685439
-0.000392202168463
-5.8923934606e-05
-0.000191579261536
-6.38800748461e-05
-0.00019867369892
-6.85878274551e-05
-0.000205214150617
-7.36387560714e-05
-0.000207682964941
-7.93088014542e-05
-0.000201573455415
-8.51851085633e-05
-0.000190874221142
-9.25796351862e-05
-0.000189913956374
-0.00011073450216
-0.000215735568419
-0.000155817284188
-0.000723022748536
-0.000394337802976
-6.68686351936e-05
-0.000185528789717
-7.29655912378e-05
-0.000192575173358
-7.93258754787e-05
-0.00019885244076
-8.56081490535e-05
-0.000201399417635
-8.98919696806e-05
-0.000197288525512
-9.16460657185e-05
-0.000189119252045
-9.49651084902e-05
-0.000186594454557
-0.000113921275979
-0.000196779300469
-0.000167476026885
-0.000669474863487
-0.00038326227889
-7.4799620874e-05
-0.000178367673793
-8.23775547201e-05
-0.000184997051781
-9.02374724956e-05
-0.000190991966444
-9.72947307963e-05
-0.000194341246216
-0.000101183885948
-0.000193398178952
-0.000100047757525
-0.000190254150895
-9.91832804699e-05
-0.000187458175368
-0.000115953470029
-0.000180008904341
-0.000184281987552
-0.000601151267804
-0.000364477249866
-8.23215894571e-05
-0.000170265025557
-9.09087978261e-05
-0.000176409877194
-9.96878622776e-05
-0.000182212037921
-0.000107296774487
-0.000186730641153
-0.000111157135765
-0.000189535556975
-0.00010994470147
-0.000191464307624
-0.000107047012618
-0.000190354526285
-0.000119468852136
-0.00016758670958
-0.000194597014983
-0.000526022041101
-0.000345811463318
-8.90340351621e-05
-0.000161771217907
-9.78082018287e-05
-0.000167634693879
-0.000106662724476
-0.000173355174549
-0.000114462003835
-0.000178927842235
-0.000118922608871
-0.000185070787731
-0.000119396602808
-0.000190986448294
-0.00011851644692
-0.00019123255811
-0.000126135932339
-0.000159966636521
-0.000180469470892
-0.000471687817158
-0.000330484996735
-9.50679883787e-05
-0.000153132011258
-0.000103676198329
-0.000159023402006
-0.000112119718143
-0.000164906967485
-0.000119590100819
-0.000171451421092
-0.000124874881533
-0.000179779440966
-0.000127576508291
-0.00018827910711
-0.000129810674449
-0.000188995381746
-0.000133288206585
-0.000156488229644
-0.000158784119663
-0.000446197263073
-0.000320334457031
-0.000100874763525
-0.00014439425223
-0.000109204901787
-0.000150686921649
-0.000117047423142
-0.000157055983631
-0.000123975473236
-0.00016451301693
-0.000129529702541
-0.000174214362949
-0.000134267015684
-0.000183532373503
-0.000138981703263
-0.000184275464129
-0.000141626046682
-0.000153842575696
-0.000148770766939
-0.000439050319083
-0.000311357470947
-0.000106653509082
-0.00013566925478
-0.000114504820604
-0.000142825100634
-0.000121408294488
-0.000150138447467
-0.000127653366096
-0.000158252140422
-0.000133586979226
-0.000168264098523
-0.00014006602356
-0.000177039848811
-0.000146252131951
-0.000178082722783
-0.000147071356062
-0.000153021858342
-0.000153030508872
-0.0004330676483
-0.000298392107033
-0.000112928304118
-0.000119990571307
-0.000125554602153
-0.000130682206292
-0.000136577652711
-0.000143914236655
-0.000150844472116
-0.000152132385433
-0.000162265834506
)
;

boundaryField
{
    back
    {
        type            calculated;
        value           uniform 0;
    }
    sides
    {
        type            calculated;
        value           nonuniform List<scalar> 0();
    }
    bottom
    {
        type            calculated;
        value           nonuniform List<scalar> 0();
    }
    front
    {
        type            calculated;
        value           uniform 0;
    }
    atmosphere
    {
        type            calculated;
        value           nonuniform List<scalar> 
16
(
6.38080212701e-05
0.000298706358985
0.000164339764444
-6.42813604514e-05
-8.74820122826e-05
-0.000115499313773
-0.000138473723383
-0.000153676984224
-0.000178544426524
-0.000203061369054
-0.000213261910627
-0.0001957940104
-0.000168926743464
-0.000157739908756
-0.000166000050051
-0.000191568319622
)
;
    }
    floatingObject
    {
        type            calculated;
        value           nonuniform List<scalar> 0();
    }
    procBoundary5to0
    {
        type            processor;
        value           nonuniform List<scalar> 
12
(
0.000206433689078
0.000212994313415
0.00022026073127
0.000228143545844
0.00023673626274
0.000245630140624
0.000253777329646
0.000260506322168
0.000269895119589
0.000300101634473
0.000276611032786
0.000203422661588
)
;
    }
    procBoundary5to3
    {
        type            processor;
        value           nonuniform List<scalar> 10(-0.000126948345017 -0.000135750153522 -0.000144558960675 -0.000153106029979 -0.000162350555014 -0.000169688720707 -0.000171145430386 -0.000151732058787 -0.000422900529085 -0.000269101253995);
    }
    procBoundary5to4
    {
        type            processor;
        value           nonuniform List<scalar> 
18
(
7.00848864104e-06
1.24821546828e-05
-0.000202582286423
-0.000208530784639
2.30138679896e-05
2.91157475205e-05
3.50514321034e-05
4.09055109653e-05
4.70982966201e-05
5.38253613407e-05
6.08212341632e-05
6.76385111364e-05
7.42174480798e-05
8.05392714128e-05
8.64302430211e-05
9.21422460389e-05
9.79393810914e-05
0.000104217990644
)
;
    }
}


// ************************************************************************* //
