/*--------------------------------*- C++ -*----------------------------------*\
| =========                 |                                                 |
| \\      /  F ield         | OpenFOAM: The Open Source CFD Toolbox           |
|  \\    /   O peration     | Version:  v2012                                 |
|   \\  /    A nd           | Website:  www.openfoam.com                      |
|    \\/     M anipulation  |                                                 |
\*---------------------------------------------------------------------------*/
FoamFile
{
    version     2.0;
    format      ascii;
    class       volScalarField;
    location    "6";
    object      rAU;
}
// * * * * * * * * * * * * * * * * * * * * * * * * * * * * * * * * * * * * * //

dimensions      [-1 3 1 0 0 0 0];


internalField   nonuniform List<scalar> 
164
(
2.19175663281e-05
2.19128329985e-05
2.191026423e-05
2.19078599501e-05
2.19010168603e-05
2.18866317372e-05
2.18601354738e-05
2.1771028373e-05
2.1630260392e-05
3.75928080882e-05
0.005165174195
0.0206248147823
2.1921482571e-05
2.19193167036e-05
2.19166334151e-05
2.19125441143e-05
2.19019321441e-05
2.18872789889e-05
2.18753905883e-05
2.18010337476e-05
2.16988324612e-05
3.6663115669e-05
0.00462800822982
0.0200180814539
2.19213039537e-05
2.1912210934e-05
2.18979518857e-05
2.18831878874e-05
2.18783147337e-05
2.17829013081e-05
2.1669056522e-05
3.56608183463e-05
0.00354535904879
0.019793371237
2.19196150528e-05
2.19120843508e-05
2.18970326059e-05
2.18841815852e-05
2.18818470539e-05
2.17604691955e-05
2.16422035416e-05
3.465328797e-05
0.0018845705558
0.0156810410927
2.19276640276e-05
2.19215373258e-05
2.19064049094e-05
2.18996536811e-05
2.18876817887e-05
2.1729263665e-05
2.1608534231e-05
3.37064114561e-05
0.00128545563894
0.0152540356533
2.19351545911e-05
2.19288785741e-05
2.19160322589e-05
2.19230100294e-05
2.18999480217e-05
2.16906095976e-05
2.15713121041e-05
3.28290448769e-05
0.000939859656912
0.0146754585663
2.19358115663e-05
2.1925569308e-05
2.19063011602e-05
2.19200582891e-05
2.18832483686e-05
2.16526647841e-05
2.15367267697e-05
3.19313322847e-05
0.000731768186373
0.0141812393484
2.19313488859e-05
2.19174067264e-05
2.18997681494e-05
2.18970845396e-05
2.1812917564e-05
2.16195242633e-05
2.15210961897e-05
3.10515357499e-05
0.000593175557733
0.0137216464445
2.19282628957e-05
2.19124699618e-05
2.18924512373e-05
2.18524755975e-05
2.17272262531e-05
2.15908405239e-05
2.15978500214e-05
3.02290354278e-05
0.000489818012617
0.0131461273152
2.19252359743e-05
2.19061240183e-05
2.18775283568e-05
2.17605661729e-05
2.16247867772e-05
2.15592563621e-05
2.14923938918e-05
2.91825479287e-05
0.000408445904294
0.0125213747059
2.19201719973e-05
2.19031473132e-05
2.1874689631e-05
2.17467260403e-05
2.15997816449e-05
2.15218611761e-05
2.14386450458e-05
2.85080402623e-05
0.000345591869869
0.012026165916
2.191808938e-05
2.19067629521e-05
2.18861007665e-05
2.17539906321e-05
2.16059975266e-05
2.15079098977e-05
2.13892048772e-05
2.78681460442e-05
0.000299173078426
0.0116284423483
2.19184511514e-05
2.19099932998e-05
2.18961789565e-05
2.1829959086e-05
2.16822855238e-05
2.15285906065e-05
2.1375712854e-05
2.72686692028e-05
0.000264870457646
0.0111705879611
2.19187504138e-05
2.19101385303e-05
2.18995401742e-05
2.18513268071e-05
2.17273170246e-05
2.15709987977e-05
2.13612785239e-05
2.66783797883e-05
0.000238919032268
0.0108337620613
2.19221992713e-05
2.19169264448e-05
2.19096091767e-05
2.18622774791e-05
2.17766049733e-05
2.16031618124e-05
2.13258006279e-05
2.6092844693e-05
0.00021757769151
0.0105071730042
2.19275588183e-05
2.19266353689e-05
2.19281821037e-05
2.18874899698e-05
2.18411743219e-05
2.16538835336e-05
2.13095270105e-05
2.57618652033e-05
0.000194023349741
0.010020906424
)
;

boundaryField
{
    back
    {
        type            calculated;
        value           nonuniform List<scalar> 
164
(
2.19175663281e-05
2.19128329985e-05
2.191026423e-05
2.19078599501e-05
2.19010168603e-05
2.18866317372e-05
2.18601354738e-05
2.1771028373e-05
2.1630260392e-05
3.75928080882e-05
0.005165174195
0.0206248147823
2.1921482571e-05
2.19193167036e-05
2.19166334151e-05
2.19125441143e-05
2.19019321441e-05
2.18872789889e-05
2.18753905883e-05
2.18010337476e-05
2.16988324612e-05
3.6663115669e-05
0.00462800822982
0.0200180814539
2.19213039537e-05
2.1912210934e-05
2.18979518857e-05
2.18831878874e-05
2.18783147337e-05
2.17829013081e-05
2.1669056522e-05
3.56608183463e-05
0.00354535904879
0.019793371237
2.19196150528e-05
2.19120843508e-05
2.18970326059e-05
2.18841815852e-05
2.18818470539e-05
2.17604691955e-05
2.16422035416e-05
3.465328797e-05
0.0018845705558
0.0156810410927
2.19276640276e-05
2.19215373258e-05
2.19064049094e-05
2.18996536811e-05
2.18876817887e-05
2.1729263665e-05
2.1608534231e-05
3.37064114561e-05
0.00128545563894
0.0152540356533
2.19351545911e-05
2.19288785741e-05
2.19160322589e-05
2.19230100294e-05
2.18999480217e-05
2.16906095976e-05
2.15713121041e-05
3.28290448769e-05
0.000939859656912
0.0146754585663
2.19358115663e-05
2.1925569308e-05
2.19063011602e-05
2.19200582891e-05
2.18832483686e-05
2.16526647841e-05
2.15367267697e-05
3.19313322847e-05
0.000731768186373
0.0141812393484
2.19313488859e-05
2.19174067264e-05
2.18997681494e-05
2.18970845396e-05
2.1812917564e-05
2.16195242633e-05
2.15210961897e-05
3.10515357499e-05
0.000593175557733
0.0137216464445
2.19282628957e-05
2.19124699618e-05
2.18924512373e-05
2.18524755975e-05
2.17272262531e-05
2.15908405239e-05
2.15978500214e-05
3.02290354278e-05
0.000489818012617
0.0131461273152
2.19252359743e-05
2.19061240183e-05
2.18775283568e-05
2.17605661729e-05
2.16247867772e-05
2.15592563621e-05
2.14923938918e-05
2.91825479287e-05
0.000408445904294
0.0125213747059
2.19201719973e-05
2.19031473132e-05
2.1874689631e-05
2.17467260403e-05
2.15997816449e-05
2.15218611761e-05
2.14386450458e-05
2.85080402623e-05
0.000345591869869
0.012026165916
2.191808938e-05
2.19067629521e-05
2.18861007665e-05
2.17539906321e-05
2.16059975266e-05
2.15079098977e-05
2.13892048772e-05
2.78681460442e-05
0.000299173078426
0.0116284423483
2.19184511514e-05
2.19099932998e-05
2.18961789565e-05
2.1829959086e-05
2.16822855238e-05
2.15285906065e-05
2.1375712854e-05
2.72686692028e-05
0.000264870457646
0.0111705879611
2.19187504138e-05
2.19101385303e-05
2.18995401742e-05
2.18513268071e-05
2.17273170246e-05
2.15709987977e-05
2.13612785239e-05
2.66783797883e-05
0.000238919032268
0.0108337620613
2.19221992713e-05
2.19169264448e-05
2.19096091767e-05
2.18622774791e-05
2.17766049733e-05
2.16031618124e-05
2.13258006279e-05
2.6092844693e-05
0.00021757769151
0.0105071730042
2.19275588183e-05
2.19266353689e-05
2.19281821037e-05
2.18874899698e-05
2.18411743219e-05
2.16538835336e-05
2.13095270105e-05
2.57618652033e-05
0.000194023349741
0.010020906424
)
;
    }
    sides
    {
        type            calculated;
        value           nonuniform List<scalar> 0();
    }
    bottom
    {
        type            calculated;
        value           nonuniform List<scalar> 0();
    }
    front
    {
        type            calculated;
        value           nonuniform List<scalar> 
164
(
2.19175663281e-05
2.19128329985e-05
2.191026423e-05
2.19078599501e-05
2.19010168603e-05
2.18866317372e-05
2.18601354738e-05
2.1771028373e-05
2.1630260392e-05
3.75928080882e-05
0.005165174195
0.0206248147823
2.1921482571e-05
2.19193167036e-05
2.19166334151e-05
2.19125441143e-05
2.19019321441e-05
2.18872789889e-05
2.18753905883e-05
2.18010337476e-05
2.16988324612e-05
3.6663115669e-05
0.00462800822982
0.0200180814539
2.19213039537e-05
2.1912210934e-05
2.18979518857e-05
2.18831878874e-05
2.18783147337e-05
2.17829013081e-05
2.1669056522e-05
3.56608183463e-05
0.00354535904879
0.019793371237
2.19196150528e-05
2.19120843508e-05
2.18970326059e-05
2.18841815852e-05
2.18818470539e-05
2.17604691955e-05
2.16422035416e-05
3.465328797e-05
0.0018845705558
0.0156810410927
2.19276640276e-05
2.19215373258e-05
2.19064049094e-05
2.18996536811e-05
2.18876817887e-05
2.1729263665e-05
2.1608534231e-05
3.37064114561e-05
0.00128545563894
0.0152540356533
2.19351545911e-05
2.19288785741e-05
2.19160322589e-05
2.19230100294e-05
2.18999480217e-05
2.16906095976e-05
2.15713121041e-05
3.28290448769e-05
0.000939859656912
0.0146754585663
2.19358115663e-05
2.1925569308e-05
2.19063011602e-05
2.19200582891e-05
2.18832483686e-05
2.16526647841e-05
2.15367267697e-05
3.19313322847e-05
0.000731768186373
0.0141812393484
2.19313488859e-05
2.19174067264e-05
2.18997681494e-05
2.18970845396e-05
2.1812917564e-05
2.16195242633e-05
2.15210961897e-05
3.10515357499e-05
0.000593175557733
0.0137216464445
2.19282628957e-05
2.19124699618e-05
2.18924512373e-05
2.18524755975e-05
2.17272262531e-05
2.15908405239e-05
2.15978500214e-05
3.02290354278e-05
0.000489818012617
0.0131461273152
2.19252359743e-05
2.19061240183e-05
2.18775283568e-05
2.17605661729e-05
2.16247867772e-05
2.15592563621e-05
2.14923938918e-05
2.91825479287e-05
0.000408445904294
0.0125213747059
2.19201719973e-05
2.19031473132e-05
2.1874689631e-05
2.17467260403e-05
2.15997816449e-05
2.15218611761e-05
2.14386450458e-05
2.85080402623e-05
0.000345591869869
0.012026165916
2.191808938e-05
2.19067629521e-05
2.18861007665e-05
2.17539906321e-05
2.16059975266e-05
2.15079098977e-05
2.13892048772e-05
2.78681460442e-05
0.000299173078426
0.0116284423483
2.19184511514e-05
2.19099932998e-05
2.18961789565e-05
2.1829959086e-05
2.16822855238e-05
2.15285906065e-05
2.1375712854e-05
2.72686692028e-05
0.000264870457646
0.0111705879611
2.19187504138e-05
2.19101385303e-05
2.18995401742e-05
2.18513268071e-05
2.17273170246e-05
2.15709987977e-05
2.13612785239e-05
2.66783797883e-05
0.000238919032268
0.0108337620613
2.19221992713e-05
2.19169264448e-05
2.19096091767e-05
2.18622774791e-05
2.17766049733e-05
2.16031618124e-05
2.13258006279e-05
2.6092844693e-05
0.00021757769151
0.0105071730042
2.19275588183e-05
2.19266353689e-05
2.19281821037e-05
2.18874899698e-05
2.18411743219e-05
2.16538835336e-05
2.13095270105e-05
2.57618652033e-05
0.000194023349741
0.010020906424
)
;
    }
    atmosphere
    {
        type            calculated;
        value           nonuniform List<scalar> 
16
(
0.0206248147823
0.0200180814539
0.019793371237
0.0156810410927
0.0152540356533
0.0146754585663
0.0141812393484
0.0137216464445
0.0131461273152
0.0125213747059
0.012026165916
0.0116284423483
0.0111705879611
0.0108337620613
0.0105071730042
0.010020906424
)
;
    }
    floatingObject
    {
        type            calculated;
        value           nonuniform List<scalar> 0();
    }
    procBoundary5to0
    {
        type            processor;
        value           nonuniform List<scalar> 
12
(
2.19178191321e-05
2.19136003022e-05
2.19093062869e-05
2.19041593261e-05
2.18969175164e-05
2.18799768439e-05
2.18398354829e-05
2.17282857273e-05
2.15849688559e-05
3.88518738802e-05
0.00521742590597
0.0166769046856
)
;
    }
    procBoundary5to3
    {
        type            processor;
        value           nonuniform List<scalar> 10(2.19314614925e-05 2.19264157793e-05 2.19330656495e-05 2.19109208609e-05 2.19146012828e-05 2.17387819057e-05 2.14513491449e-05 2.55279150626e-05 0.000167914517657 0.00943241272907);
    }
    procBoundary5to4
    {
        type            processor;
        value           nonuniform List<scalar> 
18
(
2.19209581942e-05
2.19223012104e-05
2.19269397255e-05
2.1926433643e-05
2.1926433643e-05
2.19235203445e-05
2.19285794022e-05
2.19357734857e-05
2.19364363282e-05
2.19329582888e-05
2.1931154131e-05
2.19307977503e-05
2.19278296451e-05
2.19249638223e-05
2.19241997007e-05
2.19249207837e-05
2.19274543238e-05
2.19317833477e-05
)
;
    }
}


// ************************************************************************* //
