/*--------------------------------*- C++ -*----------------------------------*\
| =========                 |                                                 |
| \\      /  F ield         | OpenFOAM: The Open Source CFD Toolbox           |
|  \\    /   O peration     | Version:  v2012                                 |
|   \\  /    A nd           | Website:  www.openfoam.com                      |
|    \\/     M anipulation  |                                                 |
\*---------------------------------------------------------------------------*/
FoamFile
{
    version     2.0;
    format      ascii;
    class       surfaceVectorField;
    location    "6";
    object      Uf;
}
// * * * * * * * * * * * * * * * * * * * * * * * * * * * * * * * * * * * * * //

dimensions      [0 1 -1 0 0 0 0];


internalField   nonuniform List<vector> 
300
(
(-0.0417489791527 -0.00173453598047 1.43262425732e-24)
(-0.0409507809244 -0.00213441597136 -1.61506796052e-24)
(-0.043101675403 -0.00212309920086 1.99682905674e-23)
(-0.0422055354331 -0.0025454123712 1.21310840356e-23)
(-0.0445803282541 -0.00256917001059 3.03685760499e-23)
(-0.0435996351547 -0.00301218177016 3.09553637188e-23)
(-0.0461700879873 -0.00309578420559 -1.03838336216e-23)
(-0.0450943323093 -0.0035416691672 3.51848287451e-23)
(-0.0478297054688 -0.00377120409614 -1.57628941326e-22)
(-0.046663411966 -0.00416480632545 -4.40137109651e-24)
(-0.0493968948827 -0.00465029885311 -3.04469499049e-22)
(-0.0482387154562 -0.00491197073381 -1.69585022981e-22)
(-0.0507157216936 -0.00584676028119 -8.78941240053e-24)
(-0.0495519575125 -0.00582724094862 -2.51363962935e-22)
(-0.0522634487078 -0.00734067285328 -1.8329930215e-21)
(-0.0506025303002 -0.00732358744259 6.61350228959e-22)
(-0.0562726765109 -0.00887291493531 -5.80518341254e-21)
(-0.0524449570756 -0.0110352607454 -1.95387993633e-21)
(-0.0583260062884 -0.0102559770335 -7.71934960822e-21)
(-0.0586371320395 -0.0130011189644 -6.20457578834e-21)
(-0.0539729971277 -0.00327022886904 -1.66700725509e-20)
(-0.062308584807 -0.00920488497344 -6.62351240497e-21)
(-0.0567170222719 0.0382699953959 -6.73895232911e-20)
(-0.0413338168549 -0.0029289179196 9.08339181775e-24)
(-0.0426305176693 -0.0034255826972 2.3118157187e-23)
(-0.0440459088935 -0.00396377030116 3.5771616414e-23)
(-0.0430580635987 -0.00429944695265 3.56175382649e-23)
(-0.0455325026952 -0.00456462009912 4.11672912702e-23)
(-0.0444896688089 -0.0049163926199 4.89620063287e-23)
(-0.047032837719 -0.00527459935017 -1.63574527518e-23)
(-0.0459493963535 -0.00561360164162 3.48532073649e-23)
(-0.0483799382294 -0.00616027037571 -1.16479486867e-22)
(-0.0473491492108 -0.00641303125489 -1.77545697056e-22)
(-0.0494449861046 -0.00726943476182 4.18775678425e-22)
(-0.0484395036349 -0.0073408248692 -5.69152588155e-22)
(-0.0507357996219 -0.00864531783412 5.4046331413e-22)
(-0.0492245646304 -0.00881377857868 -2.78245857011e-22)
(-0.0547910581205 -0.0104363496683 -2.35327231212e-21)
(-0.050653276436 -0.0125440137429 -9.95402007284e-22)
(-0.070977218887 -0.0115709426574 -5.10873858509e-21)
(-0.0575032082515 -0.0141383663708 -7.062293382e-21)
(-0.0750806627225 0.0375202199087 -5.73429631452e-20)
(-0.111399599015 -0.00590365061478 -8.82907132036e-21)
(-0.0789378517089 0.0670932182598 -5.88929238195e-20)
(-0.0434165799904 -0.00524178976888 4.88079281796e-23)
(-0.0424149678853 -0.00553794824198 4.69191253586e-23)
(-0.0448220226926 -0.00594500594438 4.26479224234e-23)
(-0.0437832850783 -0.00622826252855 4.90792835564e-23)
(-0.0461902033845 -0.00672992371245 -1.26335036939e-22)
(-0.0451611996173 -0.00697742930313 -2.66658929488e-23)
(-0.0473299353291 -0.00766630430797 -6.30218798344e-22)
(-0.0464096449026 -0.00781549290754 -5.41096017529e-22)
(-0.0481214436412 -0.00890324731285 -1.26617412359e-21)
(-0.0471999528948 -0.0088258627184 -1.83666391717e-21)
(-0.0490821748561 -0.0105141005349 -1.81411117842e-21)
(-0.0476120721324 -0.0104190064562 -2.50436382034e-21)
(-0.0534761348818 -0.0123082109666 -5.70442307716e-21)
(-0.0488586625723 -0.0145273394657 -3.4488310462e-21)
(-0.103051468227 -0.0130748171224 -1.07826261173e-20)
(-0.0567362789945 -0.0151312431743 -9.56211583052e-21)
(-0.10983497336 0.0537971876279 -1.03790319947e-20)
(-0.178267018881 -0.00964155216192 -1.19232096271e-20)
(-0.0580107786403 0.0273059184039 -5.61748922459e-21)
(-0.0427191828638 -0.00651391057834 4.71904807354e-23)
(-0.0417205127291 -0.00676467622741 4.73761266295e-23)
(-0.0440554527083 -0.00725379641807 -2.02345318158e-23)
(-0.0430406953949 -0.00748930839663 2.5268019701e-23)
(-0.045297180282 -0.00806095979787 -4.41426873538e-22)
(-0.044351324903 -0.00824951564544 -1.63165366365e-22)
(-0.0461662305201 -0.00906014019928 -1.74754113636e-21)
(-0.0454079429919 -0.00908238041722 -1.02904623223e-21)
(-0.0465691138246 -0.0104843968654 -3.07485361393e-21)
(-0.045773635084 -0.0101982339775 -2.63294133756e-21)
(-0.0472216148897 -0.0123601660065 -4.13908368812e-21)
(-0.0457350242625 -0.0118440725338 -1.77581803214e-21)
(-0.0516737259613 -0.0144961113398 -7.30652379956e-21)
(-0.0467223051208 -0.0163905538859 -5.12045747119e-21)
(-0.116800918629 -0.0166246679783 -1.07026993404e-20)
(-0.0546076903101 -0.0159979242309 -1.45231659998e-20)
(-0.11721647089 -0.0168995001335 -7.16166685697e-21)
(-0.177994718251 -0.0174940893768 -1.53825449618e-20)
(-0.0620520768595 -0.0165896695632 -1.08349063365e-21)
(-0.0419936976529 -0.00772551809122 2.54536655951e-23)
(-0.0410019669786 -0.00797209165274 4.36626914257e-23)
(-0.0432788605925 -0.00847672365989 -1.17662814849e-22)
(-0.0422872258326 -0.00872609194187 -1.52876660091e-24)
(-0.0443934929963 -0.0092759899215 -7.5078472506e-22)
(-0.0435498718886 -0.00947410604832 -2.7360428396e-22)
(-0.0449168549549 -0.0102616230288 -1.91444643343e-21)
(-0.0444203379975 -0.0102527197015 -1.25187990379e-21)
(-0.0447973041363 -0.0118061633455 -1.33390575577e-21)
(-0.0442275260088 -0.0114761056655 -2.54054945892e-21)
(-0.0450545673084 -0.0139586295667 -2.7571918152e-21)
(-0.0435816035602 -0.0129839242334 -1.38880965807e-21)
(-0.0494551279971 -0.0164221329906 -1.23370996715e-20)
(-0.0442584914503 -0.017827544879 -5.98916482027e-21)
(-0.11411359951 -0.0186994112703 -1.92030116213e-20)
(-0.0523304652346 -0.0165219018065 -1.70231133051e-20)
(-0.120264055197 -0.024455793897 -9.30436873849e-21)
(-0.172239335668 -0.0203007165263 -1.58927223869e-20)
(-0.069009973279 -0.0236956540807 -5.65670161822e-21)
(-0.0412516125103 -0.00896208431243 1.66802592297e-23)
(-0.0402181736382 -0.00921953328854 5.19003595552e-23)
(-0.042524860771 -0.0097166248541 -1.57470235712e-22)
(-0.0415309002847 -0.0100316744415 3.9188420544e-23)
(-0.0435398542314 -0.0104783669004 -7.74699462687e-22)
(-0.0427864751772 -0.0107893090846 -7.37240023553e-24)
(-0.0437014191477 -0.0114137090969 -1.87798292927e-21)
(-0.0434835560128 -0.0115143017547 -6.17538988139e-22)
(-0.0429319699227 -0.0128713415685 -2.59545336122e-21)
(-0.0427687841016 -0.0128072619059 -5.40566949464e-22)
(-0.0426713047085 -0.0151500949514 -4.62078266313e-21)
(-0.0413021906762 -0.0139765624 -3.52773715866e-21)
(-0.0470519210832 -0.017705844417 -1.06751784539e-20)
(-0.0417025294114 -0.0187854263836 -2.88898767518e-21)
(-0.109293370653 -0.0202309978995 -1.37128240707e-20)
(-0.0498053108725 -0.0165163265551 -5.20764389114e-21)
(-0.120220207708 -0.0291884583903 -1.22450552666e-20)
(-0.163282758914 -0.0223608455751 -2.8423007152e-21)
(-0.0750973789764 -0.0289982728684 -1.0103672666e-20)
(-0.0404547853497 -0.0102987298559 7.44085208695e-23)
(-0.0393369503116 -0.0105662314018 5.66064458237e-23)
(-0.0417643281139 -0.0111016440008 1.89286256021e-22)
(-0.04072671971 -0.011496067967 1.5028434034e-22)
(-0.042726621305 -0.0119019667965 1.49788074312e-22)
(-0.0419850270844 -0.0123568848754 6.83850355174e-22)
(-0.0425775993423 -0.0128372759512 7.19876991667e-22)
(-0.0425473050484 -0.01316167125 1.79598417587e-21)
(-0.0411741988054 -0.014156267678 -1.47285074691e-21)
(-0.0414490900736 -0.0145129409442 5.14923488016e-21)
(-0.0403722921386 -0.0161077042051 -1.79594217071e-21)
(-0.0393503434993 -0.0151437503075 4.26682675565e-21)
(-0.0444685914353 -0.0183483138719 2.57854688757e-21)
(-0.0394617852021 -0.0193005375558 9.06627307998e-21)
(-0.103486013539 -0.0213755300322 5.66287946435e-21)
(-0.0467780937287 -0.016065485937 1.38313288727e-20)
(-0.117966476275 -0.031038927192 -7.00918114553e-22)
(-0.153620337088 -0.023991183469 1.83793696424e-20)
(-0.0784404336927 -0.0320876454819 5.44178370987e-21)
(-0.0395513155369 -0.0117847869212 1.32482265294e-22)
(-0.0383158523071 -0.0120085969714 1.16252174503e-22)
(-0.0409159516136 -0.0127760149692 6.44848439493e-22)
(-0.039734739784 -0.0131194529556 4.96060410808e-22)
(-0.0418448179529 -0.013717565491 2.33004645673e-21)
(-0.0410428301234 -0.0142044560832 2.27833280078e-21)
(-0.0414858905145 -0.0147277512143 6.22534206436e-21)
(-0.0415365929883 -0.015272705114 7.40216891975e-21)
(-0.0397453328841 -0.0158617602908 1.08889123827e-20)
(-0.040314691083 -0.0167148723649 1.7165742447e-20)
(-0.0385984939209 -0.0170370217127 1.51290420063e-20)
(-0.0381748442284 -0.0167271843402 2.32176114033e-20)
(-0.0418229295341 -0.0185159270372 2.03190550651e-20)
(-0.0379827912747 -0.0197744657062 2.99389494919e-20)
(-0.0972926625276 -0.0221469004319 2.65478190507e-20)
(-0.0431471136839 -0.0155754996127 3.50468113446e-20)
(-0.114397104071 -0.0311634568376 2.45220714668e-20)
(-0.144604549707 -0.0254035414885 4.21072574433e-20)
(-0.0788675605952 -0.0355380780571 2.73991657764e-20)
(-0.0384589096094 -0.0133737270387 4.79830320017e-22)
(-0.0371057579433 -0.0134744050042 2.55359839297e-22)
(-0.0398291252684 -0.0145931182476 2.1295447721e-21)
(-0.0385150346715 -0.0148160211686 1.16726827804e-21)
(-0.040723442731 -0.0158651750957 7.3504552638e-21)
(-0.039770488152 -0.016196956095 4.93657132878e-21)
(-0.0404048115529 -0.0171216298107 1.83425693024e-20)
(-0.0402798835271 -0.0176023365193 1.5613676509e-20)
(-0.0388457725308 -0.0179783939361 2.94944414676e-20)
(-0.0394577051024 -0.0191147833404 3.45303431474e-20)
(-0.037661120569 -0.0183292131437 3.80275188888e-20)
(-0.037823850409 -0.018652818787 4.99992511978e-20)
(-0.0393704893627 -0.018993021698 4.46667057713e-20)
(-0.0373188909114 -0.0206752178766 6.14848780162e-20)
(-0.0903991307929 -0.0227842551957 5.06062497371e-20)
(-0.0393558600939 -0.0153858484089 6.1933885368e-20)
(-0.109054233503 -0.033495205377 4.49843517529e-20)
(-0.133894972697 -0.0265388641254 6.66127168948e-20)
(-0.0766524557781 -0.0405314664887 4.62482601292e-20)
(-0.0371000038109 -0.0149599241748 9.42797797326e-22)
(-0.0356735347586 -0.01490601744 3.94694041012e-22)
(-0.0384096190453 -0.016475510944 3.97429483473e-21)
(-0.0369994103561 -0.0164690152081 1.75083661388e-21)
(-0.0393116193272 -0.0180474944991 1.3199792574e-20)
(-0.0381983932888 -0.0181046137482 7.03374493084e-21)
(-0.0393168853806 -0.0194589461593 3.1801450354e-20)
(-0.0388682492432 -0.0197747157696 2.2050674922e-20)
(-0.0384389894554 -0.0202367771896 5.50351528776e-20)
(-0.0386796357903 -0.0213234687708 4.82374022082e-20)
(-0.037553451054 -0.0200095515049 7.34566103252e-20)
(-0.0380508301789 -0.0206504842189 7.33664585439e-20)
(-0.037392690502 -0.019836656094 7.8752057613e-20)
(-0.0374916350737 -0.0221740871766 8.78804725975e-20)
(-0.0820626590102 -0.0231906940059 7.79403525258e-20)
(-0.0360017808681 -0.0156933868876 8.53197172244e-20)
(-0.101091769774 -0.0368563975104 6.78766252711e-20)
(-0.120230253561 -0.0273332409941 8.02271500393e-20)
(-0.0728954499731 -0.0444211964693 5.80362458184e-20)
(-0.0354970296367 -0.0164643178914 1.20273285756e-21)
(-0.0340530051115 -0.0162639251967 4.83356519529e-22)
(-0.0367219356134 -0.0181817595652 4.81028670999e-21)
(-0.0352819754389 -0.0179490806713 1.75324374834e-21)
(-0.0376926530886 -0.0199375724555 1.58846272789e-20)
(-0.0364424075841 -0.0196985755843 6.85069068617e-21)
(-0.0381696647298 -0.0214593548974 3.84866267761e-20)
(-0.0373461282306 -0.0214812652207 2.18395935775e-20)
(-0.0382044383659 -0.022231427153 6.65687078745e-20)
(-0.0379071113951 -0.0230567581243 4.88949900226e-20)
(-0.0379240742027 -0.021988940294 8.77903208162e-20)
(-0.0382928615248 -0.0224581125689 7.20053164317e-20)
(-0.0360719551227 -0.0214094025235 9.44481322088e-20)
(-0.0380709052569 -0.024191431448 8.92659084889e-20)
(-0.0728406320902 -0.0238937704272 8.76065147379e-20)
(-0.033517341916 -0.0167368533402 9.00418053854e-20)
(-0.091091337624 -0.0389194029965 7.03867705866e-20)
(-0.10520440822 -0.0280524630715 7.31364280733e-20)
(-0.0691622926635 -0.043728086143 5.23195188428e-20)
(-0.0337657737939 -0.0178068070324 1.0338674103e-21)
(-0.0323542435814 -0.0175192772758 4.06974443801e-22)
(-0.034925461832 -0.0195616403657 3.79364772452e-21)
(-0.0335269387759 -0.0192355648822 1.18333655002e-21)
(-0.0359934427494 -0.0213325448952 1.28056569848e-20)
(-0.0346710349098 -0.020971933041 4.58353671155e-21)
(-0.0369539896949 -0.0228924007671 3.2247956824e-20)
(-0.0357855684471 -0.0227186111111 1.50140431641e-20)
(-0.0378411519754 -0.0237845217742 5.43315985798e-20)
(-0.0370141575462 -0.0242770294861 3.48656925991e-20)
(-0.038241915416 -0.0238793205616 7.34809041044e-20)
(-0.0381972896589 -0.0239453817228 5.34363721686e-20)
(-0.0353762196141 -0.0237032893841 8.48595816655e-20)
(-0.0382465116221 -0.0263619962191 7.08156144127e-20)
(-0.065602452328 -0.0252271864678 7.55717187208e-20)
(-0.0319933273042 -0.0182333277153 7.12352406576e-20)
(-0.0827536649374 -0.0360938941783 5.50691763294e-20)
(-0.0943375634317 -0.0288723813095 5.33092240321e-20)
(-0.0660969993469 -0.0387856888981 3.92091131822e-20)
(-0.0320265234698 -0.0190135976757 5.56443583521e-22)
(-0.0306264022517 -0.0187039440785 3.32066433997e-22)
(-0.0331781672614 -0.0207352396658 1.97322553705e-21)
(-0.0318046804011 -0.0204146459217 6.82060423647e-22)
(-0.0343547701267 -0.0224239436287 6.79192289086e-21)
(-0.0329813934969 -0.0220800766145 2.40011764025e-21)
(-0.0357013915187 -0.0239180201639 1.76317789392e-20)
(-0.0342902842185 -0.0236991835663 7.78034943037e-21)
(-0.0372042004963 -0.0249749763066 3.3970466188e-20)
(-0.0359558881932 -0.0251772516752 1.91580059011e-20)
(-0.0380470125761 -0.0255153016582 5.07710824769e-20)
(-0.037655821422 -0.0251079134745 3.27804294659e-20)
(-0.0348775721439 -0.0259621348899 5.71912734047e-20)
(-0.0377990763492 -0.0283080638125 4.40148701509e-20)
(-0.0616566487236 -0.026657641317 4.89727459688e-20)
(-0.0312976459289 -0.0196231160812 4.27873037375e-20)
(-0.0780766953661 -0.0317568239326 3.74491608849e-20)
(-0.0892394526147 -0.0301742037405 3.021860663e-20)
(-0.0640668914061 -0.0340279105179 2.46192581451e-20)
(-0.030302461443 -0.020174952705 4.57683274123e-22)
(-0.028878850446 -0.0198750518101 5.03013055729e-22)
(-0.0315127648189 -0.0218409803574 1.10895252684e-21)
(-0.0301373843298 -0.0215535272644 6.89753636095e-22)
(-0.0328252575124 -0.0234094846284 3.38854417976e-21)
(-0.0314111967261 -0.0230999736951 1.54078826861e-21)
(-0.0344463325209 -0.0247950946472 9.3065763922e-21)
(-0.0329026033859 -0.0245402942534 4.02443336034e-21)
(-0.0362964828611 -0.0259059405082 1.7967969179e-20)
(-0.0348428725898 -0.025914724767 9.66631929171e-21)
(-0.0373167606528 -0.0268534031368 2.60242171399e-20)
(-0.0367064747005 -0.0260600099776 1.6864908126e-20)
(-0.0342480942025 -0.0277963406526 2.96109004836e-20)
(-0.0368550928259 -0.0299125794929 2.25850067121e-20)
(-0.0599307608382 -0.0283252093363 2.40331643987e-20)
(-0.0307685151392 -0.0207599149299 2.1218725884e-20)
(-0.0758654837199 -0.0297541533877 1.73887038903e-20)
(-0.0878100638166 -0.0316128316736 1.49809594269e-20)
(-0.0622714941894 -0.0327168535639 1.28450415656e-20)
(-0.0286042730461 -0.0213307018164 7.35083417701e-22)
(-0.027133850956 -0.0211070310486 1.76860831181e-21)
(-0.0299400228684 -0.0229009641208 1.12158937786e-21)
(-0.0285650201268 -0.0227231584711 2.03218036963e-21)
(-0.0314039491215 -0.0242816588976 2.17667744919e-21)
(-0.0300276894934 -0.0240752233733 2.51225757335e-21)
(-0.0332041045379 -0.0255306732192 4.38417625985e-21)
(-0.0316504280845 -0.0252572610417 3.45315340278e-21)
(-0.0351585408388 -0.0267173958452 8.56325823871e-21)
(-0.0336528197046 -0.0264958599152 5.01955502662e-21)
(-0.0362016170856 -0.028013204712 1.34256976983e-20)
(-0.0354079697623 -0.026875174687 7.39626775115e-21)
(-0.0335084709663 -0.0292504263903 1.41928321125e-20)
(-0.0356165445566 -0.0310137646575 1.08274683372e-20)
(-0.0591052797799 -0.0294142712125 1.21665209123e-20)
(-0.0306043716684 -0.0215574041698 1.02383022644e-20)
(-0.0742366911996 -0.0306061017745 1.04372971023e-20)
(-0.08661352966 -0.0326563981745 1.32309684131e-20)
(-0.0596784214067 -0.0356331140095 1.12564873346e-20)
(-0.0269829798577 -0.0225856608236 3.06570526374e-21)
(-0.0285492988759 -0.0239981142613 3.42284856512e-21)
(-0.0301763212796 -0.0251109204305 3.78873352694e-21)
(-0.0320155903966 -0.0261364412585 4.08853216955e-21)
(-0.0338410041697 -0.0273155305422 3.85256453906e-21)
(-0.0347877850639 -0.028782847331 4.79803839003e-21)
(-0.032685870447 -0.0301688944231 6.87293848903e-21)
(-0.0584608106779 -0.0304264770866 1.13027497652e-20)
(-0.0721702060409 -0.0324531669012 1.40501586454e-20)
)
;

boundaryField
{
    back
    {
        type            calculated;
        value           uniform (0 0 0);
    }
    sides
    {
        type            calculated;
        value           nonuniform List<vector> 0();
    }
    bottom
    {
        type            calculated;
        value           nonuniform List<vector> 0();
    }
    front
    {
        type            calculated;
        value           uniform (0 0 0);
    }
    atmosphere
    {
        type            calculated;
        value           nonuniform List<vector> 
16
(
(-0.0506168847632 0.012761604254 -2.55214782488e-20)
(-0.0662236288613 0.059741271797 -1.09257568333e-19)
(-0.0707894107075 0.0328679528888 -8.52827930561e-21)
(0 -0.0128562720903 0)
(0 -0.0174964024565 0)
(0 -0.0230998627546 0)
(0 -0.0276947446765 0)
(0 -0.0307353968447 0)
(0 -0.0357088853048 0)
(0 -0.0406122738107 0)
(0 -0.0426523821254 0)
(0 -0.0391588020801 0)
(0 -0.0337853486927 0)
(0 -0.0315479817512 0)
(0 -0.0332000100101 0)
(0 -0.0383136639245 0)
)
;
    }
    floatingObject
    {
        type            calculated;
        value           nonuniform List<vector> 0();
    }
    procBoundary5to0
    {
        type            processor;
        value           nonuniform List<vector> 
12
(
(-0.0412867378155 -0.000974880405354 -2.56398053637e-24)
(-0.0425988626829 -0.00127073470022 -2.49154817377e-24)
(-0.0440521462541 -0.00163298325465 3.25578190034e-23)
(-0.0456287091688 -0.0020728303888 1.20003422847e-23)
(-0.047347252548 -0.00261721211944 -1.00992807975e-22)
(-0.0491260281248 -0.00331586132658 -4.09369649846e-22)
(-0.0507554659292 -0.00427834692069 -3.4545173929e-22)
(-0.0521012644336 -0.00592402230014 4.56929776336e-22)
(-0.0539790239178 -0.00992323967806 -2.14141406622e-21)
(-0.0600203268947 -0.0118290514179 -8.3848578692e-21)
(-0.0553222065572 -0.00914577375104 -8.34054719375e-21)
(-0.0406845323176 0.0012872783596 -1.55232304864e-20)
)
;
    }
    procBoundary5to3
    {
        type            processor;
        value           nonuniform List<vector> 10((-0.0253896690034 -0.0225639271326 9.33916426062e-21) (-0.0271500307045 -0.0241557367884 1.06365155572e-20) (-0.028911792135 -0.0252532396074 1.10411666459e-20) (-0.0306212059958 -0.0260671301033 9.87334218081e-21) (-0.0324701110027 -0.0270879795912 7.07585115678e-21) (-0.0339377441415 -0.02764093143 3.60320622584e-21) (-0.0342290860772 -0.0314050341006 5.66090406187e-21) (-0.0303464117575 -0.0216858918985 7.94485716389e-21) (-0.0845801058171 -0.0339645885412 1.40764533685e-20) (-0.0538202507991 -0.0460265317082 1.21999953833e-20));
    }
    procBoundary5to4
    {
        type            processor;
        value           nonuniform List<vector> 
18
(
(-0.0405487391269 -0.00140169772821 -4.05505020244e-24)
(-0.0401921587906 -0.00249643093655 -3.85151048889e-26)
(-0.0405164572846 -0.00324711341241 1.05514972576e-23)
(-0.0417061569277 -0.00374396975431 2.25019779338e-23)
(-0.0420637999065 -0.00460277359791 3.50013590116e-23)
(-0.0414305218904 -0.00582314950409 3.75907819579e-23)
(-0.0407396623601 -0.00701028642068 3.94921541723e-23)
(-0.0399906300771 -0.00818110219305 4.14842551484e-23)
(-0.0391588992314 -0.00941965932401 5.40723697451e-23)
(-0.038203599159 -0.0107650722681 6.77728234425e-23)
(-0.037078946866 -0.0121642468326 1.49306250111e-22)
(-0.0357536886689 -0.0135277022273 2.40229694927e-22)
(-0.0342408972323 -0.014843489616 3.00701950666e-22)
(-0.0325939918248 -0.0161078542826 3.48563022911e-22)
(-0.0308781127634 -0.0172860486042 2.71038591671e-22)
(-0.0291196419336 -0.0184284492078 3.0940696464e-22)
(-0.0273229192724 -0.0195878762183 6.19961971214e-22)
(-0.0254935374495 -0.0208435981289 2.77376921027e-21)
)
;
    }
}


// ************************************************************************* //
