/*--------------------------------*- C++ -*----------------------------------*\
| =========                 |                                                 |
| \\      /  F ield         | OpenFOAM: The Open Source CFD Toolbox           |
|  \\    /   O peration     | Version:  v2012                                 |
|   \\  /    A nd           | Website:  www.openfoam.com                      |
|    \\/     M anipulation  |                                                 |
\*---------------------------------------------------------------------------*/
FoamFile
{
    version     2.0;
    format      ascii;
    class       volVectorField;
    location    "3.3";
    object      ddtCorrDdt0(U);
}
// * * * * * * * * * * * * * * * * * * * * * * * * * * * * * * * * * * * * * //

dimensions      [0 1 -2 0 0 0 0];


internalField   nonuniform List<vector> 
166
(
(0.0364767073784 0.00166096272198 -6.23571018484e-25)
(0.0358027675264 0.00544519904815 -1.22638280313e-23)
(0.0359249368669 0.009129178252 4.61357308114e-23)
(0.0357744422754 0.0128097811358 -1.23315237815e-22)
(0.0354719859117 0.016587734681 1.78029313087e-23)
(0.0350388356734 0.0204375673786 8.12889516054e-23)
(0.034421918777 0.0243500467173 1.02185498695e-23)
(0.033544501557 0.0283030941845 1.32955747247e-23)
(0.0323285986027 0.0322396578372 -1.58954679912e-22)
(0.0306710176125 0.0360750306346 1.53764220065e-23)
(0.0284437010989 0.0396811201602 9.64178259596e-23)
(0.0255274903808 0.0428348962525 -9.73720579335e-23)
(0.0218209091082 0.0451642732145 -1.75011294336e-22)
(0.0171953421736 0.0465104945408 -1.2653312877e-21)
(0.0113018514128 0.0461114004419 -5.73258534221e-23)
(0.00414296332799 0.0366528104704 -8.06546550827e-21)
(0.000935200065787 0.0215249637103 -1.45628401188e-20)
(0.0188860526545 -0.0198117611348 -1.66241639816e-20)
(-0.677613509344 0.405658998034 -4.57135724933e-20)
(0.555658714787 0.769061887459 1.08799077446e-19)
(0.032900404414 0.00160680674936 6.97541934248e-23)
(0.032215672785 0.00535635636212 5.66898666681e-24)
(0.0323035340503 0.00897312778594 1.51367042036e-23)
(0.0321077081275 0.0125500596483 -9.65013996401e-23)
(0.0317558879029 0.0162036247321 -7.32065399888e-23)
(0.031275999299 0.0198913197356 -8.7102633197e-23)
(0.0306376896895 0.0235892898861 -4.52210998313e-23)
(0.0297807497045 0.0272669898154 8.51686784319e-23)
(0.0286497668718 0.030858358887 -6.78017677162e-23)
(0.0271883074816 0.0342574608611 -2.12109570194e-22)
(0.0253299445999 0.0373286174698 -2.45007682462e-23)
(0.0230246262385 0.0398708560385 -3.13706034603e-22)
(0.0203043429082 0.0415513693771 -4.47073711044e-22)
(0.0172743088643 0.0423569594236 -1.05223698398e-21)
(0.0140587842522 0.0417939458199 -6.3260064285e-22)
(0.0114706433481 0.0337993313969 -4.398475259e-21)
(0.0119801915958 0.0261824100226 -2.14682595359e-21)
(0.0240910861119 -0.0112537149213 -6.4812937335e-21)
(-1.3590772418 0.378358231527 1.47718970318e-19)
(0.51805936495 0.104536683011 3.88599900645e-20)
(0.0293827847231 0.0015510851546 -4.36506003406e-24)
(0.0287194249326 0.00524851972961 -1.72408338282e-23)
(0.0287720702721 0.00877797870839 -7.81712655857e-23)
(0.0285484479635 0.0122521729152 -4.8043293596e-23)
(0.0281761030514 0.0157875041659 -2.4479844869e-23)
(0.0276904759319 0.0193341244563 -5.02161094731e-23)
(0.0270648674013 0.0228593879747 -1.44303405897e-23)
(0.0262766307879 0.0263187732357 -7.88089777135e-23)
(0.0252922634538 0.0296512474699 2.06678152463e-23)
(0.0240889518084 0.0327572440974 6.37656319937e-23)
(0.0226523021085 0.0355038636225 -2.01444444946e-23)
(0.0209979725979 0.0377189891559 -1.87867098991e-22)
(0.0192185544968 0.0391337059208 -5.70508818241e-22)
(0.0175012253627 0.0398774435675 -8.49783402122e-22)
(0.0161979446766 0.0397378696666 -2.75472090643e-21)
(0.0163490602087 0.0336511399754 5.27848862762e-21)
(0.0154808404838 0.030152864767 7.73220506384e-22)
(0.0202758126849 -0.0038442513251 1.07772768544e-20)
(-1.37562108062 0.293998455413 5.75955121029e-19)
(0.338726870425 -0.546000780672 9.75857419405e-20)
(0.0259580726431 0.001504131378 -3.67310909866e-24)
(0.0252955751594 0.00513121564317 -1.11668778822e-22)
(0.0253284474118 0.00855717820387 -9.01900362912e-23)
(0.0250923467223 0.0119360801231 -6.03737975457e-23)
(0.0247129089709 0.0153697791498 -2.37376189101e-23)
(0.0242362406676 0.0187917936525 -4.06658885686e-24)
(0.0236485680885 0.0221794045949 -7.54648467124e-23)
(0.0229515538628 0.0254974369336 2.43888583368e-23)
(0.0221418446808 0.028675045343 -1.10678485596e-22)
(0.0212221195512 0.0316198116185 -8.62999583179e-23)
(0.0202131228801 0.034216882416 -5.5786152875e-23)
(0.0191792239409 0.0363163510289 -2.88714908727e-22)
(0.0182198474669 0.0376857154448 -6.92528628483e-22)
(0.0175455363537 0.038504186202 -1.27912334662e-21)
(0.0177042710414 0.0385671661667 -3.06250632135e-22)
(0.0196121743452 0.0331520334889 8.80822986902e-21)
(0.0163709524184 0.030626634513 1.30541170731e-20)
(0.0142887711742 -0.000770264858408 1.59290249515e-20)
(-0.880112648319 0.215336679917 7.00206001785e-19)
(0.178448304212 -0.790013050299 4.79749879404e-20)
(0.022617339286 0.00144319537766 -1.1911748687e-22)
(0.0219624210578 0.00499413423168 1.87989719765e-23)
(0.0219774693355 0.00833026052519 7.47438624577e-23)
(0.0217294225944 0.011610773153 1.07358872492e-23)
(0.0213467439914 0.0149493556166 1.92858767067e-25)
(0.0208808038791 0.0182789975535 -4.63030838966e-23)
(0.0203438075903 0.021578793318 -4.81870102722e-23)
(0.0197435124347 0.0248151414427 5.67316108975e-23)
(0.0190992560865 0.0279259504457 -1.19967405084e-22)
(0.0184474564591 0.0308307172397 -5.15222784066e-23)
(0.0178500293227 0.0334350598984 -1.0827191596e-23)
(0.0173650048285 0.03558524135 -2.13951275335e-22)
(0.0171396508317 0.0370530279319 -4.45867006092e-22)
(0.0174217784376 0.0380699992627 -8.72219698261e-23)
(0.0189759723329 0.0381938535647 4.05212241523e-21)
(0.02211977564 0.0331401320595 1.01368623619e-20)
(0.0176963738116 0.031642257822 1.59515161635e-21)
(0.0133756388693 0.0029464188247 -1.30117443462e-20)
(-0.304358308012 0.148192049848 5.09899381243e-19)
(0.0808208103545 -0.703237330354 2.5961365369e-20)
(0.0193756602329 0.00138991106365 1.23706575441e-22)
(0.018736950734 0.00485515221096 6.46604319553e-23)
(0.0187266452255 0.00808425085095 2.70392808136e-22)
(0.0184628497603 0.011275438704 5.57175919228e-23)
(0.0180714208585 0.0145340887695 4.23057341463e-23)
(0.0176112741236 0.0177933116442 -1.04341468347e-23)
(0.0171032468616 0.021042659584 -2.38235196216e-24)
(0.016576286665 0.0242548811008 4.16574362392e-24)
(0.016069360284 0.0273820448391 -3.77210307342e-23)
(0.015648315603 0.030365682026 -1.43074045453e-23)
(0.015377532629 0.0331009804877 5.4498799536e-24)
(0.0153739486632 0.0354501173593 -8.15988642833e-23)
(0.0158300886894 0.0372196884292 -1.52497800501e-22)
(0.0170535000063 0.038610273367 -7.6171446483e-22)
(0.0199155412419 0.0388345052393 7.00433862778e-22)
(0.0240326722621 0.0348234791542 -2.45205556228e-21)
(0.0195028338166 0.0338784817427 8.98232206146e-22)
(0.0163908009799 0.00767065726532 -6.2883947588e-21)
(0.0989262608511 0.126002390845 1.66375479175e-20)
(-0.0068548956119 -0.390888611247 2.26727825246e-20)
(0.0162360662892 0.001322591957 1.61213658191e-22)
(0.0155996479769 0.0046960791267 1.19961622241e-22)
(0.015567680812 0.00782291077782 1.20915223445e-22)
(0.0152827499584 0.0109227386908 1.06922519252e-23)
(0.0148686337273 0.0141062902729 1.77110151349e-24)
(0.0143898852087 0.0173134235614 -2.29045303244e-23)
(0.0138800055354 0.0205428214741 4.77305805233e-24)
(0.0133846265638 0.0237800742395 3.84862892284e-23)
(0.0129563847933 0.0269955212131 3.08414018656e-23)
(0.0126728821199 0.0301312375979 -3.41076793551e-24)
(0.0126398412688 0.0331275250317 3.04667572853e-23)
(0.0130325475601 0.0358611363554 -1.08989550139e-22)
(0.0140767521643 0.0381632863981 -2.49698800034e-22)
(0.0161508642051 0.0401863116319 -8.18757937249e-22)
(0.0201580542635 0.0409614034905 -2.03659147296e-21)
(0.0252027568828 0.0389540350593 -4.13422696173e-21)
(0.0218329453459 0.0379533122753 -9.76870680924e-22)
(0.0228626864559 0.0141936772986 -1.63843548809e-20)
(0.12515363284 0.178341642372 -5.51274657089e-20)
(-0.0297273149476 0.130497377763 -1.08469010586e-20)
(0.0132019290291 0.00125820154559 1.43047443811e-22)
(0.0125795263737 0.00452441218622 3.26795126645e-23)
(0.0125112453737 0.00754090550049 -3.782610615e-23)
(0.0121873084028 0.0105429240192 -5.10436820547e-23)
(0.0117300164443 0.0136489990225 -1.83954220207e-23)
(0.011205880329 0.016806618572 -2.34140486559e-25)
(0.0106558583415 0.0200338604498 1.52206795929e-24)
(0.0101219516697 0.023325693221 1.44186864992e-23)
(0.0096827676078 0.0266654212764 2.88381717636e-23)
(0.00943556050828 0.0300398080393 -9.15680566171e-24)
(0.00952499421835 0.0334167632765 -3.08022418368e-24)
(0.0101561253874 0.0366900340139 -9.56572236168e-23)
(0.0115809878147 0.0397765624264 -2.81595543056e-22)
(0.0142705792404 0.0427950220775 -1.20388724162e-21)
(0.0190078845458 0.0448957728573 -4.26185243001e-21)
(0.0246329593694 0.0458375999862 -1.5925515338e-21)
(0.0238907086266 0.0456268725593 -8.97366229492e-21)
(0.0293983748847 0.024325199797 2.37260918712e-21)
(-0.26073480774 0.26178381885 9.23763501512e-20)
(0.0909657205071 0.523035479273 3.23219636158e-20)
(0.0103141564492 0.00119213762432 5.27478241877e-23)
(0.00968847578483 0.00432758224439 -2.51816608453e-23)
(0.00957586879758 0.00721457781951 -9.14416629623e-23)
(0.00757177269265 0.00109839698012 -7.96763900294e-23)
(0.00497385571803 0.00100086534687 2.53813250667e-22)
(0.0025657364534 0.000896662359306 9.4200403563e-23)
)
;

boundaryField
{
    back
    {
        type            calculated;
        value           uniform (0 0 0);
    }
    sides
    {
        type            calculated;
        value           nonuniform List<vector> 0();
    }
    bottom
    {
        type            calculated;
        value           uniform (0 0 0);
    }
    front
    {
        type            calculated;
        value           uniform (0 0 0);
    }
    atmosphere
    {
        type            calculated;
        value           nonuniform List<vector> 8((-0.000278733747584 0.769061887459 -1.38938416679e-23) (-4.00551605427e-05 0.104536683011 -4.50208022712e-25) (-4.06720080416e-05 -0.546000780672 -8.189687252e-24) (-3.00187032981e-05 -0.790013050299 -8.99935531339e-24) (-8.06963673389e-09 -0.703237330354 -1.76501490324e-27) (2.28072380773e-08 -0.390888611247 -3.35233641963e-27) (-1.78293778549e-07 0.130497377763 3.02724591225e-26) (2.99107221345e-07 0.523035479273 -4.96823745369e-26));
    }
    floatingObject
    {
        type            calculated;
        value           nonuniform List<vector> 0();
    }
    procBoundary9to6
    {
        type            processor;
        value           nonuniform List<vector> 4((-0.0173791946733 0.0265161901639 5.94954685098e-20) (-0.00512397838886 -0.0177146435874 -1.80432957422e-20) (0.249140460398 0.416976874032 -1.62094453305e-19) (0.408878556295 1.20986378488 8.65539662024e-21));
    }
    procBoundary9to7
    {
        type            processor;
        value           nonuniform List<vector> 
16
(
(0.0400926430832 0.00169105827288 -7.84933802669e-23)
(0.039448642322 0.00549257368939 -4.50942982566e-23)
(0.039620426855 0.00924022168024 3.37333950428e-23)
(0.0395399755667 0.0130048022773 -1.34128208995e-22)
(0.0393242410244 0.016902492961 -3.42657457919e-23)
(0.0389872056314 0.0209230665703 -6.25060045658e-23)
(0.0384598521675 0.0250763761748 -1.01455687354e-22)
(0.0376496367665 0.0293564599411 1.47827916942e-22)
(0.0364476145652 0.0337278863734 -1.65268290177e-22)
(0.0347068999668 0.0381383768083 -1.7571001082e-22)
(0.032251441508 0.0424832396515 7.43521849205e-23)
(0.0288662489092 0.0465716729227 -1.26097968239e-22)
(0.0242614364769 0.0500885168875 7.65020620239e-23)
(0.0180566356213 0.0528181184198 -1.06855244232e-21)
(0.00917052807132 0.0539317523458 2.40717209426e-21)
(-0.00400341660773 0.0458208869187 1.43221188613e-20)
)
;
    }
    procBoundary9to10
    {
        type            processor;
        value           nonuniform List<vector> 
15
(
(0.00919847353487 0.0101103783752 -7.55482305977e-23)
(0.00866724465067 0.0131324459304 -1.58908062962e-23)
(0.00805582943493 0.0162395860384 3.45200779141e-24)
(0.00740323989911 0.0194546285309 9.9355151186e-25)
(0.00676102329846 0.022801688199 3.53317862223e-23)
(0.00621638079807 0.0262998648077 7.56769840547e-24)
(0.00587971612523 0.0299517153856 -1.07124529469e-23)
(0.00590465501709 0.0337827659163 -5.21242577595e-23)
(0.00694069298148 0.00409307520871 4.40983066781e-23)
(0.00919847353487 0.0101103783752 -7.55482305977e-23)
(0.00677002082962 0.00684508774503 6.23099859952e-23)
(0.00694069298148 0.00409307520871 4.40983066781e-23)
(0.00435744631598 0.00381998024248 -8.50005637277e-23)
(0.00194090275892 0.00350888737049 1.13870257574e-22)
(0.00039497112198 0.000769847257416 1.04841928131e-22)
)
;
    }
    procBoundary9to11
    {
        type            processor;
        value           nonuniform List<vector> 9((0.00652507576123 0.0377140618601 -6.83248319667e-23) (0.00805637586217 0.0417873474507 -4.61299843926e-22) (0.0109260478088 0.0461185915702 -5.10585630013e-22) (0.0157573489981 0.0501525327033 -4.71349363926e-22) (0.0217649995659 0.0545449453992 -6.10311747834e-22) (0.02501339854 0.0553725335597 5.95089859072e-22) (0.035849024554 0.0337473983034 2.16542189738e-21) (-0.70589041903 0.216583653066 2.38017656642e-20) (0.312536401389 0.546512055998 5.05496968381e-20));
    }
}


// ************************************************************************* //
