/*--------------------------------*- C++ -*----------------------------------*\
| =========                 |                                                 |
| \\      /  F ield         | OpenFOAM: The Open Source CFD Toolbox           |
|  \\    /   O peration     | Version:  v2012                                 |
|   \\  /    A nd           | Website:  www.openfoam.com                      |
|    \\/     M anipulation  |                                                 |
\*---------------------------------------------------------------------------*/
FoamFile
{
    version     2.0;
    format      ascii;
    class       volScalarField;
    location    "5.7";
    object      p_rgh;
}
// * * * * * * * * * * * * * * * * * * * * * * * * * * * * * * * * * * * * * //

dimensions      [1 -1 -2 0 0 0 0];


internalField   nonuniform List<scalar> 
164
(
8646.14639348
8646.54060614
8646.99771815
8647.56658162
8648.25628323
8649.1034864
8650.13516205
8651.40349212
8653.04748063
5923.24428186
240.693676186
-0.00845054996634
8654.42041611
8655.01259305
8655.73708277
8656.53540515
8657.48797367
8658.61214495
8659.94170338
8661.47200177
8663.42189889
6072.50075784
294.170068805
-0.0116138110554
8664.26294405
8665.36363034
8666.58057709
8667.95340622
8669.49367384
8671.20725758
8673.26800844
6206.77322616
339.845721919
-0.00913537387845
8672.71420314
8674.07002353
8675.50665836
8677.07577181
8678.81803944
8680.6840047
8682.77687653
6334.78433729
382.70205286
-0.00320813308664
8681.05295075
8682.54094158
8684.26924352
8685.955436
8687.95233215
8689.96832668
8692.11935529
6455.94539113
432.005984884
0.00127538814348
8689.24446858
8690.92971946
8692.81133558
8694.73357583
8696.91053196
8699.15339129
8701.37115039
6568.66150467
491.918816322
0.00109483579969
8697.28236481
8699.18563887
8701.22710227
8703.40814651
8705.70590098
8708.28559117
8710.67344329
6675.7762226
562.907294359
-0.00532743731826
8705.20101742
8707.31811448
8709.54612328
8711.95490122
8714.55262506
8717.34168707
8720.02727414
6780.66576951
643.166924623
-0.0178077460093
8712.96327312
8715.22573802
8717.72268112
8720.45151646
8723.34474759
8726.28971321
8729.32113881
6883.11708276
730.026991554
-0.0278180514083
8720.45865113
8723.04783071
8725.82422668
8728.81359843
8731.9009143
8735.09468697
8738.30761211
6974.35075996
808.881975263
-0.0295610810638
8727.80092974
8730.71248155
8733.8066607
8737.01153727
8740.33869363
8743.79057209
8747.07398318
7072.19657514
870.981689751
-0.0227242173863
8734.97458368
8738.16938608
8741.52619188
8745.05773058
8748.68548189
8752.52144523
8755.84301552
7191.08838358
929.532216091
-0.0167729251134
8741.89828534
8745.36973287
8749.08178545
8752.96815379
8756.97408249
8761.36046857
8764.31726414
7321.04865207
1013.18933435
-0.0199077921193
8748.53667268
8752.34642485
8756.4062911
8760.66303293
8765.08222413
8769.66123208
8773.90712344
7428.9459143
1101.23863592
-0.0254411692038
8754.90292971
8759.04632416
8763.47524679
8768.12518645
8773.03334161
8778.12715706
8783.37226755
7527.74172886
1190.88159142
-0.0315717386773
8760.91135502
8765.4230173
8770.24644155
8775.36804382
8780.76517444
8786.45311739
8792.45456411
7609.25570693
1300.85700174
-0.0426566690337
)
;

boundaryField
{
    back
    {
        type            fixedFluxPressure;
        gradient        uniform 0;
        value           nonuniform List<scalar> 
164
(
8646.14639348
8646.54060614
8646.99771815
8647.56658162
8648.25628323
8649.1034864
8650.13516205
8651.40349212
8653.04748063
5923.24428186
240.693676186
-0.00845054996634
8654.42041611
8655.01259305
8655.73708277
8656.53540515
8657.48797367
8658.61214495
8659.94170338
8661.47200177
8663.42189889
6072.50075784
294.170068805
-0.0116138110554
8664.26294405
8665.36363034
8666.58057709
8667.95340622
8669.49367384
8671.20725758
8673.26800844
6206.77322616
339.845721919
-0.00913537387845
8672.71420314
8674.07002353
8675.50665836
8677.07577181
8678.81803944
8680.6840047
8682.77687653
6334.78433729
382.70205286
-0.00320813308664
8681.05295075
8682.54094158
8684.26924352
8685.955436
8687.95233215
8689.96832668
8692.11935529
6455.94539113
432.005984884
0.00127538814348
8689.24446858
8690.92971946
8692.81133558
8694.73357583
8696.91053196
8699.15339129
8701.37115039
6568.66150467
491.918816322
0.00109483579969
8697.28236481
8699.18563887
8701.22710227
8703.40814651
8705.70590098
8708.28559117
8710.67344329
6675.7762226
562.907294359
-0.00532743731826
8705.20101742
8707.31811448
8709.54612328
8711.95490122
8714.55262506
8717.34168707
8720.02727414
6780.66576951
643.166924623
-0.0178077460093
8712.96327312
8715.22573802
8717.72268112
8720.45151646
8723.34474759
8726.28971321
8729.32113881
6883.11708276
730.026991554
-0.0278180514083
8720.45865113
8723.04783071
8725.82422668
8728.81359843
8731.9009143
8735.09468697
8738.30761211
6974.35075996
808.881975263
-0.0295610810638
8727.80092974
8730.71248155
8733.8066607
8737.01153727
8740.33869363
8743.79057209
8747.07398318
7072.19657514
870.981689751
-0.0227242173863
8734.97458368
8738.16938608
8741.52619188
8745.05773058
8748.68548189
8752.52144523
8755.84301552
7191.08838358
929.532216091
-0.0167729251134
8741.89828534
8745.36973287
8749.08178545
8752.96815379
8756.97408249
8761.36046857
8764.31726414
7321.04865207
1013.18933435
-0.0199077921193
8748.53667268
8752.34642485
8756.4062911
8760.66303293
8765.08222413
8769.66123208
8773.90712344
7428.9459143
1101.23863592
-0.0254411692038
8754.90292971
8759.04632416
8763.47524679
8768.12518645
8773.03334161
8778.12715706
8783.37226755
7527.74172886
1190.88159142
-0.0315717386773
8760.91135502
8765.4230173
8770.24644155
8775.36804382
8780.76517444
8786.45311739
8792.45456411
7609.25570693
1300.85700174
-0.0426566690337
)
;
    }
    sides
    {
        type            fixedFluxPressure;
        gradient        nonuniform List<scalar> 0();
        value           nonuniform List<scalar> 0();
    }
    bottom
    {
        type            fixedFluxPressure;
        gradient        nonuniform List<scalar> 0();
        value           nonuniform List<scalar> 0();
    }
    front
    {
        type            fixedFluxPressure;
        gradient        uniform 0;
        value           nonuniform List<scalar> 
164
(
8646.14639348
8646.54060614
8646.99771815
8647.56658162
8648.25628323
8649.1034864
8650.13516205
8651.40349212
8653.04748063
5923.24428186
240.693676186
-0.00845054996634
8654.42041611
8655.01259305
8655.73708277
8656.53540515
8657.48797367
8658.61214495
8659.94170338
8661.47200177
8663.42189889
6072.50075784
294.170068805
-0.0116138110554
8664.26294405
8665.36363034
8666.58057709
8667.95340622
8669.49367384
8671.20725758
8673.26800844
6206.77322616
339.845721919
-0.00913537387845
8672.71420314
8674.07002353
8675.50665836
8677.07577181
8678.81803944
8680.6840047
8682.77687653
6334.78433729
382.70205286
-0.00320813308664
8681.05295075
8682.54094158
8684.26924352
8685.955436
8687.95233215
8689.96832668
8692.11935529
6455.94539113
432.005984884
0.00127538814348
8689.24446858
8690.92971946
8692.81133558
8694.73357583
8696.91053196
8699.15339129
8701.37115039
6568.66150467
491.918816322
0.00109483579969
8697.28236481
8699.18563887
8701.22710227
8703.40814651
8705.70590098
8708.28559117
8710.67344329
6675.7762226
562.907294359
-0.00532743731826
8705.20101742
8707.31811448
8709.54612328
8711.95490122
8714.55262506
8717.34168707
8720.02727414
6780.66576951
643.166924623
-0.0178077460093
8712.96327312
8715.22573802
8717.72268112
8720.45151646
8723.34474759
8726.28971321
8729.32113881
6883.11708276
730.026991554
-0.0278180514083
8720.45865113
8723.04783071
8725.82422668
8728.81359843
8731.9009143
8735.09468697
8738.30761211
6974.35075996
808.881975263
-0.0295610810638
8727.80092974
8730.71248155
8733.8066607
8737.01153727
8740.33869363
8743.79057209
8747.07398318
7072.19657514
870.981689751
-0.0227242173863
8734.97458368
8738.16938608
8741.52619188
8745.05773058
8748.68548189
8752.52144523
8755.84301552
7191.08838358
929.532216091
-0.0167729251134
8741.89828534
8745.36973287
8749.08178545
8752.96815379
8756.97408249
8761.36046857
8764.31726414
7321.04865207
1013.18933435
-0.0199077921193
8748.53667268
8752.34642485
8756.4062911
8760.66303293
8765.08222413
8769.66123208
8773.90712344
7428.9459143
1101.23863592
-0.0254411692038
8754.90292971
8759.04632416
8763.47524679
8768.12518645
8773.03334161
8778.12715706
8783.37226755
7527.74172886
1190.88159142
-0.0315717386773
8760.91135502
8765.4230173
8770.24644155
8775.36804382
8780.76517444
8786.45311739
8792.45456411
7609.25570693
1300.85700174
-0.0426566690337
)
;
    }
    atmosphere
    {
        type            totalPressure;
        rho             rho;
        psi             none;
        gamma           1;
        p0              uniform 0;
        value           nonuniform List<scalar> 
16
(
-0.00200942027144
-0.00227679543933
-0.00131831258598
-0.000586584389918
-0.000261085304878
-0.00016903478585
-0.000377829388373
-0.000612234187775
-0.000879830834098
-0.000671241990781
-0.000280745627259
-0.000204538626153
-0.000155559336928
-0.000171830975892
-2.28707254488e-05
-0.000120193022327
)
;
    }
    floatingObject
    {
        type            fixedFluxPressure;
        gradient        nonuniform List<scalar> 0();
        value           nonuniform List<scalar> 0();
    }
    procBoundary5to0
    {
        type            processor;
        value           nonuniform List<scalar> 
12
(
8637.81857955
8637.96131767
8638.16159067
8638.44787516
8638.85347067
8639.40096606
8640.08937862
8641.05843423
8642.31032398
5771.19145695
182.69470685
-0.00234342837478
)
;
    }
    procBoundary5to3
    {
        type            processor;
        value           nonuniform List<scalar> 10(8766.5347326 8771.50125719 8776.80279988 8782.39001636 8788.29100728 8794.47645751 8801.00200281 7661.6197961 1438.34984566 -0.0382378960455);
    }
    procBoundary5to4
    {
        type            processor;
        value           nonuniform List<scalar> 
18
(
8645.86216133
8653.95286007
8662.6098279
8663.34369419
8663.34369419
8671.6270241
8679.79047185
8687.75930894
8695.59377901
8703.29103696
8710.80808644
8718.09959753
8725.19320804
8732.07282573
8738.69920547
8745.03288554
8751.04612656
8756.7031269
)
;
    }
}


// ************************************************************************* //
