/*--------------------------------*- C++ -*----------------------------------*\
| =========                 |                                                 |
| \\      /  F ield         | OpenFOAM: The Open Source CFD Toolbox           |
|  \\    /   O peration     | Version:  v2012                                 |
|   \\  /    A nd           | Website:  www.openfoam.com                      |
|    \\/     M anipulation  |                                                 |
\*---------------------------------------------------------------------------*/
FoamFile
{
    version     2.0;
    format      ascii;
    class       surfaceScalarField;
    location    "5.7";
    object      phi;
}
// * * * * * * * * * * * * * * * * * * * * * * * * * * * * * * * * * * * * * //

dimensions      [0 3 -1 0 0 0 0];
oriented        oriented;


internalField   nonuniform List<scalar> 
300
(
-4.16636878876e-05
1.57031299018e-05
-4.81994500805e-05
1.70297007936e-05
-5.52776474082e-05
1.84715374568e-05
-6.29960406524e-05
2.01408225624e-05
-7.17431509247e-05
2.20662683032e-05
-8.17967183441e-05
2.43628286915e-05
-9.3959844006e-05
2.8342793872e-05
-0.000108726638236
3.48507434908e-05
-0.000125140957879
3.95139516029e-05
-0.000148730675012
3.37390686639e-05
-0.000258343135955
-0.000356098974956
-0.000142963352435
-4.01091060843e-05
-4.64081439834e-05
-5.32101086771e-05
2.5272840484e-05
-6.06466474023e-05
2.75766165131e-05
-6.89486233716e-05
3.03673640803e-05
-7.85688051012e-05
3.39819945333e-05
-8.98543060391e-05
3.96272349043e-05
-0.000102514091185
4.75096766501e-05
-0.000116607567746
5.3607046421e-05
-0.000145774820596
6.29061153486e-05
-0.000275708985853
-0.000226157731394
-0.000111772781441
-5.02493764748e-05
3.17901258665e-05
-5.74270151268e-05
3.47534091177e-05
-6.54342620736e-05
3.83736264513e-05
-7.4635524381e-05
4.31821356091e-05
-8.59418942023e-05
5.09324533252e-05
-9.99906554551e-05
6.15575122133e-05
-0.000116269849066
6.98858289585e-05
-0.000139353048392
8.59891186792e-05
-0.000212774614778
-0.000152735810791
-8.57223805352e-05
-4.68197792001e-05
3.77500310556e-05
-5.34060399718e-05
4.13386844398e-05
-6.0757408282e-05
4.57238622288e-05
-6.94827676832e-05
5.19062212999e-05
-8.0880675848e-05
6.23290698348e-05
-9.51486708808e-05
7.58244740666e-05
-0.000113238611632
8.79753158269e-05
-0.000130714461098
0.000103464796204
-0.000150646195775
-0.000132808935799
-6.95491628065e-05
-4.27578974592e-05
4.30171571199e-05
-4.85748356901e-05
4.71544888154e-05
-5.50430662989e-05
5.21908045787e-05
-6.27811427824e-05
5.96428629675e-05
-7.38308622539e-05
7.33773473827e-05
-8.85301472222e-05
9.05226122817e-05
-0.000105781196478
0.000105225852664
-0.000119709311995
0.00011739273088
-0.000110570562608
-0.000141951709387
-6.39370189502e-05
-3.83603237314e-05
4.76935199101e-05
-4.33432542069e-05
5.21361383955e-05
-4.87365052779e-05
5.75826168607e-05
-5.52170300724e-05
6.61217982546e-05
-6.45585474388e-05
8.27172777186e-05
-7.92014973748e-05
0.000105164301971
-9.60561455445e-05
0.00012207992836
-0.000106788524863
0.000128124921033
-9.06628329364e-05
-0.00015808144023
-5.75488786762e-05
-3.3975779879e-05
5.18951765461e-05
-3.83439677728e-05
5.65028998815e-05
-4.29906382515e-05
6.22277009979e-05
-4.87298404955e-05
7.18592584869e-05
-5.66876461034e-05
9.06733494084e-05
-6.9197031789e-05
0.000117672305136
-8.39577386334e-05
0.000136839988126
-9.5401830081e-05
0.000139568837482
-0.000117757433999
-0.000135730677299
-4.03638227841e-05
-2.98780396426e-05
5.58502560155e-05
-3.40885189098e-05
6.07118041519e-05
-3.86203842053e-05
6.67578220528e-05
-4.39339267529e-05
7.71708871633e-05
-5.06885948494e-05
9.74261073108e-05
-5.8271620481e-05
0.000125253791651
-6.73723846325e-05
0.000145940015218
-8.23009874188e-05
0.000154497282735
-0.000134715262099
-8.33263080239e-05
-6.72467976517e-06
-2.57232827657e-05
5.96971131052e-05
-3.01410277557e-05
6.51278145562e-05
-3.54412711106e-05
7.20561271539e-05
-4.15031291737e-05
8.32306013998e-05
-4.6419169557e-05
0.000102339991452
-4.9024915794e-05
0.000127857772192
-5.10873978675e-05
0.000148001601853
-6.57901003223e-05
0.000169199711879
-0.000154130804342
5.01605601343e-06
3.33848338738e-05
-2.10096591114e-05
6.347425096e-05
-2.58279254546e-05
6.99441606227e-05
-3.17651062478e-05
7.79911017606e-05
-3.80011103032e-05
8.94641228536e-05
-4.24755289864e-05
0.000106811886316
-4.20532596795e-05
0.00012743340575
-3.97013784531e-05
0.000145648619904
-4.75564309259e-05
0.000177054377883
-0.000126354618956
8.38229792113e-05
7.61733992771e-05
-1.52468488687e-05
6.69666896511e-05
-1.9921825929e-05
7.46169732536e-05
-2.5795046872e-05
8.38617266274e-05
-3.18600769872e-05
9.55261663389e-05
-3.55539714245e-05
0.000110502719323
-3.55717537716e-05
0.000127448621021
-3.28461603839e-05
0.000142921683361
-3.59907825312e-05
0.000180198658672
-7.66044165845e-05
0.000124433052987
0.000119569481949
-8.01994565988e-06
6.95186826921e-05
-1.16159834842e-05
7.8210484461e-05
-1.62790270804e-05
8.85216015665e-05
-2.12739421513e-05
0.000100517369901
-2.41895335264e-05
0.000113414508206
-2.54862385665e-05
0.000128742134752
-2.37681325694e-05
0.000141201938905
-2.99762970091e-05
0.00018640653489
-6.71458747265e-05
0.000161582522634
0.000158794870335
5.4931008071e-07
7.07730836972e-05
-1.42643730593e-06
8.01831505837e-05
-4.17091560404e-06
9.12620819133e-05
-7.10003106583e-06
0.000103441772615
-9.05295015465e-06
0.000115362624547
-8.17744190076e-06
0.000127862632034
-7.68932489197e-06
0.000140711748981
-1.16512906579e-05
0.00019036788439
-5.10269333143e-05
0.000200961642364
0.000195195701179
1.00457268548e-05
7.05398646135e-05
9.90810989522e-06
8.0316275604e-05
9.31546372603e-06
9.18487265883e-05
8.64628856748e-06
0.000104103641937
8.6999398108e-06
0.000115301637262
1.00859217635e-05
0.000126470382638
8.56528990458e-06
0.000142229044164
6.90666414801e-06
0.000192025656066
-4.3091300108e-05
0.000250952415303
0.000236911229457
2.03558389767e-05
6.85590990061e-05
2.23216614839e-05
7.83434508973e-05
2.42882113019e-05
8.98721111474e-05
2.59678524405e-05
0.000102413059075
2.72889718805e-05
0.000113968984215
2.70095859686e-05
0.000126741183945
2.4369104708e-05
0.000144865071759
2.91711692912e-05
0.000187222404272
1.89361895885e-05
0.000261180615171
0.000314015973131
3.09652815607e-05
3.55176397012e-05
4.05348710613e-05
4.48765909579e-05
4.72141716112e-05
4.54966911564e-05
4.09405102165e-05
4.22431724301e-05
1.94333419673e-05
)
;

boundaryField
{
    back
    {
        type            calculated;
        value           uniform 0;
    }
    sides
    {
        type            calculated;
        value           nonuniform List<scalar> 0();
    }
    bottom
    {
        type            calculated;
        value           nonuniform List<scalar> 0();
    }
    front
    {
        type            calculated;
        value           uniform 0;
    }
    atmosphere
    {
        type            calculated;
        value           nonuniform List<scalar> 
16
(
-0.000288062488976
-0.000306906075896
-0.000238825835891
-0.000166815402608
-0.000116179206787
-9.70474888885e-05
-0.000134938172684
-0.000168345994278
-0.000194242557142
-0.00016915201426
-0.000119998007567
-0.000106354063964
-8.74315743603e-05
-8.48001832597e-05
-5.81599876617e-05
-0.000111572304402
)
;
    }
    floatingObject
    {
        type            calculated;
        value           nonuniform List<scalar> 0();
    }
    procBoundary5to0
    {
        type            processor;
        value           nonuniform List<scalar> 
12
(
-9.68305588841e-06
-1.04947174703e-05
-1.1394235021e-05
-1.24235128117e-05
-1.33204569636e-05
-1.43107536086e-05
-1.61812421526e-05
-2.0085296861e-05
-2.31002921161e-05
-1.01495567414e-05
0.000465713317072
0.00017268080233
)
;
    }
    procBoundary5to3
    {
        type            processor;
        value           nonuniform List<scalar> 10(6.46940231944e-05 7.3781970937e-05 8.48435119616e-05 9.80574275082e-05 0.000111618769471 0.000128448391697 0.000149416266803 0.000185918483616 0.000283971396068 0.00044505201405);
    }
    procBoundary5to4
    {
        type            processor;
        value           nonuniform List<scalar> 
18
(
3.56426986246e-05
3.43798580443e-05
2.14316052046e-05
2.33281177692e-05
4.37309677617e-05
4.08585430175e-05
3.74892065672e-05
3.36821541446e-05
2.97720701853e-05
2.59206622984e-05
2.18739023216e-05
1.72298171819e-05
1.17515753926e-05
5.46498785277e-06
-1.80691401835e-06
-9.81639407013e-06
-1.8381338504e-05
-2.71057503032e-05
)
;
    }
}


// ************************************************************************* //
