/*--------------------------------*- C++ -*----------------------------------*\
| =========                 |                                                 |
| \\      /  F ield         | OpenFOAM: The Open Source CFD Toolbox           |
|  \\    /   O peration     | Version:  v2012                                 |
|   \\  /    A nd           | Website:  www.openfoam.com                      |
|    \\/     M anipulation  |                                                 |
\*---------------------------------------------------------------------------*/
FoamFile
{
    version     2.0;
    format      ascii;
    class       volScalarField;
    location    "5.7";
    object      rAU;
}
// * * * * * * * * * * * * * * * * * * * * * * * * * * * * * * * * * * * * * //

dimensions      [-1 3 1 0 0 0 0];


internalField   nonuniform List<scalar> 
164
(
2.19076653475e-05
2.19073398723e-05
2.19069660068e-05
2.19065511199e-05
2.19059872666e-05
2.1901458168e-05
2.18686677005e-05
2.16718330853e-05
2.161582986e-05
3.17865558838e-05
0.000623434417247
0.0137626872137
2.19077377667e-05
2.1907320663e-05
2.1907168045e-05
2.19070961277e-05
2.19059296469e-05
2.18986270296e-05
2.1864975989e-05
2.16795526821e-05
2.14433675567e-05
3.06818945534e-05
0.000528544877847
0.0133047841326
2.19082635744e-05
2.19076467165e-05
2.19075271079e-05
2.18982431078e-05
2.18709700867e-05
2.16866349986e-05
2.1439186633e-05
3.00556914574e-05
0.000468465117902
0.0131298126808
2.19089180363e-05
2.19085470245e-05
2.19104896288e-05
2.18992162544e-05
2.18705087414e-05
2.16879787724e-05
2.14349547943e-05
2.94727159163e-05
0.000426189371641
0.0129035199333
2.19089943203e-05
2.19103173478e-05
2.19149827213e-05
2.1900878271e-05
2.18676219772e-05
2.16921090969e-05
2.14459495236e-05
2.89522358383e-05
0.000386744760782
0.0126028348538
2.19091445009e-05
2.19120590732e-05
2.19205208569e-05
2.19071002746e-05
2.18650240657e-05
2.16993192068e-05
2.1466886118e-05
2.84947849029e-05
0.000345193936094
0.0122654506198
2.19093097478e-05
2.19134632689e-05
2.19236796841e-05
2.1914874915e-05
2.18665951513e-05
2.17179060217e-05
2.14913031399e-05
2.80764431379e-05
0.000308332741676
0.0118101290096
2.19075264584e-05
2.19115493007e-05
2.1919129549e-05
2.19085262236e-05
2.18662712177e-05
2.17491635405e-05
2.1539342088e-05
2.77354738978e-05
0.000275888402752
0.0113189485244
2.1904040431e-05
2.19055266145e-05
2.19058435766e-05
2.18900588653e-05
2.1856287263e-05
2.17547258166e-05
2.16029942539e-05
2.74763021801e-05
0.0002466553242
0.0108847024382
2.19014979683e-05
2.18983684824e-05
2.18924755028e-05
2.18697519975e-05
2.18221316312e-05
2.17136102881e-05
2.16162494192e-05
2.72638416945e-05
0.000226967532564
0.0106468906696
2.1899399141e-05
2.18931742757e-05
2.18831015032e-05
2.18519154568e-05
2.17846805096e-05
2.16776211902e-05
2.15713738719e-05
2.68958452989e-05
0.000213358443873
0.0105030710947
2.18973973762e-05
2.18918053374e-05
2.18808258253e-05
2.18512693276e-05
2.17821923007e-05
2.16875259481e-05
2.15464123109e-05
2.63582409975e-05
0.000200556108341
0.0102125911515
2.18965332563e-05
2.18925865415e-05
2.188395937e-05
2.18626535615e-05
2.18136092859e-05
2.17332004792e-05
2.15865145803e-05
2.59296218024e-05
0.000185243289459
0.00995805632214
2.1895636002e-05
2.18915918684e-05
2.18840785554e-05
2.18677606088e-05
2.18345836342e-05
2.17533323667e-05
2.16293210928e-05
2.56658587987e-05
0.000171773896914
0.00964679445414
2.18950114488e-05
2.18901037254e-05
2.18822099871e-05
2.18689917048e-05
2.18355968036e-05
2.17489855285e-05
2.16282407224e-05
2.54015373454e-05
0.000160659293741
0.00948356844508
2.18969726107e-05
2.18914798885e-05
2.18833050449e-05
2.18727446459e-05
2.1836608387e-05
2.17509383897e-05
2.16229932879e-05
2.5136138424e-05
0.000147912156995
0.00932127505305
)
;

boundaryField
{
    back
    {
        type            calculated;
        value           nonuniform List<scalar> 
164
(
2.19076653475e-05
2.19073398723e-05
2.19069660068e-05
2.19065511199e-05
2.19059872666e-05
2.1901458168e-05
2.18686677005e-05
2.16718330853e-05
2.161582986e-05
3.17865558838e-05
0.000623434417247
0.0137626872137
2.19077377667e-05
2.1907320663e-05
2.1907168045e-05
2.19070961277e-05
2.19059296469e-05
2.18986270296e-05
2.1864975989e-05
2.16795526821e-05
2.14433675567e-05
3.06818945534e-05
0.000528544877847
0.0133047841326
2.19082635744e-05
2.19076467165e-05
2.19075271079e-05
2.18982431078e-05
2.18709700867e-05
2.16866349986e-05
2.1439186633e-05
3.00556914574e-05
0.000468465117902
0.0131298126808
2.19089180363e-05
2.19085470245e-05
2.19104896288e-05
2.18992162544e-05
2.18705087414e-05
2.16879787724e-05
2.14349547943e-05
2.94727159163e-05
0.000426189371641
0.0129035199333
2.19089943203e-05
2.19103173478e-05
2.19149827213e-05
2.1900878271e-05
2.18676219772e-05
2.16921090969e-05
2.14459495236e-05
2.89522358383e-05
0.000386744760782
0.0126028348538
2.19091445009e-05
2.19120590732e-05
2.19205208569e-05
2.19071002746e-05
2.18650240657e-05
2.16993192068e-05
2.1466886118e-05
2.84947849029e-05
0.000345193936094
0.0122654506198
2.19093097478e-05
2.19134632689e-05
2.19236796841e-05
2.1914874915e-05
2.18665951513e-05
2.17179060217e-05
2.14913031399e-05
2.80764431379e-05
0.000308332741676
0.0118101290096
2.19075264584e-05
2.19115493007e-05
2.1919129549e-05
2.19085262236e-05
2.18662712177e-05
2.17491635405e-05
2.1539342088e-05
2.77354738978e-05
0.000275888402752
0.0113189485244
2.1904040431e-05
2.19055266145e-05
2.19058435766e-05
2.18900588653e-05
2.1856287263e-05
2.17547258166e-05
2.16029942539e-05
2.74763021801e-05
0.0002466553242
0.0108847024382
2.19014979683e-05
2.18983684824e-05
2.18924755028e-05
2.18697519975e-05
2.18221316312e-05
2.17136102881e-05
2.16162494192e-05
2.72638416945e-05
0.000226967532564
0.0106468906696
2.1899399141e-05
2.18931742757e-05
2.18831015032e-05
2.18519154568e-05
2.17846805096e-05
2.16776211902e-05
2.15713738719e-05
2.68958452989e-05
0.000213358443873
0.0105030710947
2.18973973762e-05
2.18918053374e-05
2.18808258253e-05
2.18512693276e-05
2.17821923007e-05
2.16875259481e-05
2.15464123109e-05
2.63582409975e-05
0.000200556108341
0.0102125911515
2.18965332563e-05
2.18925865415e-05
2.188395937e-05
2.18626535615e-05
2.18136092859e-05
2.17332004792e-05
2.15865145803e-05
2.59296218024e-05
0.000185243289459
0.00995805632214
2.1895636002e-05
2.18915918684e-05
2.18840785554e-05
2.18677606088e-05
2.18345836342e-05
2.17533323667e-05
2.16293210928e-05
2.56658587987e-05
0.000171773896914
0.00964679445414
2.18950114488e-05
2.18901037254e-05
2.18822099871e-05
2.18689917048e-05
2.18355968036e-05
2.17489855285e-05
2.16282407224e-05
2.54015373454e-05
0.000160659293741
0.00948356844508
2.18969726107e-05
2.18914798885e-05
2.18833050449e-05
2.18727446459e-05
2.1836608387e-05
2.17509383897e-05
2.16229932879e-05
2.5136138424e-05
0.000147912156995
0.00932127505305
)
;
    }
    sides
    {
        type            calculated;
        value           nonuniform List<scalar> 0();
    }
    bottom
    {
        type            calculated;
        value           nonuniform List<scalar> 0();
    }
    front
    {
        type            calculated;
        value           nonuniform List<scalar> 
164
(
2.19076653475e-05
2.19073398723e-05
2.19069660068e-05
2.19065511199e-05
2.19059872666e-05
2.1901458168e-05
2.18686677005e-05
2.16718330853e-05
2.161582986e-05
3.17865558838e-05
0.000623434417247
0.0137626872137
2.19077377667e-05
2.1907320663e-05
2.1907168045e-05
2.19070961277e-05
2.19059296469e-05
2.18986270296e-05
2.1864975989e-05
2.16795526821e-05
2.14433675567e-05
3.06818945534e-05
0.000528544877847
0.0133047841326
2.19082635744e-05
2.19076467165e-05
2.19075271079e-05
2.18982431078e-05
2.18709700867e-05
2.16866349986e-05
2.1439186633e-05
3.00556914574e-05
0.000468465117902
0.0131298126808
2.19089180363e-05
2.19085470245e-05
2.19104896288e-05
2.18992162544e-05
2.18705087414e-05
2.16879787724e-05
2.14349547943e-05
2.94727159163e-05
0.000426189371641
0.0129035199333
2.19089943203e-05
2.19103173478e-05
2.19149827213e-05
2.1900878271e-05
2.18676219772e-05
2.16921090969e-05
2.14459495236e-05
2.89522358383e-05
0.000386744760782
0.0126028348538
2.19091445009e-05
2.19120590732e-05
2.19205208569e-05
2.19071002746e-05
2.18650240657e-05
2.16993192068e-05
2.1466886118e-05
2.84947849029e-05
0.000345193936094
0.0122654506198
2.19093097478e-05
2.19134632689e-05
2.19236796841e-05
2.1914874915e-05
2.18665951513e-05
2.17179060217e-05
2.14913031399e-05
2.80764431379e-05
0.000308332741676
0.0118101290096
2.19075264584e-05
2.19115493007e-05
2.1919129549e-05
2.19085262236e-05
2.18662712177e-05
2.17491635405e-05
2.1539342088e-05
2.77354738978e-05
0.000275888402752
0.0113189485244
2.1904040431e-05
2.19055266145e-05
2.19058435766e-05
2.18900588653e-05
2.1856287263e-05
2.17547258166e-05
2.16029942539e-05
2.74763021801e-05
0.0002466553242
0.0108847024382
2.19014979683e-05
2.18983684824e-05
2.18924755028e-05
2.18697519975e-05
2.18221316312e-05
2.17136102881e-05
2.16162494192e-05
2.72638416945e-05
0.000226967532564
0.0106468906696
2.1899399141e-05
2.18931742757e-05
2.18831015032e-05
2.18519154568e-05
2.17846805096e-05
2.16776211902e-05
2.15713738719e-05
2.68958452989e-05
0.000213358443873
0.0105030710947
2.18973973762e-05
2.18918053374e-05
2.18808258253e-05
2.18512693276e-05
2.17821923007e-05
2.16875259481e-05
2.15464123109e-05
2.63582409975e-05
0.000200556108341
0.0102125911515
2.18965332563e-05
2.18925865415e-05
2.188395937e-05
2.18626535615e-05
2.18136092859e-05
2.17332004792e-05
2.15865145803e-05
2.59296218024e-05
0.000185243289459
0.00995805632214
2.1895636002e-05
2.18915918684e-05
2.18840785554e-05
2.18677606088e-05
2.18345836342e-05
2.17533323667e-05
2.16293210928e-05
2.56658587987e-05
0.000171773896914
0.00964679445414
2.18950114488e-05
2.18901037254e-05
2.18822099871e-05
2.18689917048e-05
2.18355968036e-05
2.17489855285e-05
2.16282407224e-05
2.54015373454e-05
0.000160659293741
0.00948356844508
2.18969726107e-05
2.18914798885e-05
2.18833050449e-05
2.18727446459e-05
2.1836608387e-05
2.17509383897e-05
2.16229932879e-05
2.5136138424e-05
0.000147912156995
0.00932127505305
)
;
    }
    atmosphere
    {
        type            calculated;
        value           nonuniform List<scalar> 
16
(
0.0137626872137
0.0133047841326
0.0131298126808
0.0129035199333
0.0126028348538
0.0122654506198
0.0118101290096
0.0113189485244
0.0108847024382
0.0106468906696
0.0105030710947
0.0102125911515
0.00995805632214
0.00964679445414
0.00948356844508
0.00932127505305
)
;
    }
    floatingObject
    {
        type            calculated;
        value           nonuniform List<scalar> 0();
    }
    procBoundary5to0
    {
        type            processor;
        value           nonuniform List<scalar> 
12
(
2.19075298831e-05
2.19072085352e-05
2.1906583896e-05
2.19062428653e-05
2.19063369336e-05
2.19021007011e-05
2.18663069536e-05
2.16633290536e-05
2.16262488615e-05
3.26098304709e-05
0.000769611053636
0.0142923928673
)
;
    }
    procBoundary5to3
    {
        type            processor;
        value           nonuniform List<scalar> 10(2.19008666616e-05 2.18916110087e-05 2.18802149683e-05 2.18716137137e-05 2.18380137056e-05 2.1754991131e-05 2.16309069925e-05 2.48996533414e-05 0.000134408551513 0.00906955373872);
    }
    procBoundary5to4
    {
        type            processor;
        value           nonuniform List<scalar> 
18
(
2.19078306791e-05
2.19076957208e-05
2.19081555425e-05
2.19086557725e-05
2.19086557725e-05
2.19087665208e-05
2.19077441688e-05
2.19080766826e-05
2.19084031114e-05
2.19068792203e-05
2.19041362258e-05
2.19031450298e-05
2.19025015215e-05
2.19005440629e-05
2.18989345491e-05
2.18979571543e-05
2.18976297058e-05
2.18989131266e-05
)
;
    }
}


// ************************************************************************* //
