/*--------------------------------*- C++ -*----------------------------------*\
| =========                 |                                                 |
| \\      /  F ield         | OpenFOAM: The Open Source CFD Toolbox           |
|  \\    /   O peration     | Version:  v2012                                 |
|   \\  /    A nd           | Website:  www.openfoam.com                      |
|    \\/     M anipulation  |                                                 |
\*---------------------------------------------------------------------------*/
FoamFile
{
    version     2.0;
    format      ascii;
    class       surfaceVectorField;
    location    "4.1";
    object      ddtCorrDdt0(Uf);
}
// * * * * * * * * * * * * * * * * * * * * * * * * * * * * * * * * * * * * * //

dimensions      [0 1 -2 0 0 0 0];


internalField   nonuniform List<vector> 
305
(
(-0.00464752601686 0.00854982380333 -3.61428258127e-23)
(-0.00854570209572 0.00462690090774 4.05355464122e-23)
(-0.00481514037692 0.0174424326622 3.7334196689e-24)
(-0.00888861878331 0.0130505730326 -6.19707166914e-23)
(-0.00483516274492 0.0263917721392 1.34971325236e-22)
(-0.00894600133401 0.022017219451 1.21984072862e-22)
(-0.00485378391027 0.0353697923432 1.47495082751e-22)
(-0.00897384287548 0.0309998410679 2.11648315575e-22)
(-0.00488451522997 0.0444067690406 6.48014646598e-23)
(-0.00902885831386 0.0400430628732 2.71591932508e-22)
(-0.00491240453349 0.05354380112 -7.30388333459e-23)
(-0.0090866157266 0.049182201063 8.20595923404e-23)
(-0.0049162793452 0.0627693212542 -3.028000135e-22)
(-0.00912302090838 0.0584301312927 -4.81179206243e-23)
(-0.00909403862744 0.0677494874192 -3.33936336367e-22)
(-0.0130840387607 0.00883345623521 1.47076555335e-23)
(-0.0173747341093 0.00478133798281 9.27199796444e-24)
(-0.0133008766399 0.017707593732 5.62799365013e-23)
(-0.0177583543249 0.0131433042397 -1.10171650317e-22)
(-0.0133679634066 0.0266276012014 1.986610632e-22)
(-0.0178616896084 0.0220759331357 9.16469287783e-23)
(-0.0134566254934 0.0356460884986 3.35745165332e-22)
(-0.0179866538934 0.0310600661022 2.46999531449e-22)
(-0.0135614487329 0.0447707036063 2.88850060189e-22)
(-0.0181427981412 0.0401428798829 3.05407184311e-22)
(-0.0136496371109 0.0540286844858 1.06980505062e-22)
(-0.0182959474549 0.0493569371598 1.33523839459e-22)
(-0.0136774602857 0.0634093975167 -7.9254243491e-23)
(-0.0183976018034 0.0587194033094 9.59149347462e-24)
(-0.0184011814233 0.0682159819001 -1.375360926e-22)
(-0.021941408724 0.00879762557748 -1.15607307886e-22)
(-0.0261674991311 0.00476136387888 -8.51227702335e-23)
(-0.0221945666082 0.0176127306318 -7.480465804e-23)
(-0.0265684829072 0.0130124919667 -1.84848068711e-22)
(-0.022360525605 0.0265050930885 1.39985397028e-22)
(-0.026749627806 0.0219186749424 2.83227606389e-23)
(-0.0225639868873 0.0355162760191 2.16661550428e-22)
(-0.0269926419527 0.0308593020798 2.02185268502e-22)
(-0.0227821673969 0.0446673661491 1.50080963581e-22)
(-0.0272851275241 0.0399412374263 1.79218015101e-22)
(-0.022975694842 0.0539946359515 3.61348278718e-23)
(-0.0275806704683 0.0491951052049 8.71028414811e-23)
(-0.0230798723564 0.0634846261013 -4.86903556341e-23)
(-0.0278244915457 0.0586574024319 -8.48402119055e-25)
(-0.0279118082888 0.0683431032378 -6.21637055875e-23)
(-0.0307174225863 0.00867180824582 -1.54363531058e-22)
(-0.0348333967587 0.00470146293987 -6.05938094832e-23)
(-0.0310506423375 0.0174103933194 -8.17206500319e-23)
(-0.0353012683669 0.0128058717801 -2.28593487444e-22)
(-0.0313249457279 0.0262485050018 9.05226321129e-23)
(-0.0355834494829 0.0216363188152 -1.76591421348e-23)
(-0.0316731006554 0.0352264135051 1.64741733175e-22)
(-0.0359673540728 0.030500078856 1.43717889405e-22)
(-0.0320619278674 0.0443871765752 1.16239893001e-22)
(-0.0364420653368 0.0395500754155 1.27969169003e-22)
(-0.0324379249732 0.0537711306548 5.01196114903e-23)
(-0.0369475501988 0.0488271825309 7.05291480655e-23)
(-0.0327179811272 0.0634272868171 -1.43217520724e-23)
(-0.0374149009175 0.058390819446 1.35387233015e-23)
(-0.0327886277344 0.0733449296487 -2.68333173803e-23)
(-0.0377463946012 0.0682886423206 -3.68888637667e-23)
(-0.0377595025172 0.0785800224137 -1.34093112843e-23)
(-0.0393454198927 0.00850757975476 -1.34823765869e-22)
(-0.0433333128473 0.00461129767891 3.07451547824e-23)
(-0.0397782316989 0.0171099102642 -1.64531979547e-22)
(-0.0438964898262 0.0125255850328 -2.65637634541e-22)
(-0.0401896524512 0.0258399560733 3.55361151574e-23)
(-0.0443091796726 0.0212070648073 -5.33034607679e-23)
(-0.0407213872892 0.0347449288723 1.06945325233e-22)
(-0.0448713801901 0.0299509444486 9.93985963292e-23)
(-0.0413410519278 0.0438798356784 8.2258424067e-23)
(-0.0455786700231 0.0389198879139 8.62329868922e-23)
(-0.0419841415181 0.0533113756929 3.39482598767e-23)
(-0.0463779705058 0.0481819998461 5.61219517237e-23)
(-0.0425609425424 0.0631053623492 -9.02838839276e-24)
(-0.047184713098 0.0578165742165 5.57575047556e-24)
(-0.042933610023 0.0733347193643 -2.34648576707e-23)
(-0.0478912386381 0.0679187841486 -1.51671209663e-23)
(-0.042936051924 0.0840595270141 4.15428861743e-24)
(-0.0483408031424 0.078575295879 -8.36658828951e-24)
(-0.0483118773387 0.0898656147431 3.28226165614e-23)
(-0.0477956123283 0.00828665121337 -1.0006871389e-22)
(-0.051610091977 0.0044830483238 5.08857513324e-23)
(-0.0483523932739 0.0167066290494 -1.54409115762e-22)
(-0.0523077823545 0.0121549932406 -1.50010872186e-22)
(-0.0489275253098 0.0252574975376 1.05590204039e-23)
(-0.0528556612784 0.0206079386074 -2.76075268277e-23)
(-0.0496904900706 0.0340225800028 7.86862579883e-23)
(-0.0536379542416 0.0291653251238 9.34248416507e-23)
(-0.0506109990458 0.0430757794289 6.00965145489e-23)
(-0.0546389505769 0.0379846596554 9.63592049073e-23)
(-0.0516228294038 0.052507213643 2.77494423225e-23)
(-0.0558191934115 0.0471649766443 4.56768926776e-23)
(-0.052627979304 0.0624051894972 -5.62982097965e-25)
(-0.0570832019355 0.0568115970665 1.9721118658e-23)
(-0.0534941227959 0.0728985588679 -6.88515851255e-26)
(-0.0583307089293 0.0670535747789 2.85984935018e-24)
(-0.0540408728709 0.0840830648475 2.03017396544e-23)
(-0.0594098768777 0.0780229578684 -1.34360087977e-23)
(-0.0601196707067 0.089845624165 4.2125002048e-23)
(-0.0560011298464 0.00799462542243 9.43593035994e-25)
(-0.0595926280671 0.00431375148135 5.28499311697e-23)
(-0.0567048118602 0.0161453288116 -2.32092832516e-23)
(-0.0604483775782 0.0116677691101 -7.45546805953e-23)
(-0.0574713470061 0.024447262084 5.52582944191e-23)
(-0.0611534384235 0.0198113778211 -2.92858942792e-24)
(-0.0585161295489 0.0329983425681 1.1109778857e-22)
(-0.0621935416591 0.0280922726386 9.84416733222e-23)
(-0.0598078320741 0.0418961043516 8.19395830359e-23)
(-0.0635502219178 0.0366751815403 1.046110559e-22)
(-0.0612868261422 0.0512397309651 3.76485690131e-23)
(-0.0651825134391 0.0456793168484 5.0504512396e-23)
(-0.0628585312692 0.06116381373 2.31439501061e-23)
(-0.0670240818986 0.0552384395781 2.64551341888e-23)
(-0.0644003028037 0.0718245033656 -1.05073078624e-23)
(-0.0689662156663 0.06551056651 2.52808340723e-23)
(-0.0657492374538 0.0833707405107 8.38725359584e-24)
(-0.0708757589169 0.0766695223293 -3.22694174159e-23)
(-0.072589135322 0.0888995514193 3.93826574782e-23)
(-0.0638790333047 0.00762309705705 -2.26483424616e-23)
(-0.0672019524542 0.00409768471011 -3.06611011946e-23)
(-0.0647501161321 0.0154110792239 -5.42739867716e-23)
(-0.0682255296456 0.0110451009379 -1.63079042011e-22)
(-0.065740761001 0.0233743002439 4.02547894751e-23)
(-0.06911349432 0.0187863022273 -4.5426961934e-23)
(-0.0671120577586 0.0316159091241 9.19549406526e-23)
(-0.0704434512371 0.0266873598391 6.38338016113e-23)
(-0.0688404741322 0.0402499256883 7.31759852602e-23)
(-0.0722052783637 0.0349253146476 7.57890837153e-23)
(-0.0708756629987 0.0494027650523 3.93110775718e-23)
(-0.0743663174596 0.0436355109801 2.8855556747e-23)
(-0.0731401358576 0.0592266629237 2.8592018155e-23)
(-0.0768795694486 0.0529708749684 5.19973907745e-23)
(-0.0755289705846 0.0699117844766 3.51872451877e-24)
(-0.0796519844579 0.0631194306814 2.1040572224e-23)
(-0.0779001434431 0.0816690617497 -1.27401353358e-24)
(-0.082583017202 0.0742930600881 -5.84057367792e-24)
(-0.0855312772101 0.0867245610787 3.63093743052e-23)
(-0.0713437995613 0.00716360772108 -1.71091800744e-22)
(-0.0743512437895 0.00382991666591 -1.26203650881e-22)
(-0.0723960976806 0.0144875569033 -1.54232017173e-22)
(-0.0755392467182 0.0102737886501 -3.22766389782e-22)
(-0.07363449932 0.0220050403358 -2.18479497979e-23)
(-0.0766300601254 0.0175090828666 -1.06977019304e-22)
(-0.0753687522193 0.0298242145862 4.7667944674e-23)
(-0.0782757143604 0.0249147340374 2.25212756348e-23)
(-0.0775889631002 0.0380692675647 3.14686552021e-23)
(-0.0804795614795 0.0326804953179 5.73639068875e-23)
(-0.0802590329391 0.0468911932921 4.15418699498e-23)
(-0.0832306538079 0.0409550640785 1.23124392636e-23)
(-0.0833205520362 0.0564545059554 4.44459448435e-23)
(-0.0864886119186 0.0499050096057 4.43815290107e-23)
(-0.0866973025471 0.066987199297 1.16812740273e-23)
(-0.0902050791848 0.0597389237916 9.54916149149e-25)
(-0.0902828820567 0.0787210783336 3.17428141609e-23)
(-0.0942939153524 0.0707007676784 -2.4101468156e-23)
(-0.098677474945 0.0830643883568 5.2135701035e-23)
(-0.0782959344482 0.00660236238691 -2.7787823992e-22)
(-0.0809404213903 0.00351069966768 -1.06051397282e-22)
(-0.0795337918878 0.0133561705421 -2.75511391913e-22)
(-0.0822852591485 0.00934842103676 -2.74353593466e-22)
(-0.081038554095 0.0203160720742 -6.26077938713e-23)
(-0.0835930177929 0.0159611776401 -1.01745380277e-22)
(-0.0831603625631 0.0275869631545 3.22172378484e-23)
(-0.0855656992708 0.022750530293 4.8225943111e-23)
(-0.0859078457569 0.0353047765588 3.8207690949e-23)
(-0.0882350275286 0.0299061329258 3.83323336235e-23)
(-0.0892673324807 0.0436254015427 1.51520983245e-23)
(-0.0916043823694 0.0375841443811 3.96655292851e-23)
(-0.0932049356348 0.0527422144457 8.90500316287e-25)
(-0.095662324907 0.0459621924474 1.44585739507e-24)
(-0.0976757374548 0.0628874328528 -3.48278260341e-23)
(-0.100385531877 0.0552630645019 -4.91464001615e-24)
(-0.102615564264 0.0743520083507 -3.70858128188e-24)
(-0.105744565489 0.0657533784641 -4.0765176727e-23)
(-0.111676308004 0.0777248519462 7.80969011263e-23)
(-0.0846316619597 0.0059187616496 -1.02526750829e-22)
(-0.0868491701129 0.00313798938038 4.05844086894e-23)
(-0.0860590953125 0.0120074314618 -1.0058758183e-22)
(-0.0883706601213 0.00826528835339 -1.15412820661e-22)
(-0.0878366063656 0.018293026075 9.08835670504e-24)
(-0.089887497274 0.014137747974 -2.27213913374e-23)
(-0.0903547420358 0.0248830213357 5.43410388861e-23)
(-0.0921819561747 0.0201860081467 6.41483113443e-23)
(-0.0936417431054 0.0319207247824 3.97901719596e-23)
(-0.0953186981513 0.026588926291 2.89612049541e-23)
(-0.0977116111983 0.0395644380343 2.59592883557e-23)
(-0.0993093510844 0.0335009784323 3.58976371984e-23)
(-0.102563394264 0.0480147431791 -4.35928293737e-24)
(-0.104176437559 0.0411046951969 3.74425504811e-23)
(-0.108190213191 0.0575285353581 -1.08519907091e-23)
(-0.10993673516 0.0496312043055 -2.59023557298e-24)
(-0.114573187418 0.068398873013 4.10403056812e-23)
(-0.116599305455 0.0593617584845 3.48776038206e-23)
(-0.124184386126 0.0705964404187 1.40822856207e-22)
(-0.090246746438 0.00515140484784 2.76983388576e-23)
(-0.091995774093 0.00271213801173 9.33632700452e-23)
(-0.0918589043167 0.0104486313061 -3.75466301677e-23)
(-0.0936710515349 0.00702816499678 -2.195947765e-22)
(-0.0938973753988 0.0159306519304 3.23385633019e-23)
(-0.0953857519864 0.0120505474467 -5.74515953866e-23)
(-0.0968015888919 0.0217136825699 3.87684774123e-23)
(-0.0979990286091 0.0172316708808 2.13195742596e-23)
(-0.100619175692 0.0279120383303 2.5068670193e-23)
(-0.101570059614 0.0227379837641 6.81021480887e-23)
(-0.105390812274 0.0346942463572 4.73808993238e-23)
(-0.106157685402 0.0287143372725 4.46771078403e-23)
(-0.111147885245 0.0422571326716 3.92115978455e-23)
(-0.111802942185 0.0353411894655 4.46975082228e-23)
(-0.117931148957 0.0508572049333 4.31393589567e-23)
(-0.118567290267 0.0428439790405 4.80417429086e-23)
(-0.125781836947 0.0608131312391 1.34660154346e-22)
(-0.126511427952 0.0515047354186 1.19861050045e-22)
(-0.135704567009 0.061637881781 1.1242632803e-22)
(-0.0950350408234 0.00427233807366 -1.53929845312e-22)
(-0.0962700772972 0.00223684313067 5.75029393896e-23)
(-0.0968186957328 0.00868417352102 -2.39499741719e-22)
(-0.0980936360019 0.00565039696012 -3.47036452984e-22)
(-0.0990962335139 0.0132602652866 -6.84705844289e-23)
(-0.0999859933302 0.00972138083973 -1.93297945958e-22)
(-0.102357538118 0.0180961434196 5.0653244936e-23)
(-0.102876107383 0.0139172299275 -2.95147402672e-23)
(-0.106668155519 0.0233031332637 8.7710585736e-23)
(-0.106834666004 0.0183923565368 6.23578460342e-23)
(-0.112092071067 0.0290394244261 4.19937167393e-23)
(-0.111959303375 0.0232746013284 4.84859223831e-23)
(-0.118702525758 0.0354898078817 5.35276532859e-23)
(-0.118309488754 0.0287253494162 6.17868250341e-23)
(-0.126583424776 0.0429097092269 1.24763433997e-22)
(-0.125995337397 0.0349613788858 2.22886131316e-23)
(-0.135834768304 0.0516088138707 9.76272237285e-23)
(-0.135128189361 0.0422503025432 1.24852889894e-22)
(-0.145831146475 0.0508921541468 5.40484261299e-23)
(-0.0989050805307 0.00332158325583 -1.35603668282e-22)
(-0.0996008305889 0.00172067601006 -5.62859715396e-23)
(-0.100837457665 0.0067512921324 -3.00834657222e-22)
(-0.101541438271 0.00415372960866 -3.63938908676e-22)
(-0.103322329128 0.0103111251682 -1.54342101796e-22)
(-0.103576902138 0.00718351316089 -2.27682213692e-22)
(-0.106887083086 0.0140795796234 -1.7810139169e-23)
(-0.106690710331 0.0102963645214 -8.77575876471e-23)
(-0.111621034318 0.0181638443354 2.31331826813e-23)
(-0.110976786149 0.0136224065235 -1.90500968067e-23)
(-0.117614708711 0.022682740993 6.82790306779e-23)
(-0.116536850531 0.0172670852285 1.43821029977e-23)
(-0.124973785852 0.0278175209146 3.05477848798e-23)
(-0.123485174274 0.0213647936112 6.00064611956e-23)
(-0.133826821052 0.0337809676874 2.23780690287e-23)
(-0.131936132205 0.0261096320636 -3.47409317016e-23)
(-0.14433212429 0.0408782882015 8.12740922955e-23)
(-0.142077153727 0.0317448344903 5.87308956047e-23)
(-0.154102488992 0.0385217445035 7.55825601341e-23)
(-0.101779832395 0.00227826701231 -2.84621211934e-22)
(-0.101894225668 0.00117318978861 -9.63514604999e-23)
(-0.1038286255 0.00466167164171 -2.90786465145e-22)
(-0.103948206802 0.00256770348496 -2.23210190546e-22)
(-0.106469881779 0.00713043813362 -1.61097699543e-22)
(-0.106080839029 0.00448839827274 -1.25120942794e-22)
(-0.11026604774 0.00974098932646 -8.89975452848e-23)
(-0.109348221192 0.00644368675478 -7.17464259514e-23)
(-0.115329980191 0.0125772215595 -2.78011764902e-23)
(-0.113865451913 0.00852589371888 -4.34200387424e-23)
(-0.12177461554 0.0157384405143 6.10953351547e-24)
(-0.119751381169 0.0108157332538 1.77299166626e-23)
(-0.129725214519 0.0193550680075 -5.28225538568e-24)
(-0.12712411152 0.0134202975259 1.01876579449e-23)
(-0.139352637113 0.0236388394667 1.61189487442e-24)
(-0.136147255248 0.016489565008 -3.38169223017e-24)
(-0.150887706967 0.0288449373983 5.30393634433e-23)
(-0.147037565005 0.0202136954043 3.83204571027e-23)
(-0.160112334885 0.0248022512915 8.66127424678e-23)
(-0.10359011512 0.00120470689604 -3.49404391116e-23)
(-0.103118170098 0.000602810789324 1.78205724318e-22)
(-0.105725347598 0.00247347202022 -5.75446681948e-23)
(-0.105245251113 0.000924929217841 6.09190321663e-23)
(-0.108461962085 0.0037908700995 -3.5769669203e-23)
(-0.107434630997 0.00169906715898 3.28324836601e-23)
(-0.112408579568 0.00518128567816 -2.61689194091e-23)
(-0.110781365711 0.00244125954187 1.29569653869e-23)
(-0.117685669897 0.0066723932 2.11105441038e-24)
(-0.115431925681 0.0032184921845 -3.25308420079e-23)
(-0.124422301125 0.00836335826372 2.1808041092e-23)
(-0.121486852285 0.00407816525381 2.56959053612e-23)
(-0.132763814507 0.0103392349493 1.20882211004e-23)
(-0.129105184887 0.005089147012 2.37576487353e-23)
(-0.142929869446 0.0127569459757 3.33268699981e-23)
(-0.155200585991 0.0157716724232 7.18938361271e-23)
(-0.104298742206 0.000110086897186 2.74065195595e-22)
(-0.103251630114 2.88785199676e-05 4.38072209688e-22)
(-0.106477138853 0.000246525040851 1.51296184021e-22)
(-0.10541109228 -0.000733418969611 2.22089866315e-22)
(-0.109254251578 0.000379301375946 8.155911825e-23)
(-0.10760665263 -0.00112951839043 1.46725456417e-22)
(-0.113257839305 0.000479082510348 6.5950427881e-24)
(-0.110976965408 -0.00162148182572 7.42061398239e-23)
(-0.118616245938 0.000603015695721 -8.94599105709e-24)
(-0.115616164455 -0.00217633975081 4.55229160391e-24)
(-0.12547492463 0.000752106729305 2.76455130045e-23)
(-0.103894727178 -0.000999229558745 3.86096880408e-22)
(-0.106078324651 -0.0019875164145 2.17519138711e-22)
(-0.108828306935 -0.00306434423917 1.39372477991e-22)
(-0.106613160809 -0.00393092384879 1.1311223751e-22)
(-0.112785670543 -0.00422038352371 7.21633886397e-23)
(-0.109886054799 -0.00564380581965 7.34879656664e-23)
(-0.107190361431 -0.00641436928041 4.72277251849e-23)
)
;

boundaryField
{
    back
    {
        type            calculated;
        value           uniform (0 0 0);
    }
    sides
    {
        type            calculated;
        value           uniform (0 0 0);
    }
    bottom
    {
        type            calculated;
        value           uniform (0 0 0);
    }
    front
    {
        type            calculated;
        value           uniform (0 0 0);
    }
    atmosphere
    {
        type            calculated;
        value           nonuniform List<vector> 0();
    }
    floatingObject
    {
        type            calculated;
        value           nonuniform List<vector> 0();
    }
    procBoundary2to0
    {
        type            processor;
        value           nonuniform List<vector> 
14
(
(-0.138456558269 0.00633378309342 1.74103648748e-24)
(-0.14985474616 0.00795441669305 3.32763699777e-23)
(-0.1635537148 0.0101117593917 7.13215844653e-23)
(-0.121696319018 -0.0027929066439 3.48585709677e-23)
(-0.134002155401 0.00099824523132 1.34104641224e-23)
(-0.129365738831 -0.00343895405794 1.72301380421e-23)
(-0.102276731312 -0.000539390632861 3.70673184985e-22)
(-0.104461826277 -0.00237283770497 1.28229557137e-22)
(-0.118092213357 -0.00551085946585 4.83568536287e-23)
(-0.114423568221 -0.00753162722181 5.04449041306e-23)
(-0.104544481258 -0.00417895245195 2.38226559357e-23)
(-0.104451615893 -0.00662821696039 -2.85104968623e-23)
(-0.111002288209 -0.00882892844939 5.17694811573e-23)
(-0.107564191111 -0.00952699670949 2.46461671095e-24)
)
;
    }
    procBoundary2to1
    {
        type            processor;
        value           nonuniform List<vector> 
18
(
(-0.00487762781274 0.0720043894293 -3.830955032e-22)
(-0.0135801623734 0.0728418374583 -1.38800925336e-22)
(-0.0230048940675 0.0731641480027 -2.88518637153e-23)
(-0.0277819525204 0.0782671431766 6.47852449189e-24)
(-0.0324985713543 0.0836477442411 1.78443736155e-23)
(-0.0373697202595 0.0892732510001 3.54079735173e-23)
(-0.0423416781169 0.0953476833375 2.17592930662e-23)
(-0.0540468138284 0.096060381478 3.05841828879e-23)
(-0.0666836142114 0.0959710485701 4.81726504959e-23)
(-0.0800617143017 0.0947050868735 7.01470655146e-23)
(-0.0939277906468 0.0919387642442 3.47079256947e-23)
(-0.107939460462 0.0874108606504 4.99790071047e-23)
(-0.121688153041 0.0809835932387 7.04247118806e-23)
(-0.134728250141 0.0724416380412 5.84883427788e-23)
(-0.146571317074 0.0619018006692 3.48658803165e-23)
(-0.156696940667 0.0494017588208 3.39506915609e-23)
(-0.164604504986 0.0351726999113 2.09336721975e-23)
(-0.169903181051 0.0196224680302 -3.79007193361e-23)
)
;
    }
}


// ************************************************************************* //
