/*--------------------------------*- C++ -*----------------------------------*\
| =========                 |                                                 |
| \\      /  F ield         | OpenFOAM: The Open Source CFD Toolbox           |
|  \\    /   O peration     | Version:  v2012                                 |
|   \\  /    A nd           | Website:  www.openfoam.com                      |
|    \\/     M anipulation  |                                                 |
\*---------------------------------------------------------------------------*/
FoamFile
{
    version     2.0;
    format      ascii;
    class       volVectorField;
    location    "4.1";
    object      U_0;
}
// * * * * * * * * * * * * * * * * * * * * * * * * * * * * * * * * * * * * * //

dimensions      [0 1 -1 0 0 0 0];


internalField   nonuniform List<vector> 
167
(
(-0.00168216135952 0.00166581740179 6.25967529015e-22)
(-0.00140714356377 0.00468119722711 9.39146261469e-22)
(-0.00131915201824 0.00741845084159 3.10601234907e-22)
(-0.00132703571781 0.0101432666099 -3.31052641982e-22)
(-0.00136222522932 0.0128856527698 -8.09622201845e-22)
(-0.00138384535256 0.0156596924133 -7.8468670365e-22)
(-0.00139449288311 0.0184637925864 -5.17203152082e-22)
(-0.00139943508284 0.0212787479576 3.26649689148e-22)
(-0.00466570624917 0.00138100117572 9.15517320367e-22)
(-0.00430972165421 0.00427656893616 1.10966817549e-21)
(-0.00416307833367 0.00700447841425 4.8805001597e-22)
(-0.0041419236034 0.00973298507039 -3.06670282429e-22)
(-0.00417105375371 0.0124445491812 -9.82420406348e-22)
(-0.00420249893454 0.0151558783919 -9.22853892267e-22)
(-0.00422224655761 0.0178766125937 -7.34077784725e-22)
(-0.00423329071746 0.0206033278903 -1.693939496e-22)
(-0.00735740358704 0.0012800316632 1.40196495423e-21)
(-0.00701615775645 0.00408003877624 1.78284554714e-21)
(-0.00683767931794 0.0067458936821 8.88278256536e-22)
(-0.00678617441783 0.00943945231907 4.38652874732e-23)
(-0.00680572656156 0.0121099407502 -4.67278545842e-22)
(-0.00684363071904 0.014775671955 -5.14319656189e-22)
(-0.00687555735613 0.0174479283272 -3.71116586099e-22)
(-0.00689461079558 0.0201281305321 -6.22998250671e-23)
(-0.0100023550503 0.00127105553268 1.43512175314e-21)
(-0.00970004248656 0.00401014848842 1.65981729745e-21)
(-0.00951056296618 0.0066202128954 1.04965620686e-21)
(-0.00944380026044 0.00927623097245 3.35806199343e-22)
(-0.0094542262811 0.0119142735023 -9.55144195547e-23)
(-0.00949155611543 0.0145525896507 -1.97346533599e-22)
(-0.00953069494372 0.0172028330657 -1.3762721005e-22)
(-0.0095559121313 0.0198667233371 -1.37005614342e-23)
(-0.00956230948683 0.0225494555822 -2.6640876958e-24)
(-0.0126330948954 0.00129037719401 1.0363419761e-21)
(-0.0123427831528 0.00399727063918 1.64133069606e-21)
(-0.0121370281258 0.00657341177348 1.10255951106e-21)
(-0.0120635700569 0.00919537546571 4.77534613139e-22)
(-0.0120761894028 0.0118101730292 1.05488375546e-22)
(-0.0121222927524 0.0144326757151 -1.9566200681e-23)
(-0.0121753035987 0.0170759836852 -3.1136731134e-23)
(-0.0122174226151 0.0197422614978 1.10723385471e-23)
(-0.012238397833 0.0224332706625 1.32947494628e-23)
(-0.0122295505206 0.0251483042848 -1.72512857479e-23)
(-0.0152719171653 0.00129700953095 8.32021353377e-22)
(-0.0149551288071 0.00399043169173 1.36318743602e-21)
(-0.0147358729865 0.00654952238891 9.6870861882e-22)
(-0.014661300924 0.00913875487735 4.61618628642e-22)
(-0.0146844394819 0.0117345644196 1.55161682288e-22)
(-0.0147481905406 0.0143486780222 3.14409145134e-23)
(-0.0148234742533 0.0169912164967 1.43840823608e-24)
(-0.014894507758 0.0196633836164 1.39496256003e-24)
(-0.0149450098127 0.022371351255 -3.78435108255e-24)
(-0.0149561967786 0.0251212235406 -7.67697384722e-24)
(-0.0179126684647 0.00129766902859 7.68466089572e-22)
(-0.0175449271337 0.003970882257 1.11730999717e-21)
(-0.0173122839391 0.00651070659947 8.10617964444e-22)
(-0.0172398440307 0.00907472538546 3.94796348328e-22)
(-0.0172782661434 0.0116528335626 1.25393793936e-22)
(-0.0173697491202 0.0142567394513 3.29532078681e-23)
(-0.0174773203506 0.0168950238257 -7.47201548644e-24)
(-0.017586893346 0.0195750182641 -1.60889190983e-23)
(-0.0176767550458 0.022306053484 -1.57859357578e-23)
(-0.0177326610422 0.0250928055799 -2.74598531369e-23)
(-0.0205394312396 0.00129211822014 8.7458972788e-22)
(-0.0201155626174 0.00393674624465 1.33359195253e-21)
(-0.0198635515648 0.00645158333182 9.04675018696e-22)
(-0.0197950871063 0.00898941021919 4.36706486659e-22)
(-0.0198550863225 0.0115437971227 1.50424885459e-22)
(-0.0199805388193 0.014133095326 4.44951323895e-23)
(-0.0201333687916 0.016766468215 4.99319477197e-24)
(-0.0202901144151 0.0194495681022 -1.59803771945e-23)
(-0.0204343648781 0.0221947533978 -2.22790557412e-24)
(-0.0205530542959 0.025011948241 -2.58797852128e-23)
(-0.0231349384764 0.00128370858324 8.99062816717e-22)
(-0.0226585743301 0.00388922068891 1.20320437483e-21)
(-0.0223855414394 0.00636747552743 8.78326410474e-22)
(-0.0223234523938 0.00887508279468 4.45545502514e-22)
(-0.0224109109069 0.0114018496842 1.65243588704e-22)
(-0.0225757504985 0.0139651673928 7.53724131518e-23)
(-0.0227802901312 0.0165833447618 1.53201959817e-23)
(-0.0229984114436 0.0192649347989 5.12538056153e-24)
(-0.0232141225732 0.0220210502315 5.75316133687e-25)
(-0.0234124592774 0.0248650013502 -2.11305931137e-23)
(-0.0256860171596 0.00126704519908 6.4965064121e-22)
(-0.0251677497526 0.00382389230311 1.03029989716e-21)
(-0.0248705512206 0.00625776132675 7.44839649897e-22)
(-0.0248166747923 0.00872630936681 3.85272073924e-22)
(-0.024936648876 0.0112167696753 1.3577888104e-22)
(-0.0251504363561 0.0137488068253 3.10679530206e-23)
(-0.0254123369582 0.016340894823 9.90460665383e-24)
(-0.0257017904596 0.0190060042966 3.88192894475e-24)
(-0.0260024302074 0.0217594044709 1.02649453874e-23)
(-0.0263024659729 0.0246193053304 -1.04626145056e-23)
(-0.0281895677729 0.00123935938141 1.36652764226e-22)
(-0.0276251061433 0.00373828833647 4.7518795769e-22)
(-0.0273072755716 0.00612366439853 4.52998465928e-22)
(-0.0272623518397 0.0085404865911 2.8015019141e-22)
(-0.0274207015946 0.0109830024467 9.84167762089e-23)
(-0.0276895568374 0.0134723498445 1.63509203947e-23)
(-0.028019617632 0.0160282462791 1.27287467038e-24)
(-0.0283886426346 0.0186636031121 -3.97724272706e-24)
(-0.0287843781754 0.0213960041938 -1.3775998783e-23)
(-0.0291958404386 0.0242602255415 -1.80368366065e-23)
(-0.0306359435829 0.00121085413157 -4.21542280901e-24)
(-0.0300217447974 0.00363748261729 5.88214938459e-22)
(-0.0296877339536 0.00596029578101 4.74494316736e-22)
(-0.029656136431 0.00831397844212 2.74148226111e-22)
(-0.0298536787633 0.0106943596458 8.56689588497e-23)
(-0.0301803628615 0.0131297892582 1.37989217616e-23)
(-0.030585444711 0.0156373783008 -8.68017578549e-24)
(-0.0310451316845 0.0182307681311 -2.28588358692e-23)
(-0.0315466472206 0.0209290501757 -4.5132980427e-23)
(-0.032077390104 0.0237616981555 -4.41339491555e-23)
(-0.0330107242024 0.0011759321853 3.45007324602e-23)
(-0.0323517652979 0.00351726718211 6.48516270183e-22)
(-0.0319993375413 0.0057640965939 5.27994894404e-22)
(-0.0319841101269 0.00804467201969 2.86039450204e-22)
(-0.0322206092192 0.0103523971932 7.31215845396e-23)
(-0.0326102954637 0.0127171853641 8.5283204925e-24)
(-0.0330955503675 0.0151588829405 -5.70108775662e-24)
(-0.0336518223 0.0176941651069 -2.45059342493e-23)
(-0.0342714442305 0.0203454213144 -5.37628316203e-23)
(-0.0349413716849 0.0231328510219 -4.06568659163e-23)
(-0.0352965981744 0.001137855838 -1.78599694488e-22)
(-0.0345985124876 0.00337993244007 2.96736508111e-22)
(-0.0342268103385 0.00553778867412 3.21572600674e-22)
(-0.034228035835 0.00773233823167 2.15061960498e-22)
(-0.0345093127262 0.00995013567841 6.28373259656e-23)
(-0.0349640302472 0.0122275851094 1.49016365426e-24)
(-0.0355336933394 0.0145921848057 -1.05375982304e-23)
(-0.0361964592233 0.0170522688203 -1.31012975748e-23)
(-0.036940480247 0.0196304546387 -3.61149855729e-23)
(-0.0377602070414 0.0223537518684 -3.41077443292e-23)
(-0.0374829401581 0.00108716746827 -3.95322872048e-22)
(-0.036744341892 0.00321950058528 -3.98386478262e-23)
(-0.0363574792116 0.00527790481222 -1.74443770499e-23)
(-0.0363756776289 0.00736882584045 3.73514970942e-23)
(-0.0367047922734 0.00948671409441 7.63958517618e-24)
(-0.0372276879441 0.0116659619874 -7.17946417417e-24)
(-0.0378866266994 0.0139300709331 -1.1936281241e-23)
(-0.0386616232747 0.0162950824119 -6.85755807653e-24)
(-0.0395334578863 0.0187830803171 -1.38173743375e-23)
(-0.0405046591333 0.0214180334052 -1.00142018819e-23)
(-0.0395617509109 0.00103469417613 -8.13043984716e-22)
(-0.0387801435181 0.00303926067761 -5.1125915719e-22)
(-0.0383783928712 0.00498241170143 -2.91534677265e-22)
(-0.0384144796312 0.00695935935603 -1.12371981929e-22)
(-0.0387904455354 0.00896129610209 -4.33899206102e-23)
(-0.0393845583389 0.0110248611496 -1.05306820552e-23)
(-0.0401347258072 0.0131717530659 6.97218111806e-25)
(-0.041019825544 0.0154240437347 3.55210864041e-24)
(-0.0420226864601 0.017800226801 1.40268426653e-23)
(-0.0431475936355 0.0203218451709 3.03331266894e-23)
(-0.0415132550758 0.000973030304746 -9.11497870609e-22)
(-0.040698743529 0.0028401042437 -4.99814366687e-22)
(-0.0402799349998 0.00465532624104 -2.82879659379e-22)
(-0.0403349712885 0.00650568872625 -1.18052399816e-22)
(-0.0407570948033 0.0083794204217 -3.30141421147e-23)
(-0.0414189998886 0.010313729951 -4.29480851635e-24)
(-0.0422546738584 0.0123245480983 1.83481648601e-23)
(-0.0433280302478 0.000900758232726 -5.07081726855e-22)
(-0.0424790254802 0.00261712495201 -1.5675452353e-22)
(-0.0420464025406 0.00429241039807 -8.44139253353e-23)
(-0.0421196346172 0.00599818451137 -3.68167388671e-23)
(-0.0425887355343 0.00772864544407 -2.63978162589e-23)
(-0.0436585192395 0.00389139183399 1.42233511823e-22)
(-0.0437504497241 0.00543665606998 1.05617023812e-22)
)
;

boundaryField
{
    back
    {
        type            noSlip;
    }
    sides
    {
        type            noSlip;
    }
    bottom
    {
        type            noSlip;
    }
    front
    {
        type            noSlip;
    }
    atmosphere
    {
        type            pressureInletOutletVelocity;
        value           nonuniform List<vector> 0();
    }
    floatingObject
    {
        type            movingWallVelocity;
        value           nonuniform List<vector> 0();
    }
    procBoundary2to0
    {
        type            processor;
        value           nonuniform List<vector> 
14
(
(-0.0432379986126 0.0144407044883 2.31655206458e-23)
(-0.0443800030986 0.0166821174179 1.13705567464e-23)
(-0.0456655169236 0.0190665144828 1.28065252778e-23)
(-0.0433174191554 0.00951782389744 -9.52918531725e-24)
(-0.0432379986126 0.0144407044883 2.31655206458e-23)
(-0.0442363012777 0.0113834326951 3.25051053262e-24)
(-0.0449894162618 0.000830087380011 -2.3973676001e-23)
(-0.0441030631729 0.00237523705758 2.40506362942e-22)
(-0.0433174191554 0.00951782389744 -9.52918531725e-24)
(-0.0442640523225 0.00700254964057 1.72976059261e-23)
(-0.0441030631729 0.00237523705758 2.40506362942e-22)
(-0.0451025403579 0.00345543195212 1.3571592215e-22)
(-0.0442640523225 0.00700254964057 1.72976059261e-23)
(-0.0452112239239 0.00482209284448 1.09657792474e-22)
)
;
    }
    procBoundary2to1
    {
        type            processor;
        value           nonuniform List<vector> 
18
(
(-0.00139637847361 0.0240982510225 7.35118833173e-22)
(-0.00423254638305 0.0233338412915 2.46631442152e-22)
(-0.00689870806661 0.0228145489997 5.41128109747e-23)
(-0.00689870806661 0.0228145489997 5.41128109747e-23)
(-0.0095439490845 0.0252406549343 -2.82490676739e-23)
(-0.0095439490845 0.0252406549343 -2.82490676739e-23)
(-0.0121803086044 0.0278827469528 -4.79852926186e-23)
(-0.0149233462721 0.0279067843194 -5.69591035968e-23)
(-0.0177426225658 0.0279352831178 -7.84886150614e-23)
(-0.0206310592904 0.0279092262248 -9.62879684863e-23)
(-0.0235782707129 0.0278042881065 -5.81148984085e-23)
(-0.0265754165823 0.0275922869436 -6.91220813269e-23)
(-0.0296116394186 0.0272490656453 -7.20936676653e-23)
(-0.0326502024514 0.0267431903467 -5.72824711591e-23)
(-0.0356654824608 0.0260782082737 -6.98603365532e-23)
(-0.0386497564517 0.0252492389762 -5.01387930562e-23)
(-0.0415697004492 0.0242446803834 -3.27848213757e-23)
(-0.0443910559726 0.0230365130015 -3.38170511862e-23)
)
;
    }
}


// ************************************************************************* //
