/*--------------------------------*- C++ -*----------------------------------*\
| =========                 |                                                 |
| \\      /  F ield         | OpenFOAM: The Open Source CFD Toolbox           |
|  \\    /   O peration     | Version:  v2012                                 |
|   \\  /    A nd           | Website:  www.openfoam.com                      |
|    \\/     M anipulation  |                                                 |
\*---------------------------------------------------------------------------*/
FoamFile
{
    version     2.0;
    format      ascii;
    class       surfaceVectorField;
    location    "4.1";
    object      Uf_0;
}
// * * * * * * * * * * * * * * * * * * * * * * * * * * * * * * * * * * * * * //

dimensions      [0 1 -1 0 0 0 0];


internalField   nonuniform List<vector> 
305
(
(-0.00154465246165 0.00317601295296 7.82556895242e-22)
(-0.00317586206272 0.00152340928876 7.70742424691e-22)
(-0.001363147791 0.00604163828338 6.24873748188e-22)
(-0.00286547713961 0.00447888308164 1.02440721848e-21)
(-0.00132309386802 0.0087734335581 -1.02257035375e-23)
(-0.00273164561255 0.00721146462792 3.99325625438e-22)
(-0.00134463047356 0.0115017233088 -5.70337421913e-22)
(-0.00272808863769 0.00993812584013 -3.18861462205e-22)
(-0.00137303529094 0.014260832825 -7.97154452747e-22)
(-0.00275877256678 0.0126651009755 -8.96021304096e-22)
(-0.00138916911784 0.0170519790897 -6.50944927866e-22)
(-0.00278945996972 0.0154077854026 -8.53770297958e-22)
(-0.00139696398298 0.0198601322333 -9.52767314671e-23)
(-0.00280480739522 0.0181702025901 -6.25640468404e-22)
(-0.00281299278277 0.020941037924 7.86278697742e-23)
(-0.00448771395169 0.00283566036497 1.01259274793e-21)
(-0.00601138780527 0.00133051641946 1.1587411373e-21)
(-0.00423639999394 0.00561611268052 7.98859095732e-22)
(-0.005645805618 0.0041783038562 1.44625686132e-21)
(-0.00415250096853 0.00836354484395 9.06898667705e-23)
(-0.00547893872811 0.00687518604817 6.88164136253e-22)
(-0.00415648867855 0.0110822798339 -6.44545344388e-22)
(-0.00544661899579 0.00958621869473 -1.31402497478e-22)
(-0.00418677634413 0.0137925695911 -9.52637149307e-22)
(-0.00546869041298 0.0122772449657 -7.24849476095e-22)
(-0.00421237274608 0.0165071009758 -8.28465838496e-22)
(-0.0055023993322 0.0149657751735 -7.18586774228e-22)
(-0.00422776863754 0.0192313387544 -4.51735867163e-22)
(-0.0055255653595 0.0176622704605 -5.52597185412e-22)
(-0.00553828337885 0.0203657292112 -1.15846887334e-22)
(-0.00718678067174 0.00267185962321 1.59240525069e-21)
(-0.00868317265985 0.00127554359794 1.41854335369e-21)
(-0.00692691853719 0.00538926583162 1.33556190184e-21)
(-0.0083631590044 0.00404509363233 1.72133142229e-21)
(-0.00681192686789 0.00809080609218 4.66071772004e-22)
(-0.00818042862553 0.00668305328875 9.68967231699e-22)
(-0.0067959504897 0.010768435062 -2.11706629184e-22)
(-0.00812414513761 0.00935784164576 1.89835743408e-22)
(-0.0068246786403 0.0134336261899 -4.90799101015e-22)
(-0.00813364632616 0.0120121071262 -2.81396482698e-22)
(-0.00685959403759 0.0160992949856 -4.42718121144e-22)
(-0.00816669976845 0.0146641308029 -3.55833094894e-22)
(-0.00688508407586 0.0187766100387 -2.16708205583e-22)
(-0.00820091695526 0.0173253806965 -2.54371898074e-22)
(-0.00821773106149 0.0199974269346 -3.80001932507e-23)
(-0.00985119876841 0.0026359297967 1.54746952529e-21)
(-0.0113191126447 0.00128071636334 1.23573186462e-21)
(-0.00960530272637 0.00530015206047 1.35473675215e-21)
(-0.0110274360328 0.0040037095638 1.65057399675e-21)
(-0.00947718161331 0.00794888669436 6.92731203103e-22)
(-0.010829248797 0.00659681233444 1.07610785896e-21)
(-0.00944901327077 0.0105875478809 1.20145889894e-22)
(-0.0107628819511 0.00923580321908 4.06670406241e-22)
(-0.00947289119827 0.0132224618951 -1.46430476577e-22)
(-0.0107685665392 0.0118622232657 4.98697799558e-24)
(-0.00951112552957 0.0158663443941 -1.67486871824e-22)
(-0.0108100802723 0.0144926326829 -1.0845636714e-22)
(-0.00954330353751 0.0185201943654 -7.56638857419e-23)
(-0.0108525263472 0.0171394083754 -8.43819705918e-23)
(-0.00955911080906 0.0211906853367 -8.18232456502e-24)
(-0.0108854818229 0.0198044924175 -1.31411144357e-24)
(-0.0108941897477 0.0224913631223 5.31533088351e-24)
(-0.0124879390241 0.00263780308663 1.33883633608e-21)
(-0.0139570232956 0.00129369336248 9.34181664737e-22)
(-0.0122399056393 0.00527231905262 1.37194510356e-21)
(-0.0136621301998 0.00399385116545 1.50225906604e-21)
(-0.0121002990913 0.00788567706497 7.900470621e-22)
(-0.0134428465046 0.0065614670812 1.03563406494e-21)
(-0.0120698797298 0.0104928558954 2.91511494342e-22)
(-0.0133703290795 0.00916706517153 4.69576620891e-22)
(-0.0120992410776 0.0131103978718 4.29610874324e-23)
(-0.013386352442 0.0117723687244 1.30325028917e-22)
(-0.0121487981755 0.0157411243302 -2.53514659075e-23)
(-0.0134408113139 0.0143906768687 5.93735691622e-24)
(-0.0121963631069 0.0183933359518 -1.00321962935e-23)
(-0.0135037551228 0.0170336000909 -1.4849161449e-23)
(-0.012227910224 0.0210711486995 1.2183544005e-23)
(-0.0135599587321 0.0197028225571 6.23365055357e-24)
(-0.0122339741768 0.023770775181 -1.97826814253e-24)
(-0.0135881296432 0.0224023109587 4.75519919014e-24)
(-0.0135807438775 0.0251347639127 -1.24641297976e-23)
(-0.0151135229862 0.00264279159585 1.0976043947e-21)
(-0.0166000275622 0.00129733927977 8.00243721474e-22)
(-0.0148455008968 0.0052450529595 1.16594802742e-21)
(-0.0162647007053 0.00398065697436 1.24024871659e-21)
(-0.0146985869552 0.0078359755728 7.15163623731e-22)
(-0.0160341673125 0.00653011449419 8.89663291632e-22)
(-0.0146728702029 0.0104251235511 3.08390155465e-22)
(-0.0159599334648 0.0091067401314 4.28207488485e-22)
(-0.0147163150113 0.0130296335323 9.33012984008e-23)
(-0.0159912953854 0.0116936989911 1.40277738112e-22)
(-0.014785832397 0.0156526998402 1.64396613747e-23)
(-0.0160641287807 0.0143027087368 3.21970611907e-23)
(-0.0148589910056 0.0183077463473 1.41668539806e-24)
(-0.0161583875413 0.0169431201612 -3.01680362518e-24)
(-0.0149197587853 0.0209952610224 -1.19469426126e-24)
(-0.0162446358648 0.0196192009403 -7.34697826915e-24)
(-0.0149506032957 0.0237239859963 -5.73066246488e-24)
(-0.0163110413768 0.0223387023695 -9.78514342015e-24)
(-0.0163380462056 0.0251070145603 -1.7568413492e-23)
(-0.0177287977992 0.0026364852359 9.42888043369e-22)
(-0.0192368375731 0.00129489362436 8.21527908726e-22)
(-0.0174286055364 0.00521565895736 9.63963980804e-22)
(-0.0188443176204 0.00395381425082 1.22545097485e-21)
(-0.0172760639849 0.00778227518412 6.02707156386e-22)
(-0.0186013381545 0.00648114496565 8.5764649157e-22)
(-0.017259055087 0.0103504887728 2.60095071132e-22)
(-0.0185287836095 0.00903206780233 4.15751417494e-22)
(-0.0173240076318 0.012936472066 7.91735009019e-23)
(-0.0185778935333 0.0115983153427 1.37909339698e-22)
(-0.0174235347354 0.0155589401354 1.27405961908e-23)
(-0.018686979239 0.0141949173886 3.87241701288e-23)
(-0.0175321068483 0.0182144041148 -1.17804672924e-23)
(-0.0188136063171 0.0168307460204 -1.23941035724e-24)
(-0.0176318241959 0.0209156182716 -1.5937427428e-23)
(-0.0189432836012 0.0195122931832 -1.60346481464e-23)
(-0.017704708044 0.0236735370153 -2.16228944473e-23)
(-0.0190631792918 0.0222504034409 -9.00692066593e-24)
(-0.0191408317224 0.0250523769105 -2.66698191748e-23)
(-0.0203274969285 0.00261441043732 1.10409084021e-21)
(-0.0218516908405 0.00128791340169 8.86826272299e-22)
(-0.0199895570911 0.00517045390517 1.11913348561e-21)
(-0.0214009390459 0.00391298346678 1.26839816368e-21)
(-0.0198293193355 0.00770871172459 6.70690752677e-22)
(-0.0211403007815 0.00640952942963 8.91500714585e-22)
(-0.0198250867144 0.0102527445824 2.93565686059e-22)
(-0.0210736192358 0.00893224650693 4.41125994587e-22)
(-0.0199178125709 0.0128202033855 9.74600089243e-23)
(-0.0211461356771 0.0114728234035 1.57834237082e-22)
(-0.0200569538055 0.0154276643448 2.47441635807e-23)
(-0.0212949557521 0.0140491313594 5.99337727706e-23)
(-0.0202117416034 0.0180823080137 -5.49359121129e-24)
(-0.0214680712463 0.0166749064884 1.01566953768e-23)
(-0.0203622396466 0.0207958615014 -9.10414138433e-24)
(-0.0216543880386 0.0193572514506 -5.42749831651e-24)
(-0.020493709587 0.0235707597762 -1.40538453935e-23)
(-0.0218321876529 0.0221079018147 -8.26294720216e-25)
(-0.0219841068567 0.0249384747956 -2.35051891633e-23)
(-0.0228967564032 0.00257542871638 1.05113359577e-21)
(-0.0244276841193 0.00127537689116 7.74356728963e-22)
(-0.0225220578847 0.00510377920586 1.04076539265e-21)
(-0.0239300004828 0.00385655649601 1.11675213599e-21)
(-0.0223544969166 0.00760987484339 6.61935956494e-22)
(-0.0236472420843 0.00631261842709 8.11583030185e-22)
(-0.0223671816504 0.0101232955191 3.05394545609e-22)
(-0.0235879900901 0.00880069608074 4.15408788219e-22)
(-0.0224933307027 0.012666887204 1.20308000928e-22)
(-0.0236906568469 0.0113093096798 1.50511234872e-22)
(-0.0226780203149 0.0152512022682 4.53463045667e-23)
(-0.0238798972323 0.013856987109 5.32201830862e-23)
(-0.0228893507874 0.0178966781 1.02227882716e-23)
(-0.0241134115864 0.0164621197924 1.26124013178e-23)
(-0.0231062670084 0.020607268417 2.85034834761e-24)
(-0.0243625240971 0.0191354695478 4.50365475314e-24)
(-0.0233132909253 0.0234062917255 -1.027763849e-23)
(-0.024625176221 0.0218902273512 5.42013076056e-24)
(-0.0248620663263 0.0247421533403 -1.57966038097e-23)
(-0.0254268834561 0.00252715586918 8.39975269184e-22)
(-0.0269555241591 0.00125320229024 3.93151702718e-22)
(-0.0250191504866 0.00501643046113 8.87569773528e-22)
(-0.0264201125658 0.00378109031979 7.52743927425e-22)
(-0.0248436130064 0.00748011550818 5.65055861911e-22)
(-0.0261119035163 0.00619071286264 5.98919057913e-22)
(-0.0248766618341 0.00995548056514 2.60525477482e-22)
(-0.0260644351623 0.00863339797896 3.32711132667e-22)
(-0.025043542616 0.0124630777893 8.34234170305e-23)
(-0.0261993042346 0.011099886061 1.17097828625e-22)
(-0.0252813866571 0.0150215546572 2.04862798372e-23)
(-0.0264390926023 0.0136105783349 2.37094367077e-23)
(-0.0255570637089 0.0176428007275 6.89326779929e-24)
(-0.0267345526458 0.0161845705511 5.58874066211e-24)
(-0.0258521103335 0.0203463725247 7.07343716609e-24)
(-0.0270635914059 0.0188348037043 -4.76568911543e-26)
(-0.0261524480902 0.0231386296385 -9.88345590738e-26)
(-0.0274112217388 0.0215777043324 -1.75552669777e-24)
(-0.0277721749329 0.0244397654359 -1.4249725556e-23)
(-0.0279073369581 0.00248351743834 3.05920360958e-22)
(-0.0294398347125 0.00122510675649 6.62186707086e-23)
(-0.0274661908575 0.00490914763512 4.64093211809e-22)
(-0.0288466918907 0.00368788547688 5.31701448074e-22)
(-0.0272848137057 0.00731750154484 3.66574328669e-22)
(-0.0285213480961 0.00604198008977 4.63746391332e-22)
(-0.0273415267172 0.00974453408263 1.89283483809e-22)
(-0.0284926605886 0.00842723251661 2.7714920876e-22)
(-0.027555129216 0.0122057638639 5.73838483018e-23)
(-0.0286616840398 0.0108386810463 9.20428675293e-23)
(-0.0278545872347 0.0147244902725 8.81189753253e-24)
(-0.0289586076174 0.0133010695513 1.50749210782e-23)
(-0.0282041301333 0.0173148144382 -1.35218402834e-24)
(-0.0293247864602 0.01583281229 -3.70365055755e-24)
(-0.028586510405 0.0199901946462 -8.87662075502e-24)
(-0.0297364094818 0.0184471856216 -1.34180392981e-23)
(-0.028990109307 0.0227743839963 -1.59064176947e-23)
(-0.030188989646 0.0211625271848 -2.9454489605e-23)
(-0.0306536080338 0.0240109618485 -3.1085392881e-23)
(-0.0303288441901 0.00240749869727 2.91999757825e-22)
(-0.0318482121013 0.00119339315844 1.51426548256e-23)
(-0.0298547393755 0.00477668213394 5.31354627597e-22)
(-0.031216907766 0.0035773748997 6.18365604321e-22)
(-0.0296719351923 0.00712689385805 3.74321271424e-22)
(-0.030872737847 0.00586219618746 5.0124460557e-22)
(-0.0297549075972 0.00948462238269 1.79908592481e-22)
(-0.0308516685421 0.0081793252309 2.80093838158e-22)
(-0.0300170208124 0.0118901223293 4.97339403057e-23)
(-0.0310684088888 0.0105233784195 7.93952716947e-23)
(-0.0303829037863 0.0143542239596 2.55937298808e-24)
(-0.0314235418697 0.0129234873112 1.11636211271e-23)
(-0.0308152881978 0.0168972385773 -1.57695058274e-23)
(-0.0318677196541 0.0153981306207 -7.19063177105e-24)
(-0.0312958894526 0.0195384312242 -3.39959081481e-23)
(-0.032374961899 0.017962466619 -2.36823850592e-23)
(-0.0318120186623 0.0222924103206 -4.46334647913e-23)
(-0.0329364809473 0.0206372357451 -4.94479060236e-23)
(-0.0335479404052 0.0234472745887 -4.23954075359e-23)
(-0.0326812447502 0.00233435716474 3.41508501322e-22)
(-0.0341834937432 0.00115689401165 -7.20494810138e-23)
(-0.0321755514196 0.00462268045426 5.88255582294e-22)
(-0.0335063001404 0.00344859981109 4.72626389147e-22)
(-0.0319917238341 0.00689373210018 4.07017172304e-22)
(-0.0331450076952 0.00565094263401 4.24783747539e-22)
(-0.032102359673 0.00917839612079 1.79580517372e-22)
(-0.0331376535418 0.00788850512568 2.50550705351e-22)
(-0.0324154523414 0.0115129714255 4.0824952516e-23)
(-0.0334042376547 0.0101512664358 6.79794552526e-23)
(-0.0328529229156 0.0139101006802 1.41361636794e-24)
(-0.0338215158754 0.0124723852368 5.00924207338e-24)
(-0.0333736863337 0.0163916771347 -1.51035110029e-23)
(-0.0343492011292 0.0148755338731 -8.11934299349e-24)
(-0.0339616332652 0.0189754264087 -3.91343829348e-23)
(-0.0349560839752 0.0173732169636 -1.8803615912e-23)
(-0.0346064079577 0.0216809394823 -4.72098487683e-23)
(-0.0356354767181 0.0199879379765 -4.49389085966e-23)
(-0.0363966515519 0.0227433014451 -3.73823051227e-23)
(-0.034947555331 0.00223669325633 5.90684068114e-23)
(-0.0364210957063 0.00111251165314 -2.86961283268e-22)
(-0.034412661413 0.00443711303129 3.09154554392e-22)
(-0.0357077538022 0.00329971651268 1.28448930142e-22)
(-0.0342274230868 0.00662179161862 2.68317280586e-22)
(-0.0353308718779 0.00540784674317 1.52064111812e-22)
(-0.0343686742806 0.00882345136949 1.38949643232e-22)
(-0.0353406026897 0.00755058203606 1.26206728796e-22)
(-0.0347366714867 0.0110644540693 3.21637448099e-23)
(-0.0356464569798 0.00971842488641 3.52384555709e-23)
(-0.0352488617933 0.0133793548885 -4.52371728805e-24)
(-0.0361372136786 0.0119467735484 -2.84465025996e-24)
(-0.0358650762814 0.0157770873788 -1.18194479026e-23)
(-0.0367468321654 0.0142611278694 -1.12369397357e-23)
(-0.0365684697352 0.0182936130251 -2.46081415738e-23)
(-0.0374700536077 0.0166736756161 -9.97942782566e-24)
(-0.0373503436442 0.0209419618254 -3.5111364951e-23)
(-0.0382776243034 0.0192067674779 -2.49661799552e-23)
(-0.0391803002276 0.0218858926368 -2.20609731055e-23)
(-0.037113641025 0.00214120893558 -2.17580759937e-22)
(-0.0385631109596 0.0010609308222 -6.04183428382e-22)
(-0.0365509105518 0.00423296290247 -2.8641512438e-23)
(-0.0378004092871 0.00312938063145 -2.75548902508e-22)
(-0.0363665784203 0.00631137632469 9.95356002216e-24)
(-0.0374103379627 0.00513015825683 -1.54489527157e-22)
(-0.0365402349511 0.00841037161235 2.24955411352e-23)
(-0.0374407571162 0.00716409259824 -3.75102424174e-23)
(-0.0369662401088 0.0105522346113 2.30060501004e-25)
(-0.0377894058438 0.00922400509825 -1.7875167717e-23)
(-0.0375571573218 0.0127658492017 -9.5578727076e-24)
(-0.0383516358176 0.0113454115685 -8.85507311468e-24)
(-0.0382741249871 0.0150776368686 -9.39691965878e-24)
(-0.0390586975115 0.0135509119995 -5.61953156461e-24)
(-0.0390975405805 0.0174956417611 -1.0337466207e-23)
(-0.0398857595314 0.0158595630733 -1.65272471806e-24)
(-0.0400190585098 0.0200498162297 -1.19157881097e-23)
(-0.0408252081991 0.018291653559 1.04734163937e-25)
(-0.0418805600711 0.020869939288 1.01594624038e-23)
(-0.0391709472145 0.00201829395061 -6.62151570953e-22)
(-0.0405818829004 0.00100386224044 -8.62270927662e-22)
(-0.0385792681947 0.00400104436786 -4.01396917227e-22)
(-0.0397837644264 0.00293968246066 -5.05536761938e-22)
(-0.0383964362512 0.00596234788579 -2.01953329597e-22)
(-0.0393724552542 0.00481886897124 -2.87207168322e-22)
(-0.0386024625833 0.00794178811398 -7.78809512696e-23)
(-0.0394211219006 0.00673252404114 -1.15212190872e-22)
(-0.0390875019372 0.00997215572969 -2.69603013327e-23)
(-0.0398210247276 0.00867035826189 -3.82020313624e-23)
(-0.0397596420731 0.0120704734549 -4.91673197169e-24)
(-0.0404509490556 0.0106692955503 -7.41274528577e-24)
(-0.0405772756756 0.0142633137688 2.12466337611e-24)
(-0.0412518550847 0.0127481505821 9.52269148595e-24)
(-0.041521256002 0.0165725044384 8.78947565288e-24)
(-0.0425851400478 0.0190101961868 2.21799846774e-23)
(-0.0411059993024 0.00188076020473 -7.05656118648e-22)
(-0.0424627072736 0.000936894268736 -7.09289798732e-22)
(-0.0404893392644 0.00373374808553 -3.91347013033e-22)
(-0.0416369907127 0.00272861459786 -3.28284445108e-22)
(-0.0403074531442 0.0055720857534 -2.00466029598e-22)
(-0.0412112379413 0.00447386831955 -1.83646792357e-22)
(-0.0405460330459 0.00742580249872 -7.55332709651e-23)
(-0.0412759887092 0.00625193661881 -7.74345693414e-23)
(-0.041088047346 0.00932691352119 -1.86544753155e-23)
(-0.0417232717158 0.00805403293288 -2.97059791868e-23)
(-0.0418368368735 0.0112956723215 7.02667817187e-24)
(-0.042903527864 0.00174045189844 -3.31918125193e-22)
(-0.0422627140104 0.00344523465593 -1.20584224433e-22)
(-0.0420830185789 0.00513698355145 -6.06153321012e-23)
(-0.0429033827763 0.00409190111603 2.89097932441e-23)
(-0.0423541850758 0.0068476650714 -3.1607277563e-23)
(-0.0429873233351 0.00571742029067 3.44001424722e-23)
(-0.0437044844818 0.00465827173599 1.23925267818e-22)
)
;

boundaryField
{
    back
    {
        type            calculated;
        value           uniform (0 0 0);
    }
    sides
    {
        type            calculated;
        value           uniform (0 0 0);
    }
    bottom
    {
        type            calculated;
        value           uniform (0 0 0);
    }
    front
    {
        type            calculated;
        value           uniform (0 0 0);
    }
    atmosphere
    {
        type            calculated;
        value           nonuniform List<vector> 0();
    }
    floatingObject
    {
        type            calculated;
        value           nonuniform List<vector> 0();
    }
    procBoundary2to0
    {
        type            processor;
        value           nonuniform List<vector> 
14
(
(-0.0421927761448 0.0149323741115 1.33588146431e-23)
(-0.0432592857043 0.0172411721095 1.26986997059e-23)
(-0.0444639703794 0.0196941798269 2.15698259836e-23)
(-0.0424208860748 0.00991577692421 -6.9119969168e-24)
(-0.0427463362355 0.0133445859652 2.07568427529e-23)
(-0.0433014166595 0.0118539903967 1.07993376964e-23)
(-0.0442028215502 0.000865422806369 -2.65527701428e-22)
(-0.0433416233395 0.0024961810048 4.18759197059e-23)
(-0.0429530773449 0.00860458427642 -1.79635007881e-23)
(-0.0434813693841 0.00736559754232 -4.55010516641e-24)
(-0.0438807912062 0.00312725540061 1.91369937383e-22)
(-0.0444341405689 0.00367341189306 1.38974716987e-22)
(-0.0440072510233 0.00620693377988 6.14573148689e-23)
(-0.0445365668953 0.00512937445723 1.07637408143e-22)
)
;
    }
    procBoundary2to1
    {
        type            processor;
        value           nonuniform List<vector> 
18
(
(-0.00139790677822 0.0226776829476 5.3088426116e-22)
(-0.00423291855026 0.0219604912399 3.8618746276e-23)
(-0.00689665943109 0.0214617394954 -4.09350704621e-24)
(-0.0082128278879 0.022682002291 2.57243616395e-23)
(-0.00955312928567 0.0238834259513 -1.54565776849e-23)
(-0.0108703653069 0.0251944796096 -2.27501767109e-23)
(-0.0122049295625 0.0264943464724 -3.26182891833e-23)
(-0.0149397715254 0.0264894967814 -3.2318038722e-23)
(-0.017737641804 0.026484582199 -5.29742340991e-23)
(-0.0205920567931 0.0264224026616 -6.10838768496e-23)
(-0.0234953649951 0.0262928548097 -3.96227457611e-23)
(-0.0264389412776 0.0260576179719 -3.97923479163e-23)
(-0.0294037399286 0.0256649118061 -4.50652521359e-23)
(-0.0323637962777 0.0251960075767 -5.07082101573e-23)
(-0.0353034270729 0.0245387267671 -5.52586012347e-23)
(-0.0382049817465 0.023734769272 -4.21232686927e-23)
(-0.0410371797912 0.0227578406866 -2.13995116288e-23)
(-0.043769324804 0.0216021615179 -1.74196224842e-24)
)
;
    }
}


// ************************************************************************* //
