/*--------------------------------*- C++ -*----------------------------------*\
| =========                 |                                                 |
| \\      /  F ield         | OpenFOAM: The Open Source CFD Toolbox           |
|  \\    /   O peration     | Version:  v2012                                 |
|   \\  /    A nd           | Website:  www.openfoam.com                      |
|    \\/     M anipulation  |                                                 |
\*---------------------------------------------------------------------------*/
FoamFile
{
    version     2.0;
    format      ascii;
    class       volScalarField;
    location    "2.5";
    object      nut;
}
// * * * * * * * * * * * * * * * * * * * * * * * * * * * * * * * * * * * * * //

dimensions      [0 2 -1 0 0 0 0];


internalField   nonuniform List<scalar> 
164
(
0.000550365863523
0.000817167153219
0.00084092623071
0.000848698950998
0.000851318462151
0.000852462754137
0.000853291638424
0.000854132557651
0.000550531323126
0.000817505297484
0.000841267481291
0.000849047656839
0.000851681406395
0.000852846065984
0.000853700449137
0.000854570956913
0.000550645146113
0.000817752291702
0.000841511058687
0.000849305541655
0.000851962277539
0.000853154462601
0.000854040793754
0.000854947903535
0.000855962060015
0.000857121131775
0.00055069647477
0.000817888136989
0.000841646184971
0.000849465063209
0.000852155053963
0.00085338310449
0.000854308654626
0.00085526077283
0.00085632640077
0.000857543126221
0.000550673284832
0.000817897833545
0.000841662789536
0.00084951907849
0.000852253912057
0.000853526989596
0.000854499781474
0.000855504907618
0.000856631537166
0.00085791820999
0.000550577672574
0.000817787164917
0.000841554476828
0.00084946097388
0.000852252213873
0.000853578958962
0.000854606749548
0.000855672834859
0.000856870033896
0.000858238991327
0.000550397073951
0.000817537987735
0.000841317354858
0.000849284061648
0.000852143084318
0.00085353288359
0.000854623610483
0.000855758680394
0.000857034650874
0.000858495214501
0.000550126863564
0.000817146668005
0.000840938176163
0.00084897909317
0.000851918270009
0.000853381277843
0.000854543540126
0.000855756042869
0.000857119176266
0.000858678782762
0.000549782723573
0.000816588219411
0.00084040358852
0.000848534833933
0.000851569056542
0.000853116776028
0.00085435984019
0.000855657111699
0.0008571141574
0.000858782192429
0.000549343381969
0.000815865066649
0.000839711295523
0.00084794693086
0.000851090380813
0.000852734493402
0.000854067798675
0.000855457414616
0.000857014897301
0.000858796454862
0.000548784484014
0.000814978753995
0.000838859478557
0.000847210521266
0.000850475765541
0.000852227999909
0.000853662576946
0.000855155426757
0.000856821742048
0.000858718546303
0.000548092953445
0.000813919758063
0.000837841118234
0.000846318535319
0.000849717420834
0.0008515913522
0.000853140511161
0.0008547487221
0.000856535253499
0.000858550774015
0.000547280012699
0.000812684708813
0.000836650735439
0.000845264368235
0.000848810637761
0.000850820708323
0.000852499607694
0.000854239422488
0.000856165266435
0.000858327154178
0.00054633013036
0.000811273749156
0.000835287305273
0.000844045425237
0.000847750811233
0.000849911318327
0.000851735222959
0.000853625149206
0.000855708640573
0.000858038441723
0.000545239440659
0.000809683994467
0.000833750464752
0.000842659586745
0.0008465346879
0.000848859683931
0.000850847427699
0.00085290719691
0.000855167374103
0.000857680398152
0.000544000034345
0.000807918241809
0.000832042851392
0.000841109515906
0.000845162719538
0.000847666955093
0.00084983847343
0.00085209122296
0.000854552337473
0.00085725929559
0.00054263270862
0.000805995691182
0.000830181539106
0.000839403234062
0.000843639558619
0.000846334397058
0.000848707983764
0.000841974070727
)
;

boundaryField
{
    back
    {
        type            nutkWallFunction;
        blending        stepwise;
        Cmu             0.09;
        kappa           0.41;
        E               9.8;
        value           nonuniform List<scalar> 
164
(
7.62437527384e-05
8.40657682183e-05
8.62634985057e-05
8.69717082106e-05
8.72070264514e-05
8.73098905477e-05
8.73856062154e-05
8.74631906221e-05
7.62612188757e-05
8.40942602437e-05
8.62927437107e-05
8.70021396717e-05
8.72390202132e-05
8.73438458413e-05
8.74219288445e-05
8.75022411009e-05
7.62726429048e-05
8.41139459722e-05
8.6312783666e-05
8.70241655692e-05
8.72634862265e-05
8.73709470019e-05
8.74519766852e-05
8.75356199958e-05
8.76293355753e-05
8.77365131246e-05
7.62767064301e-05
8.41230773547e-05
8.63226333393e-05
8.70370801029e-05
8.72798625419e-05
8.73907407484e-05
8.74753788016e-05
8.75631150621e-05
8.76615195341e-05
8.77739053209e-05
7.627164542e-05
8.41202620289e-05
8.63213942807e-05
8.70402416064e-05
8.72876256688e-05
8.74027834434e-05
8.74917655855e-05
8.75843177084e-05
8.76882319354e-05
8.78069035515e-05
7.62581117915e-05
8.41057614135e-05
8.63085111442e-05
8.70330555405e-05
8.72861667413e-05
8.74064343197e-05
8.75004675606e-05
8.75985574928e-05
8.7708861178e-05
8.78349444565e-05
7.62342311689e-05
8.40782326282e-05
8.62834692425e-05
8.70148581597e-05
8.72748338758e-05
8.74010996966e-05
8.75009176335e-05
8.76052802817e-05
8.77227614979e-05
8.78571293475e-05
7.6199462822e-05
8.40370574231e-05
8.62452542315e-05
8.69848628248e-05
8.72529001981e-05
8.73860968025e-05
8.74924830598e-05
8.76038850109e-05
8.77292871238e-05
8.78727125577e-05
7.61531442069e-05
8.3981163281e-05
8.61931328519e-05
8.69422917277e-05
8.72196432991e-05
8.73607795569e-05
8.74745565074e-05
8.75936643872e-05
8.77275929017e-05
8.78809058847e-05
7.60932049167e-05
8.39102848416e-05
8.61267085977e-05
8.68866294593e-05
8.71745014149e-05
8.73245691986e-05
8.74465722205e-05
8.75740718088e-05
8.77171686495e-05
8.78808756632e-05
7.60182550091e-05
8.38240581734e-05
8.604538667e-05
8.68171814755e-05
8.71167868701e-05
8.72768628743e-05
8.74080351149e-05
8.75448198219e-05
8.7697713758e-05
8.78718494763e-05
7.59265279458e-05
8.37215639771e-05
8.59484755402e-05
8.6733241414e-05
8.7045709187e-05
8.72170363699e-05
8.73585528605e-05
8.75056373606e-05
8.76692026168e-05
8.7853782267e-05
7.58195444723e-05
8.36024448906e-05
8.58354025291e-05
8.66341212758e-05
8.69607636108e-05
8.71446692261e-05
8.72978746248e-05
8.74566478787e-05
8.76325047455e-05
8.78298607555e-05
7.56952479475e-05
8.34667303232e-05
8.57060299742e-05
8.65195147106e-05
8.68614452696e-05
8.70592420451e-05
8.72254766221e-05
8.73975573236e-05
8.75872976569e-05
8.77992901565e-05
7.55533269602e-05
8.33141777533e-05
8.55603123613e-05
8.63891469567e-05
8.67473523622e-05
8.6960304059e-05
8.71412347837e-05
8.73283410853e-05
8.75335867742e-05
8.77616761816e-05
7.53927655215e-05
8.31450525206e-05
8.53984360735e-05
8.62432121466e-05
8.66184295014e-05
8.68478570387e-05
8.70452460364e-05
8.72493340528e-05
8.74721669509e-05
8.77170226869e-05
7.52162775025e-05
8.29612102952e-05
8.52220387799e-05
8.60823860036e-05
8.6475048173e-05
8.67219311338e-05
8.69373545579e-05
8.63179918747e-05
)
;
    }
    sides
    {
        type            nutkWallFunction;
        blending        stepwise;
        Cmu             0.09;
        kappa           0.41;
        E               9.8;
        value           nonuniform List<scalar> 0();
    }
    bottom
    {
        type            nutkWallFunction;
        blending        stepwise;
        Cmu             0.09;
        kappa           0.41;
        E               9.8;
        value           nonuniform List<scalar> 
17
(
4.05602956135e-05
4.05696118891e-05
4.05757053528e-05
4.05778727955e-05
4.05751733046e-05
4.05679546002e-05
4.0555216891e-05
4.0536671722e-05
4.05119656447e-05
4.04799942367e-05
4.04400159913e-05
4.0391088476e-05
4.0334022664e-05
4.02677212897e-05
4.01920179472e-05
4.01063703375e-05
4.00122257316e-05
)
;
    }
    front
    {
        type            nutkWallFunction;
        blending        stepwise;
        Cmu             0.09;
        kappa           0.41;
        E               9.8;
        value           nonuniform List<scalar> 
164
(
7.62437527384e-05
8.40657682183e-05
8.62634985057e-05
8.69717082106e-05
8.72070264514e-05
8.73098905477e-05
8.73856062154e-05
8.74631906221e-05
7.62612188757e-05
8.40942602437e-05
8.62927437107e-05
8.70021396717e-05
8.72390202132e-05
8.73438458413e-05
8.74219288445e-05
8.75022411009e-05
7.62726429048e-05
8.41139459722e-05
8.6312783666e-05
8.70241655692e-05
8.72634862265e-05
8.73709470019e-05
8.74519766852e-05
8.75356199958e-05
8.76293355753e-05
8.77365131246e-05
7.62767064301e-05
8.41230773547e-05
8.63226333393e-05
8.70370801029e-05
8.72798625419e-05
8.73907407484e-05
8.74753788016e-05
8.75631150621e-05
8.76615195341e-05
8.77739053209e-05
7.627164542e-05
8.41202620289e-05
8.63213942807e-05
8.70402416064e-05
8.72876256688e-05
8.74027834434e-05
8.74917655855e-05
8.75843177084e-05
8.76882319354e-05
8.78069035515e-05
7.62581117915e-05
8.41057614135e-05
8.63085111442e-05
8.70330555405e-05
8.72861667413e-05
8.74064343197e-05
8.75004675606e-05
8.75985574928e-05
8.7708861178e-05
8.78349444565e-05
7.62342311689e-05
8.40782326282e-05
8.62834692425e-05
8.70148581597e-05
8.72748338758e-05
8.74010996966e-05
8.75009176335e-05
8.76052802817e-05
8.77227614979e-05
8.78571293475e-05
7.6199462822e-05
8.40370574231e-05
8.62452542315e-05
8.69848628248e-05
8.72529001981e-05
8.73860968025e-05
8.74924830598e-05
8.76038850109e-05
8.77292871238e-05
8.78727125577e-05
7.61531442069e-05
8.3981163281e-05
8.61931328519e-05
8.69422917277e-05
8.72196432991e-05
8.73607795569e-05
8.74745565074e-05
8.75936643872e-05
8.77275929017e-05
8.78809058847e-05
7.60932049167e-05
8.39102848416e-05
8.61267085977e-05
8.68866294593e-05
8.71745014149e-05
8.73245691986e-05
8.74465722205e-05
8.75740718088e-05
8.77171686495e-05
8.78808756632e-05
7.60182550091e-05
8.38240581734e-05
8.604538667e-05
8.68171814755e-05
8.71167868701e-05
8.72768628743e-05
8.74080351149e-05
8.75448198219e-05
8.7697713758e-05
8.78718494763e-05
7.59265279458e-05
8.37215639771e-05
8.59484755402e-05
8.6733241414e-05
8.7045709187e-05
8.72170363699e-05
8.73585528605e-05
8.75056373606e-05
8.76692026168e-05
8.7853782267e-05
7.58195444723e-05
8.36024448906e-05
8.58354025291e-05
8.66341212758e-05
8.69607636108e-05
8.71446692261e-05
8.72978746248e-05
8.74566478787e-05
8.76325047455e-05
8.78298607555e-05
7.56952479475e-05
8.34667303232e-05
8.57060299742e-05
8.65195147106e-05
8.68614452696e-05
8.70592420451e-05
8.72254766221e-05
8.73975573236e-05
8.75872976569e-05
8.77992901565e-05
7.55533269602e-05
8.33141777533e-05
8.55603123613e-05
8.63891469567e-05
8.67473523622e-05
8.6960304059e-05
8.71412347837e-05
8.73283410853e-05
8.75335867742e-05
8.77616761816e-05
7.53927655215e-05
8.31450525206e-05
8.53984360735e-05
8.62432121466e-05
8.66184295014e-05
8.68478570387e-05
8.70452460364e-05
8.72493340528e-05
8.74721669509e-05
8.77170226869e-05
7.52162775025e-05
8.29612102952e-05
8.52220387799e-05
8.60823860036e-05
8.6475048173e-05
8.67219311338e-05
8.69373545579e-05
8.63179918747e-05
)
;
    }
    atmosphere
    {
        type            calculated;
        value           nonuniform List<scalar> 0();
    }
    floatingObject
    {
        type            nutkWallFunction;
        blending        stepwise;
        Cmu             0.09;
        kappa           0.41;
        E               9.8;
        value           nonuniform List<scalar> 0();
    }
    procBoundary4to0
    {
        type            processor;
        value           nonuniform List<scalar> 8(0.000550144227413 0.000816736262285 0.000840490821937 0.000848264492921 0.000850877989584 0.000852009078961 0.000852819186389 0.000853637653345);
    }
    procBoundary4to3
    {
        type            processor;
        value           nonuniform List<scalar> 
13
(
0.000851181293022
0.000853880147443
0.000856840645661
0.000541140903029
0.000803939286911
0.000828188808122
0.000837560166538
0.00084486242482
0.000851181293022
0.000847449851687
0.000837560166538
0.00084486242482
0.000840179562003
)
;
    }
    procBoundary4to5
    {
        type            processor;
        value           nonuniform List<scalar> 
18
(
0.000855071920722
0.000855543306716
0.000855543306716
0.000856657315844
0.000858513240604
0.000858993045154
0.000859443470108
0.000859857322715
0.000860221911386
0.000860530205434
0.000860774714333
0.000860932890858
0.000860981479685
0.000860900972481
0.0008608278632
0.000860741204421
0.000860576793452
0.000860270915687
)
;
    }
}


// ************************************************************************* //
