/*--------------------------------*- C++ -*----------------------------------*\
| =========                 |                                                 |
| \\      /  F ield         | OpenFOAM: The Open Source CFD Toolbox           |
|  \\    /   O peration     | Version:  v2012                                 |
|   \\  /    A nd           | Website:  www.openfoam.com                      |
|    \\/     M anipulation  |                                                 |
\*---------------------------------------------------------------------------*/
FoamFile
{
    version     2.0;
    format      ascii;
    class       volScalarField;
    location    "5";
    object      ddt0(k);
}
// * * * * * * * * * * * * * * * * * * * * * * * * * * * * * * * * * * * * * //

dimensions      [0 2 -3 0 0 0 0];


internalField   nonuniform List<scalar> 
167
(
-0.000674171292912
-0.000678381252244
-0.000688462682466
-0.000722740653254
-0.000795929378063
-0.000475286491349
-0.00132558063108
-0.0127943914147
-0.0103232641968
-0.000669235861448
-0.000664905773543
-0.00065515117239
-0.000589468152157
9.28011915664e-05
0.000542830962716
-0.00940996585248
-0.00546660873498
-0.000658914313751
-0.000637962695821
-0.000577556818148
-0.000368287143799
0.00071733180641
0.00279668433424
-0.00419119442474
-0.00501220737721
-0.00065899635961
-0.000648091701911
-0.000610890044717
-0.000506042165823
-0.000184103718185
0.00135956559581
0.00552582849656
0.000815011924834
-0.00452642566305
-0.000653400009607
-0.000637103415778
-0.000585914301984
-0.000449205236698
-1.5547976832e-05
0.00221921342118
0.00918303731647
0.00741484263289
-0.00195211552696
-0.000647589233875
-0.00062558002986
-0.000559313462614
-0.000383215116755
0.000181854821654
0.00310941859407
0.0134342309929
0.0190264392211
0.00241656307811
-0.000651389226416
-0.000641516916154
-0.000612961319105
-0.000526842293488
-0.000288344220645
0.000464068945119
0.00389313091392
0.0163498553761
0.0300482558642
0.00648297321267
-0.000652746224907
-0.000647639478187
-0.000635313639037
-0.000599872163211
-0.000491684449267
-0.000181738075439
0.000798790756589
0.00482505036578
0.0177038580185
0.0300781073617
0.00785188523235
-0.000650112238275
-0.000643924827363
-0.000629046108061
-0.000586435700438
-0.000456593778122
-8.32118604349e-05
0.00109165594166
0.00570578232485
0.0191672634095
0.0293652453815
0.0110435048968
-0.000640301282141
-0.000622808323195
-0.000573155111977
-0.000424163861387
-2.43835765171e-06
0.00131007350443
0.00640986186055
0.0219508933913
0.0400680406684
0.0169889894824
-0.000637127186661
-0.000617094549517
-0.000561050538244
-0.000397089853033
5.53471264512e-05
0.00147104231238
0.00738971859698
0.0274193367097
0.0541741725917
0.0225287258358
-0.00063475206919
-0.000612377809846
-0.000550492815883
-0.000372374434454
0.00011422054261
0.00167663011833
0.00875411820896
0.0346791283883
0.0689718470483
0.029200097814
-0.000633704578695
-0.000609327518442
-0.000542257232072
-0.000350153865999
0.000177569849146
0.00191769138342
0.0100913124955
0.0411196272329
0.0812760105002
0.026860621194
-0.000633666228267
-0.000608377068421
-0.000537836425401
-0.000333758694885
0.000235401322186
0.00211060676145
0.0107652925024
0.0434778804117
0.0845784603129
0.0204791246723
-0.000640053031264
-0.000630762830516
-0.000606389671117
-0.000535447318649
-0.000323750998489
0.000282490690374
0.00227890257799
0.0111625445605
0.0433026211456
0.078912208061
0.0102500171373
-0.000616245289636
-0.000609027871099
-0.000587983521345
-0.000522706170611
-0.000316111466934
0.000314105565894
0.00248614621522
0.011711739162
0.0413906470265
0.073733210734
0.0460880209277
-0.000468741637952
-0.000459977347104
-0.000440343354
-0.000386305515404
-0.000208937646097
0.000423111683194
0.00289590051004
0.0128754225549
0.0402507435106
0.0775788001058
0.0349922895111
)
;

boundaryField
{
    back
    {
        type            calculated;
        value           nonuniform List<scalar> 
167
(
-0.000674171292912
-0.000678381252244
-0.000688462682466
-0.000722740653254
-0.000795929378063
-0.000475286491349
-0.00132558063108
-0.0127943914147
-0.0103232641968
-0.000669235861448
-0.000664905773543
-0.00065515117239
-0.000589468152157
9.28011915664e-05
0.000542830962716
-0.00940996585248
-0.00546660873498
-0.000658914313751
-0.000637962695821
-0.000577556818148
-0.000368287143799
0.00071733180641
0.00279668433424
-0.00419119442474
-0.00501220737721
-0.00065899635961
-0.000648091701911
-0.000610890044717
-0.000506042165823
-0.000184103718185
0.00135956559581
0.00552582849656
0.000815011924835
-0.00452642566305
-0.000653400009607
-0.000637103415778
-0.000585914301984
-0.000449205236698
-1.5547976832e-05
0.00221921342118
0.00918303731647
0.00741484263289
-0.00195211552696
-0.000647589233875
-0.00062558002986
-0.000559313462614
-0.000383215116755
0.000181854821654
0.00310941859407
0.0134342309929
0.0190264392211
0.00241656307811
-0.000651389226416
-0.000641516916154
-0.000612961319105
-0.000526842293488
-0.000288344220645
0.000464068945119
0.00389313091392
0.0163498553761
0.0300482558642
0.00648297321267
-0.000652746224907
-0.000647639478187
-0.000635313639037
-0.000599872163211
-0.000491684449267
-0.000181738075439
0.000798790756589
0.00482505036578
0.0177038580185
0.0300781073617
0.00785188523235
-0.000650112238275
-0.000643924827363
-0.000629046108061
-0.000586435700438
-0.000456593778122
-8.32118604349e-05
0.00109165594166
0.00570578232485
0.0191672634095
0.0293652453815
0.0110435048968
-0.000640301282141
-0.000622808323195
-0.000573155111977
-0.000424163861387
-2.4383576517e-06
0.00131007350443
0.00640986186055
0.0219508933913
0.0400680406684
0.0169889894824
-0.000637127186661
-0.000617094549517
-0.000561050538244
-0.000397089853033
5.53471264512e-05
0.00147104231238
0.00738971859698
0.0274193367097
0.0541741725917
0.0225287258358
-0.00063475206919
-0.000612377809846
-0.000550492815883
-0.000372374434454
0.00011422054261
0.00167663011833
0.00875411820896
0.0346791283883
0.0689718470483
0.029200097814
-0.000633704578695
-0.000609327518442
-0.000542257232072
-0.000350153865999
0.000177569849146
0.00191769138342
0.0100913124955
0.0411196272329
0.0812760105002
0.026860621194
-0.000633666228267
-0.000608377068421
-0.000537836425401
-0.000333758694885
0.000235401322186
0.00211060676145
0.0107652925024
0.0434778804117
0.0845784603129
0.0204791246723
-0.000640053031264
-0.000630762830516
-0.000606389671117
-0.000535447318649
-0.000323750998489
0.000282490690374
0.00227890257799
0.0111625445605
0.0433026211456
0.078912208061
0.0102500171373
-0.000616245289636
-0.000609027871099
-0.000587983521345
-0.000522706170611
-0.000316111466934
0.000314105565894
0.00248614621522
0.011711739162
0.0413906470265
0.073733210734
0.0460880209277
-0.000468741637952
-0.000459977347104
-0.000440343354
-0.000386305515404
-0.000208937646097
0.000423111683194
0.00289590051004
0.0128754225549
0.0402507435106
0.0775788001058
0.0349922895111
)
;
    }
    sides
    {
        type            calculated;
        value           nonuniform List<scalar> 
11
(
-0.000468741637952
-0.000459977347104
-0.000440343354
-0.000386305515404
-0.000208937646097
0.000423111683194
0.00289590051004
0.0128754225549
0.0402507435106
0.0775788001058
0.0349922895111
)
;
    }
    bottom
    {
        type            calculated;
        value           nonuniform List<scalar> 0();
    }
    front
    {
        type            calculated;
        value           nonuniform List<scalar> 
167
(
-0.000674171292912
-0.000678381252244
-0.000688462682466
-0.000722740653254
-0.000795929378063
-0.000475286491349
-0.00132558063108
-0.0127943914147
-0.0103232641968
-0.000669235861448
-0.000664905773543
-0.00065515117239
-0.000589468152157
9.28011915664e-05
0.000542830962716
-0.00940996585248
-0.00546660873498
-0.000658914313751
-0.000637962695821
-0.000577556818148
-0.000368287143799
0.00071733180641
0.00279668433424
-0.00419119442474
-0.00501220737721
-0.00065899635961
-0.000648091701911
-0.000610890044717
-0.000506042165823
-0.000184103718185
0.00135956559581
0.00552582849656
0.000815011924835
-0.00452642566305
-0.000653400009607
-0.000637103415778
-0.000585914301984
-0.000449205236698
-1.5547976832e-05
0.00221921342118
0.00918303731647
0.00741484263289
-0.00195211552696
-0.000647589233875
-0.00062558002986
-0.000559313462614
-0.000383215116755
0.000181854821654
0.00310941859407
0.0134342309929
0.0190264392211
0.00241656307811
-0.000651389226416
-0.000641516916154
-0.000612961319105
-0.000526842293488
-0.000288344220645
0.000464068945119
0.00389313091392
0.0163498553761
0.0300482558642
0.00648297321267
-0.000652746224907
-0.000647639478187
-0.000635313639037
-0.000599872163211
-0.000491684449267
-0.000181738075439
0.000798790756589
0.00482505036578
0.0177038580185
0.0300781073617
0.00785188523235
-0.000650112238275
-0.000643924827363
-0.000629046108061
-0.000586435700438
-0.000456593778122
-8.32118604349e-05
0.00109165594166
0.00570578232485
0.0191672634095
0.0293652453815
0.0110435048968
-0.000640301282141
-0.000622808323195
-0.000573155111977
-0.000424163861387
-2.4383576517e-06
0.00131007350443
0.00640986186055
0.0219508933913
0.0400680406684
0.0169889894824
-0.000637127186661
-0.000617094549517
-0.000561050538244
-0.000397089853033
5.53471264512e-05
0.00147104231238
0.00738971859698
0.0274193367097
0.0541741725917
0.0225287258358
-0.00063475206919
-0.000612377809846
-0.000550492815883
-0.000372374434454
0.00011422054261
0.00167663011833
0.00875411820896
0.0346791283883
0.0689718470483
0.029200097814
-0.000633704578695
-0.000609327518442
-0.000542257232072
-0.000350153865999
0.000177569849146
0.00191769138342
0.0100913124955
0.0411196272329
0.0812760105002
0.026860621194
-0.000633666228267
-0.000608377068421
-0.000537836425401
-0.000333758694885
0.000235401322186
0.00211060676145
0.0107652925024
0.0434778804117
0.0845784603129
0.0204791246723
-0.000640053031264
-0.000630762830516
-0.000606389671117
-0.000535447318649
-0.000323750998489
0.000282490690374
0.00227890257799
0.0111625445605
0.0433026211456
0.078912208061
0.0102500171373
-0.000616245289636
-0.000609027871099
-0.000587983521345
-0.000522706170611
-0.000316111466934
0.000314105565894
0.00248614621522
0.011711739162
0.0413906470265
0.073733210734
0.0460880209277
-0.000468741637952
-0.000459977347104
-0.000440343354
-0.000386305515404
-0.000208937646097
0.000423111683194
0.00289590051004
0.0128754225549
0.0402507435106
0.0775788001058
0.0349922895111
)
;
    }
    atmosphere
    {
        type            calculated;
        value           nonuniform List<scalar> 
17
(
-2.90173980316e-06
1.19049211677e-05
1.28768133637e-05
1.53317759688e-05
-2.80206264231e-05
-0.000107375685069
0.00056010155913
0.000585284352182
-0.0069649687031
-0.00682936015088
-0.00428485273718
-0.0174766196888
0.0129825470971
-1.73139695202e-05
-0.000596264499121
0.383565678761
-0.161505648956
)
;
    }
    floatingObject
    {
        type            calculated;
        value           nonuniform List<scalar> 0();
    }
    procBoundary11to9
    {
        type            processor;
        value           nonuniform List<scalar> 9(-0.000678510298275 -0.000686392549694 -0.00070808483392 -0.000767416054988 -0.000892062901535 -0.000752105208311 -0.002642756935 -0.0206676809101 0.0714955245047);
    }
    procBoundary11to10
    {
        type            processor;
        value           nonuniform List<scalar> 
23
(
-0.000672205637671
-0.000669466888123
-0.000669466888123
-0.000664388442504
-0.000664388442504
-0.000662299508539
-0.000658765078772
-0.000655116048686
-0.000655116048686
-0.000655475234542
-0.000655475234542
-0.000655229692222
-0.00065312490593
-0.000647621172393
-0.000647621172393
-0.000645542568361
-0.000644147904346
-0.000643670470712
-0.00064376608602
-0.00064376608602
-0.000643575884421
-0.000618306274066
-0.000472995805478
)
;
    }
}


// ************************************************************************* //
