/*--------------------------------*- C++ -*----------------------------------*\
| =========                 |                                                 |
| \\      /  F ield         | OpenFOAM: The Open Source CFD Toolbox           |
|  \\    /   O peration     | Version:  v2012                                 |
|   \\  /    A nd           | Website:  www.openfoam.com                      |
|    \\/     M anipulation  |                                                 |
\*---------------------------------------------------------------------------*/
FoamFile
{
    version     2.0;
    format      ascii;
    class       surfaceVectorField;
    location    "5";
    object      ddtCorrDdt0(Uf);
}
// * * * * * * * * * * * * * * * * * * * * * * * * * * * * * * * * * * * * * //

dimensions      [0 1 -2 0 0 0 0];


internalField   nonuniform List<vector> 
304
(
(-0.126911850791 -0.00460210784789 -1.46236214186e-22)
(-0.127368778168 -0.00157197519763 -3.89035870134e-22)
(-0.129192155201 -0.00384347481146 -2.69931421358e-22)
(-0.126807543046 0.00330555439443 -1.78317883514e-21)
(-0.129879991804 0.000527066235092 -5.03839014524e-22)
(-0.1249330817 0.00954975320283 -4.86923494181e-22)
(-0.129753481301 0.00608723528416 -1.65812538765e-21)
(-0.119576554406 0.0152653329457 -1.1686012834e-21)
(-0.126483358428 0.013240497766 2.97560619769e-21)
(-0.119896629793 0.0197360987178 -5.39588942005e-21)
(-0.118190582615 0.0333860062303 -8.01979800935e-21)
(-0.0326672060098 0.045744716612 -2.15392725395e-20)
(-0.137703651503 0.0331760977894 -2.17988615399e-21)
(0.0667089464726 0.112929521175 1.82848579661e-20)
(0.0341996990055 0.0797814165539 -1.97382756257e-20)
(-0.0676067919297 0.12854018945 5.96623695714e-20)
(-0.132204077907 -0.00228244822557 -3.84734565748e-22)
(-0.133499627149 -0.00591257103967 -2.35875059172e-22)
(-0.133359657675 0.00370367099882 -3.78785567041e-22)
(-0.135993084047 -0.000466224997858 -4.69499498436e-22)
(-0.132219852009 0.0112938550506 1.80440430422e-21)
(-0.137468229713 0.0070704087224 2.02321981641e-22)
(-0.126552636091 0.0194560506663 -3.87559052826e-21)
(-0.13473002396 0.0172995066933 3.87289513924e-21)
(-0.13393389119 0.0279926218362 -4.8037947433e-21)
(-0.126755950863 0.0378213233266 -1.5186671297e-21)
(-0.058305484156 0.0440674559491 -3.78889240158e-22)
(-0.153782359054 0.0360313592274 7.28541935524e-21)
(-0.0285855359177 0.0587907628701 2.16392359795e-20)
(0.0194137845208 0.0899464378506 1.24126184505e-20)
(-0.0978643576716 0.117836963934 4.5507942999e-20)
(-0.137865355435 -0.00480858269624 -3.2063999186e-22)
(-0.138470721021 -0.00978715442726 -2.01548704585e-22)
(-0.141144856108 0.00234403991268 1.11608050247e-22)
(-0.143211635281 -0.00356330463926 -3.64875318043e-22)
(-0.142201350156 0.0123264386574 2.27081281667e-21)
(-0.147513097701 0.00571473706011 9.70416106344e-22)
(-0.13994005451 0.0266084410686 6.22981853781e-21)
(-0.149055988976 0.0185639269133 7.20904129475e-22)
(-0.152854572103 0.0489870421276 1.05705469688e-20)
(-0.149149665378 0.0414584465454 5.63929427228e-21)
(-0.0895907595699 0.0745478919896 2.00769270459e-20)
(-0.179346340178 0.0384569998212 1.42791077841e-20)
(-0.0507266228804 0.135839509327 3.628132547e-20)
(-0.0418431671804 0.102097302972 2.23126714192e-20)
(-0.101442302416 0.159060518258 3.78257424701e-20)
(-0.138147046024 -0.014746031588 -8.97883258385e-23)
(-0.136637170034 -0.0198283519287 -2.01654684083e-23)
(-0.144200490758 -0.00951606543924 -2.45784030767e-22)
(-0.143730438887 -0.0158329930676 -3.35584258543e-22)
(-0.150275290206 -0.00163112889336 4.93932738055e-22)
(-0.151132125238 -0.00949773597684 -6.02991158689e-22)
(-0.155727491399 0.00997682599624 -5.79492580847e-22)
(-0.159156502741 0.000328430722834 -1.55639028305e-21)
(-0.160712094677 0.0281669651735 1.30379863948e-22)
(-0.16727033279 0.0134220774106 -6.98267471596e-21)
(-0.180093132773 0.0558407629996 9.34785508756e-21)
(-0.176833237375 0.0355963885068 2.55615912461e-21)
(-0.139284899868 0.089146352899 1.65148521574e-20)
(-0.212654163419 0.0305195651466 1.0551926396e-20)
(-0.0954160740539 0.164103082888 2.38570884193e-20)
(-0.116732153751 0.0853185563314 -1.10687474148e-20)
(-0.117772204832 0.157429524439 2.60559461163e-21)
(-0.142209993984 -0.0217873527966 -2.65961401113e-22)
(-0.139457748079 -0.0276437138013 -1.92695323751e-22)
(-0.150674450406 -0.0168958234862 -6.92791386465e-22)
(-0.148647059868 -0.0243009384919 -6.17710590969e-22)
(-0.159945155015 -0.00918107710751 -2.65331417979e-21)
(-0.158876068184 -0.0186730037 -1.69723892436e-21)
(-0.170040121142 0.00211698655935 -7.95957241816e-21)
(-0.170480418949 -0.00964660461433 -4.23946743357e-21)
(-0.181252864485 0.017655229815 -4.55689545529e-21)
(-0.182828531764 0.000704483692451 -4.39880000028e-21)
(-0.206787669653 0.0370371843146 3.76023043307e-21)
(-0.196223855335 0.016885788566 1.4776298006e-21)
(-0.191810214178 0.0597950439212 -1.70316731762e-20)
(-0.235414042581 0.00701936460573 -4.98123634775e-21)
(-0.144525081417 0.122786871151 -3.23202412225e-20)
(-0.17974907644 0.0398489926235 -7.31139627045e-20)
(-0.132675790429 0.115958797176 -4.95209455958e-20)
(-0.145606130943 -0.0310576329055 -5.44444513607e-22)
(-0.141291565832 -0.0373420718661 -2.8996461404e-22)
(-0.156500410028 -0.0271615264791 -1.62215812887e-21)
(-0.152576804723 -0.0351918937951 -8.42637355394e-22)
(-0.168842861366 -0.0206738412281 -3.28339217814e-21)
(-0.165396186539 -0.0308580287316 -2.44221387437e-21)
(-0.181982512381 -0.0112233915102 -6.78695015686e-22)
(-0.179961464575 -0.0230860834768 -2.09309488828e-21)
(-0.194387144197 -0.000491045838277 1.63572525562e-21)
(-0.193583624478 -0.0162110923461 -2.46724179811e-21)
(-0.218861412422 0.00555608271299 -7.26383698022e-21)
(-0.202282253487 -0.00307841243812 -4.26046965923e-21)
(-0.224048517762 0.0082202468269 -6.10635258761e-20)
(-0.238080670232 -0.0164114831531 -1.15805724614e-20)
(-0.168061914046 0.0581365849347 -9.03146670779e-20)
(-0.229740243338 0.000996439343219 -9.56112923595e-20)
(-0.159736962672 0.099113782091 -4.05814875126e-20)
(-0.136301025356 -0.0428566530859 -2.36463878166e-22)
(-0.130309065452 -0.0476404725098 -1.48909155825e-22)
(-0.147812334536 -0.0424188072823 -5.88157455828e-22)
(-0.1417746653 -0.0488614407633 -1.82759099223e-22)
(-0.1610332453 -0.0399437860127 -1.66269310089e-21)
(-0.155097689554 -0.0483753619254 -7.37939794625e-22)
(-0.176195000411 -0.0350012742779 -1.25191658451e-21)
(-0.170384532973 -0.0457489345398 -1.95605010233e-21)
(-0.191534803534 -0.027071941789 -3.88164167071e-21)
(-0.187932093567 -0.0391785281329 -1.19581245506e-21)
(-0.202281008859 -0.017146197735 -8.36343671295e-21)
(-0.203541025742 -0.0345617768446 -1.32384931236e-20)
(-0.222573830184 -0.0101506066936 -8.57720514043e-21)
(-0.209294703864 -0.016183099874 -2.60885822253e-21)
(-0.248011084591 -0.00898460470414 -4.61283389448e-20)
(-0.239250883202 -0.0292866815733 -7.01818161182e-21)
(-0.220836354745 0.0394206626841 -4.58781127942e-20)
(-0.278173262321 -0.00260203620287 -8.83742805638e-21)
(-0.193904981597 0.109565453083 1.60684734192e-20)
(-0.123895394845 -0.0515775937439 -6.79681601511e-23)
(-0.11680743537 -0.0545873669599 -1.81576465762e-23)
(-0.135132631057 -0.0543720638923 -9.52043768811e-23)
(-0.127574191813 -0.058871872189 -8.87813247313e-23)
(-0.148368650555 -0.0557912296338 -3.3254143802e-22)
(-0.140415991375 -0.0620998710483 -1.23854136514e-22)
(-0.163833834015 -0.0553026087262 -1.03129679606e-21)
(-0.15564989999 -0.063803211032 -5.33262184437e-22)
(-0.181817064683 -0.0522013527758 -1.89994597287e-21)
(-0.173549531582 -0.063481815014 -1.42980033164e-21)
(-0.200563378236 -0.0457498328568 -1.0552663908e-20)
(-0.194441048996 -0.0584763276545 -4.62688270826e-21)
(-0.21337354955 -0.0338718120917 -7.48391463319e-21)
(-0.215464669224 -0.056002622337 -1.66573916198e-20)
(-0.231933015578 -0.017122645202 -1.04983469392e-21)
(-0.226067769024 -0.0288521652128 4.29854669972e-23)
(-0.276654113944 0.00207302205062 3.02727292766e-20)
(-0.258453088173 -0.0393345907581 -5.53514652865e-21)
(-0.259002125577 0.0698122940411 5.3109158157e-20)
(-0.345902282906 0.0115712546399 4.84005279994e-20)
(-0.206893045734 0.103722002981 4.84873061666e-20)
(-0.11971448169 -0.0623460622689 -3.89708111564e-23)
(-0.131974567633 -0.0672591108751 -1.17431084364e-22)
(-0.122754546987 -0.0711086417539 -5.72614274667e-23)
(-0.146726107934 -0.0710778731676 -3.24574882931e-22)
(-0.1366810885 -0.0768466668278 -1.79955261622e-22)
(-0.164406253871 -0.0732071177983 -9.31765720019e-22)
(-0.153607093737 -0.0814683974586 -5.24835062355e-22)
(-0.185462759381 -0.0727001577149 -4.15673706703e-21)
(-0.174141937251 -0.0843551994426 -6.78013958576e-22)
(-0.209598839724 -0.0682161754953 -1.07316104201e-20)
(-0.199004296359 -0.0824534211684 -7.11396322611e-21)
(-0.230097486283 -0.0547819498192 -9.13049151958e-21)
(-0.228960552805 -0.0838122893878 -5.79447200763e-21)
(-0.256659770981 -0.0309718228145 -4.44232636774e-21)
(-0.249910517019 -0.0541120652325 4.72622904218e-22)
(-0.325201995587 0.00530752536544 1.25926521941e-20)
(-0.294741525907 -0.0605443967707 2.82579424995e-21)
(-0.289318876644 0.0723848731636 4.3778676009e-20)
(-0.412958120073 -0.0132883318165 3.87221255861e-21)
(-0.230987477805 0.0229238127184 2.4928641178e-20)
(-0.126343592975 -0.0812044266822 -1.19785604724e-22)
(-0.115487562412 -0.0839736520102 -5.59353677081e-23)
(-0.142215584766 -0.0880188328178 -3.80215441045e-22)
(-0.129976474333 -0.0927048006493 -1.91630728682e-22)
(-0.161784561763 -0.093720837466 -2.71083300912e-22)
(-0.148016737798 -0.101048845968 -5.69070844395e-22)
(-0.186055812414 -0.0972831105299 -3.63524011765e-21)
(-0.170691471811 -0.108474856579 -1.62443668972e-22)
(-0.216706764227 -0.0966456007854 -2.17682481368e-21)
(-0.199744318759 -0.112198159297 -4.88788066884e-21)
(-0.247285556222 -0.087869978067 3.80864241617e-21)
(-0.237816262586 -0.121104509115 -5.33076387407e-23)
(-0.284304811944 -0.0690685092673 7.74074352191e-21)
(-0.268754419255 -0.100419072547 3.36722340109e-21)
(-0.365714679316 -0.0483972074256 -5.89464538559e-21)
(-0.315424527695 -0.109009793494 -5.30237716171e-22)
(-0.347541744876 -0.0482175158007 -1.49778222724e-20)
(-0.413148105785 -0.095986668303 -6.5930599631e-20)
(-0.256947814305 -0.0987868271991 -4.83851324682e-20)
(-0.117767997482 -0.095709195966 -1.27780491666e-22)
(-0.105426835828 -0.0969041650427 -3.53942510003e-23)
(-0.134021722191 -0.106137203903 -3.80486132032e-22)
(-0.119685174163 -0.108939081669 -2.21665452417e-22)
(-0.15462740709 -0.116488575155 -4.60431212456e-22)
(-0.137806310673 -0.121706863952 -7.15554595434e-22)
(-0.18137840436 -0.126255145666 -1.41508422016e-21)
(-0.161063920301 -0.135037814368 -6.46244872032e-22)
(-0.216974784532 -0.133418359032 -2.76436349391e-21)
(-0.192708842323 -0.146641710317 -1.95981063853e-21)
(-0.254871920517 -0.136688287624 -4.94726653821e-22)
(-0.234644846963 -0.16918994057 -4.2615912507e-21)
(-0.295741576588 -0.137748359463 -4.90375783699e-21)
(-0.267747209056 -0.164502696239 1.83084585793e-20)
(-0.360972490466 -0.137955589827 -6.05661919616e-20)
(-0.315231352343 -0.185020905246 -3.32474081635e-20)
(-0.330806814725 -0.158758474213 -9.93379098268e-20)
(-0.392378899708 -0.210046755748 -1.21768315674e-19)
(-0.27827483926 -0.155283573644 -7.7200258691e-20)
(-0.105890005621 -0.109994307225 -1.29279211752e-22)
(-0.0924695630239 -0.109140577398 4.40938241418e-24)
(-0.121437998295 -0.124351475345 -5.56733915819e-22)
(-0.105493038748 -0.124466091598 -4.00276187721e-22)
(-0.141475278407 -0.140190383841 -9.01368255011e-22)
(-0.12213662715 -0.141801038773 -1.00462621519e-21)
(-0.168254350604 -0.157653790504 -1.1909712904e-21)
(-0.143768109283 -0.16149593248 -9.30735416841e-22)
(-0.20465619225 -0.176688543043 -3.45703839532e-21)
(-0.173825329117 -0.182216041348 -1.9836428941e-21)
(-0.242935605003 -0.1974076016 1.45415939824e-20)
(-0.214042544946 -0.223263917246 -6.74228918341e-21)
(-0.287623937872 -0.222258390966 -1.00351917473e-20)
(-0.242958073214 -0.236486745304 4.71846483448e-20)
(-0.363436621308 -0.239101524869 -9.44495318758e-20)
(-0.298404508495 -0.263121513372 -6.15063437928e-20)
(-0.334224856162 -0.191400969269 -9.9630664538e-20)
(-0.440011161955 -0.365341061853 -1.74695811522e-19)
(-0.300650085353 -0.206989418363 -7.47766237316e-20)
(-0.0907521991932 -0.123078444952 -2.66587593556e-22)
(-0.0768601905946 -0.119862376799 2.33627219159e-23)
(-0.104328722394 -0.141058674353 -8.48168487094e-22)
(-0.0877096993976 -0.137995696077 -4.39446079874e-22)
(-0.121690008767 -0.162065092651 -1.03399337702e-21)
(-0.101328996366 -0.159180900834 -1.0094328878e-21)
(-0.144977016511 -0.187323098166 -1.72340702054e-21)
(-0.118702329695 -0.184301114001 -1.51120320363e-21)
(-0.176595042485 -0.218845741143 -5.2688936822e-21)
(-0.142476506513 -0.21322597812 -6.05138967894e-21)
(-0.20713121374 -0.259477324534 2.5900765179e-20)
(-0.173541314485 -0.271743651426 -1.18116626423e-20)
(-0.244376172007 -0.310685480985 -4.28650370067e-21)
(-0.191819758712 -0.302453329979 2.80088757069e-20)
(-0.382837590192 -0.368055215658 -1.41752623439e-19)
(-0.241053986284 -0.330658724138 -5.17517844327e-20)
(-0.407071064452 -0.326341285116 -1.49841770715e-19)
(-0.481726185998 -0.517288682393 -1.96843788062e-19)
(-0.276352055069 -0.366300600162 -9.45708024953e-20)
(-0.0727942285342 -0.133927599636 -1.49495764403e-22)
(-0.0591131227477 -0.128407377996 4.06999178396e-23)
(-0.0833527071241 -0.154733031972 -6.00710480576e-22)
(-0.067125087616 -0.148485427482 -4.24295961441e-22)
(-0.0963660813053 -0.179515644995 -1.4866427144e-21)
(-0.0767671199808 -0.172143838111 -8.98105774272e-22)
(-0.113037250868 -0.210348930622 -5.83918586203e-21)
(-0.0880836211488 -0.200330832329 -1.22969691226e-21)
(-0.134134424555 -0.250751372287 -1.2594158639e-20)
(-0.102262772302 -0.233814653364 -9.66026549774e-21)
(-0.148399021112 -0.306742235724 -9.70355211438e-21)
(-0.117693102651 -0.302630563893 -1.24184076911e-20)
(-0.171766743274 -0.385017799836 -1.94564050252e-20)
(-0.113621114578 -0.343882939019 -7.48800864929e-21)
(-0.312371616059 -0.486215801525 -1.06842949057e-19)
(-0.139876728419 -0.386414712419 -5.95644927591e-20)
(-0.331104605609 -0.537797325005 -1.41572819842e-19)
(-0.4302380557 -0.596655744016 -1.84476538936e-19)
(-0.23153281534 -0.587640563227 -4.22379434472e-20)
(-0.0467686211811 -0.122550843493 1.1198907923e-22)
(-0.0355686521524 -0.11581793836 5.60289394212e-23)
(-0.0528396862815 -0.141942995671 -2.34100279199e-22)
(-0.0399571727509 -0.134480042436 3.9760602812e-23)
(-0.0599605748315 -0.164287058756 -7.21691255137e-22)
(-0.0450184735986 -0.155590792543 -3.10401464976e-22)
(-0.0679420849813 -0.190757063248 -6.41159972136e-22)
(-0.0505358110618 -0.180071392197 -7.15774592865e-22)
(-0.0765861505044 -0.223305591409 -5.05077654798e-21)
(-0.0557616665533 -0.208223952432 -3.16155529565e-22)
(-0.0840275393313 -0.266082633293 -9.48451454985e-21)
(-0.0596839769904 -0.240514998581 -3.92474715426e-21)
(-0.0746602175022 -0.32621730648 -1.0202864226e-20)
(-0.0577057997884 -0.303886743424 -5.1649486724e-21)
(-0.0642344813307 -0.418691425578 -4.75960963832e-20)
(-0.0212258072648 -0.338259239501 3.07833472347e-21)
(-0.195936115828 -0.55498270354 -1.37198082639e-19)
(-0.00360286027562 -0.388379535883 3.32330393323e-21)
(-0.198834716497 -0.671308880129 -8.51416625412e-20)
(-0.313921544827 -0.580423554089 1.11670116959e-19)
(-0.0203184484158 -0.859283919893 2.51219122002e-19)
(-0.02828459765 -0.127012673313 -1.61995369964e-23)
(-0.0179438907671 -0.11854706614 -1.06397440133e-22)
(-0.0317050603478 -0.147146136555 -3.65405829651e-23)
(-0.0200769607125 -0.137643343164 -1.84124129151e-23)
(-0.0353855168886 -0.169977812096 -3.04484802704e-22)
(-0.022438653119 -0.159019868607 -1.64707327627e-22)
(-0.038876170395 -0.195990868071 -3.90770150295e-22)
(-0.0247681798929 -0.183068671993 -1.4606942972e-21)
(-0.0413845296742 -0.225875319967 8.09873864158e-22)
(-0.0261074311987 -0.209392537429 5.16115237588e-22)
(-0.0401470441699 -0.260703367868 3.9481872319e-22)
(-0.0250509741029 -0.236158538286 1.27722943783e-21)
(-0.0179068128792 -0.302839506217 8.11625027708e-21)
(-0.0157110980664 -0.278929969488 1.24400358153e-20)
(0.0329806223742 -0.362365869561 5.39977350399e-20)
(0.0382273285377 -0.278770847122 1.12790082603e-19)
(-0.0388969877939 -0.492725639067 2.52191503532e-19)
(0.12674204637 -0.283217115055 5.60439850271e-19)
(-0.224843298452 -0.668981329238 4.48030901502e-19)
(-0.137922389423 -0.360139253945 -5.84530557007e-19)
(1.68713428304 -0.512835073917 -1.58814300019e-19)
(-0.0101927763983 -0.128435978128 -1.08610316051e-22)
(-0.0114646543408 -0.14864174689 -1.46579157577e-22)
(-0.0128791915667 -0.171206320448 -1.32091682212e-21)
(-0.0140631867533 -0.196095490872 -5.53808909317e-22)
(-0.0143795954222 -0.222309948473 9.83470811258e-22)
(-0.0111730710555 -0.247446242855 1.33224465299e-20)
(0.00861374107837 -0.263212676685 1.17113868142e-19)
(0.0573369542152 -0.225004810821 6.19232197835e-19)
(-0.0955218467089 -0.0982681144188 -2.76282210267e-19)
(1.64837477056 -0.235922502781 -1.19137575853e-18)
)
;

boundaryField
{
    back
    {
        type            calculated;
        value           uniform (0 0 0);
    }
    sides
    {
        type            calculated;
        value           uniform (0 0 0);
    }
    bottom
    {
        type            calculated;
        value           nonuniform List<vector> 0();
    }
    front
    {
        type            calculated;
        value           uniform (0 0 0);
    }
    atmosphere
    {
        type            calculated;
        value           nonuniform List<vector> 
17
(
(1.00064394118e-05 0.280169300849 -1.68487683043e-26)
(-3.16333122023e-05 0.0890842428979 6.77814113872e-24)
(-2.46420228024e-05 0.139382062096 1.33415846876e-23)
(-7.35297483852e-05 0.180366923315 8.4164864696e-24)
(0.000555017311968 0.137707495486 5.19729416603e-23)
(0.000851659590627 0.0852587644772 2.59203118091e-22)
(-0.00120210123514 0.0736033930665 2.60176906612e-22)
(-0.00200432391108 0.0827728458952 1.03056139497e-21)
(0.0112954839176 0.0964351659643 -6.54082094056e-21)
(0.00620736998138 -0.0222751347231 -1.45767831945e-21)
(0.00139776405312 -0.137437695348 3.88509521318e-22)
(0.0243527108694 -0.169124372971 -1.56222876574e-20)
(-0.0424765439706 -0.350678390274 4.34712858774e-20)
(0.000255592123782 -0.582565316742 -7.14631754436e-24)
(0.0395316072558 -0.882552417782 -1.01468093298e-21)
(-0.0520530456668 -2.37622736428 1.31039081733e-18)
(1.27554393297 1.45092382221 4.44667558743e-18)
)
;
    }
    floatingObject
    {
        type            calculated;
        value           nonuniform List<vector> 0();
    }
    procBoundary11to9
    {
        type            processor;
        value           nonuniform List<vector> 9((-0.125132273221 -0.00510331353388 -5.78502891435e-25) (-0.125710185522 -0.00334436404663 -2.04007067367e-22) (-0.124513620556 -0.000200113128223 -7.96094035882e-22) (-0.12300045601 0.0039401575688 -2.52419053293e-21) (-0.120404291022 0.00865100050867 1.15380483445e-21) (-0.113547466383 0.0263736322096 -5.37325784287e-21) (-0.111669612607 0.0271261256477 -3.05935539594e-21) (0.101281007481 0.0773511004672 -2.4191440288e-20) (0.0996599338514 0.395314649086 2.87099464007e-20));
    }
    procBoundary11to10
    {
        type            processor;
        value           nonuniform List<vector> 
23
(
(-0.125284651987 -0.00661078067232 -4.92902486718e-23)
(-0.127408378171 -0.00678937556426 -3.62755876733e-23)
(-0.130153552227 -0.00646284835304 -1.59970794845e-22)
(-0.133988480445 -0.00974278346473 -1.10727526886e-22)
(-0.133452052894 -0.0138836505609 1.03285185974e-24)
(-0.13219446815 -0.0179406359264 2.56899602681e-23)
(-0.134392357968 -0.0245656343789 -5.66186380213e-23)
(-0.135912321115 -0.032866420271 -1.79357497172e-22)
(-0.13138360931 -0.0376654583632 -1.25856761298e-22)
(-0.126321187615 -0.041745929277 -8.68101864646e-23)
(-0.12049677214 -0.0451399066767 -5.86919079118e-24)
(-0.114422554977 -0.0477770434816 -1.26942947995e-23)
(-0.109566516303 -0.0567467785972 -7.88241939675e-24)
(-0.111304559837 -0.0647079207405 -1.2933078686e-23)
(-0.11344530482 -0.0737803427859 -3.12236949963e-23)
(-0.104803877635 -0.0854507137035 -5.50118601336e-23)
(-0.0936238734846 -0.0968007223581 -2.01597297871e-23)
(-0.0799806173743 -0.107141805628 3.13019603554e-24)
(-0.0641953893419 -0.115860403916 -3.92796275782e-23)
(-0.0524112442058 -0.110761566485 3.20095338118e-23)
(-0.0417007134003 -0.105271245138 -2.74118858014e-23)
(-0.0253012584189 -0.109004030502 9.9819386845e-24)
(-0.00910622179735 -0.110247380428 -1.64721461367e-22)
)
;
    }
}


// ************************************************************************* //
