/*--------------------------------*- C++ -*----------------------------------*\
| =========                 |                                                 |
| \\      /  F ield         | OpenFOAM: The Open Source CFD Toolbox           |
|  \\    /   O peration     | Version:  v2012                                 |
|   \\  /    A nd           | Website:  www.openfoam.com                      |
|    \\/     M anipulation  |                                                 |
\*---------------------------------------------------------------------------*/
FoamFile
{
    version     2.0;
    format      ascii;
    class       volScalarField;
    location    "5";
    object      p;
}
// * * * * * * * * * * * * * * * * * * * * * * * * * * * * * * * * * * * * * //

dimensions      [1 -1 -2 0 0 0 0];


internalField   nonuniform List<scalar> 
167
(
3054.90726695
2565.4880053
2075.92451219
1586.14512953
1096.23028019
605.79842145
185.197753727
0.90899682705
-9.57013253547
2570.74715386
2081.17082052
1591.3387901
1101.25734785
610.572998648
188.247242705
1.693986968
-9.56478680862
2576.17649325
2086.65881278
1596.83287647
1106.61426982
615.588045981
191.69613591
2.5870031076
-9.56341253746
3070.9350794
2581.80923427
2092.43721289
1602.71842963
1112.50385532
621.40904016
195.735628559
3.6176325198
-9.56709624512
3076.54052479
2587.66260945
2098.54223477
1609.06881803
1119.08150284
628.319544011
200.622769527
4.81385124926
-9.57783521796
3082.26958369
2593.73049078
2104.9757055
1615.88938148
1126.30334152
636.099145285
206.262476272
6.27312764649
-9.58546505101
3576.12780658
3088.08815339
2599.97878838
2111.70127466
1623.13406287
1134.07396672
644.429255019
212.27006512
7.8986411653
-9.58453123366
4069.19269171
3581.53216675
3093.93957258
2606.34906416
2118.66479005
1630.76324629
1142.39969467
653.516708257
218.7947597
9.57688583231
-9.58025388334
4074.06605212
3586.83063273
3099.74488068
2612.75676903
2125.7828686
1638.71146595
1151.27567704
663.52489883
226.265844062
11.5360969565
-9.57453690968
3591.93397338
3105.40112378
2619.08486103
2132.93261864
1646.85933572
1160.6092627
674.386010031
234.748711559
13.8668655832
-9.58556989591
3596.73566425
3110.77807246
2625.17940707
2139.93267131
1655.00094168
1170.15691607
685.850975737
243.865821541
16.3088824988
-9.61403008161
3601.11755422
3115.72394415
2630.8412705
2146.52177572
1662.80249827
1179.48768694
697.428461097
253.325224774
18.7871134759
-9.63817198484
3604.9562747
3120.07260972
2635.84017923
2152.37520955
1669.79545532
1187.96025075
708.321422241
263.192847276
21.6473731519
-9.66327209476
3608.13533199
3123.66904325
2639.95884806
2157.16570585
1675.46548955
1194.81443956
717.35968483
272.438047725
25.1999920571
-9.68734551314
4095.43557997
3610.56466709
3126.39840784
2643.03802925
2160.64769027
1679.39810151
1199.29406247
722.898473892
278.645183362
28.8058415348
-9.67337168692
4096.89488001
3612.18699788
3128.20194437
2645.022842
2162.75948432
1681.45497132
1200.94380369
722.985922424
278.743250422
30.5692790774
-9.60688217228
4097.59551499
3612.9607383
3129.0498547
2645.9273523
2163.63529593
1682.08627148
1200.90333862
720.000858124
275.996709625
31.858629641
-9.5807155937
)
;

boundaryField
{
    back
    {
        type            calculated;
        value           nonuniform List<scalar> 
167
(
3054.90726695
2565.4880053
2075.92451219
1586.14512953
1096.23028019
605.79842145
185.197753727
0.90899682705
-9.57013253547
2570.74715386
2081.17082052
1591.3387901
1101.25734785
610.572998648
188.247242705
1.693986968
-9.56478680862
2576.17649325
2086.65881278
1596.83287647
1106.61426982
615.588045981
191.69613591
2.5870031076
-9.56341253746
3070.9350794
2581.80923427
2092.43721289
1602.71842963
1112.50385532
621.40904016
195.735628559
3.6176325198
-9.56709624512
3076.54052479
2587.66260945
2098.54223477
1609.06881803
1119.08150284
628.319544011
200.622769527
4.81385124926
-9.57783521796
3082.26958369
2593.73049078
2104.9757055
1615.88938148
1126.30334152
636.099145285
206.262476272
6.27312764649
-9.58546505101
3576.12780658
3088.08815339
2599.97878838
2111.70127466
1623.13406287
1134.07396672
644.429255019
212.27006512
7.8986411653
-9.58453123366
4069.19269171
3581.53216675
3093.93957258
2606.34906416
2118.66479005
1630.76324629
1142.39969467
653.516708257
218.7947597
9.57688583231
-9.58025388334
4074.06605212
3586.83063273
3099.74488068
2612.75676903
2125.7828686
1638.71146595
1151.27567704
663.52489883
226.265844062
11.5360969565
-9.57453690968
3591.93397338
3105.40112378
2619.08486103
2132.93261864
1646.85933572
1160.6092627
674.386010031
234.748711559
13.8668655832
-9.58556989591
3596.73566425
3110.77807246
2625.17940707
2139.93267131
1655.00094168
1170.15691607
685.850975737
243.865821541
16.3088824988
-9.61403008161
3601.11755422
3115.72394415
2630.8412705
2146.52177572
1662.80249827
1179.48768694
697.428461097
253.325224774
18.7871134759
-9.63817198484
3604.9562747
3120.07260972
2635.84017923
2152.37520955
1669.79545532
1187.96025075
708.321422241
263.192847276
21.6473731519
-9.66327209476
3608.13533199
3123.66904325
2639.95884806
2157.16570585
1675.46548955
1194.81443956
717.35968483
272.438047725
25.1999920571
-9.68734551314
4095.43557997
3610.56466709
3126.39840784
2643.03802925
2160.64769027
1679.39810151
1199.29406247
722.898473892
278.645183362
28.8058415348
-9.67337168692
4096.89488001
3612.18699788
3128.20194437
2645.022842
2162.75948432
1681.45497132
1200.94380369
722.985922424
278.743250422
30.5692790774
-9.60688217228
4097.59551499
3612.9607383
3129.0498547
2645.9273523
2163.63529593
1682.08627148
1200.90333862
720.000858124
275.996709625
31.858629641
-9.5807155937
)
;
    }
    sides
    {
        type            calculated;
        value           nonuniform List<scalar> 
11
(
4097.59551499
3612.9607383
3129.0498547
2645.9273523
2163.63529593
1682.08627148
1200.90333862
720.000858124
275.996709625
31.858629641
-9.5807155937
)
;
    }
    bottom
    {
        type            calculated;
        value           nonuniform List<scalar> 0();
    }
    front
    {
        type            calculated;
        value           nonuniform List<scalar> 
167
(
3054.90726695
2565.4880053
2075.92451219
1586.14512953
1096.23028019
605.79842145
185.197753727
0.90899682705
-9.57013253547
2570.74715386
2081.17082052
1591.3387901
1101.25734785
610.572998648
188.247242705
1.693986968
-9.56478680862
2576.17649325
2086.65881278
1596.83287647
1106.61426982
615.588045981
191.69613591
2.5870031076
-9.56341253746
3070.9350794
2581.80923427
2092.43721289
1602.71842963
1112.50385532
621.40904016
195.735628559
3.6176325198
-9.56709624512
3076.54052479
2587.66260945
2098.54223477
1609.06881803
1119.08150284
628.319544011
200.622769527
4.81385124926
-9.57783521796
3082.26958369
2593.73049078
2104.9757055
1615.88938148
1126.30334152
636.099145285
206.262476272
6.27312764649
-9.58546505101
3576.12780658
3088.08815339
2599.97878838
2111.70127466
1623.13406287
1134.07396672
644.429255019
212.27006512
7.8986411653
-9.58453123366
4069.19269171
3581.53216675
3093.93957258
2606.34906416
2118.66479005
1630.76324629
1142.39969467
653.516708257
218.7947597
9.57688583231
-9.58025388334
4074.06605212
3586.83063273
3099.74488068
2612.75676903
2125.7828686
1638.71146595
1151.27567704
663.52489883
226.265844062
11.5360969565
-9.57453690968
3591.93397338
3105.40112378
2619.08486103
2132.93261864
1646.85933572
1160.6092627
674.386010031
234.748711559
13.8668655832
-9.58556989591
3596.73566425
3110.77807246
2625.17940707
2139.93267131
1655.00094168
1170.15691607
685.850975737
243.865821541
16.3088824988
-9.61403008161
3601.11755422
3115.72394415
2630.8412705
2146.52177572
1662.80249827
1179.48768694
697.428461097
253.325224774
18.7871134759
-9.63817198484
3604.9562747
3120.07260972
2635.84017923
2152.37520955
1669.79545532
1187.96025075
708.321422241
263.192847276
21.6473731519
-9.66327209476
3608.13533199
3123.66904325
2639.95884806
2157.16570585
1675.46548955
1194.81443956
717.35968483
272.438047725
25.1999920571
-9.68734551314
4095.43557997
3610.56466709
3126.39840784
2643.03802925
2160.64769027
1679.39810151
1199.29406247
722.898473892
278.645183362
28.8058415348
-9.67337168692
4096.89488001
3612.18699788
3128.20194437
2645.022842
2162.75948432
1681.45497132
1200.94380369
722.985922424
278.743250422
30.5692790774
-9.60688217228
4097.59551499
3612.9607383
3129.0498547
2645.9273523
2163.63529593
1682.08627148
1200.90333862
720.000858124
275.996709625
31.858629641
-9.5807155937
)
;
    }
    atmosphere
    {
        type            calculated;
        value           nonuniform List<scalar> 
17
(
-9.81000578752
-9.81000584649
-9.81001492124
-9.810104274
-9.81059558992
-9.81165262819
-9.81198783038
-9.81157636504
-9.81127649206
-9.8123888454
-9.81477236494
-9.81744382234
-9.82018752538
-9.82207096703
-9.82160122167
-9.81875106936
-9.81795330481
)
;
    }
    floatingObject
    {
        type            calculated;
        value           nonuniform List<scalar> 0();
    }
    procBoundary11to9
    {
        type            processor;
        value           nonuniform List<scalar> 9(3049.76221936 2560.34755315 2070.87048736 1581.20767437 1091.50451727 601.551166904 182.832426801 0.320388994024 -9.56410291222);
    }
    procBoundary11to10
    {
        type            processor;
        value           nonuniform List<scalar> 
23
(
3544.2263249
3060.13102793
3060.13102793
3065.46679655
3065.46679655
3559.89980784
3565.26743981
3570.68887893
3570.68887893
4064.17061204
4064.17061204
4556.96907795
4561.48811804
4078.71500209
4078.71500209
4083.05158827
4086.98348696
4090.41411779
4093.25562697
4093.25562697
4580.929011
4582.2489692
4582.88500001
)
;
    }
}


// ************************************************************************* //
