/*--------------------------------*- C++ -*----------------------------------*\
| =========                 |                                                 |
| \\      /  F ield         | OpenFOAM: The Open Source CFD Toolbox           |
|  \\    /   O peration     | Version:  v2012                                 |
|   \\  /    A nd           | Website:  www.openfoam.com                      |
|    \\/     M anipulation  |                                                 |
\*---------------------------------------------------------------------------*/
FoamFile
{
    version     2.0;
    format      ascii;
    class       surfaceVectorField;
    location    "5";
    object      Uf;
}
// * * * * * * * * * * * * * * * * * * * * * * * * * * * * * * * * * * * * * //

dimensions      [0 1 -1 0 0 0 0];


internalField   nonuniform List<vector> 
304
(
(-0.0586017319277 -0.00461728120179 -2.23945015648e-22)
(-0.0614288291836 -0.00434752939803 -8.64862551032e-22)
(-0.0601401913269 -0.00605678169245 -3.49741379519e-22)
(-0.0642128537849 -0.003782587591 -2.92521282312e-21)
(-0.0631019880305 -0.00576969903967 -1.27478678847e-21)
(-0.0667495869889 -0.00286807592484 -4.48957632754e-21)
(-0.0660152623579 -0.00537898456959 -4.17454798321e-21)
(-0.0688275170833 -0.0011350352087 -5.39356920184e-21)
(-0.0686843483915 -0.00331002174765 -3.7925871714e-21)
(-0.0705210422918 0.000312120855739 -8.17685893814e-21)
(-0.0702688154993 -0.00350355481806 -8.24102802911e-21)
(-0.116115994242 0.00161730313125 -1.31435564301e-20)
(-0.071960915147 -0.00195806062506 -1.31372045159e-20)
(-0.140600005595 0.0129691336794 -9.96517026278e-21)
(-0.165446621662 -0.000574750808703 -1.79990019283e-20)
(-0.122774850897 0.00835140151952 -6.22532122327e-21)
(-0.0616980450254 -0.00769614318233 -7.59665616956e-22)
(-0.0601503618204 -0.00936637793963 -3.32129860318e-22)
(-0.0648084080871 -0.00741832007579 -2.52412194856e-21)
(-0.0633808267278 -0.00936183737807 -1.12603516124e-21)
(-0.0679065194176 -0.0067465991675 -3.47755882707e-21)
(-0.0666881712433 -0.00911761315112 -3.57887704733e-21)
(-0.0702811491171 -0.0054369667424 -6.64004599868e-21)
(-0.0699949123185 -0.00754309584531 -2.49119221506e-21)
(-0.071822115268 -0.00397009510715 -1.32013736069e-20)
(-0.0717360522218 -0.00917457693078 -1.0804661413e-20)
(-0.120507610939 -0.00269350932867 -1.79926500142e-20)
(-0.0732375994288 -0.0070012865547 -1.56887504084e-20)
(-0.144820661417 0.00255259802937 -1.42591528888e-20)
(-0.170693051528 -0.00583800423092 -1.69886057602e-20)
(-0.119429883246 0.000699150283263 -9.5254160467e-21)
(-0.0616927232041 -0.0112478002809 -6.98499404603e-22)
(-0.0598653108982 -0.0128655672817 -2.96574753581e-22)
(-0.0651130109799 -0.0112662042452 -2.18079026001e-21)
(-0.0633630817419 -0.0131747464904 -9.58680261034e-22)
(-0.0686338551859 -0.0109906778441 -2.59251043532e-21)
(-0.066964501283 -0.0132111260841 -2.52442852502e-21)
(-0.0713977964416 -0.0102950149198 -6.65580762934e-21)
(-0.0706912098569 -0.0121962801613 -1.00953472395e-21)
(-0.0733679730257 -0.00897197628272 -1.32920382144e-20)
(-0.0730593543499 -0.0147707994218 -9.08534121572e-21)
(-0.123460085739 -0.00662502043499 -1.46847061544e-20)
(-0.0755846159851 -0.0115725686385 -1.29794681469e-20)
(-0.145187994743 -0.00433720628691 -1.22548689181e-20)
(-0.172981144885 -0.0120157060424 -9.49534958966e-21)
(-0.117595262466 -0.00829007487255 -6.39426038267e-21)
(-0.0578560826842 -0.0144030319018 -1.66408110496e-22)
(-0.0557573177945 -0.0156649008171 -8.05979264544e-23)
(-0.0613747050273 -0.015013065164 -5.56755610013e-22)
(-0.0592554928117 -0.0165521704814 -3.09070486289e-22)
(-0.065048714574 -0.0153594955019 -1.30231852604e-21)
(-0.0630171249825 -0.0171904276458 -9.04160293753e-22)
(-0.0688324649346 -0.0154596658547 -9.41452813654e-22)
(-0.0668649019698 -0.017536688339 -1.98077777243e-21)
(-0.07214676201 -0.0152698544999 -3.43906831033e-21)
(-0.0708814983954 -0.0168672520375 -4.17873590449e-21)
(-0.0753537979536 -0.0141956297631 -8.77277114818e-21)
(-0.0741337770003 -0.0195329374182 -6.45655784162e-21)
(-0.125888725881 -0.0118721443149 -7.79011158215e-21)
(-0.077908146196 -0.0154959469997 -7.73806771799e-21)
(-0.145723641181 -0.012812534068 -3.63474105423e-21)
(-0.17204106933 -0.0203637902709 1.15166740707e-21)
(-0.113572225287 -0.0239055936519 1.56803491548e-21)
(-0.0569642752293 -0.0180222949601 -2.23260302247e-22)
(-0.0545727295797 -0.0191668227775 -1.29369990848e-22)
(-0.0607187474562 -0.0189751151159 -6.56475170029e-22)
(-0.0583028414003 -0.0204371271475 -4.99234377139e-22)
(-0.0647019616418 -0.0196693565231 -1.58261954014e-21)
(-0.0623232322585 -0.0214498163551 -1.37067076709e-21)
(-0.068873886269 -0.0198772592819 -5.21806086327e-21)
(-0.0666574472399 -0.0221521366231 -3.97411262979e-21)
(-0.0726626161963 -0.0195099447473 -7.19622543579e-21)
(-0.0712491650607 -0.0215709362677 -7.06274638658e-21)
(-0.0761157239068 -0.019069656121 -5.42185441144e-21)
(-0.0745742152449 -0.0238270298874 -7.15290576313e-21)
(-0.123804667978 -0.0199477340087 1.20371127123e-21)
(-0.0770301022174 -0.0194666459223 -6.46694329621e-21)
(-0.141300588125 -0.0275853855338 6.35444337678e-21)
(-0.164403500618 -0.0302313393525 1.58457161898e-21)
(-0.104117612234 -0.0458166868996 1.59047671307e-21)
(-0.0556932325667 -0.0217948665963 -4.0534406574e-22)
(-0.0530213814555 -0.0228335288375 -2.36047198685e-22)
(-0.059698361147 -0.0231683859236 -1.2134299742e-21)
(-0.0569294367415 -0.0245469311306 -8.17915990276e-22)
(-0.064117923441 -0.0242227665333 -3.76216385674e-21)
(-0.0612691172605 -0.0260638182472 -2.07720520034e-21)
(-0.0689716149793 -0.0246924290696 -5.8187981531e-21)
(-0.066188081775 -0.0273760526413 -5.83644125703e-21)
(-0.0730629011031 -0.0243086403096 -7.01942671392e-21)
(-0.0716331776443 -0.0272590355054 -5.20864473846e-21)
(-0.0745275296793 -0.0243430806565 -8.1979946479e-21)
(-0.0745398501824 -0.0299284001239 -9.81447177074e-21)
(-0.113740503126 -0.0290611062734 -6.08608294846e-21)
(-0.072312090694 -0.0248251510262 -1.57937826848e-20)
(-0.124973760925 -0.0488938234342 -3.17939504473e-21)
(-0.144570599467 -0.0386328991165 -1.86819070764e-20)
(-0.0968448511675 -0.0602225548543 -1.26101168789e-20)
(-0.050207504174 -0.0237087045338 -1.73853030254e-22)
(-0.047396101917 -0.024283639944 -6.15481747053e-23)
(-0.0539527781811 -0.02577708261 -6.48619123221e-22)
(-0.0509529458468 -0.0266279974566 -3.03138697127e-22)
(-0.0581795250456 -0.0277261259225 -1.68169121642e-21)
(-0.0549804222416 -0.0288645961378 -9.4137315887e-22)
(-0.0629819890422 -0.0294048182823 -4.15148260064e-21)
(-0.0595905051789 -0.0309985328181 -2.34418348634e-21)
(-0.0684568915766 -0.030774741151 -5.22628784238e-21)
(-0.0648182276909 -0.0331227089846 -5.20135655571e-21)
(-0.0727976777239 -0.0315420672115 -8.00368979527e-21)
(-0.0708658539204 -0.0340924291744 -6.7724765432e-21)
(-0.0718905326469 -0.0321952554325 -1.74102598076e-20)
(-0.073886594957 -0.0381880405467 -1.38778352277e-20)
(-0.100946239268 -0.0364800549441 -2.83896068127e-20)
(-0.0680272671235 -0.0316963703147 -2.84068311792e-20)
(-0.114195659229 -0.0565726173586 -2.81126289106e-20)
(-0.124477896383 -0.0445869341201 -4.69563746576e-20)
(-0.0930492993745 -0.059561048321 -3.58785539354e-20)
(-0.044516600207 -0.024666458865 -5.035266847e-23)
(-0.0416680986858 -0.0247762920581 -1.68641645912e-23)
(-0.0478515183741 -0.0272890221192 -1.90833841578e-22)
(-0.0447734020788 -0.0276278360957 -7.68147645329e-23)
(-0.0516665622397 -0.0298831650476 -5.95892732776e-22)
(-0.0483586341267 -0.0304889265876 -2.74871358061e-22)
(-0.0560213675555 -0.0324013476917 -1.60386542879e-21)
(-0.0524620285596 -0.0333108138577 -7.99767851515e-22)
(-0.0609964937839 -0.0348365368155 -3.39405744141e-21)
(-0.0571550286992 -0.0361084818687 -2.11174857493e-21)
(-0.0667604740834 -0.0371627725254 -6.74754525652e-21)
(-0.0624916464638 -0.0389982483874 -4.63157917512e-21)
(-0.0714851491421 -0.0392895366852 -1.26466219756e-20)
(-0.0687386808088 -0.0411254261132 -1.3700944006e-20)
(-0.0701140388839 -0.0409805254178 -2.48744065992e-20)
(-0.072195313013 -0.0463965714999 -1.85014503641e-20)
(-0.0937755122351 -0.042819953703 -4.69735990241e-20)
(-0.0661877524491 -0.0386312058272 -3.02709491441e-20)
(-0.104833711132 -0.0502013378298 -5.47222996824e-20)
(-0.117096478829 -0.0500534916134 -4.94029548664e-20)
(-0.0856642085006 -0.0532745057794 -3.97143511774e-20)
(-0.0416561754327 -0.0277574665828 -4.33262606541e-23)
(-0.0449798823641 -0.0308787765699 -1.60852281016e-22)
(-0.0416516642259 -0.0309478453195 -6.1413504373e-23)
(-0.0488057623862 -0.0340239631885 -4.78746476801e-22)
(-0.0452129384842 -0.0343496501069 -2.20203856215e-22)
(-0.0531931767424 -0.0371916805058 -1.30765099766e-21)
(-0.0492935792763 -0.0377954866857 -6.65638102822e-22)
(-0.058205639717 -0.0403468457116 -3.34927030864e-21)
(-0.0539989385478 -0.041290116404 -1.72002375217e-21)
(-0.0639847304128 -0.0434615216074 -1.15849779246e-20)
(-0.0593758939176 -0.0448063177039 -3.50807114381e-21)
(-0.0691257693576 -0.0466517063888 -1.95557723945e-20)
(-0.0655474771938 -0.0478369218425 -1.6794016108e-20)
(-0.0688457880089 -0.0487855827767 -2.38979929089e-20)
(-0.0700608063424 -0.0534123664837 -1.82813830663e-20)
(-0.0927977767336 -0.0488388845643 -3.27003049865e-20)
(-0.0661342723425 -0.0447348771196 -2.45922929642e-20)
(-0.0987488610196 -0.0465590269324 -3.43950063614e-20)
(-0.119376346069 -0.0571764528727 -3.3090723422e-20)
(-0.0779705113177 -0.0597776045637 -2.66294922427e-20)
(-0.0415611036293 -0.0344267439369 -1.20765079572e-22)
(-0.0380100113162 -0.0341760230325 -4.01526702884e-23)
(-0.0453298424029 -0.0381866938885 -4.07095482236e-22)
(-0.0414517902853 -0.0381406578057 -1.86912865132e-22)
(-0.0496775574272 -0.0420000740313 -1.07801085733e-21)
(-0.0454786090022 -0.0422422470468 -6.10700306404e-22)
(-0.054648780763 -0.0458656061215 -1.87882458734e-21)
(-0.0501314547615 -0.0464625625254 -1.4306796892e-21)
(-0.0604547779088 -0.0497553102077 -8.71710932714e-21)
(-0.0554840966759 -0.0506345996586 -1.99588302333e-21)
(-0.0661851959493 -0.0532693098274 -1.55196267798e-20)
(-0.06203162402 -0.054530529014 -1.01240820561e-20)
(-0.0673448191729 -0.0557061733221 -1.89756831216e-20)
(-0.0676228778645 -0.0601979552506 -1.31570639962e-20)
(-0.091890222919 -0.056797580772 -2.49827113997e-20)
(-0.0650425722337 -0.0504279179548 -1.85311164842e-20)
(-0.0975741832616 -0.0620209025515 -2.53252093033e-20)
(-0.114152857398 -0.0677039683109 -2.80172711403e-20)
(-0.0700244112306 -0.0834632235966 -2.31621165937e-20)
(-0.0375842006424 -0.0378432436985 -1.06300455849e-22)
(-0.0338509161741 -0.0372388893106 -1.43932989789e-23)
(-0.0412101552761 -0.0421904949115 -3.905176893e-22)
(-0.0371022483149 -0.0417768612644 -1.22139246566e-22)
(-0.0454296068396 -0.046729917953 -9.63369138275e-22)
(-0.0409362859494 -0.0465531414276 -6.01245775497e-22)
(-0.0503463820652 -0.0513135887086 -1.54773812519e-21)
(-0.0455444730991 -0.0515939340196 -1.52317994528e-21)
(-0.0563826208035 -0.0559620479982 -3.40285575229e-21)
(-0.050832236687 -0.056697539546 -1.81665369368e-21)
(-0.0626740094597 -0.0600307676618 -7.76151927255e-21)
(-0.0579600703374 -0.0619279831282 -4.0516186179e-21)
(-0.0643154853627 -0.0634357380512 -1.27124973588e-20)
(-0.0642163364133 -0.0690463523275 -7.8259517152e-21)
(-0.0855718700789 -0.0685179769701 -2.15656762248e-20)
(-0.0599599216511 -0.0575452189402 -1.76138718009e-20)
(-0.0871494602073 -0.0842967882095 -2.58541784307e-20)
(-0.0983736981169 -0.0815544547136 -4.80499195207e-20)
(-0.0582735447705 -0.109806765668 -3.93896534076e-20)
(-0.033041698198 -0.0410605408706 -3.02320896957e-23)
(-0.0291692435145 -0.0400405487666 3.5298914681e-23)
(-0.0364261495487 -0.0460306128366 -3.32867332762e-22)
(-0.0321283697265 -0.0451458424723 -3.52172164883e-23)
(-0.0404412063608 -0.0512993713055 -1.1610565825e-21)
(-0.0356630186753 -0.0506282208468 -6.1907082963e-22)
(-0.0452399533073 -0.0568904472919 -1.79209551376e-21)
(-0.0399484300718 -0.056569153549 -1.97955773128e-21)
(-0.0513751053723 -0.0626085950323 -2.46541655928e-21)
(-0.0451092545704 -0.0628014604139 -2.35050072049e-21)
(-0.0576071072793 -0.068375232851 -4.11605106055e-21)
(-0.0521895294423 -0.0700189461259 -3.84510818422e-21)
(-0.0577690706272 -0.0746917135365 -1.27273261573e-20)
(-0.0578977942355 -0.0799202415913 -3.87567459324e-21)
(-0.0716558083748 -0.0832704358637 -4.40981150968e-20)
(-0.0513806704266 -0.0661572004143 -2.3690970048e-20)
(-0.0691275384787 -0.10425204408 -6.15853944976e-20)
(-0.0773920466717 -0.0959200513203 -9.98754471799e-20)
(-0.0437806678674 -0.132213044461 -8.27059033373e-20)
(-0.0279335896814 -0.0439472745331 3.03137878883e-23)
(-0.0239934885268 -0.0424459177173 1.25596966719e-22)
(-0.0309561272657 -0.0495551192691 -3.21420713356e-22)
(-0.0265147693719 -0.048084350139 6.32099950431e-23)
(-0.0346046665925 -0.0556146422506 -1.43757197841e-21)
(-0.0295971032598 -0.0542447419287 -5.03406274694e-22)
(-0.0390300677759 -0.062242744918 -2.53796293801e-21)
(-0.0333136698421 -0.0610303698312 -2.0219575438e-21)
(-0.0448465822717 -0.0694139612151 -3.73019234543e-21)
(-0.0379317284471 -0.0683665389988 -3.72992951212e-21)
(-0.0504805268516 -0.0772076191253 -3.60473171691e-21)
(-0.0443910103885 -0.0776368947403 -1.05433597156e-20)
(-0.0488945123603 -0.0866026286677 -1.48393184839e-20)
(-0.0485002613527 -0.0898378406927 -8.79086975747e-21)
(-0.0547329420106 -0.097401662098 -7.94683021311e-20)
(-0.0405809917788 -0.0740234817995 -2.33458449346e-20)
(-0.0512341935089 -0.123492413861 -1.2099595602e-19)
(-0.0513008762964 -0.104778647445 -1.07226532451e-19)
(-0.0302552253035 -0.149019958607 -9.02499646569e-20)
(-0.0223057586925 -0.046332894878 1.58493173874e-22)
(-0.0183816740829 -0.0442843136497 2.64911880662e-22)
(-0.0248113986279 -0.052457323394 -1.18775566294e-22)
(-0.0203827676492 -0.050355840545 2.52659148329e-22)
(-0.0278620828664 -0.059252058231 -1.08779184008e-21)
(-0.0227942684321 -0.057068425968 -1.93938723355e-22)
(-0.0316323914747 -0.0668014122912 -3.21392411791e-21)
(-0.0257560604148 -0.0645542110938 -1.51470509186e-21)
(-0.0367039537475 -0.07524615633 -1.05430968823e-20)
(-0.0294794897464 -0.0727956688153 -3.06412051434e-21)
(-0.041313860393 -0.0847127256138 -1.57294977562e-20)
(-0.0349187715575 -0.0836002029064 -1.39552563194e-20)
(-0.0389059614501 -0.0954950591051 -1.72973962081e-20)
(-0.0377150636847 -0.0969645773417 -1.23746029422e-20)
(-0.0353007401589 -0.105361629354 -5.11040752549e-20)
(-0.0307136862541 -0.0810335246479 -2.52778361089e-20)
(-0.0309386321014 -0.133585073955 -7.64805410886e-20)
(-0.0230766707289 -0.1057592286 -1.02499258475e-19)
(-0.0187159196238 -0.153721079981 -8.68262715296e-20)
(-0.0146983367897 -0.0420636073836 3.45173542515e-22)
(-0.0112785324343 -0.0396267203257 4.88942851492e-22)
(-0.0162486593996 -0.0480143779413 3.59077855118e-22)
(-0.0124222921321 -0.0454090319253 4.00809520114e-22)
(-0.0181248158895 -0.0545826825039 1.77495991269e-22)
(-0.0138053701957 -0.0517799230061 4.60034003662e-22)
(-0.0204173257698 -0.0618938987284 -6.20851975137e-22)
(-0.0154735198506 -0.0588751138483 1.35717192606e-22)
(-0.0233057841207 -0.0701322484744 -1.36490148829e-21)
(-0.0175083675434 -0.0668230891366 -8.89591984997e-22)
(-0.0273582168488 -0.0794537564372 -6.47627995146e-21)
(-0.0201497146795 -0.075624794325 -5.07728097164e-22)
(-0.0307654776823 -0.0901081256677 -1.06003615054e-20)
(-0.024258378367 -0.0870783848265 -5.13924524147e-21)
(-0.0285256632083 -0.101828652482 -2.0355042843e-20)
(-0.0259916023071 -0.100027380006 -4.95966689525e-21)
(-0.0160158449862 -0.109415318533 -7.66730193295e-20)
(-0.0231263056145 -0.0879527989094 -1.32007706985e-20)
(-0.0090526670989 -0.130188863946 -1.12844988916e-19)
(-0.00230234339316 -0.105102529136 -7.84538581041e-20)
(-0.0098706286916 -0.142376853388 -5.74011084346e-20)
(-0.00893384154028 -0.0427086782219 5.4457882909e-22)
(-0.00567234786272 -0.0399609847847 6.40730466576e-22)
(-0.00989289444377 -0.0488663430745 5.01765668658e-22)
(-0.00625469004599 -0.0458737908876 5.78700855589e-22)
(-0.0110553348918 -0.0556959809928 4.18255204999e-22)
(-0.00696555426924 -0.0524211123719 5.98345092667e-22)
(-0.0124880383556 -0.0633348645364 -1.33022817254e-22)
(-0.00782441468666 -0.059730779559 3.79571766142e-22)
(-0.0144027662356 -0.0719683760312 -3.24185938689e-23)
(-0.00886511931039 -0.0679350924547 -1.70213292276e-21)
(-0.0176391716693 -0.0816852692624 8.29306612821e-22)
(-0.0104245373418 -0.0771948258685 9.78577609967e-22)
(-0.0211856432022 -0.0923337318879 5.01449368702e-22)
(-0.0136040689093 -0.0887762219768 1.1146685535e-21)
(-0.0242062357199 -0.103935060633 2.1946052492e-21)
(-0.0143874875533 -0.101663641326 1.27781702913e-20)
(-0.0137989491342 -0.112330540232 -1.49816094731e-20)
(-0.0147301254876 -0.100972092028 1.19169435271e-19)
(-0.00177375862595 -0.12634495285 -2.30099776222e-20)
(0.0117136135422 -0.112813759336 2.56970723168e-19)
(-0.020661501885 -0.129527882293 1.62566466376e-19)
(-0.00289663899151 -0.0428594273658 6.74852493075e-22)
(-0.00323530871766 -0.0491089200032 6.75280279598e-22)
(-0.00366688784552 -0.0560692453205 5.5966165381e-22)
(-0.00419558153496 -0.063888550339 -1.18953833936e-21)
(-0.00501480908001 -0.0727491017227 -6.9113671892e-22)
(-0.00670522840025 -0.0831700415739 1.26393955064e-21)
(-0.00812829025726 -0.0967719114235 1.33913894761e-20)
(-0.00530852449055 -0.111158746786 1.29753000313e-19)
(0.0138541135701 -0.125888806394 3.91121767912e-19)
(-0.00610786293595 -0.114175630437 4.42547167167e-19)
)
;

boundaryField
{
    back
    {
        type            calculated;
        value           uniform (0 0 0);
    }
    sides
    {
        type            calculated;
        value           uniform (0 0 0);
    }
    bottom
    {
        type            calculated;
        value           nonuniform List<vector> 0();
    }
    front
    {
        type            calculated;
        value           uniform (0 0 0);
    }
    atmosphere
    {
        type            calculated;
        value           nonuniform List<vector> 
17
(
(-0.12027003773 0.00283287103652 -3.70250419117e-21)
(0 -0.000792789932556 0)
(0 -0.0061720034011 0)
(0 -0.016835558485 0)
(0 -0.0370401035848 0)
(0 -0.0561668303711 0)
(0 -0.0603682300949 0)
(0 -0.0575861666679 0)
(0 -0.0542521528234 0)
(0 -0.0699662863761 0)
(0 -0.0960468104162 0)
(0 -0.118743546846 0)
(0 -0.13701658948 0)
(0 -0.1451232988 0)
(0 -0.13903315038 0)
(0 -0.115553861034 0)
(0 -0.134836315768 0)
)
;
    }
    floatingObject
    {
        type            calculated;
        value           nonuniform List<vector> 0();
    }
    procBoundary11to9
    {
        type            processor;
        value           nonuniform List<vector> 9((-0.05713106423 -0.00324152357185 -6.5954111971e-23) (-0.0598689243574 -0.00293934252588 -3.37360278767e-22) (-0.0625345183069 -0.00235696602057 -1.25661189941e-21) (-0.0650977073032 -0.00192041885421 -3.08258172304e-21) (-0.066948686864 0.00057146216932 -4.90074912745e-21) (-0.0688203980591 0.00154038676603 -6.20905697912e-21) (-0.070655442823 0.00261698352918 -9.25700231708e-21) (-0.154093634278 0.00432519791682 -1.22608093855e-20) (-0.132908294621 0.0174947987224 -5.75542542656e-21));
    }
    procBoundary11to10
    {
        type            processor;
        value           nonuniform List<vector> 
23
(
(-0.0558565430468 -0.00470688418511 -4.61924142676e-23)
(-0.0572212969352 -0.00610072613034 -8.94796814815e-23)
(-0.0586472535211 -0.00770568351804 -2.15276045353e-22)
(-0.0584088379735 -0.0109624964184 -2.15627673718e-22)
(-0.0565633616808 -0.0123200141988 -8.54610306336e-23)
(-0.0545899173784 -0.013597284353 -4.80885457648e-23)
(-0.0535241097267 -0.016837982842 -5.48538529823e-23)
(-0.0520789240317 -0.0202435476382 -9.60410336194e-23)
(-0.0495223464789 -0.0209704116013 -3.38468651888e-23)
(-0.0469074739603 -0.0215823509783 -1.49828034331e-23)
(-0.0442889646876 -0.0218945389441 -3.78729719778e-24)
(-0.0416265796504 -0.0220457150897 -7.58260145022e-24)
(-0.0388040373661 -0.0246937439798 -2.01961677239e-24)
(-0.0386042520353 -0.0276151732919 -9.50551820036e-24)
(-0.0383190648525 -0.0307861044125 -2.75927619193e-23)
(-0.0345005070936 -0.0336864101152 -1.05966021446e-23)
(-0.0301990356121 -0.0363830163817 2.20817432489e-23)
(-0.025428289516 -0.0387799265324 8.14064848401e-23)
(-0.0202346975796 -0.0407307480502 1.78809253092e-22)
(-0.0167235749682 -0.0387456288477 2.59070914945e-22)
(-0.0134147383126 -0.0366326659125 3.67285068404e-22)
(-0.00814440846887 -0.0371169851082 5.73335711007e-22)
(-0.00262857594031 -0.0371966282501 7.3722371078e-22)
)
;
    }
}


// ************************************************************************* //
