/*--------------------------------*- C++ -*----------------------------------*\
| =========                 |                                                 |
| \\      /  F ield         | OpenFOAM: The Open Source CFD Toolbox           |
|  \\    /   O peration     | Version:  v2012                                 |
|   \\  /    A nd           | Website:  www.openfoam.com                      |
|    \\/     M anipulation  |                                                 |
\*---------------------------------------------------------------------------*/
FoamFile
{
    version     2.0;
    format      ascii;
    class       volVectorField;
    location    "3";
    object      U_0;
}
// * * * * * * * * * * * * * * * * * * * * * * * * * * * * * * * * * * * * * //

dimensions      [0 1 -1 0 0 0 0];


internalField   nonuniform List<vector> 
164
(
(0.0403457831348 -0.000296913903568 -2.95060366642e-22)
(0.0419538179243 -0.000977085903751 -4.74686451715e-23)
(0.0434127040581 -0.00174607174445 -7.74279992287e-23)
(0.0443806704673 -0.00249011203204 7.53368589518e-23)
(0.0451253202147 -0.00328482242635 7.88255927401e-24)
(0.045882988998 -0.0040994504533 -9.38226891529e-24)
(0.0467431154897 -0.00493084468236 -8.5591774963e-24)
(0.0477237403736 -0.00577625821936 -8.28410519544e-24)
(0.0409185001718 -0.000219960783352 -2.32642053033e-22)
(0.0425761806176 -0.000748870181249 3.55064553382e-23)
(0.044085705054 -0.00136792251517 -7.59272896981e-23)
(0.0450869110368 -0.00196665998036 -2.66338233296e-24)
(0.0458550516288 -0.00261881449544 -6.19021719036e-24)
(0.0466327706464 -0.00329616980724 6.64028189405e-24)
(0.047509764398 -0.00399814191844 2.25405221565e-24)
(0.0485050156255 -0.0047205472617 -1.7567654474e-26)
(0.0413309035821 -0.000157792814416 -2.49938292108e-22)
(0.0430478674558 -0.000523749764441 7.22106259009e-23)
(0.0446067735914 -0.000981144459233 6.07110696496e-23)
(0.045644853066 -0.00143028088165 2.14713688486e-23)
(0.0464434576412 -0.00193603244937 2.41574221201e-24)
(0.0472497743596 -0.00247375505877 1.64755565981e-23)
(0.0481545514815 -0.00304510840011 3.39821402731e-25)
(0.049176264131 -0.00364998263758 9.83316482177e-25)
(0.0502993157118 -0.00428274816823 3.76169710632e-23)
(0.0515064878007 -0.00493361947212 4.20659931438e-23)
(0.0415900644707 -8.3362123962e-05 -1.93273918453e-22)
(0.0433630965754 -0.000285614078785 1.54393064519e-22)
(0.0449672469393 -0.000580888622294 1.0559197243e-22)
(0.046048028846 -0.000872912311569 1.14696374305e-22)
(0.0468853433449 -0.00122641747803 4.6924411884e-23)
(0.0477306815305 -0.00162133213017 1.45370143259e-23)
(0.048675443219 -0.00206191008685 -4.61475302833e-24)
(0.0497397552468 -0.00255507210879 -5.78436377163e-24)
(0.0508933099391 -0.00309851925212 5.53398008744e-23)
(0.0521203927078 -0.00368051910424 4.36420470933e-23)
(0.0416996842168 6.93075135137e-06 7.36388466311e-23)
(0.0435163422283 -3.0627680054e-05 4.23359962521e-22)
(0.0451684633063 -0.000156111088604 2.05412573353e-22)
(0.0462897540942 -0.000283749946986 1.47082088322e-22)
(0.0471754556472 -0.000480782771458 7.73338039259e-23)
(0.0480734649947 -0.000728010772284 4.6810682147e-23)
(0.0490774211312 -0.00103103216895 -8.72560413149e-25)
(0.0501956483643 -0.00141408469793 -4.17891488721e-23)
(0.0514067786291 -0.00188015446786 4.82895101958e-23)
(0.0526795933818 -0.00241306455399 5.02227762158e-23)
(0.0416409400203 8.27482881862e-05 9.77212846514e-23)
(0.0434949416665 0.000236598754521 2.87149317765e-22)
(0.0451961787536 0.000293755951695 2.03274152865e-22)
(0.0463618721481 0.000341647435223 1.89135573411e-22)
(0.0473048018013 0.000319212286712 8.9378950644e-23)
(0.0482739622485 0.000230309978629 5.16281506349e-23)
(0.0493593870434 6.1546752171e-05 2.42503288755e-23)
(0.0505608640821 -0.00021049884277 5.06688356968e-24)
(0.0518648650421 -0.000594817293665 1.60607627614e-23)
(0.0532127109224 -0.00109954789303 1.94423409062e-23)
(0.0413884803314 0.000171287155964 1.62360996972e-22)
(0.0432860035785 0.000524933575557 4.23493689797e-22)
(0.0450316149275 0.000781787184513 2.12268076575e-22)
(0.0462533456866 0.00101844689493 1.61813959935e-22)
(0.0472613952147 0.00118680357829 1.05066523282e-22)
(0.048316004489 0.00127252624379 1.05693145731e-22)
(0.0495028589551 0.00125444902276 7.30162841886e-23)
(0.0508315138598 0.00110469647976 4.10074023424e-23)
(0.05227427027 0.000791799244306 3.05850552282e-23)
(0.0537659989258 0.000304456104982 2.70150954999e-23)
(0.0409347219866 0.000270297623031 1.24983168434e-22)
(0.0428738897957 0.000838504709047 2.54805864806e-22)
(0.0446604467381 0.00131148374659 1.5545557678e-22)
(0.0459430926029 0.00175591792945 1.52529878512e-22)
(0.0470315207752 0.0021350289042 1.57603710394e-22)
(0.0481853102029 0.00241726476595 1.3723005622e-22)
(0.0494966426029 0.00257431024825 1.10961801914e-22)
(0.0509794286575 0.00257224780802 8.30410982539e-23)
(0.0526107520033 0.00235809074162 5.39143545991e-23)
(0.0543452680554 0.00190992368114 5.58742521888e-23)
(0.0402672253506 0.000378738038364 1.47577964319e-22)
(0.0422377843836 0.00117616426013 3.04854757668e-22)
(0.0440657708189 0.00188831618036 1.57977054051e-22)
(0.0454113054673 0.00256963598654 1.51090078758e-22)
(0.0465875943715 0.00318236082149 1.5147794251e-22)
(0.0478527302892 0.00368426184695 1.14465198632e-22)
(0.0493151596107 0.0040468961572 9.78406637722e-23)
(0.0509926315067 0.00423056219819 1.3559276489e-22)
(0.0528643172223 0.00417276636406 1.74703836471e-22)
(0.054908458054 0.00381310906524 7.70084588608e-23)
(0.0393669219646 0.000492326094084 2.59351548211e-22)
(0.0413596794489 0.00154218507431 1.7627867845e-22)
(0.0432256762318 0.00251573659043 1.75391541307e-22)
(0.0446300635568 0.00345532472517 1.70901874018e-22)
(0.0458940025744 0.00433042936052 1.47345842686e-22)
(0.0472819334178 0.00509299913709 1.10428651324e-22)
(0.0489152370908 0.00571387322714 8.63391382934e-23)
(0.0508183959826 0.00613445414661 8.36156819181e-23)
(0.0529857270908 0.00628866939821 1.24406904425e-22)
(0.0553986452343 0.006099766492 7.64852039897e-23)
(0.0382133999528 0.000612076499186 2.35374337893e-22)
(0.0402189527991 0.00193264416833 -1.06692903811e-22)
(0.0421111193425 0.00319087193227 3.59597974479e-23)
(0.0435702877069 0.00441469797355 8.82491887489e-23)
(0.0449173030714 0.00558556735165 1.37949462079e-22)
(0.046434362892 0.00665172050926 1.04043408844e-22)
(0.0482388372206 0.00758348257015 8.26779813835e-23)
(0.0503691447288 0.00831666074489 6.56131810403e-23)
(0.0528505446784 0.00877700451867 5.95319517275e-23)
(0.0556860521228 0.00889262830867 4.98320728363e-23)
(0.0368019415927 0.00074781253839 6.7330333533e-23)
(0.0388019731544 0.00235114080283 -3.4991081195e-22)
(0.0407028700239 0.00390955623635 -3.03522900835e-22)
(0.0422040345486 0.00543931571607 -1.41059936862e-23)
(0.0436268903121 0.00694584046708 1.69549410147e-22)
(0.045259389371 0.00836218644301 1.49861946811e-22)
(0.0472212448559 0.0096533267363 1.20851941735e-22)
(0.0495697215166 0.0107702476461 9.60203465321e-23)
(0.0523435366845 0.011644170774 1.18306610169e-22)
(0.055577287763 0.0122033195617 1.56706199435e-22)
(0.0351191076907 0.000875530551643 1.12708371398e-22)
(0.0370947632925 0.00278258259771 -6.99896128817e-22)
(0.0389814046346 0.00466202178504 -5.67144867327e-22)
(0.0405054588193 0.00652390616755 -1.643845606e-22)
(0.0419846612151 0.00839321113247 1.7795018421e-22)
(0.0437028387323 0.010197043399 1.61457635456e-22)
(0.0457963239361 0.0119035372194 1.42084840114e-22)
(0.0483383186701 0.0134664182062 9.87043392425e-23)
(0.0513692137867 0.0148206980448 1.50395849049e-22)
(0.0549306081306 0.0158922197904 1.32190039368e-22)
(0.0331439944403 0.0010099826992 2.26985946516e-22)
(0.0350776340038 0.00321973073573 -8.16226993656e-22)
(0.0369228030891 0.00542598815698 -7.55337150461e-22)
(0.0384432704588 0.00764102252509 -2.05089275157e-22)
(0.0399493088615 0.00990075841415 1.54117249953e-22)
(0.0417232744672 0.0121313965076 1.97704861964e-22)
(0.0439163253371 0.01430758907 2.32221141271e-22)
(0.046614365035 0.016382902582 1.86932875773e-22)
(0.0498800473358 0.0182907599779 2.2440648928e-22)
(0.0537597780115 0.0199487405288 1.76463760117e-22)
(0.030879041011 0.00114509234772 6.78772138359e-22)
(0.0327376464095 0.00365059475751 -6.59003596055e-22)
(0.0345225873707 0.00618660315498 -6.18789165454e-22)
(0.0359995891448 0.00876867175899 -2.15518492558e-22)
(0.0374928199462 0.0114395988611 1.43228635501e-22)
(0.0392760368003 0.0141322260868 1.69607512211e-22)
(0.0415161100847 0.0168274507603 1.61014884386e-22)
(0.0443187693351 0.0194874766971 1.76517272853e-22)
(0.0477719415543 0.0220416474472 2.07222140967e-22)
(0.0519364694132 0.0243979284904 1.93833935496e-22)
(0.0283551677842 0.0012767237352 1.64673825615e-21)
(0.0300946045622 0.00407343515349 -4.95600080163e-23)
(0.031781087757 0.00692688623479 -1.94481407052e-22)
(0.033174322701 0.00986375633864 2.21496609157e-23)
(0.0345939246148 0.0129598175136 1.79787155391e-22)
(0.0363175870598 0.0161386663061 1.86257132832e-22)
(0.0385279799397 0.0194018237056 2.11412088871e-22)
(0.0413546315716 0.0227182310295 3.10566590952e-22)
(0.0449201595261 0.0260112264028 4.1786479863e-22)
(0.0492939868823 0.0291775367647 4.3776567271e-22)
(0.0255790080419 0.00137786916079 1.93932375924e-21)
(0.0271739098229 0.00444425169029 2.38427169455e-22)
(0.0287100906443 0.00760634193611 -8.23679728338e-24)
(0.0299699847862 0.0108823124973 6.66426779913e-23)
(0.0312417933907 0.0143912813504 2.26485909261e-22)
(0.0328168809973 0.0180748285751 2.99061037319e-22)
(0.0349049154144 0.0219470338539 7.14660520766e-22)
(0.0274356037632 0.0156558998154 4.66302264686e-22)
)
;

boundaryField
{
    back
    {
        type            noSlip;
    }
    sides
    {
        type            noSlip;
    }
    bottom
    {
        type            noSlip;
    }
    front
    {
        type            noSlip;
    }
    atmosphere
    {
        type            pressureInletOutletVelocity;
        value           nonuniform List<vector> 0();
    }
    floatingObject
    {
        type            movingWallVelocity;
        value           nonuniform List<vector> 0();
    }
    procBoundary4to0
    {
        type            processor;
        value           nonuniform List<vector> 8((0.0396242819277 -0.000375468775451 -2.92743457143e-22) (0.0411737057459 -0.00119906216401 2.11350093878e-23) (0.0425919352078 -0.00210860919083 1.06905558916e-23) (0.043530684246 -0.00299591168879 9.94072015888e-23) (0.0442547736978 -0.0039325132778 3.27057042322e-23) (0.0449954304858 -0.00488661743426 -1.76436335453e-24) (0.0458445345345 -0.00585168388942 -7.27143620979e-24) (0.0468193352078 -0.00682623688773 -2.33291336585e-23));
    }
    procBoundary4to3
    {
        type            processor;
        value           nonuniform List<vector> 
13
(
(0.0376553150271 0.0259909542202 1.39860120407e-21)
(0.0412575662515 0.0300950436374 2.18823608898e-21)
(0.0457644828636 0.0340727783604 2.60334971352e-21)
(0.022565908035 0.00146493112595 1.7344863447e-21)
(0.0240026927039 0.0047541863462 1.71335199412e-22)
(0.0253472403725 0.00817857074701 -2.43707131097e-23)
(0.026400689802 0.0117559651304 1.65882444892e-22)
(0.0287385052387 0.0198533330474 1.22373555553e-21)
(0.0376553150271 0.0259909542202 1.39860120407e-21)
(0.0305693300594 0.024375506272 3.73394733981e-21)
(0.026400689802 0.0117559651304 1.65882444892e-22)
(0.0287385052387 0.0198533330474 1.22373555553e-21)
(0.0232108431576 0.0166297620929 1.87005773959e-21)
)
;
    }
    procBoundary4to5
    {
        type            processor;
        value           nonuniform List<vector> 
18
(
(0.0488275484506 -0.00662060804183 9.30236984063e-24)
(0.0496138176971 -0.00545335669839 2.45967707157e-23)
(0.0496138176971 -0.00545335669839 2.45967707157e-23)
(0.0508182193748 -0.00618949998252 2.35215022174e-23)
(0.0527804450732 -0.0055829894906 2.41039010823e-23)
(0.0533898728209 -0.00428198356042 1.75600320366e-23)
(0.0539659829405 -0.00300312656597 2.66652727554e-23)
(0.0545574282367 -0.00171725784573 5.79663267564e-23)
(0.0552614141005 -0.000359735461206 7.09813312816e-23)
(0.0561049159334 0.00117607999709 -6.15719234699e-23)
(0.0570437224531 0.00306805990186 -1.04917090227e-22)
(0.0580378433155 0.00545099461421 -2.52950688755e-23)
(0.0588860244698 0.00854184980617 1.5432182428e-22)
(0.0593025387068 0.0123645200076 4.6810512006e-22)
(0.0590558632829 0.0166084605 2.45003289195e-23)
(0.0582956667001 0.0212654244686 2.74012521055e-22)
(0.0568629313554 0.0264733427934 2.54000836273e-22)
(0.0544869939626 0.0321799719065 6.72017552001e-22)
)
;
    }
}


// ************************************************************************* //
