/*--------------------------------*- C++ -*----------------------------------*\
| =========                 |                                                 |
| \\      /  F ield         | OpenFOAM: The Open Source CFD Toolbox           |
|  \\    /   O peration     | Version:  v2012                                 |
|   \\  /    A nd           | Website:  www.openfoam.com                      |
|    \\/     M anipulation  |                                                 |
\*---------------------------------------------------------------------------*/
FoamFile
{
    version     2.0;
    format      ascii;
    class       volVectorField;
    location    "4.8";
    object      ddt0(rho,U);
}
// * * * * * * * * * * * * * * * * * * * * * * * * * * * * * * * * * * * * * //

dimensions      [1 -2 -2 0 0 0 0];


internalField   nonuniform List<vector> 
1984
(
(8.83475610154 -8.74721771204 -2.0289311351e-20)
(9.03071292593 -24.4229943684 -3.51199714218e-19)
(9.55224456447 -39.6102120014 -4.74964025515e-20)
(9.88905116521 -56.1079828092 2.40260980301e-20)
(10.341888244 -73.2152397904 9.7837421954e-20)
(10.777522432 -90.9949826829 7.68421135707e-20)
(10.9693444567 -109.979767182 1.45071016515e-19)
(11.3083944205 -130.516808101 -8.81884038449e-20)
(12.0506837181 -152.630467691 -1.88040885141e-19)
(13.0779550797 -176.593216794 -5.2364852709e-19)
(14.4407237786 -202.693871195 -8.35903152455e-20)
(16.2456830078 -231.610740029 -1.03191771365e-19)
(18.6962108438 -264.376005881 -1.81077145395e-19)
(22.2585065253 -302.862066146 -4.1504293792e-19)
(27.8291357808 -350.110156934 -1.27148753304e-19)
(36.5191295968 -414.484593934 -1.0679150383e-18)
(54.8611092782 -512.80506278 7.80377323554e-18)
(88.4956147952 -529.132839754 2.32210614248e-17)
(26.7801196394 -257.950155825 5.6508741331e-16)
(-22.6492794172 15.4221254415 2.43465992177e-18)
(24.0877180666 -8.60571959792 2.60199742151e-21)
(24.6422772915 -23.7280726419 -1.40524560514e-19)
(25.269364816 -38.7543039681 -2.95677957739e-20)
(26.0973686288 -55.3536598266 8.34437002098e-20)
(27.1762031712 -72.3716902298 4.55749824442e-19)
(28.610008146 -90.4097504322 2.58869656987e-19)
(30.0751086684 -109.489199405 4.04735765368e-19)
(32.0437377234 -129.471676425 1.40510037255e-19)
(34.6309389817 -150.880144295 -2.35889185491e-19)
(37.9651484948 -174.21411411 3.13935496213e-19)
(42.0641261912 -199.514427484 7.57852833096e-20)
(47.4885426622 -227.282750017 1.87609697927e-19)
(54.6590497753 -258.315587052 2.31384602592e-20)
(64.4975740834 -293.699789757 -4.38260377613e-19)
(79.4011620159 -335.231890998 -5.79654945403e-20)
(102.0403185 -387.158056332 1.4575237197e-18)
(142.686325724 -469.630580514 5.34267598402e-19)
(187.571763005 -437.006110047 1.01634822356e-17)
(79.405173517 -176.66786118 -4.69780023165e-16)
(-5.45939691004 -5.47797513576 1.12438312034e-19)
(38.2262078019 -8.23914535254 -7.88693587365e-20)
(39.02846863 -23.1849945224 -6.35596009331e-19)
(39.5602828935 -38.0877312912 -1.01540178948e-19)
(40.795571419 -54.1911716135 -7.63179549455e-21)
(42.4676386097 -70.7035123356 8.33371025155e-20)
(44.7198832192 -88.0960262325 -4.33906352789e-20)
(47.8333131593 -106.539367753 6.97763121036e-20)
(51.6727017809 -125.93749337 -4.91234458071e-20)
(56.1430009094 -146.650468073 -7.46404631281e-20)
(61.6417394562 -169.06564282 6.82979096702e-20)
(68.401755754 -193.05691447 4.42831245431e-20)
(76.8799510638 -218.865945211 1.81397686062e-20)
(87.79639421 -247.234199266 -3.34624020116e-19)
(101.460440519 -278.06583246 7.14224961543e-19)
(121.631448655 -312.029612201 6.76538006613e-19)
(149.554785951 -350.89891679 2.55167602541e-19)
(196.541870986 -421.256696026 5.96522038567e-17)
(197.087641433 -375.900554307 -4.05923460458e-17)
(70.7176941254 -107.874648914 -2.75507827709e-16)
(-3.50781649141 -3.13231404072 -1.46656650781e-18)
(53.1397441318 -7.82796599239 -6.23664818893e-20)
(54.0070419933 -22.347586322 -3.92119845213e-19)
(55.0155268859 -36.9360026872 -1.1864036186e-19)
(56.7272374274 -52.4230745882 -3.99509590989e-20)
(59.1308782989 -68.4200079774 -1.03187020719e-21)
(62.1810320537 -85.0050778648 -2.07853270295e-20)
(66.2108542908 -102.485806261 -4.79554537737e-20)
(71.1677384603 -121.096871234 5.97171389954e-21)
(77.129754915 -140.810969578 1.79016268795e-20)
(84.3443520792 -161.797103778 -5.40899285804e-20)
(93.2312123098 -184.073147116 -1.24932478849e-22)
(103.889846269 -207.675257319 -6.26522271742e-20)
(116.982189507 -233.534257757 -1.58267258553e-19)
(133.222514908 -259.886681527 -2.99151706326e-19)
(153.994746278 -286.716247096 1.28385812043e-18)
(178.874763406 -311.026667356 -2.75654664437e-18)
(227.271432333 -388.993188318 -2.94691571507e-18)
(201.151308603 -383.356236849 -4.70384013602e-18)
(63.4581235304 -144.187848998 -1.98732722577e-18)
(-0.598976520945 -0.750872078705 -1.9015503508e-19)
(67.5196948209 -7.43258122732 1.36060548177e-19)
(68.4259747502 -21.3295773097 -5.8757012103e-19)
(69.7633839336 -35.3475604024 -1.98493778664e-19)
(71.9168098798 -50.0940649733 -4.5923954687e-20)
(74.910236975 -65.2743663163 -9.12164961266e-21)
(78.8173584392 -81.0413988951 -1.79020484389e-20)
(83.6216542695 -97.579337648 -5.4210649223e-21)
(89.6059022949 -115.046993018 -1.28323875987e-20)
(96.8443561468 -133.490188335 1.62098974012e-21)
(105.529626186 -152.938189045 -1.32934851098e-20)
(115.911569075 -173.431495747 -1.27697788221e-20)
(128.175427801 -195.032068224 -9.8983146869e-20)
(142.637279098 -217.788448649 -2.80804678204e-19)
(160.450816088 -241.23108482 -2.97919975518e-19)
(181.207665196 -266.095034095 -3.19345157309e-19)
(206.136007187 -277.454033203 -4.12847175136e-18)
(231.94917968 -334.800953404 1.40261100966e-17)
(232.387254934 -351.798774705 1.0553881508e-17)
(91.4941169573 -133.759510098 2.85412101537e-17)
(-0.125517756111 -0.375131851255 5.60170417612e-20)
(81.1833317223 -6.9891111011 1.38054502443e-19)
(82.1865394445 -20.1260529025 -2.88714325106e-19)
(83.7729553186 -33.4145994769 -1.15498822209e-19)
(86.2952950558 -47.2930559333 -4.00104733981e-21)
(89.7749271512 -61.5445237946 1.9317172636e-20)
(94.2756253034 -76.3199463289 -1.19491509599e-20)
(99.8695948675 -91.7238009147 -9.81685817672e-22)
(106.718705788 -107.902053096 8.04051775885e-22)
(115.04456729 -124.914831287 -1.69206074659e-20)
(124.903487414 -142.743409048 -4.24394046999e-20)
(136.501866815 -161.409757883 -1.32079955761e-20)
(150.015611451 -180.917875848 -1.37920618497e-19)
(165.654917044 -201.089171918 -3.68996918459e-19)
(183.651127135 -221.503655272 -3.52067830046e-19)
(204.334341762 -240.550453909 -1.16546189033e-18)
(228.871581233 -256.396135713 -4.95971125794e-18)
(237.071234879 -257.033320122 1.88581434704e-17)
(240.511242218 -203.511644186 6.395625395e-17)
(96.7149008438 -41.1637881667 -1.47256298525e-16)
(0.157091805183 0.42435335456 -3.90873513404e-20)
(94.0461779418 -6.49945671404 3.69704815695e-20)
(95.1465106867 -18.752933083 -1.04176846086e-19)
(96.9370924054 -31.1890147961 -5.34339660945e-21)
(99.7615133553 -44.09790632 1.40393042962e-20)
(103.645290499 -57.3089380377 -3.57227938214e-20)
(108.656395243 -70.9608473898 2.7888053381e-20)
(114.889468271 -85.1473153313 -1.67048544274e-20)
(122.45907255 -99.8789067305 -1.47870945661e-20)
(131.557038801 -115.313419075 8.46851141375e-20)
(142.372866496 -131.48842238 -1.46308489615e-19)
(154.976681763 -148.313675776 -6.47038806409e-20)
(169.470746097 -165.861616308 -1.79446605844e-19)
(185.903324318 -183.948763857 -3.62611500176e-19)
(203.902688352 -202.812826707 -4.91034648702e-20)
(223.133237653 -220.358195526 -4.18809555333e-18)
(240.809300475 -238.656029048 -2.48277003403e-18)
(244.865368317 -235.582473025 4.29945556842e-17)
(225.038120646 -188.195405405 5.33220584136e-17)
(115.376349369 -44.2738234055 -7.37499479148e-17)
(0.580007375151 -1.10978732476 -3.07376147702e-19)
(106.009280326 -5.96528854818 -1.09637430557e-19)
(107.200810812 -17.2427663569 -3.77163456795e-19)
(109.139132849 -28.7329137053 -1.15245155582e-19)
(112.205305655 -40.5819003881 -2.20142338541e-20)
(116.414534896 -52.6569018877 1.49356534294e-20)
(121.833441628 -65.0809270715 -1.86744693667e-20)
(128.568995735 -77.9218364578 3.51476832846e-21)
(136.752103292 -91.2289050931 -5.46744876722e-20)
(146.470012836 -104.993062739 -9.46932379427e-21)
(158.007447053 -119.313866066 -6.40527878012e-21)
(171.429210508 -134.296765109 -4.26445704306e-20)
(186.840350877 -149.977994305 -2.92968560069e-19)
(204.209597321 -166.440027228 -2.18273752178e-19)
(223.067982842 -184.549407186 -4.89290965881e-19)
(243.009487112 -203.333577261 1.41618253357e-18)
(260.806851622 -233.446256923 -1.21788386954e-17)
(263.113880172 -253.642385391 3.40129814711e-17)
(247.72020721 -216.290756262 8.32903409952e-18)
(131.656273052 -55.3831334089 -1.52174342019e-17)
(0.370288103804 -0.392568161337 -9.46984708166e-20)
(116.994088602 -5.39221330376 -7.67479814968e-21)
(118.253597731 -15.6296647145 -2.20025231435e-19)
(120.281356175 -26.1039540974 -7.26219650662e-20)
(123.538502049 -36.8141739784 -3.36754349534e-20)
(127.993525535 -47.6843560356 7.70465781311e-21)
(133.717188164 -58.8077570474 6.17151290724e-20)
(140.815627177 -70.2257695757 -5.1435162911e-20)
(149.421770573 -81.9696767838 5.76124635639e-20)
(159.692566382 -94.0488173746 -1.85833403648e-20)
(171.760791032 -106.519294387 -8.72352036827e-20)
(185.862679491 -119.4730974 8.72305285194e-21)
(202.16829044 -133.080400486 -1.87166325143e-19)
(220.787191257 -147.554885077 -5.12460519244e-20)
(241.689039861 -164.444646153 -3.9526797838e-19)
(264.960661084 -182.25552877 8.42261261921e-19)
(290.318183928 -218.43361446 -4.03197156012e-18)
(309.322341108 -248.674807242 -2.98858281884e-18)
(300.622773383 -224.795739687 -3.91981818343e-18)
(123.56659379 -57.9366340006 6.82084650931e-18)
(0.499252484166 -0.401375146974 5.0717527106e-20)
(126.93340815 -4.79805182371 4.84475006521e-20)
(128.19778009 -13.961898312 -2.20249380379e-19)
(130.320354036 -23.3537571689 -4.83779411741e-20)
(133.70071048 -32.8575778385 -7.17847895207e-22)
(138.319664198 -42.4801126837 1.54217206465e-20)
(144.245544103 -52.2588717311 1.09477857406e-20)
(151.576844244 -62.214031972 9.0778468794e-21)
(160.447435361 -72.3476292457 2.91775810185e-22)
(171.02420434 -82.6575903218 4.01390891234e-20)
(183.489658511 -93.1618680021 -6.79314285442e-20)
(198.098076621 -103.919317332 -3.29537293925e-20)
(215.126520238 -115.090419832 -1.07830869622e-19)
(234.948432804 -126.867546655 -8.30779295752e-20)
(258.213742975 -140.743432973 -2.66493885045e-19)
(286.217585945 -154.357648447 -7.64325843126e-20)
(319.514601817 -182.965313011 -4.22924190639e-18)
(356.190872692 -203.520884392 2.32394743407e-17)
(357.56425093 -183.986605801 -1.11092495427e-17)
(120.496126836 -36.9091278622 3.15012323303e-17)
(0.504908783825 -0.366728263397 2.48502428635e-20)
(135.762020174 -4.21718041293 1.23514004196e-19)
(137.008655123 -12.2519506602 -6.30459398228e-21)
(139.203051896 -20.4934698955 2.53771740486e-20)
(142.644342663 -28.7998331003 -4.13969519406e-20)
(147.351072762 -37.140258134 1.70342402157e-20)
(153.3759326 -45.5493545539 -1.01322012094e-20)
(160.819260727 -54.0217022199 3.74572937526e-21)
(169.799058596 -62.5280694716 2.52854687818e-21)
(180.499194241 -71.035265795 -2.6942364505e-20)
(193.114604176 -79.5159368662 -4.15467520268e-20)
(207.909984068 -87.9342905696 -3.59795153341e-20)
(225.229059573 -96.3090126553 -1.5723235528e-19)
(245.586829518 -104.533402361 5.30038552846e-20)
(269.967086154 -113.256701228 -7.43502695297e-19)
(299.955418371 -120.873063559 -9.11771464757e-19)
(337.202201462 -136.48653156 6.4516959489e-18)
(376.5567754 -130.785351203 -2.16707344487e-18)
(364.471111496 -103.263131461 2.36079754662e-18)
(99.0488611748 -4.81105318111 1.04240842379e-20)
(0.524602317938 -0.0211106465429 -2.08547624064e-20)
(143.449962666 -3.63760966991 7.62851270727e-20)
(144.692775314 -10.5315543606 -1.31431052471e-19)
(146.880154586 -17.5981192955 -6.05825996635e-20)
(150.343182959 -24.6925431355 -1.4926664676e-20)
(155.066877037 -31.7484568039 4.53078203768e-21)
(161.09376001 -38.7878815167 1.03890724697e-20)
(168.524627428 -45.7906514213 -8.32405138304e-21)
(177.476979164 -52.6888780933 -4.7323722193e-20)
(188.101116766 -59.4011749366 -6.14886507739e-20)
(200.593384997 -65.8566924278 -3.43379454784e-20)
(215.19128117 -71.9291397429 -2.69546851557e-20)
(232.222605002 -77.4988684353 -9.89086612797e-20)
(252.161055091 -82.2560359708 -1.1047287271e-19)
(275.788128417 -86.3271980618 -6.09147556534e-19)
(304.052737392 -87.1599825627 -3.33433863959e-18)
(338.891167742 -90.1440666098 -1.425267732e-18)
(370.276738551 -75.6389184916 2.36588702791e-18)
(332.775489861 -56.8395787271 6.52435587313e-18)
(67.6330833136 3.37177054986 -2.33695201987e-18)
(0.520858671721 0.0441596876705 -1.32083410572e-20)
(149.975174066 -3.06479360787 3.60413275462e-20)
(151.223692996 -8.82819008562 -2.12211483624e-19)
(153.367077786 -14.7109524888 -9.99867706825e-20)
(156.799574516 -20.5942148162 -2.09264724822e-20)
(161.468404701 -26.3890514519 2.62616130572e-21)
(167.418431814 -32.0910153692 8.33262649964e-21)
(174.723498511 -37.6472511814 -2.26548262334e-21)
(183.503805677 -42.9854533144 -2.53355108588e-20)
(193.858767867 -47.9837211775 -6.57581556762e-20)
(205.966623313 -52.5147751855 -6.98966054075e-21)
(220.024481248 -56.401026422 -2.29351675638e-20)
(236.250894325 -59.4101217545 -4.6315269748e-20)
(255.011414515 -61.1251220073 -4.22011307535e-20)
(276.78546828 -61.3016917486 -5.62959409753e-19)
(302.105814064 -57.7044893921 -4.8866975536e-19)
(331.252349685 -54.2711185553 -1.20553944507e-18)
(356.382288477 -38.8184966698 3.09546415595e-17)
(316.318363842 -31.5120367601 7.4967218131e-18)
(54.6802923269 2.53076928277 -4.17807248572e-18)
(0.500505504176 -0.102740218128 -3.44212518754e-20)
(155.346528332 -2.48418884178 1.12073036339e-19)
(156.600656833 -7.14098835595 -1.38588917087e-20)
(158.674543526 -11.8800577521 1.24751160933e-20)
(162.034319798 -16.5712315722 -1.78632891945e-20)
(166.592191546 -21.1308505405 1.24418385489e-20)
(172.387946578 -25.5377921538 -1.24870439931e-20)
(179.471577821 -29.720720179 -1.79157462638e-20)
(187.937318059 -33.5870833827 -1.60463465933e-21)
(197.876500777 -36.9962514773 -4.95043686044e-20)
(209.396782495 -39.7749994602 -1.71854126063e-20)
(222.641369628 -41.7449459428 -8.39090181447e-21)
(237.732874814 -42.6029264434 -5.70628043903e-20)
(254.841606094 -41.8818240203 3.0812291801e-21)
(274.168858082 -39.1784923104 -7.2553554452e-19)
(295.782388417 -32.6140691473 -1.26007396169e-19)
(319.546126525 -24.8989639263 -4.07124607389e-18)
(340.566074969 -4.03252530037 -1.20054209762e-17)
(301.910410733 -5.38859419858 1.27389823623e-18)
(43.1440901699 9.24754856875 -5.1325763812e-18)
(0.437588433846 0.116135418023 -3.0890804913e-20)
(159.608831035 -1.91146344573 1.20027494419e-19)
(160.824014352 -5.49676530142 7.18846361454e-20)
(162.839205788 -9.12846538184 1.07526291054e-19)
(166.085253107 -12.6586936687 2.17112474465e-20)
(170.485225431 -16.0389041817 2.62625454383e-20)
(176.053939217 -19.2148741116 5.2209185366e-21)
(182.84131236 -22.1056630688 3.46665434186e-21)
(190.902270526 -24.606723909 1.27434826915e-22)
(200.311011857 -26.5804503238 -6.13042358011e-22)
(211.097764658 -27.8419216704 -2.5870330698e-20)
(223.352187566 -28.181716813 -3.10855369717e-20)
(237.159737532 -27.3179168632 -3.09369852329e-20)
(252.482551884 -24.82053443 3.22247456243e-21)
(269.299522911 -20.3140071852 -1.74112625898e-19)
(287.354071369 -12.3126078001 -1.76162279007e-19)
(306.169434791 -2.15093170741 -2.28399783766e-19)
(319.89648704 16.7647021005 1.16853064499e-17)
(270.061384778 7.62539584979 3.39861278014e-18)
(20.9559451135 10.7467731122 7.34218418486e-19)
(0.399589357322 0.391782941306 1.64515883602e-21)
(162.796050012 -1.3719383611 1.41931101421e-19)
(163.955102638 -3.90679011347 7.45821725515e-20)
(165.892936838 -6.46497194787 9.17408801225e-20)
(168.995054761 -8.90293433113 1.57424768704e-20)
(173.20081959 -11.151698767 6.53594724339e-21)
(178.50013937 -13.1648415635 -2.85382414076e-21)
(184.93206544 -14.8625821965 -4.58827163029e-21)
(192.530516139 -16.1271206001 -2.9568057974e-21)
(201.307118565 -16.8380213204 4.33368151612e-20)
(211.320507843 -16.8050518361 -1.21791482477e-20)
(222.553009711 -15.7720310991 8.20516968674e-20)
(235.029861441 -13.5492194773 -4.10169135933e-20)
(248.652246311 -9.81673151164 6.22429534525e-20)
(263.242643005 -4.31425656025 -7.7838551867e-20)
(278.394353311 4.09018181237 1.2864006867e-18)
(293.21827023 14.5252041762 2.27746553489e-18)
(301.699663136 28.5858750807 -5.63807705494e-18)
(242.513691771 13.0803098058 1.95655382918e-18)
(5.98634399542 6.77267704323 2.54275067456e-18)
(0.355481200743 0.251153221581 1.29316549756e-20)
(164.948169586 -0.854518013155 7.04230690792e-20)
(166.053836361 -2.39195651886 4.32089812917e-21)
(167.874913247 -3.92273408792 -8.57459851305e-21)
(170.825449935 -5.31467293544 -8.56444541341e-21)
(174.808799276 -6.50112059846 -9.64628347728e-21)
(179.816812403 -7.4360384318 9.38798052034e-21)
(185.855837875 -8.03457927409 3.2493425463e-20)
(192.951214565 -8.21250534673 -6.69384742247e-21)
(201.111584412 -7.79168936737 2.07834316521e-21)
(210.332532551 -6.61634645206 -1.36173126699e-20)
(220.55003453 -4.50722018025 -2.07459636468e-20)
(231.749037773 -1.24298025889 -2.97325240938e-20)
(243.839805049 3.36228535896 -1.19049061663e-19)
(256.603569104 9.34919733091 -2.71459416122e-19)
(269.830679196 17.2866262417 -1.28852506645e-18)
(281.104048762 27.0503116081 2.96713991364e-18)
(288.517329853 37.5325200893 3.86752608619e-18)
(227.982365624 18.1194934219 3.35798246469e-18)
(3.55276780598 4.10529112863 4.24710823379e-19)
(0.320738634684 0.198933840507 -6.05119694141e-21)
(166.111726498 -0.363948559926 -1.86114028859e-20)
(167.153117318 -0.958338335161 -1.31487626422e-19)
(168.866432776 -1.51898500595 -5.64594918453e-20)
(171.637340485 -1.93597010032 -2.92198581452e-20)
(175.384069275 -2.13205381887 7.45587878171e-21)
(180.09305607 -2.07141687329 1.18107165547e-20)
(185.737636755 -1.67994160168 1.10237777909e-20)
(192.336279475 -0.835389980448 1.19236951963e-20)
(199.896963526 0.574622075491 -1.81222471315e-20)
(208.323268809 2.67542741833 3.01475107806e-20)
(217.507298232 5.69429921464 -5.43215673984e-21)
(227.543537943 9.81272730876 4.57313142349e-20)
(238.27788586 15.116988148 -8.57616990222e-20)
(249.582882184 21.6421625647 -2.85543370307e-19)
(262.590569289 27.9809440426 1.5229006591e-18)
(270.420569989 36.5048233722 6.13536218194e-19)
(282.011784964 51.7071940699 -2.46016183662e-19)
(218.57340247 28.9727522431 7.53394171933e-18)
(4.80050850155 2.50378247332 1.77619793026e-18)
(0.289094006518 0.179596701609 4.53055528957e-20)
(166.321949144 0.0952016871712 -4.30878647895e-20)
(167.325263258 0.391105170354 -1.14844453789e-19)
(168.940818407 0.731196073335 -5.48442146837e-20)
(171.496122002 1.2155278567 -2.53145354642e-20)
(175.003603991 1.94699662208 1.63782092052e-20)
(179.419142623 2.91211445553 2.85423638856e-21)
(184.690018246 4.21020728878 -2.35556496788e-21)
(190.796304797 5.96627694944 -3.1152867077e-21)
(197.7698731 8.23848117319 2.62145383202e-20)
(205.545332252 11.0615204756 5.69224910007e-21)
(213.532702976 14.8135174385 3.94677604352e-20)
(222.538333017 19.6775235894 -1.64215528386e-20)
(231.964828202 25.5867736937 -1.98395653282e-19)
(241.508786836 33.7206937278 -8.8399883075e-20)
(251.488688717 37.4519690622 7.4657252142e-19)
(263.439871389 46.9051481681 -4.14194045408e-18)
(275.678261537 69.8743651301 -1.23262384174e-17)
(204.263022632 41.4525780079 3.27690874143e-18)
(8.77346943284 3.018859854 5.98320623112e-19)
(0.303149083118 0.211759296129 -5.97251463935e-20)
(165.652832952 0.535037682043 2.79847832042e-20)
(166.598309359 1.68010344069 -3.01121928816e-20)
(168.067929353 2.80699533827 3.97665643414e-20)
(170.509200269 4.10356237799 1.09044180193e-20)
(173.792472866 5.72067842004 2.3042302428e-20)
(177.880532512 7.54730100765 9.52139326768e-21)
(182.746756531 9.66026115063 2.32820919147e-21)
(188.374746804 12.2419994113 -2.77661817467e-20)
(194.718270954 15.3513351078 1.38724972156e-20)
(201.716339882 18.4957821732 5.005089558e-21)
(209.266246726 22.7798404507 -6.02312761594e-20)
(217.259185748 28.3867605936 8.9077238494e-20)
(225.391153135 34.2771512991 -3.38311621678e-19)
(233.37822951 41.2601272733 -6.37854016824e-19)
(240.17902619 49.1957826443 -7.84102897601e-19)
(253.252385895 59.4470130084 -7.52320673849e-18)
(260.9612252 76.3624982301 -1.90645029791e-17)
(188.554251541 44.9092114991 -5.71100408841e-18)
(9.94377791986 3.27925193538 -1.84299976005e-18)
(0.426609105009 0.204204327308 -1.13697204177e-19)
(164.186777115 0.937336272861 1.59919261631e-19)
(165.044477757 2.82698083565 5.17769399721e-20)
(166.37693082 4.78103954359 6.51939937255e-20)
(168.707116892 6.88584403764 1.78797996713e-20)
(171.771504227 9.22289857672 4.84571826422e-21)
(175.538796826 11.7891183143 1.08913493308e-20)
(180.028193179 14.6702119059 9.98693156491e-21)
(185.221549559 17.9401267549 -2.3656865851e-21)
(191.019375598 21.6049412496 6.54656757286e-21)
(197.34954286 25.6531216354 -1.85772203662e-21)
(204.638024209 30.4264802916 -3.85858862395e-20)
(211.791250153 35.9176554045 -3.23022539141e-20)
(219.040622599 41.8511638499 -3.49622566921e-19)
(226.214846639 48.6005377077 -9.79026424061e-20)
(232.768781224 56.7733616331 1.23377546687e-18)
(239.124075892 65.5264250864 -1.78287241131e-18)
(243.990679982 78.6358338862 4.88857922378e-18)
(171.499673317 46.2661003778 -2.92157574523e-18)
(11.0872099198 2.79932217686 -1.95973308029e-18)
(0.468478371747 -0.0200681105272 -2.0785666382e-19)
(161.960622945 1.31035261219 1.43202760236e-19)
(162.762318925 3.9123765959 4.67256776585e-20)
(164.004428929 6.61324017928 -1.0988667085e-20)
(166.129363298 9.45023618025 1.78769152464e-21)
(168.972432991 12.4864180996 -2.77826108932e-21)
(172.477682866 15.7593824644 2.91308458126e-20)
(176.659492882 19.3200288187 -1.41337929406e-22)
(181.468291422 23.2338830519 -6.97783054126e-21)
(186.871830436 27.4995595842 4.15586037145e-20)
(192.838369855 32.153501011 -1.07493844157e-20)
(199.370606137 37.2799999886 -2.65935583979e-20)
(206.080054645 42.8790765405 2.4983679207e-20)
(212.913999365 48.825775828 -2.37888099103e-19)
(219.571245709 55.0834905591 -1.59835990715e-19)
(225.393740457 61.7387341636 -4.28393960052e-19)
(229.580525607 67.8914619783 -2.51489492857e-18)
(232.331925547 76.4231265316 8.41295646637e-18)
(159.320237237 43.8147621763 1.4959821016e-17)
(13.0530162238 2.49878825131 -4.2170585969e-19)
(1.32944945377 -0.927689503938 -1.0547200269e-19)
(159.032759918 1.65892367175 7.1204032912e-20)
(159.779692423 4.92856309493 1.84609226731e-21)
(160.915623516 8.3062567643 -7.74476980522e-20)
(162.872483298 11.8225695832 -2.7865244266e-20)
(165.506333797 15.5234794542 9.67181094881e-21)
(168.763453005 19.447011044 7.49806434042e-21)
(172.638469414 23.6412610448 7.96985419067e-21)
(177.109668151 28.1439517161 4.82556717363e-20)
(182.145023211 32.9861419124 3.07278458184e-20)
(187.742772906 38.1823499037 3.6048388694e-20)
(193.83638772 43.7252005281 -1.06849859923e-20)
(200.336471124 49.5426061755 3.89927237541e-20)
(207.005953727 55.437110319 -4.86996365287e-20)
(213.663926115 61.1789499116 -3.06370184026e-19)
(219.788229813 66.544682023 -4.59084018485e-19)
(224.776013612 69.8445826621 -1.11513732748e-18)
(227.632442127 73.6529875833 -1.94142976798e-17)
(148.352710604 42.1424071243 6.68839649204e-19)
(10.2062493092 2.48731681463 -5.83030066599e-19)
(0.734840403641 1.31677259215 1.165291081e-19)
(155.457954644 1.98125496666 3.31680148996e-20)
(156.143342826 5.8648819857 -2.9481984402e-20)
(157.170924513 9.86795437596 -2.86377814651e-20)
(158.973988452 14.0072646634 -1.4419383415e-20)
(161.400457692 18.322443958 1.32633703876e-20)
(164.414701593 22.8593938013 1.87561212911e-21)
(168.0002084 27.6598553898 4.8054135419e-21)
(172.152906719 32.7525679555 9.43751732332e-21)
(176.872143469 38.1581816461 1.30332114029e-20)
(182.151185201 43.8819776874 7.87889040784e-21)
(187.974860571 49.9256289568 -3.59216342412e-20)
(194.318511522 56.1165201433 1.9067459867e-19)
(201.100752677 62.221547046 -1.02782412462e-19)
(208.294015249 67.9727557645 -1.58679631746e-19)
(215.68000359 72.8915894858 1.70862305745e-18)
(222.730463353 75.2722574888 -4.74558476705e-18)
(228.901611467 75.9214112127 -2.81334478012e-19)
(138.050110413 43.4733771435 -6.26617626755e-19)
(4.41559305209 1.45187193343 -2.69674566504e-19)
(-1.17377741719 0.487048647621 4.36549613828e-19)
(151.286469146 2.27380887014 6.83801065778e-21)
(151.908001281 6.72127009293 1.32896001002e-20)
(152.829706679 11.2973201455 -5.21575619305e-21)
(154.474491012 16.0107092153 -4.8394192948e-21)
(156.698309525 20.901117554 8.97023578313e-21)
(159.465914043 26.0159567903 3.89105275081e-21)
(162.770784687 31.3944551593 5.96083552637e-21)
(166.622599911 37.0644901379 -3.78030389779e-20)
(171.032568364 43.0437381957 4.26985538857e-21)
(176.01834592 49.3413177429 1.39683550204e-21)
(181.612651133 55.9474750761 1.4778818823e-20)
(187.818196899 62.7259535986 2.3761215457e-20)
(194.815256029 69.4557388891 -7.49142526754e-20)
(202.668313157 75.8346913614 -5.43051101014e-19)
(211.527699444 81.3928553173 -8.13743114082e-20)
(220.859201427 84.6075729982 2.38064080171e-19)
(231.703038635 83.6051604873 -5.1143556338e-18)
(136.978797038 47.7199667817 4.5217321553e-18)
(2.8344214543 1.11453737324 -6.12587807119e-19)
(-0.800698250859 -0.843243537139 -1.08724516728e-19)
(146.573520707 2.53954159035 2.57862915842e-20)
(147.129490397 7.49857770028 -2.30635014736e-20)
(147.942684707 12.5930867061 1.06807979237e-20)
(149.430102868 17.8299382676 -5.10113293603e-22)
(151.448413191 23.246611674 7.28145197783e-21)
(153.959136188 28.8904207791 -1.2261331786e-20)
(156.976079121 34.803279814 1.08134966417e-21)
(160.519894352 41.0294585337 -1.09036647418e-21)
(164.608611953 47.5962344598 -1.24295884253e-21)
(169.277023915 54.5181287436 -8.04284728078e-22)
(174.591247017 61.7866654875 6.55059334842e-22)
(180.652086366 69.3691214063 -2.15547041627e-20)
(187.674125958 77.0997510019 -1.44869055658e-19)
(195.9867578 84.7359654952 2.04245737268e-21)
(205.933724775 91.7214497321 4.2940787384e-19)
(217.507004046 97.3421502341 8.27714777126e-19)
(231.886820683 97.3136454029 8.94894900357e-18)
(135.785737122 52.4291000238 2.86803547851e-19)
(2.28848897346 0.889063753313 -3.7158703607e-19)
(0.103465661398 -0.12441114634 5.26986013005e-21)
(141.369512542 2.78054066601 -9.37191272538e-21)
(141.856607823 8.1991596144 3.99769729012e-20)
(142.559678531 13.7585575687 2.86798814896e-20)
(143.88745818 19.4681136475 1.04090692173e-20)
(145.696024304 25.358082387 7.5795104553e-21)
(147.947899732 31.4859698464 5.36046234193e-21)
(150.660171862 37.9052549782 1.81419934858e-20)
(153.860243895 44.6624154915 -1.0904813907e-21)
(157.580744382 51.804257761 1.02068939789e-20)
(161.865700932 59.3658090931 5.99684407234e-21)
(166.796707055 67.3756344771 7.86903513464e-22)
(172.536845927 75.8510490482 -3.60754643316e-20)
(179.312117435 84.8107375468 -5.61445051511e-21)
(187.558728157 94.1347858716 -1.04246705832e-19)
(197.840113385 103.715158339 6.43288082646e-19)
(210.637146047 113.297043694 -2.0049176751e-18)
(223.873220176 114.005144343 -1.13724171649e-17)
(125.822581471 56.1827222556 -3.55444362901e-18)
(1.26644770215 0.516433538445 -2.43309404159e-19)
(-0.16703828608 0.222409763746 -6.32326441941e-19)
(135.725059933 2.99417516814 6.77242010283e-21)
(136.139802064 8.81705350479 5.28737715482e-20)
(136.73172981 14.7883279737 -2.13661083141e-20)
(137.895549299 20.9182531619 -1.02979099858e-20)
(139.485368758 27.235281635 4.52299351329e-22)
(141.468070766 33.8009947152 6.09954774325e-21)
(143.852739808 40.675333438 9.39159125007e-22)
(146.668313088 47.9200414947 7.8058699545e-23)
(149.959308239 55.6029156787 1.65005963048e-20)
(153.772256238 63.7868779331 2.25703132678e-20)
(158.181859037 72.5310379014 -2.33857612155e-21)
(163.338561674 81.9304666094 -4.004944481e-20)
(169.485405376 92.1363801532 -6.08307735294e-20)
(176.970067827 103.30699003 -1.33068215286e-19)
(186.468255151 115.817515457 8.10063175187e-19)
(197.592042715 130.09593045 6.17589714884e-19)
(206.239139217 131.074395479 -1.64700966726e-17)
(112.369354068 61.3564132387 -1.99952528639e-19)
(0.524158469228 0.289526287791 -4.43423272247e-20)
(-0.0916539675266 0.43944530673 -3.96956020735e-20)
(129.699582723 3.17403070887 6.12791463479e-21)
(130.034055992 9.34715189851 -1.80894961454e-20)
(130.51591703 15.6791652366 -2.62563768104e-20)
(131.51302219 22.1741701334 -1.44403432432e-20)
(132.874238086 28.8608846717 1.2378782603e-20)
(134.567790648 35.8080714387 -8.3506080809e-22)
(136.603169785 43.0822234418 3.6284142594e-21)
(139.005543892 50.7531763479 2.71358471851e-21)
(141.810937405 58.8992519027 9.44294791907e-22)
(145.069410232 67.6099053775 7.2212786237e-21)
(148.825697541 76.9943014449 -6.80619050943e-21)
(153.181668209 87.1987829487 -8.3974458772e-20)
(158.288698246 98.4586057831 -2.01232194406e-20)
(164.353252917 111.169128588 1.31769590035e-19)
(171.531948077 125.57480561 -4.8812645758e-19)
(179.05324362 143.072475857 -9.05207158789e-19)
(183.356536021 148.235907714 -8.47804602751e-20)
(101.022108902 69.7698390361 3.83076030384e-18)
(0.273721983965 0.18949367656 -5.96330651694e-21)
(-0.0274295983788 0.31859357097 -6.02832757446e-20)
(123.340838895 3.31802118359 -1.72508255855e-20)
(123.604843365 9.78554741073 1.00241035045e-19)
(123.972398488 16.4308499767 -2.16723178299e-20)
(124.79220719 23.2290519742 -1.47639673339e-21)
(125.919214596 30.2224584089 7.68620154568e-21)
(127.314500237 37.4889342851 9.98863437468e-21)
(128.983284866 45.0952404262 4.29175546693e-21)
(130.944071471 53.1192874985 -1.36403845169e-22)
(133.222169316 61.6548855384 2.43745331407e-21)
(135.844298592 70.7912700743 3.88913439341e-20)
(138.849371005 80.6594095044 -8.92329382489e-21)
(142.275672811 91.4310979851 -5.41952319986e-20)
(146.167654773 103.32008895 2.20786612667e-20)
(150.558415875 116.62444524 -4.88625944123e-19)
(154.968303354 131.918917968 -1.29929308251e-18)