/*--------------------------------*- C++ -*----------------------------------*\
| =========                 |                                                 |
| \\      /  F ield         | OpenFOAM: The Open Source CFD Toolbox           |
|  \\    /   O peration     | Version:  v2012                                 |
|   \\  /    A nd           | Website:  www.openfoam.com                      |
|    \\/     M anipulation  |                                                 |
\*---------------------------------------------------------------------------*/
FoamFile
{
    version     2.0;
    format      ascii;
    class       surfaceScalarField;
    location    "5.4";
    object      phi;
}
// * * * * * * * * * * * * * * * * * * * * * * * * * * * * * * * * * * * * * //

dimensions      [0 3 -1 0 0 0 0];
oriented        oriented;


internalField   nonuniform List<scalar> 
300
(
4.06637289061e-06
0.000224025365516
4.74934342204e-06
0.000230789693509
5.64149553354e-06
0.000238205772671
6.81234563029e-06
0.000246348256584
7.97982726406e-06
0.000255212435234
9.14847786854e-06
0.000264694941447
9.73427111367e-06
0.00027612344636
9.35029266424e-06
0.000290524096133
9.0743920088e-06
0.000302308593808
1.8176844986e-05
0.000312579103287
4.26106779989e-05
0.00023150637085
0.000664173595955
1.09971947248e-05
1.24463136528e-05
1.40996208559e-05
0.000236552340718
1.59622735768e-05
0.000244485241014
1.7987865202e-05
0.000253186177748
1.97679869019e-05
0.000262913877149
2.08367323432e-05
0.000275053633133
2.08348300665e-05
0.000290525100404
2.18545714997e-05
0.000301288644875
1.89735352369e-05
0.000315458198484
2.22274508701e-05
0.000228212411857
-3.83916858256e-05
2.25876709527e-05
0.000234218233151
2.50733784772e-05
0.000241999016947
2.76822526193e-05
0.000250576460938
3.02069604568e-05
0.000260388053252
3.17238000329e-05
0.000273535579089
3.17371494946e-05
0.000290510740204
3.11547058016e-05
0.000301870576301
3.23020215427e-05
0.000314311488069
2.79783920039e-05
0.000232529002962
4.88706772895e-05
3.07950388175e-05
0.000231054121844
3.40931527651e-05
0.00023870021331
3.75236564733e-05
0.000247144879211
4.06993649116e-05
0.000257210967382
4.26064133306e-05
0.000271627068044
4.27033007895e-05
0.000290412644248
4.26605178751e-05
0.000301912834171
4.33428681142e-05
0.000313628622485
3.28161261185e-05
0.000243035324433
0.000168362916881
3.88587327418e-05
0.00022709179166
4.29763649351e-05
0.000234581693234
4.72465869647e-05
0.000242873291285
5.1273908478e-05
0.000253181935412
5.36513656339e-05
0.000269247822873
5.30512887212e-05
0.000291011256561
5.1470333371e-05
0.000303493007284
4.77310269029e-05
0.000317368264686
1.43819940474e-05
0.000276387358064
0.000237256641902
4.65767247325e-05
0.000222497561413
5.14103683184e-05
0.000229746912284
5.64808398836e-05
0.000237801109087
6.11521687565e-05
0.00024850850617
6.36237389287e-05
0.000266774091832
6.2842067559e-05
0.000291791184229
5.88555249906e-05
0.000307478630387
5.45298600785e-05
0.000321694142168
2.89605056539e-05
0.000301960410548
0.00030438302735
5.3727145183e-05
0.000217478511258
5.89428847753e-05
0.000224529730521
6.42807429497e-05
0.00023246116198
6.90019657535e-05
0.000243784782483
7.14513563879e-05
0.00026432218266
7.04682043715e-05
0.000292772349334
6.497345992e-05
0.000312972335571
5.840238951e-05
0.000328266110549
1.74632609118e-05
0.00034292454125
0.00038824860302
6.03070970604e-05
0.00021227683728
6.53717264266e-05
0.000219463356617
7.00937997041e-05
0.000227736665518
7.37856121678e-05
0.000240090152565
7.6043640959e-05
0.000262061388596
7.70358707245e-05
0.000291777987137
7.72967563103e-05
0.000312711117723
7.87134487695e-05
0.000326844980964
5.72122340201e-05
0.000364328234518
0.000571159991339
6.68133456322e-05
0.000206980995323
7.15188246799e-05
0.000214755954968
7.51924746378e-05
0.000224060416177
7.7683494943e-05
0.000237596180411
7.99202097789e-05
0.000259821835948
8.30426915675e-05
0.000288653351236
8.44212405121e-05
0.000311331547883
7.84049098937e-05
0.000332861822383
5.45557178822e-07
0.000442178959028
0.000885067485904
7.39376213368e-05
0.000201493119652
7.84113199632e-05
0.000210280401843
8.16002691955e-05
0.000220868919576
8.39920051667e-05
0.000235201552021
8.76173019988e-05
0.00025619376409
9.38117707413e-05
0.000282456776126
9.65995322606e-05
0.000308542263599
9.68725249757e-05
0.000332592796702
6.52311653342e-05
0.000473886056893
0.000643084680339
8.21545080237e-05
0.000195368638272
8.72483593886e-05
0.000205185016992
9.12011141333e-05
0.000216913832947
9.50118951287e-05
0.000231388010638
0.000101454839893
0.000249748099678
0.000112696823303
0.000271212674295
0.000125898727817
0.000295339833103
0.000147280263625
0.000311206967012
0.000262525878991
0.000358579612239
-0.000327350255235
9.1751751968e-05
0.000187977174873
9.84047490375e-05
0.000198530852904
0.000104366753433
0.000210949618866
0.000110551187322
0.000225200749418
0.000119826327913
0.000240470036623
0.000134501463598
0.000256535166945
0.000152328135622
0.00027751174065
0.000166535778852
0.000297001624734
0.000125675387775
0.000399455896707
-3.41910545652e-05
0.000102282816839
0.000179105256923
0.000110833731281
0.000189978751966
0.000119205783891
0.000202574981988
0.000128313166346
0.000216089860717
0.000139964706641
0.000228814749043
0.000155477873133
0.000241018878727
0.000174689902066
0.000258298150334
0.000192744165667
0.000278945419672
0.000192182093379
0.000400030308639
0.000255500909324
0.000113293687573
0.000168681893964
0.000123731004648
0.000179538235871
0.000134240825898
0.000192059780519
0.000145483475489
0.000204840334454
0.00015868127131
0.00021560982514
0.000173656360197
0.000226037778917
0.000189542405166
0.000242408387094
0.000201048276852
0.000267441216306
0.000166293507361
0.000434927997267
0.000410618145767
0.000124832465286
0.000156523755051
0.000137250694951
0.000167112741025
0.000150123416978
0.000179176297227
0.000163369414581
0.000191581821071
0.000177321822915
0.000201644835364
0.000190614673009
0.000212735471652
0.000205063830691
0.000227954933752
0.000224234152272
0.0002482641517
0.000208539006715
0.000450897945038
0.000550186042923
0.000136338647618
0.00015109437842
0.000166586700006
0.000181717812434
0.000195378963158
0.000205694667253
0.000215337245066
0.00022574239582
0.00025274407663
)
;

boundaryField
{
    back
    {
        type            calculated;
        value           uniform 0;
    }
    sides
    {
        type            calculated;
        value           nonuniform List<scalar> 0();
    }
    bottom
    {
        type            calculated;
        value           nonuniform List<scalar> 0();
    }
    front
    {
        type            calculated;
        value           uniform 0;
    }
    atmosphere
    {
        type            calculated;
        value           nonuniform List<scalar> 
16
(
-0.000166550655212
0.000724863208316
-5.9292923238e-05
-8.66577278484e-05
-5.45147884737e-05
-3.81711216322e-05
-6.64229151901e-05
-0.000125587878883
-0.000313441708773
0.000307183462319
0.0012330160742
-0.00016750007554
-9.7528537709e-05
1.10434875684e-05
6.87388116657e-05
0.000239303738544
)
;
    }
    floatingObject
    {
        type            calculated;
        value           nonuniform List<scalar> 0();
    }
    procBoundary5to0
    {
        type            processor;
        value           nonuniform List<scalar> 
12
(
-0.000224577598968
-0.000231472341135
-0.000239097854196
-0.000247519406817
-0.000256380685048
-0.000265864833545
-0.000276710780849
-0.000290141524234
-0.000302033560103
-0.000321680093026
-0.000255923497261
-0.00045504143959
)
;
    }
    procBoundary5to3
    {
        type            processor;
        value           nonuniform List<scalar> 10(0.000142606073149 0.000152346385558 0.000163669477764 0.000176433976912 0.000187968145118 0.000202407964339 0.000218309056052 0.000237843009274 0.000423635410841 0.000564402099336);
    }
    procBoundary5to4
    {
        type            processor;
        value           nonuniform List<scalar> 
18
(
-3.51337073052e-06
-9.61553226204e-06
0.000222644022127
0.000229340623337
-2.02537891995e-05
-2.76312806695e-05
-3.48968239582e-05
-4.19829982023e-05
-4.8708766315e-05
-5.51063343116e-05
-6.15185775142e-05
-6.84506686753e-05
-7.60303384597e-05
-8.43596948559e-05
-9.34097181487e-05
-0.000102870314109
-0.000112676227797
-0.000122427253626
)
;
    }
}


// ************************************************************************* //
