/*--------------------------------*- C++ -*----------------------------------*\
| =========                 |                                                 |
| \\      /  F ield         | OpenFOAM: The Open Source CFD Toolbox           |
|  \\    /   O peration     | Version:  v2012                                 |
|   \\  /    A nd           | Website:  www.openfoam.com                      |
|    \\/     M anipulation  |                                                 |
\*---------------------------------------------------------------------------*/
FoamFile
{
    version     2.0;
    format      ascii;
    class       volScalarField;
    location    "5.3";
    object      epsilon_0;
}
// * * * * * * * * * * * * * * * * * * * * * * * * * * * * * * * * * * * * * //

dimensions      [0 2 -3 0 0 0 0];


internalField   nonuniform List<scalar> 
164
(
0.000624334947712
0.00063035238667
0.000637263250927
0.000646203952746
0.000661054503361
0.000693844400826
0.000781608973885
0.0010427457792
0.00183314393258
0.00396931298559
0.00901496550793
0.0220919844686
0.0916371848066
0.000493556531349
0.000516463044375
0.000569281415838
0.00059167844734
0.000609590411448
0.000615468457933
0.000621405110934
0.000627882619735
0.00063526023957
0.000644523384123
0.000659312778037
0.000691532845719
0.000779149550204
0.00104632088499
0.00185780477363
0.00401866882841
0.00918514684322
0.0250077875663
0.133614351528
0.000489071633723
0.000512401729321
0.000564996322931
0.000587408500739
0.0005984938474
0.000605618724735
0.000611676653035
0.000617855361685
0.000624767959249
0.000632756410973
0.00064265045701
0.000658218961198
0.000691859816343
0.000781817217062
0.00105598186933
0.00188688583368
0.00408216824037
0.009547412331
0.0292740331527
0.148616910682
0.000484515311878
0.000508359876965
0.000560720037812
0.000583059854381
0.000594075689056
0.000601001623266
0.000606669269568
0.000612472726367
0.000619524001107
0.000628237747353
0.000638990394366
0.000656038488807
0.000694201215992
0.00079073151602
0.00107413983486
0.00192439398106
0.00414603787566
0.00958447335779
0.0291002415397
0.146656201431
0.000480053946721
0.00050448508286
0.000556568577621
0.000578654524026
0.000589145928303
0.000594906230512
0.000598476844505
0.000601682234138
0.000607390205368
0.000616595774723
0.000628054053611
0.000647295145356
0.000697276813075
0.00080983325204
0.00111271357272
0.00199050396744
0.0042201462329
0.00927787370578
0.0223471542383
0.074221274671
0.000475790655091
0.000500896744024
0.00055264133204
0.000574140184496
0.000583212019609
0.000585561095358
0.000582181973874
0.000573855397614
0.000572231294533
0.000580604417582
0.00059269249535
0.000616466904652
0.000697331184361
0.000844674202556
0.00118621316482
0.00210240856015
0.00430435027369
0.00901807405622
0.0197704430933
0.0521782276712
0.0004718867347
0.000497758624388
0.000549091275862
0.000569647304876
0.000576187320559
0.000571849015018
0.000551787919248
0.00050581296525
0.000598906237029
0.00059705769982
0.000614958660384
0.000685275608241
0.000685402873047
0.000914081123747
0.00132025889559
0.00227658690761
0.00442388856581
0.00906558687277
0.0226546936664
0.0843833816489
0.000468431305902
0.00049503302232
0.00054603467442
0.000565653264484
0.000570007918489
0.000560568377568
0.000526133483802
0.000545634672594
0.000466191430332
0.000493525759195
0.000544400818528
0.000563473364099
0.00056644027325
0.000553922441661
0.0005124862094
0.000506044975822
0.000466140108214
0.000493497597087
0.000544380377876
0.000563459481461
0.000566429638019
0.000553910483886
0.000512496916912
0.000506183223354
0.000468362020616
0.000494974081816
0.00054599106404
0.000565617961905
0.000569974920198
0.00056053324724
0.00052612843648
0.000545702235686
)
;

boundaryField
{
    back
    {
        lowReCorrection 0;
        blending        stepwise;
        n               2;
        type            epsilonWallFunction;
        value           nonuniform List<scalar> 
164
(
0.000624334947712
0.00063035238667
0.000637263250927
0.000646203952746
0.000661054503361
0.000693844400826
0.000781608973885
0.0010427457792
0.00183314393258
0.00396931298559
0.00901496550793
0.0220919844686
0.0916371848066
0.000493556531349
0.000516463044375
0.000569281415838
0.00059167844734
0.000609590411448
0.000615468457933
0.000621405110934
0.000627882619735
0.00063526023957
0.000644523384123
0.000659312778037
0.000691532845719
0.000779149550204
0.00104632088499
0.00185780477363
0.00401866882841
0.00918514684322
0.0250077875663
0.133614351528
0.000489071633723
0.000512401729321
0.000564996322931
0.000587408500739
0.0005984938474
0.000605618724735
0.000611676653035
0.000617855361685
0.000624767959249
0.000632756410973
0.00064265045701
0.000658218961198
0.000691859816343
0.000781817217062
0.00105598186933
0.00188688583368
0.00408216824037
0.009547412331
0.0292740331527
0.148616910682
0.000484515311878
0.000508359876965
0.000560720037812
0.000583059854381
0.000594075689056
0.000601001623266
0.000606669269568
0.000612472726367
0.000619524001107
0.000628237747353
0.000638990394366
0.000656038488807
0.000694201215992
0.00079073151602
0.00107413983486
0.00192439398106
0.00414603787566
0.00958447335779
0.0291002415397
0.146656201431
0.000480053946721
0.00050448508286
0.000556568577621
0.000578654524026
0.000589145928303
0.000594906230512
0.000598476844505
0.000601682234138
0.000607390205368
0.000616595774723
0.000628054053611
0.000647295145356
0.000697276813075
0.00080983325204
0.00111271357272
0.00199050396744
0.0042201462329
0.00927787370578
0.0223471542383
0.074221274671
0.000475790655091
0.000500896744024
0.00055264133204
0.000574140184496
0.000583212019609
0.000585561095358
0.000582181973874
0.000573855397614
0.000572231294533
0.000580604417582
0.00059269249535
0.000616466904652
0.000697331184361
0.000844674202556
0.00118621316482
0.00210240856015
0.00430435027369
0.00901807405622
0.0197704430933
0.0521782276712
0.0004718867347
0.000497758624388
0.000549091275862
0.000569647304876
0.000576187320559
0.000571849015018
0.000551787919248
0.00050581296525
0.000598906237029
0.00059705769982
0.000614958660384
0.000685275608241
0.000685402873047
0.000914081123747
0.00132025889559
0.00227658690761
0.00442388856581
0.00906558687277
0.0226546936664
0.0843833816489
0.000468431305902
0.00049503302232
0.00054603467442
0.000565653264484
0.000570007918489
0.000560568377568
0.000526133483802
0.000545634672594
0.000466191430332
0.000493525759195
0.000544400818528
0.000563473364099
0.00056644027325
0.000553922441661
0.0005124862094
0.000506044975822
0.000466140108214
0.000493497597087
0.000544380377876
0.000563459481461
0.000566429638019
0.000553910483886
0.000512496916912
0.000506183223354
0.000468362020616
0.000494974081816
0.00054599106404
0.000565617961905
0.000569974920198
0.00056053324724
0.00052612843648
0.000545702235686
)
;
    }
    sides
    {
        lowReCorrection 0;
        blending        stepwise;
        n               2;
        type            epsilonWallFunction;
        value           nonuniform List<scalar> 0();
    }
    bottom
    {
        lowReCorrection 0;
        blending        stepwise;
        n               2;
        type            epsilonWallFunction;
        value           nonuniform List<scalar> 10(0.000493556531349 0.000489071633723 0.000484515311878 0.000480053946721 0.000475790655091 0.0004718867347 0.000468431305902 0.000466191430332 0.000466140108214 0.000468362020616);
    }
    front
    {
        lowReCorrection 0;
        blending        stepwise;
        n               2;
        type            epsilonWallFunction;
        value           nonuniform List<scalar> 
164
(
0.000624334947712
0.00063035238667
0.000637263250927
0.000646203952746
0.000661054503361
0.000693844400826
0.000781608973885
0.0010427457792
0.00183314393258
0.00396931298559
0.00901496550793
0.0220919844686
0.0916371848066
0.000493556531349
0.000516463044375
0.000569281415838
0.00059167844734
0.000609590411448
0.000615468457933
0.000621405110934
0.000627882619735
0.00063526023957
0.000644523384123
0.000659312778037
0.000691532845719
0.000779149550204
0.00104632088499
0.00185780477363
0.00401866882841
0.00918514684322
0.0250077875663
0.133614351528
0.000489071633723
0.000512401729321
0.000564996322931
0.000587408500739
0.0005984938474
0.000605618724735
0.000611676653035
0.000617855361685
0.000624767959249
0.000632756410973
0.00064265045701
0.000658218961198
0.000691859816343
0.000781817217062
0.00105598186933
0.00188688583368
0.00408216824037
0.009547412331
0.0292740331527
0.148616910682
0.000484515311878
0.000508359876965
0.000560720037812
0.000583059854381
0.000594075689056
0.000601001623266
0.000606669269568
0.000612472726367
0.000619524001107
0.000628237747353
0.000638990394366
0.000656038488807
0.000694201215992
0.00079073151602
0.00107413983486
0.00192439398106
0.00414603787566
0.00958447335779
0.0291002415397
0.146656201431
0.000480053946721
0.00050448508286
0.000556568577621
0.000578654524026
0.000589145928303
0.000594906230512
0.000598476844505
0.000601682234138
0.000607390205368
0.000616595774723
0.000628054053611
0.000647295145356
0.000697276813075
0.00080983325204
0.00111271357272
0.00199050396744
0.0042201462329
0.00927787370578
0.0223471542383
0.074221274671
0.000475790655091
0.000500896744024
0.00055264133204
0.000574140184496
0.000583212019609
0.000585561095358
0.000582181973874
0.000573855397614
0.000572231294533
0.000580604417582
0.00059269249535
0.000616466904652
0.000697331184361
0.000844674202556
0.00118621316482
0.00210240856015
0.00430435027369
0.00901807405622
0.0197704430933
0.0521782276712
0.0004718867347
0.000497758624388
0.000549091275862
0.000569647304876
0.000576187320559
0.000571849015018
0.000551787919248
0.00050581296525
0.000598906237029
0.00059705769982
0.000614958660384
0.000685275608241
0.000685402873047
0.000914081123747
0.00132025889559
0.00227658690761
0.00442388856581
0.00906558687277
0.0226546936664
0.0843833816489
0.000468431305902
0.00049503302232
0.00054603467442
0.000565653264484
0.000570007918489
0.000560568377568
0.000526133483802
0.000545634672594
0.000466191430332
0.000493525759195
0.000544400818528
0.000563473364099
0.00056644027325
0.000553922441661
0.0005124862094
0.000506044975822
0.000466140108214
0.000493497597087
0.000544380377876
0.000563459481461
0.000566429638019
0.000553910483886
0.000512496916912
0.000506183223354
0.000468362020616
0.000494974081816
0.00054599106404
0.000565617961905
0.000569974920198
0.00056053324724
0.00052612843648
0.000545702235686
)
;
    }
    atmosphere
    {
        type            inletOutlet;
        inletValue      uniform 0.1;
        value           nonuniform List<scalar> 7(0.1 0.1 0.1 0.1 0.1 0.0521782276712 0.1);
    }
    floatingObject
    {
        lowReCorrection 0;
        blending        stepwise;
        n               2;
        type            epsilonWallFunction;
        value           nonuniform List<scalar> 8(0.000598906237029 0.00059705769982 0.000614958660384 0.000685275608241 0.000545634672594 0.000506044975822 0.000506183223354 0.000545702235686);
    }
    procBoundary3to4
    {
        type            processor;
        value           nonuniform List<scalar> 
13
(
0.000627024364483
0.000632645616605
0.000639208904094
0.000497860607746
0.000520436786807
0.00057348637942
0.000595814273652
0.000613242065643
0.000618787682278
0.000618787682278
0.000602626646827
0.000602626646827
0.000602626646827
)
;
    }
    procBoundary3to5
    {
        type            processor;
        value           nonuniform List<scalar> 10(0.000648084339567 0.000663564506955 0.000698166867141 0.000788065046076 0.0010457208728 0.00181841744612 0.00395141159995 0.00918073435266 0.0224088298801 0.0616157982953);
    }
    procBoundary3to6
    {
        type            processor;
        value           nonuniform List<scalar> 8(0.000944808222428 0.00107020919896 0.00153037434483 0.00249417982386 0.00455195135254 0.00900998046772 0.0239180125469 0.124328492285);
    }
    procBoundary3to8
    {
        type            processor;
        value           nonuniform List<scalar> 8(0.000471818609377 0.000497700519839 0.000549044786075 0.000569613765761 0.000576151570752 0.000571778781272 0.000551582484882 0.000505514395623);
    }
}


// ************************************************************************* //
