/*--------------------------------*- C++ -*----------------------------------*\
| =========                 |                                                 |
| \\      /  F ield         | OpenFOAM: The Open Source CFD Toolbox           |
|  \\    /   O peration     | Version:  v2012                                 |
|   \\  /    A nd           | Website:  www.openfoam.com                      |
|    \\/     M anipulation  |                                                 |
\*---------------------------------------------------------------------------*/
FoamFile
{
    version     2.0;
    format      ascii;
    class       volScalarField;
    location    "5.3";
    object      k;
}
// * * * * * * * * * * * * * * * * * * * * * * * * * * * * * * * * * * * * * //

dimensions      [0 2 -2 0 0 0 0];


internalField   nonuniform List<scalar> 
164
(
0.00178498665233
0.00179647674652
0.00180958450455
0.00182644766877
0.00185409243271
0.00191392772079
0.0020683438769
0.00249341642899
0.00359261142823
0.00593465324262
0.0101965700318
0.0193916353689
0.0543399399418
0.00125917358603
0.00157172897177
0.00167763059535
0.00172168136806
0.00175657046678
0.00176790471689
0.00177928236442
0.00179164282775
0.00180563260278
0.00182306491203
0.00185058449634
0.00190938501658
0.00206351304348
0.00249742655371
0.00362051208556
0.00598108261989
0.0103694560068
0.0213544580143
0.0653348157651
0.00125144557601
0.00156339806668
0.00166910642757
0.00171329579096
0.00173497369675
0.00174882788499
0.00176053099585
0.00177240978777
0.00178562274919
0.00180076277908
0.00181934422663
0.00184825402023
0.00190955014841
0.00206753899195
0.00251136413969
0.00365571380941
0.0060465923013
0.0106724932356
0.0233167714262
0.0742554521535
0.00124357626704
0.0015550949019
0.00166058975376
0.00170473167792
0.00172632839985
0.00173983103102
0.00175083407813
0.00176206098817
0.00177557987141
0.00179208061461
0.00181225461116
0.00184389495892
0.0019132525419
0.00208221201452
0.0025387813031
0.00370251156705
0.00610863327485
0.0107104967944
0.0232280479394
0.070637371652
0.00123584885833
0.00154712924946
0.00165231135125
0.0016960489485
0.00171667965238
0.00172798267462
0.0017350183619
0.00174134554999
0.0017523949606
0.00176984825592
0.00179144314792
0.00182731623777
0.00191774862677
0.00211364510319
0.0025970351626
0.00378537900461
0.00617571861732
0.0104008266809
0.0195767448938
0.0568580112963
0.00122844798149
0.00153974809007
0.00164447179226
0.00168714638352
0.00170507832161
0.00170985360825
0.00170352101843
0.00168727525255
0.00168465275424
0.00170056391364
0.00172372705395
0.00176892613248
0.00191421589028
0.00216986762642
0.00270680465932
0.00392550215608
0.00626076359937
0.0101813521486
0.0175308285187
0.0392962252414
0.00122165721455
0.00153329739486
0.00163738489943
0.00167829011842
0.00169136836061
0.00168330081829
0.00164438685025
0.00155141660138
0.00143701914606
0.00143200814903
0.00145891322757
0.0015599079832
0.00188165823479
0.00227883950069
0.00290294682575
0.00414176587573
0.00638863492439
0.0102693527881
0.0193382555009
0.0561344985933
0.00121564155676
0.00152768296043
0.00163128406463
0.00167042605744
0.0016792436115
0.00166093948589
0.00159262492897
0.00134706016679
0.00121171351624
0.00152456317912
0.0016280006611
0.00166610324599
0.00167222902676
0.00164786532259
0.00156516718117
0.00128172820522
0.00121161480411
0.00152449940237
0.00162795624711
0.00166607290976
0.00167220457867
0.00164783588037
0.00156518682404
0.00128196481093
0.00121550808498
0.0015275478877
0.00163118767805
0.0016703487423
0.00167917087058
0.00166086225483
0.00159261421632
0.00134716940391
)
;

boundaryField
{
    back
    {
        type            kqRWallFunction;
        value           nonuniform List<scalar> 
164
(
0.00178498665233
0.00179647674652
0.00180958450455
0.00182644766877
0.00185409243271
0.00191392772079
0.0020683438769
0.00249341642899
0.00359261142823
0.00593465324262
0.0101965700318
0.0193916353689
0.0543399399418
0.00125917358603
0.00157172897177
0.00167763059535
0.00172168136806
0.00175657046678
0.00176790471689
0.00177928236442
0.00179164282775
0.00180563260278
0.00182306491203
0.00185058449634
0.00190938501658
0.00206351304348
0.00249742655371
0.00362051208556
0.00598108261989
0.0103694560068
0.0213544580143
0.0653348157651
0.00125144557601
0.00156339806668
0.00166910642757
0.00171329579096
0.00173497369675
0.00174882788499
0.00176053099585
0.00177240978777
0.00178562274919
0.00180076277908
0.00181934422663
0.00184825402023
0.00190955014841
0.00206753899195
0.00251136413969
0.00365571380941
0.0060465923013
0.0106724932356
0.0233167714262
0.0742554521535
0.00124357626704
0.0015550949019
0.00166058975376
0.00170473167792
0.00172632839985
0.00173983103102
0.00175083407813
0.00176206098817
0.00177557987141
0.00179208061461
0.00181225461116
0.00184389495892
0.0019132525419
0.00208221201452
0.0025387813031
0.00370251156705
0.00610863327485
0.0107104967944
0.0232280479394
0.070637371652
0.00123584885833
0.00154712924946
0.00165231135125
0.0016960489485
0.00171667965238
0.00172798267462
0.0017350183619
0.00174134554999
0.0017523949606
0.00176984825592
0.00179144314792
0.00182731623777
0.00191774862677
0.00211364510319
0.0025970351626
0.00378537900461
0.00617571861732
0.0104008266809
0.0195767448938
0.0568580112963
0.00122844798149
0.00153974809007
0.00164447179226
0.00168714638352
0.00170507832161
0.00170985360825
0.00170352101843
0.00168727525255
0.00168465275424
0.00170056391364
0.00172372705395
0.00176892613248
0.00191421589028
0.00216986762642
0.00270680465932
0.00392550215608
0.00626076359937
0.0101813521486
0.0175308285187
0.0392962252414
0.00122165721455
0.00153329739486
0.00163738489943
0.00167829011842
0.00169136836061
0.00168330081829
0.00164438685025
0.00155141660138
0.00143701914606
0.00143200814903
0.00145891322757
0.0015599079832
0.00188165823479
0.00227883950069
0.00290294682575
0.00414176587573
0.00638863492439
0.0102693527881
0.0193382555009
0.0561344985933
0.00121564155676
0.00152768296043
0.00163128406463
0.00167042605744
0.0016792436115
0.00166093948589
0.00159262492897
0.00134706016679
0.00121171351624
0.00152456317912
0.0016280006611
0.00166610324599
0.00167222902676
0.00164786532259
0.00156516718117
0.00128172820522
0.00121161480411
0.00152449940237
0.00162795624711
0.00166607290976
0.00167220457867
0.00164783588037
0.00156518682404
0.00128196481093
0.00121550808498
0.0015275478877
0.00163118767805
0.0016703487423
0.00167917087058
0.00166086225483
0.00159261421632
0.00134716940391
)
;
    }
    sides
    {
        type            kqRWallFunction;
        value           nonuniform List<scalar> 0();
    }
    bottom
    {
        type            kqRWallFunction;
        value           nonuniform List<scalar> 10(0.00125917358603 0.00125144557601 0.00124357626704 0.00123584885833 0.00122844798149 0.00122165721455 0.00121564155676 0.00121171351624 0.00121161480411 0.00121550808498);
    }
    front
    {
        type            kqRWallFunction;
        value           nonuniform List<scalar> 
164
(
0.00178498665233
0.00179647674652
0.00180958450455
0.00182644766877
0.00185409243271
0.00191392772079
0.0020683438769
0.00249341642899
0.00359261142823
0.00593465324262
0.0101965700318
0.0193916353689
0.0543399399418
0.00125917358603
0.00157172897177
0.00167763059535
0.00172168136806
0.00175657046678
0.00176790471689
0.00177928236442
0.00179164282775
0.00180563260278
0.00182306491203
0.00185058449634
0.00190938501658
0.00206351304348
0.00249742655371
0.00362051208556
0.00598108261989
0.0103694560068
0.0213544580143
0.0653348157651
0.00125144557601
0.00156339806668
0.00166910642757
0.00171329579096
0.00173497369675
0.00174882788499
0.00176053099585
0.00177240978777
0.00178562274919
0.00180076277908
0.00181934422663
0.00184825402023
0.00190955014841
0.00206753899195
0.00251136413969
0.00365571380941
0.0060465923013
0.0106724932356
0.0233167714262
0.0742554521535
0.00124357626704
0.0015550949019
0.00166058975376
0.00170473167792
0.00172632839985
0.00173983103102
0.00175083407813
0.00176206098817
0.00177557987141
0.00179208061461
0.00181225461116
0.00184389495892
0.0019132525419
0.00208221201452
0.0025387813031
0.00370251156705
0.00610863327485
0.0107104967944
0.0232280479394
0.070637371652
0.00123584885833
0.00154712924946
0.00165231135125
0.0016960489485
0.00171667965238
0.00172798267462
0.0017350183619
0.00174134554999
0.0017523949606
0.00176984825592
0.00179144314792
0.00182731623777
0.00191774862677
0.00211364510319
0.0025970351626
0.00378537900461
0.00617571861732
0.0104008266809
0.0195767448938
0.0568580112963
0.00122844798149
0.00153974809007
0.00164447179226
0.00168714638352
0.00170507832161
0.00170985360825
0.00170352101843
0.00168727525255
0.00168465275424
0.00170056391364
0.00172372705395
0.00176892613248
0.00191421589028
0.00216986762642
0.00270680465932
0.00392550215608
0.00626076359937
0.0101813521486
0.0175308285187
0.0392962252414
0.00122165721455
0.00153329739486
0.00163738489943
0.00167829011842
0.00169136836061
0.00168330081829
0.00164438685025
0.00155141660138
0.00143701914606
0.00143200814903
0.00145891322757
0.0015599079832
0.00188165823479
0.00227883950069
0.00290294682575
0.00414176587573
0.00638863492439
0.0102693527881
0.0193382555009
0.0561344985933
0.00121564155676
0.00152768296043
0.00163128406463
0.00167042605744
0.0016792436115
0.00166093948589
0.00159262492897
0.00134706016679
0.00121171351624
0.00152456317912
0.0016280006611
0.00166610324599
0.00167222902676
0.00164786532259
0.00156516718117
0.00128172820522
0.00121161480411
0.00152449940237
0.00162795624711
0.00166607290976
0.00167220457867
0.00164783588037
0.00156518682404
0.00128196481093
0.00121550808498
0.0015275478877
0.00163118767805
0.0016703487423
0.00167917087058
0.00166086225483
0.00159261421632
0.00134716940391
)
;
    }
    atmosphere
    {
        type            inletOutlet;
        inletValue      uniform 0.1;
        value           nonuniform List<scalar> 7(0.0543399399418 0.0653348157651 0.1 0.1 0.1 0.0392962252414 0.1);
    }
    floatingObject
    {
        type            kqRWallFunction;
        value           nonuniform List<scalar> 8(0.00143701914606 0.00143200814903 0.00145891322757 0.0015599079832 0.00134706016679 0.00128172820522 0.00128196481093 0.00134716940391);
    }
    procBoundary3to4
    {
        type            processor;
        value           nonuniform List<scalar> 
13
(
0.00179022961684
0.00180092289108
0.0018133853386
0.00126657787311
0.00157987418073
0.0016859755975
0.00172981744928
0.00176369850563
0.0017743691441
0.0017743691441
0.00174307207664
0.00174307207664
0.00174307207664
)
;
    }
    procBoundary3to5
    {
        type            processor;
        value           nonuniform List<scalar> 10(0.0018300997658 0.00185883842187 0.00192181887817 0.0020797818527 0.00249959034142 0.00357836013975 0.00592430671194 0.0102896914485 0.0188059292637 0.042217459978);
    }
    procBoundary3to6
    {
        type            processor;
        value           nonuniform List<scalar> 8(0.0019311864958 0.00253594120067 0.00320745594057 0.00441129980464 0.00652639983309 0.0102930700203 0.0208087927787 0.0665122796842);
    }
    procBoundary3to8
    {
        type            processor;
        value           nonuniform List<scalar> 8(0.00122152800829 0.0015331622405 0.00163727955238 0.00167821275821 0.00169128653322 0.00168315011368 0.00164394539819 0.00155074426406);
    }
}


// ************************************************************************* //
