/*--------------------------------*- C++ -*----------------------------------*\
| =========                 |                                                 |
| \\      /  F ield         | OpenFOAM: The Open Source CFD Toolbox           |
|  \\    /   O peration     | Version:  v2012                                 |
|   \\  /    A nd           | Website:  www.openfoam.com                      |
|    \\/     M anipulation  |                                                 |
\*---------------------------------------------------------------------------*/
FoamFile
{
    version     2.0;
    format      ascii;
    class       volScalarField;
    location    "5.3";
    object      p;
}
// * * * * * * * * * * * * * * * * * * * * * * * * * * * * * * * * * * * * * //

dimensions      [1 -1 -2 0 0 0 0];


internalField   nonuniform List<scalar> 
164
(
5000.45190824
4510.68824792
4020.88666533
3531.04978944
3041.15924824
2551.16387593
2060.99422184
1570.56392109
1079.75211091
588.255369766
171.965221716
-5.90247202519
-15.8511667538
8427.66983878
7938.04951265
7448.39953406
6958.71041173
5979.19964476
5489.34853142
4999.41604414
4509.38988974
4019.27069566
3529.06185837
3038.74126014
2548.26369171
2057.5720746
1566.5902971
1075.23697985
583.343721083
169.732221212
-4.4375433572
-12.7790727711
8427.36514363
7937.72641631
7448.03858601
6958.29501676
6468.48546644
5978.59403839
5488.59787433
4998.47324851
4508.19685699
4017.77041469
3527.2043755
3036.46983491
2545.53143916
2054.36575156
1562.92139224
1071.168137
579.072740845
168.043827617
-2.94095151251
-10.4200956049
8427.08020092
7937.42730998
7447.71083794
6957.92336659
6468.05237485
5978.07567497
5487.9614577
4997.67169615
4507.15732456
4016.43644977
3525.52941974
3034.38723529
2542.99053512
2051.38394149
1559.52216699
1067.3728167
574.855370778
165.469869616
-2.82811454666
-9.85077851421
8426.82897222
7937.16644975
7447.43139339
6957.61579558
6467.7059672
5977.67647073
5487.48365062
4997.06886762
4506.31702953
4015.32080311
3524.08684619
3032.52621035
2540.62751597
2048.61757159
1556.38832378
1063.88399828
570.895153686
162.943516413
-2.87200065442
-9.59629416189
8426.62142223
7936.95388088
7447.21092823
6957.38477009
6467.46260925
5977.42410791
5487.22621917
4996.77873995
4505.73364194
4014.50463359
3522.99019798
3031.01716793
2538.34251175
2045.9656237
1553.56083658
1060.82694709
567.399912008
160.472322581
-3.81268624064
-9.43453257814
8426.46320743
7936.79541265
7447.05472233
6957.23415732
6467.32051006
5977.27911231
5487.04443155
4996.50280641
4505.18426381
4014.07357405
3522.41570084
3030.02243818
2536.4968615
2043.75960636
1551.22702042
1058.34107097
564.570445073
158.732588261
-3.36873077657
-9.53040917538
8426.35516344
7936.69118246
7446.96301861
6957.17472273
6467.34276095
5977.49192603
5487.65903903
4997.95391828
8426.29495026
7936.63397446
7446.91322464
6957.13634639
6467.3148483
5977.45502236
5487.61202682
4997.85675597
8426.28091494
7936.62150702
7446.90359032
6957.13086085
6467.3144982
5977.46010647
5487.62724416
4997.87689232
8426.31330349
7936.65379411
7446.93372949
6957.15785496
6467.34343736
5977.51558652
5487.69934695
4998.01315507
)
;

boundaryField
{
    back
    {
        type            calculated;
        value           nonuniform List<scalar> 
164
(
5000.45190824
4510.68824792
4020.88666533
3531.04978944
3041.15924824
2551.16387593
2060.99422184
1570.56392109
1079.75211091
588.255369766
171.965221716
-5.90247202519
-15.8511667538
8427.66983878
7938.04951265
7448.39953406
6958.71041173
5979.19964476
5489.34853142
4999.41604414
4509.38988974
4019.27069566
3529.06185837
3038.74126014
2548.26369171
2057.5720746
1566.5902971
1075.23697985
583.343721083
169.732221212
-4.4375433572
-12.7790727711
8427.36514363
7937.72641631
7448.03858601
6958.29501676
6468.48546644
5978.59403839
5488.59787433
4998.47324851
4508.19685699
4017.77041469
3527.2043755
3036.46983491
2545.53143916
2054.36575156
1562.92139224
1071.168137
579.072740845
168.043827617
-2.94095151251
-10.4200956049
8427.08020092
7937.42730998
7447.71083794
6957.92336659
6468.05237485
5978.07567497
5487.9614577
4997.67169615
4507.15732456
4016.43644977
3525.52941974
3034.38723529
2542.99053512
2051.38394149
1559.52216699
1067.3728167
574.855370778
165.469869616
-2.82811454666
-9.85077851421
8426.82897222
7937.16644975
7447.43139339
6957.61579558
6467.7059672
5977.67647073
5487.48365062
4997.06886762
4506.31702953
4015.32080311
3524.08684619
3032.52621035
2540.62751597
2048.61757159
1556.38832378
1063.88399828
570.895153686
162.943516413
-2.87200065442
-9.59629416189
8426.62142223
7936.95388088
7447.21092823
6957.38477009
6467.46260925
5977.42410791
5487.22621917
4996.77873995
4505.73364194
4014.50463359
3522.99019798
3031.01716793
2538.34251175
2045.9656237
1553.56083658
1060.82694709
567.399912008
160.472322581
-3.81268624064
-9.43453257814
8426.46320743
7936.79541265
7447.05472233
6957.23415732
6467.32051006
5977.27911231
5487.04443155
4996.50280641
4505.18426381
4014.07357405
3522.41570084
3030.02243818
2536.4968615
2043.75960636
1551.22702042
1058.34107097
564.570445073
158.732588261
-3.36873077657
-9.53040917538
8426.35516344
7936.69118246
7446.96301861
6957.17472273
6467.34276095
5977.49192603
5487.65903903
4997.95391828
8426.29495026
7936.63397446
7446.91322464
6957.13634639
6467.3148483
5977.45502236
5487.61202682
4997.85675597
8426.28091494
7936.62150702
7446.90359032
6957.13086085
6467.3144982
5977.46010647
5487.62724416
4997.87689232
8426.31330349
7936.65379411
7446.93372949
6957.15785496
6467.34343736
5977.51558652
5487.69934695
4998.01315507
)
;
    }
    sides
    {
        type            calculated;
        value           nonuniform List<scalar> 0();
    }
    bottom
    {
        type            calculated;
        value           nonuniform List<scalar> 10(8672.47837796 8672.17381202 8671.88891787 8671.63769859 8671.43009961 8671.27176985 8671.16355727 8671.10312372 8671.08897164 8671.12133362);
    }
    front
    {
        type            calculated;
        value           nonuniform List<scalar> 
164
(
5000.45190824
4510.68824792
4020.88666533
3531.04978944
3041.15924824
2551.16387593
2060.99422184
1570.56392109
1079.75211091
588.255369766
171.965221716
-5.90247202519
-15.8511667538
8427.66983878
7938.04951265
7448.39953406
6958.71041173
5979.19964476
5489.34853142
4999.41604414
4509.38988974
4019.27069566
3529.06185837
3038.74126014
2548.26369171
2057.5720746
1566.5902971
1075.23697985
583.343721083
169.732221212
-4.4375433572
-12.7790727711
8427.36514363
7937.72641631
7448.03858601
6958.29501676
6468.48546644
5978.59403839
5488.59787433
4998.47324851
4508.19685699
4017.77041469
3527.2043755
3036.46983491
2545.53143916
2054.36575156
1562.92139224
1071.168137
579.072740845
168.043827617
-2.94095151251
-10.4200956049
8427.08020092
7937.42730998
7447.71083794
6957.92336659
6468.05237485
5978.07567497
5487.9614577
4997.67169615
4507.15732456
4016.43644977
3525.52941974
3034.38723529
2542.99053512
2051.38394149
1559.52216699
1067.3728167
574.855370778
165.469869616
-2.82811454666
-9.85077851421
8426.82897222
7937.16644975
7447.43139339
6957.61579558
6467.7059672
5977.67647073
5487.48365062
4997.06886762
4506.31702953
4015.32080311
3524.08684619
3032.52621035
2540.62751597
2048.61757159
1556.38832378
1063.88399828
570.895153686
162.943516413
-2.87200065442
-9.59629416189
8426.62142223
7936.95388088
7447.21092823
6957.38477009
6467.46260925
5977.42410791
5487.22621917
4996.77873995
4505.73364194
4014.50463359
3522.99019798
3031.01716793
2538.34251175
2045.9656237
1553.56083658
1060.82694709
567.399912008
160.472322581
-3.81268624064
-9.43453257814
8426.46320743
7936.79541265
7447.05472233
6957.23415732
6467.32051006
5977.27911231
5487.04443155
4996.50280641
4505.18426381
4014.07357405
3522.41570084
3030.02243818
2536.4968615
2043.75960636
1551.22702042
1058.34107097
564.570445073
158.732588261
-3.36873077657
-9.53040917538
8426.35516344
7936.69118246
7446.96301861
6957.17472273
6467.34276095
5977.49192603
5487.65903903
4997.95391828
8426.29495026
7936.63397446
7446.91322464
6957.13634639
6467.3148483
5977.45502236
5487.61202682
4997.85675597
8426.28091494
7936.62150702
7446.90359032
6957.13086085
6467.3144982
5977.46010647
5487.62724416
4997.87689232
8426.31330349
7936.65379411
7446.93372949
6957.15785496
6467.34343736
5977.51558652
5487.69934695
4998.01315507
)
;
    }
    atmosphere
    {
        type            calculated;
        value           nonuniform List<scalar> 7(-19.9145750732 -13.1688041836 -9.84961048768 -9.81001086376 -9.81009088201 -9.81 -9.81);
    }
    floatingObject
    {
        type            calculated;
        value           nonuniform List<scalar> 8(4505.18426381 4014.07357405 3522.41570084 3030.02243818 4753.14533583 4753.04798938 4753.06779504 4753.20382723);
    }
    procBoundary3to4
    {
        type            processor;
        value           nonuniform List<scalar> 
13
(
5001.55432307
4512.0697641
4022.59768928
8427.97439305
7938.37574707
7448.76794941
6959.15228023
5979.86495383
5490.1789179
5490.1789179
6468.98663072
6468.98663072
6468.98663072
)
;
    }
    procBoundary3to5
    {
        type            processor;
        value           nonuniform List<scalar> 10(3533.13349709 3043.67445285 2554.15709077 2064.52917723 1574.73546915 1084.75091063 594.611747439 178.724405745 -2.16695889127 -13.1679433205);
    }
    procBoundary3to6
    {
        type            processor;
        value           nonuniform List<scalar> 8(2531.05086484 2040.76116617 1549.23112082 1056.50896266 562.549435036 157.368706726 -3.61370378392 -9.61720030686);
    }
    procBoundary3to8
    {
        type            processor;
        value           nonuniform List<scalar> 8(8426.39414158 7936.73269344 7447.00411676 6957.2018998 6467.31324078 5977.30335062 5487.10970036 4996.62091839);
    }
}


// ************************************************************************* //
