/*--------------------------------*- C++ -*----------------------------------*\
| =========                 |                                                 |
| \\      /  F ield         | OpenFOAM: The Open Source CFD Toolbox           |
|  \\    /   O peration     | Version:  v2012                                 |
|   \\  /    A nd           | Website:  www.openfoam.com                      |
|    \\/     M anipulation  |                                                 |
\*---------------------------------------------------------------------------*/
FoamFile
{
    version     2.0;
    format      ascii;
    class       surfaceVectorField;
    location    "5.8";
    object      Uf;
}
// * * * * * * * * * * * * * * * * * * * * * * * * * * * * * * * * * * * * * //

dimensions      [0 1 -1 0 0 0 0];


internalField   nonuniform List<vector> 
296
(
(-0.000796340317554 -0.00259230761638 8.83350070803e-21)
(-0.00100961797412 -0.00233164416181 2.32162272765e-20)
(-0.000271388715724 -0.00271441687607 1.09847235102e-20)
(-0.00052861764895 -0.00240928927675 3.26682016619e-20)
(0.000291396862834 -0.00280346265163 1.20218558714e-20)
(4.18073598467e-05 -0.00256257078389 3.68794107497e-20)
(0.000856281000457 -0.00265897367653 1.31959658008e-20)
(0.000457347170043 -0.00261798956902 4.05632461827e-20)
(0.00159364689244 -0.00205786951065 1.4139845075e-20)
(0.000759122600743 -0.00218823210393 4.79460621265e-20)
(0.00273731808146 -0.00102134548967 1.333838196e-20)
(0.00137184076587 -0.00102795752791 4.99980023166e-20)
(0.00424023424218 5.84961583484e-06 1.01654081854e-20)
(0.00278350970778 0.000543124662459 4.25211876759e-20)
(0.00626885789241 0.00051017426272 5.26975726882e-21)
(0.00477005848857 0.00163664848182 2.36684714967e-20)
(0.00905542076477 0.000353451803559 2.46084206281e-21)
(0.00763775022877 0.00241616404759 1.08561529644e-20)
(0.0156166741478 -0.00061520669236 4.90270931389e-21)
(0.0112185696318 0.000646991955801 6.99910648619e-21)
(0.0214662663569 -0.00321255344426 8.77814713045e-21)
(0.0218526638031 0.00671122108851 1.17838439067e-20)
(0.0250250305845 -0.0177767093945 9.89608152067e-21)
(0.0276993501435 -0.00460071909314 3.05095694272e-20)
(0.0314389865025 -0.0196706920005 2.73169676541e-20)
(-0.00366489957527 -0.000521980112468 9.38896517717e-22)
(-0.0038450279497 -0.000244315542567 1.33035659856e-21)
(-0.00285167970881 -0.000955758678795 5.49137871022e-22)
(-0.00301334152096 -0.000738370889482 8.26331674153e-22)
(-0.00220334501274 -0.00132261443128 7.110003947e-22)
(-0.00229777335366 -0.0011519049287 8.90404040602e-22)
(-0.00178923776712 -0.00146027622028 2.51892431667e-21)
(-0.00131825481855 -0.00203614456264 1.46981021599e-20)
(-0.00135014921353 -0.00190754058965 2.4097610242e-20)
(-0.00109160516308 -0.00213089078354 2.99133190904e-20)
(-0.00121339412089 -0.00201484003352 5.84401453218e-20)
(-0.000714728918057 -0.00214846990705 4.70509282304e-20)
(-0.000993613335968 -0.00200333216279 1.10423105363e-19)
(-0.000187239527494 -0.00225424476932 5.85628889014e-20)
(-0.000425019543498 -0.00204007588211 1.53948723794e-19)
(0.000227262837084 -0.00242915455689 6.5420801061e-20)
(0.000214011554695 -0.00235199383722 1.71841075385e-19)
(0.000359564888322 -0.00225782730963 7.53133425084e-20)
(0.00028273518034 -0.0026367907749 1.95654212572e-19)
(0.000516452372176 -0.00130743837711 8.38042193681e-20)
(-0.000194869075267 -0.0021704384512 2.47920844239e-19)
(0.00137527451869 0.000455821513502 7.91808080325e-20)
(-0.000395123987409 -0.000358231324386 2.6467549881e-19)
(0.00323315828223 0.00218819717616 5.60242509872e-20)
(0.00104780775737 0.00214124016013 2.17231383289e-19)
(0.00598032680872 0.00306093631062 2.92548671923e-20)
(0.00389462270249 0.00381685279806 1.17047428447e-19)
(0.0092293757463 0.00314534247403 1.53944173877e-20)
(0.0075515789223 0.00457936253922 4.98034277214e-20)
(0.0164514424608 0.00379395927716 1.3880241079e-20)
(0.0105691817314 0.00338858595598 2.65089937028e-20)
(0.0246273461033 0.00330154564035 3.35152662035e-20)
(0.022344902937 0.010779048271 2.78725487011e-20)
(0.03560923028 0.00294243773997 4.79304555606e-20)
(0.0280572950983 0.0036179599258 4.24280374962e-20)
(0.0589228730115 -0.0218738932033 4.1049165922e-20)
(-0.00320287851205 -0.000506292649304 1.21779175499e-21)
(-0.00333945026484 -0.00023392585698 1.6085093345e-21)
(-0.00246815742066 -0.000922722889671 1.16759784373e-21)
(-0.00259781541449 -0.000719083338663 1.39390184879e-21)
(-0.00189004492075 -0.00126657448523 2.69832796257e-21)
(-0.0019550313559 -0.00112041156695 2.80661045726e-21)
(-0.00152460306366 -0.00154203822696 8.74229515028e-21)
(-0.00151490235045 -0.00141368995877 9.57632005697e-21)
(-0.0013361393652 -0.00175133481635 2.6479814172e-20)
(-0.00129686401195 -0.00166040875613 3.24642558846e-20)
(-0.00122354879967 -0.0018846918426 6.7839653404e-20)
(-0.00121804222953 -0.00185548017365 9.71241104847e-20)
(-0.00107564605565 -0.00191995816439 1.38949931595e-19)
(-0.00117952020778 -0.00198095838162 2.38232262654e-19)
(-0.000660652825126 -0.00187324095391 2.17320900927e-19)
(-0.00104194188011 -0.00190316673123 4.51281271829e-19)
(7.63466541447e-06 -0.00210134232534 2.67226910277e-19)
(-0.000198894511111 -0.00197012937711 6.15733822266e-19)
(0.000271440697239 -0.00265049013587 3.02074486896e-19)
(0.000760789161266 -0.00269186728221 6.75355294707e-19)
(-0.000302198259807 -0.00269363158858 3.68261714302e-19)
(0.000323151237015 -0.0035032977899 7.75878429489e-19)
(-0.00116689086244 -0.00142631751919 4.28792123681e-19)
(-0.00146511822971 -0.00324468161427 1.00301200481e-18)
(-0.00077681767224 0.00126397109659 4.02726074067e-19)
(-0.00308833092459 -0.000564458688707 1.06221127596e-18)
(0.00170488202075 0.00374183177424 2.78254560749e-19)
(-0.00143268413183 0.0031169289188 8.55045305099e-19)
(0.00552981563628 0.00485225066123 1.37595988977e-19)
(0.00278212155321 0.00526902977847 4.7403526485e-19)
(0.00925523942054 0.00465663327669 6.09180040365e-20)
(0.0077458208789 0.00587322465979 1.99698061736e-19)
(0.0165668248955 0.00424521763501 4.05013013249e-20)
(0.0109799814073 0.00401145494896 9.49892906251e-20)
(0.024916717336 0.00472195878411 3.67853199939e-20)
(0.02186801424 0.0130451711494 7.16695844377e-20)
(0.0556679757983 0.00141182050648 3.55467478576e-20)
(0.0313678070612 0.0110302823632 3.26823145049e-20)
(0.116663996487 -0.0316177366452 2.78617422466e-20)
(-0.00275267284254 -0.000492914864831 1.7846194283e-21)
(-0.00284724040188 -0.000230481294349 1.8887677821e-21)
(-0.00209993834088 -0.000902803877462 3.03291446232e-21)
(-0.00218872820432 -0.000714457222669 2.76985190612e-21)
(-0.00159431418109 -0.0012389248369 9.68460255166e-21)
(-0.00161984990472 -0.00111385724644 8.47390076845e-21)
(-0.00129803940199 -0.00151602279494 3.32982807913e-20)
(-0.00123881682337 -0.00141551131934 3.14019628255e-20)
(-0.0011829934628 -0.00174498298217 1.03108552197e-19)
(-0.00106898105942 -0.00169845574723 1.08494340454e-19)
(-0.00114020649386 -0.00192048853305 2.67516719735e-19)
(-0.00104368668349 -0.00197537799391 3.29124353673e-19)
(-0.00104654314723 -0.00202239758594 5.50563602888e-19)
(-0.00107888482276 -0.002282637559 8.12019241758e-19)
(-0.000445619620921 -0.00193214099734 8.49694193168e-19)
(-0.00113361481462 -0.00220461591445 1.52160434668e-18)
(0.000690195525134 -0.00247566812469 1.0238622067e-18)
(0.000342994074621 -0.00233136643907 2.00983068646e-18)
(0.000957307299868 -0.00373356036224 1.1491592373e-18)
(0.00201682312765 -0.00348066805902 2.19570359148e-18)
(-0.000672724833055 -0.00425313898977 1.41062872e-18)
(0.000840628248082 -0.00486177736713 2.35025208271e-18)
(-0.00332465694785 -0.00266606058223 1.6364311571e-18)
(-0.00305443500913 -0.00499074717505 2.85011114482e-18)
(-0.00380639342373 0.00128522233607 1.514530507e-18)
(-0.0070418998989 -0.00128521234359 2.92992796365e-18)
(-0.000362362110286 0.00463469783931 1.0508260092e-18)
(-0.00478430431553 0.00344145277294 2.35856045338e-18)
(0.00507362421463 0.00591863132594 5.3613733761e-19)
(0.00149640139702 0.00573689357142 1.35878800407e-18)
(0.00970327108376 0.00552338552554 2.33769348325e-19)
(0.00813978981553 0.0061890181089 5.96650698477e-19)
(0.0160286575499 0.00479645796265 1.26157573738e-19)
(0.0117062413891 0.00519070127425 2.79346717028e-19)
(0.0265521612542 0.00796229786636 6.75665789488e-20)
(0.0187019920555 0.015702907607 1.95378575526e-19)
(0.114077063021 0.00357667776227 2.49973088938e-20)
(0.0357560509018 0.0176852664331 1.27059868489e-19)
(0.165524665295 0.0677740306687 1.25001974947e-19)
(-0.00230479115025 -0.000496897080799 2.87400025992e-21)
(-0.00235102609507 -0.000242304865664 2.29473998943e-21)
(-0.00172838097485 -0.00090620693013 8.21083821225e-21)
(-0.00178015678684 -0.000724774534788 5.98542570674e-21)
(-0.00127435234414 -0.00125532488072 3.01912610423e-20)
(-0.00127154003291 -0.00112361120449 2.23786139053e-20)
(-0.00101305606898 -0.00157573099733 1.06598022488e-19)
(-0.000919270294502 -0.00145878991065 8.47588009406e-20)
(-0.00096478673474 -0.00190166270219 3.34510141929e-19)
(-0.000743950334116 -0.00186322776845 2.93337524254e-19)
(-0.00113427227304 -0.00225884096133 8.73626875697e-19)
(-0.000687442598427 -0.00242973251383 8.97443228078e-19)
(-0.00140850718708 -0.00252159111274 1.78305998555e-18)
(-0.000817102325904 -0.00322890953159 2.21826202391e-18)
(-0.000574388404662 -0.00253064840854 2.68174083997e-18)
(-0.0011255725777 -0.00300480471003 4.13498465776e-18)
(0.00148343049155 -0.0032036536285 3.18167207125e-18)
(0.00101490435691 -0.00279563654138 5.45993332684e-18)
(0.00180080334955 -0.00477456288799 3.3967964369e-18)
(0.00358645246302 -0.00379613147956 5.68986920925e-18)
(-0.00155394794961 -0.00573178643332 3.78973450753e-18)
(0.00179633812523 -0.00504572708446 5.3506748796e-18)
(-0.00676480685197 -0.00415606669811 4.14360795137e-18)
(-0.00463191483609 -0.00502445677261 6.16479769557e-18)
(-0.00788299523761 0.000920977396962 3.77395791004e-18)
(-0.0121215661369 -0.000564661807034 5.54455265356e-18)
(-0.00273107993172 0.00471876007291 2.66652244825e-18)
(-0.00858513962906 0.00353779782874 4.38499272998e-18)
(0.00453636264643 0.00563597172754 1.41930136493e-18)
(0.0005761775644 0.00427788763141 2.57154766819e-18)
(0.00961160777958 0.00546428859227 6.4222806718e-19)
(0.00830891711383 0.00433403535308 1.16383681218e-18)
(0.0129689253734 0.00712887296595 3.48567718816e-19)
(0.0100400059996 0.00427554507054 5.8181773266e-19)
(0.0189072939178 0.0158281572628 2.54871865066e-19)
(0.0100021981351 0.0155367997952 4.24737894621e-19)
(0.0294382497051 0.0446888651808 2.27064534542e-19)
(0.00689250334031 0.018837830748 3.37707275073e-19)
(-0.0563075212009 0.0771871396129 3.21904736431e-19)
(-0.00186307542823 -0.000513339108225 5.40616543625e-21)
(-0.00183829226043 -0.000272825602526 3.27970965517e-21)
(-0.00136908337234 -0.000923764141624 2.01532013998e-20)
(-0.00137036224555 -0.000755102686492 1.23583264151e-20)
(-0.000946129736656 -0.00127782662097 7.69461538036e-20)
(-0.000918131753345 -0.00113584340835 4.88427187945e-20)
(-0.000600788902827 -0.00168789169909 2.71498302707e-19)
(-0.000509863525375 -0.0014395120986 1.82240910709e-19)
(-0.000303338360725 -0.00232837357243 8.56270610403e-19)
(-0.000104109462049 -0.00179787484866 6.17376201381e-19)
(-0.000188377391851 -0.0032081082547 2.24207837629e-18)
(0.000191700180985 -0.00236234387372 1.84451819458e-18)
(-0.000342924605881 -0.00369701206191 4.57018669612e-18)
(-0.000328733367765 -0.00337684095128 4.42036651532e-18)
(0.00099534965507 -0.00322776379692 6.91317714463e-18)
(-0.00159528835077 -0.00402190575144 8.41633865653e-18)
(0.00362440246632 -0.00337151795649 7.96813046484e-18)
(0.00115796578631 -0.00394261444027 1.27651870647e-17)
(0.00367451892285 -0.00420844871417 7.64374765195e-18)
(0.00442244681327 -0.003191081818 1.37725533483e-17)
(-0.00121641842306 -0.00451299316392 7.72573806764e-18)
(0.00209960819039 -0.000886049233628 1.05604255538e-17)
(-0.0106243883432 -0.00283619594441 7.56574239777e-18)
(-0.00631179335566 -0.00235209734042 1.16809371521e-17)
(-0.0135842422063 0.00268615228414 6.1555874735e-18)
(-0.0176484361824 -0.000729918516521 8.43376438765e-18)
(-0.00559526387616 0.00329749390799 4.29001794992e-18)
(-0.00920210459413 0.00297573660901 5.69006210008e-18)
(0.00413380752814 0.0027049203587 2.31608311543e-18)
(0.00116303496623 0.000503126269732 3.22178158089e-18)
(0.00920832704116 0.00230667019426 1.10342647766e-18)
(0.00870233675054 -4.16621881735e-05 1.62244806624e-18)
(0.00882737153341 0.00329703692604 6.57987908465e-19)
(0.00904689389592 -0.000625916158839 9.46014461522e-19)
(0.00706828838898 0.00869979640825 5.07573304628e-19)
(0.00459861023081 0.0101488557981 7.26851122458e-19)
(-0.042794194803 0.0106079585227 4.32547476962e-19)
(0.00498668880006 0.0124956484899 6.18376476984e-19)
(-0.0271018464829 -0.0270539497101 5.62427809738e-19)
(-0.00137983298624 -0.000544440559469 1.0231870634e-20)
(-0.00129432538468 -0.000297629911448 5.2524102382e-21)
(-0.000973185838734 -0.000963685517348 4.10478438098e-20)
(-0.000951575045108 -0.000770167818748 2.21500289554e-20)
(-0.000588995987155 -0.00126776550244 1.541374757e-19)
(-0.000614487628323 -0.00111539028175 8.61603399719e-20)
(-0.000216682426723 -0.00149633598064 5.28118809383e-19)
(-0.000281674225121 -0.00134735136987 3.07076406738e-19)
(0.000178185936506 -0.00176001473082 1.60562378556e-18)
(0.000159283828754 -0.0014714212465 9.87493919167e-19)
(0.00021027621344 -0.00239708504859 4.0228063336e-18)
(0.000828605939524 -0.00160633527288 2.81861479822e-18)
(-0.000513927385836 -0.0034299379147 8.26651847573e-18)
(0.000704118083975 -0.00203932104911 6.36046504563e-18)
(-0.00100938877353 -0.00514113667536 1.42683485766e-17)
(0.000115815071634 -0.00219475088498 1.17249996799e-17)
(0.00167773312504 -0.00398353019742 1.85696099481e-17)
(0.00345294602747 0.000438383140197 1.66892312501e-17)
(-0.00197538855631 0.00253645440719 1.45156246383e-17)
(-0.0142109192102 -0.00377781296495 1.2548959142e-17)
(-0.0146679306608 0.00324225423189 7.96823901423e-18)
(-0.00197912649841 0.000302555872865 4.62182573106e-18)
(0.00660026465909 -0.00236071337554 2.5281465317e-18)
(0.00948364307011 -0.00272448020802 1.46503605011e-18)
(0.00584395065975 -0.00208714212951 1.01487767552e-18)
(0.00325238938552 0.000330875514631 8.37654294814e-19)
(0.00411946390143 -0.00114659669033 7.4825680976e-19)
(-0.000899308264797 -0.000537181704111 1.71705685596e-20)
(-0.000757427461091 -0.000311152325843 8.03247625653e-21)
(-0.000617182665417 -0.000933162549611 6.72625251175e-20)
(-0.000555803369115 -0.000765367944848 3.33297179632e-20)
(-0.000314066991376 -0.0011977618425 2.3909927101e-19)
(-0.000350017469182 -0.00105578751459 1.27095210058e-19)
(1.92280626235e-05 -0.00137159944895 7.66451516521e-19)
(-0.000107840911642 -0.00119144371319 4.34740642261e-19)
(0.000384683576231 -0.00142919531242 2.20048493182e-18)
(0.000217038006976 -0.00104492974444 1.32038253628e-18)
(0.000419500714526 -0.00115082630262 5.15627351024e-18)
(0.000550599682223 -0.000725353790485 3.75003364415e-18)
(-0.000184853106564 -0.000731472405139 9.81894624982e-18)
(0.000285281881078 -0.000338176885538 8.70320599902e-18)
(-0.000615222333255 0.000690888555133 1.80030493941e-17)
(-0.000442076165878 -0.000561631854007 2.41916256601e-20)
(-0.000195614208106 -0.000319086189834 9.79578964789e-21)
(-0.000344436172191 -0.000918985371658 9.31624029039e-20)
(-0.00019814196115 -0.000765864590994 3.90175811273e-20)
(-0.000219350214867 -0.00106980098306 3.22736581309e-19)
(-0.000198707574464 -0.00102353852048 1.47539127329e-19)
(-2.51308771311e-05 -0.000978138340748 9.88671662022e-19)
(-0.000198766470174 -0.001081291709 4.98019008189e-19)
(0.000294646292256 -0.000578282015658 2.86993124861e-18)
(-0.000181804934878 -0.000762892370048 1.47999410812e-18)
(0.0006122662576 0.000132681317856 7.29696613293e-18)
(-0.000159112758348 -0.000186808166199 4.26135963311e-18)
(0.000731898726328 0.000537629065593 1.68873091433e-17)
(-0.000118272841096 0.000576553004225 1.03345000906e-17)
(-7.67327268534e-05 0.00125664442305 2.34503526381e-17)
(4.91867732205e-05 -0.00055644098329 2.46217451151e-20)
(0.000361673785968 -0.0003027534878 8.86003231382e-21)
(-4.61484978753e-05 -0.000915975545946 9.33943055519e-20)
(0.000162529583703 -0.000750580482193 3.37450037409e-20)
(-0.000156610537422 -0.00107514886831 3.22821554209e-19)
(-3.80507150468e-05 -0.00104074375947 1.27263580257e-19)
(-0.000323139443154 -0.000977398962381 9.89341454287e-19)
(-0.000294626518186 -0.00117981750373 4.34880919795e-19)
(-0.000604070204413 -0.000579586487777 2.87142249262e-18)
(-0.000577396227018 -0.00104077148024 1.32220529931e-18)
(-0.000858255431347 0.000140694954011 7.29889359079e-18)
(-0.000876934039195 -0.000714760628739 3.75322371274e-18)
(-0.000893287054085 0.000544253956592 1.68975435854e-17)
(-0.000519572109326 -0.000318749618832 8.70834298324e-18)
(0.000468993205149 0.000685138015846 1.80179230372e-17)
(0.000499678095933 -0.000518843643483 1.79832909396e-20)
(0.000226563814712 -0.000906927898983 6.76142784457e-20)
(-5.83808342502e-05 -0.0011656009266 2.39322945843e-19)
(-0.000365817674477 -0.00135537111903 7.6774476482e-19)
(-0.000697745103625 -0.00141957311358 2.20400651943e-18)
(-0.000699530447145 -0.00113418257252 5.16267310519e-18)
(-3.77243241194e-05 -0.000722353904007 9.82872243506e-18)
)
;

boundaryField
{
    back
    {
        type            calculated;
        value           uniform (0 0 0);
    }
    sides
    {
        type            calculated;
        value           nonuniform List<vector> 0();
    }
    bottom
    {
        type            calculated;
        value           uniform (0 0 0);
    }
    front
    {
        type            calculated;
        value           uniform (0 0 0);
    }
    atmosphere
    {
        type            calculated;
        value           nonuniform List<vector> 7((0 -0.0271050098493 0) (0 -0.0245401103444 0) (0 -0.0563296756867 0) (0 -0.0452912765078 0) (0.0359386679191 0.26652749695 2.31459082716e-19) (0 -0.0185938025822 0) (0 -0.0656024526438 0));
    }
    floatingObject
    {
        type            calculated;
        value           nonuniform List<vector> 8((0 -1.66533453694e-15 2.08166817117e-16) (0 0 2.08166817117e-16) (0 0 0) (0 -3.33066907388e-15 2.08166817117e-16) (4.16333634234e-16 0 0) (0 0 2.08166817117e-16) (0 0 2.08166817117e-16) (0 0 0));
    }
    procBoundary3to4
    {
        type            processor;
        value           nonuniform List<vector> 
13
(
(-0.00113179592548 -0.00275530375191 4.33971905911e-21)
(-0.000646882494444 -0.00292720592068 6.08439856214e-21)
(-4.29523323818e-05 -0.00309274366153 6.84523722989e-21)
(-0.00436586309043 -0.000254829961351 1.1984148474e-21)
(-0.00344559696597 -0.000768202114539 5.69255690228e-22)
(-0.0026633078856 -0.00120266459915 2.89300656928e-22)
(-0.0020899304829 -0.00154197463711 6.08492226495e-22)
(-0.00151656690854 -0.00207407802177 5.18838731252e-21)
(-0.00119462435125 -0.00246760935673 5.66200613574e-21)
(-0.00130620694389 -0.00224378128284 1.23590979497e-20)
(-0.00177065923544 -0.00162582875081 2.01806673192e-21)
(-0.00151111344113 -0.00186651836384 5.85923363556e-21)
(-0.00150378033243 -0.00171611080878 8.24143756553e-21)
)
;
    }
    procBoundary3to5
    {
        type            processor;
        value           nonuniform List<vector> 10((0.000607994295728 -0.00315935455936 7.29909537333e-21) (0.00136673303458 -0.00293767593287 8.20495796582e-21) (0.00241544918628 -0.00234794217658 8.51563633327e-21) (0.00381715459341 -0.00154777946179 7.76205186519e-21) (0.00528002103147 -0.0010982011565 5.91550711989e-21) (0.00748476315125 -0.00031646550002 3.21507702725e-21) (0.0102518012453 -0.00391196749562 3.60103983778e-21) (0.0192557428941 0.00224835973495 7.18890433656e-21) (0.0131354058122 -0.00899879762816 1.38494203569e-20) (0.0221095251712 -0.0246281972712 1.27041608774e-20));
    }
    procBoundary3to6
    {
        type            processor;
        value           nonuniform List<vector> 8((-0.0246752519856 -0.00422830681776 7.36288752392e-18) (-0.00627066737104 -0.00494377688057 4.93628099855e-18) (0.00381801124798 -0.00792450206422 2.95784619382e-18) (0.00905921913633 -0.00684642426548 1.82314888562e-18) (0.00840527916121 -0.00608287109409 1.2591198974e-18) (0.00217922176154 0.00261229543766 1.02851147082e-18) (0.00646627562147 0.00191824703082 9.2651683005e-19) (0.0373552201705 -0.0467655049583 8.33262632057e-19));
    }
    procBoundary3to8
    {
        type            processor;
        value           nonuniform List<vector> 8((0.00088188724751 -0.000284150385976 6.17770403377e-21) (0.000552424381104 -0.000746660345375 2.25713686391e-20) (0.000222920940081 -0.00109052806979 8.62752749979e-20) (-0.000102097997065 -0.00132890354649 3.0724490253e-19) (-0.000510021429061 -0.0014662170802 9.8946607371e-19) (-0.00115913051941 -0.00161522089059 2.82540055501e-18) (-0.000928106050081 -0.00203691204919 6.3778874748e-18) (-0.000252050023534 -0.00216572001186 1.17453487282e-17));
    }
}


// ************************************************************************* //
