/*--------------------------------*- C++ -*----------------------------------*\
| =========                 |                                                 |
| \\      /  F ield         | OpenFOAM: The Open Source CFD Toolbox           |
|  \\    /   O peration     | Version:  v2012                                 |
|   \\  /    A nd           | Website:  www.openfoam.com                      |
|    \\/     M anipulation  |                                                 |
\*---------------------------------------------------------------------------*/
FoamFile
{
    version     2.0;
    format      ascii;
    class       volVectorField;
    location    "2.6";
    object      U_0;
}
// * * * * * * * * * * * * * * * * * * * * * * * * * * * * * * * * * * * * * //

dimensions      [0 1 -1 0 0 0 0];


internalField   nonuniform List<vector> 
164
(
(-0.109924229569 -0.0457113203018 6.7020908163e-18)
(-0.0550323313764 -0.0573487101188 5.355929603e-18)
(-0.027882993824 -0.0814906056159 3.47927181892e-18)
(0.0017001923504 -0.10755413382 1.94097523514e-18)
(0.0408771464962 -0.141324126512 1.69312228682e-18)
(0.115222071745 -0.131171062231 1.48100360621e-18)
(-0.00210413711655 -0.126214426545 1.16985912588e-18)
(0.00692603054727 -0.183640306733 1.12860517682e-19)
(-0.0303222786607 -0.0630172721521 4.46461753671e-18)
(-0.0175942866081 -0.0879400915209 4.36487906737e-18)
(-0.00875835715073 -0.114838820327 3.0491874123e-18)
(0.017178415137 -0.132094052469 2.2826710308e-18)
(0.0540161067804 -0.149124062002 2.2068753293e-18)
(0.1190836157 -0.0439641733237 2.07587300125e-18)
(0.0459907296466 0.0916266127969 2.05630058013e-18)
(0.0251491012299 0.131181175061 7.57423098837e-19)
(0.0303184830008 -0.063020538373 4.478882114e-18)
(0.0175909527264 -0.0879509451552 4.38643233277e-18)
(0.00875661151632 -0.11485462099 3.12456034055e-18)
(-0.0171651322474 -0.13211244275 2.48669412846e-18)
(-0.0539386480888 -0.149131641853 2.56370520239e-18)
(-0.118943026673 -0.0438660055318 2.51609420861e-18)
(-0.0459341438151 0.0918267724118 2.52683638913e-18)
(-0.0251867343915 0.131296183404 9.67738947486e-19)
(0.109934535019 -0.0457213320634 6.71378677477e-18)
(0.055038756677 -0.0573659476348 5.37907024084e-18)
(0.0278898671553 -0.0815159339539 3.52357247231e-18)
(-0.00169819515715 -0.107585576979 2.0571202477e-18)
(-0.0408820370994 -0.141357883949 1.88670725319e-18)
(-0.115237547498 -0.131169191481 1.65420272666e-18)
(0.00215576718573 -0.12607350839 1.30037269836e-18)
(-0.00692199081459 -0.18361324546 1.21567992331e-19)
(0.0426106499611 -0.0778077986942 2.60153261388e-18)
(0.0159313190847 -0.104431774379 1.13980729311e-18)
(-0.00908468753465 -0.138551989853 1.01016509579e-18)
(-0.0664376486628 -0.15140674711 8.77227045085e-19)
(-0.0146284660218 -0.206668155645 8.3255242096e-19)
(0.0124422201625 -0.24446874721 1.15299907179e-19)
(0.0577809942924 -0.0709856807323 1.42600716604e-18)
(0.0454697569171 -0.0912894509651 5.36357493475e-19)
(0.032602805355 -0.11717951035 5.52637679297e-19)
(-0.000925405283077 -0.138077438484 5.54477044048e-19)
(-0.0112327456879 -0.204654298374 5.20144989344e-19)
(-0.00365518991575 -0.261381019632 7.54720473236e-20)
(0.0670987610547 -0.0544405543801 5.01147116332e-19)
(0.0678330162059 -0.0677057757477 1.85070317573e-19)
(0.0647460225941 -0.0879854123623 1.99666510214e-19)
(0.0592324193243 -0.0948567156218 2.23534605927e-19)
(0.00929974641388 -0.128335160652 2.09646144075e-19)
(0.00357461242401 -0.178893771967 2.0193864895e-21)
(0.0704949216171 -0.0401878220364 9.5004594491e-20)
(0.0753907885575 -0.044205913646 2.34257087523e-20)
(0.0759721067197 -0.0592580629209 2.74259604925e-20)
(0.0714821221764 -0.0508674135691 1.49809777418e-21)
(0.0249936918756 -0.0491612411338 1.20239804162e-21)
(0.00361091606303 -0.0670270736811 -1.24858667176e-21)
(0.0715334831135 -0.0280475278894 1.03925754302e-20)
(0.076966996953 -0.0244664086958 -1.84919775262e-20)
(0.0767071797616 -0.0342927657093 -2.46297043598e-20)
(0.0601648511464 -0.0212045666026 -3.844183512e-20)
(0.0388920480434 -0.00381040880418 -3.40582486692e-20)
(0.00721553110854 -0.0296264995424 -8.59468115724e-22)
(0.0669767763428 -0.0190323188576 -6.14373602458e-21)
(0.0726062137976 -0.0119973628844 -1.95978094634e-20)
(0.0725339265273 -0.018653476312 -5.3103153824e-20)
(0.0490721089764 -0.010221970323 -8.71269002532e-20)
(0.0546932319885 0.000331897708084 -8.62271534964e-20)
(0.0303922565762 -0.0290524520042 -7.98187249668e-21)
(0.0635335633068 -0.015758255103 -1.20193984576e-20)
(0.0703210227077 -0.00992298107526 -3.34677904083e-20)
(0.0719436916758 -0.0146480405977 -4.61143281754e-20)
(0.0495791578295 -0.0117524409813 -6.3580436842e-20)
(0.0632852619815 -0.0176031361208 -6.32500737502e-20)
(0.0458443856034 -0.0241583098613 -1.92257018795e-21)
(0.0591459792026 -0.0140492184138 -2.02055785701e-20)
(0.0687076254912 -0.0122136394373 -6.03613549571e-20)
(0.0754446493998 -0.0163196666915 -1.07676360053e-19)
(0.0582047658269 -0.015039129926 -1.59878314666e-19)
(0.0638451533962 -0.0311093343786 -1.60685669591e-19)
(0.0391305808829 -0.0283596252472 -3.60037808865e-20)
(0.0589576048877 -0.0163071009976 -3.51128322556e-20)
(0.0687511944856 -0.0151134861186 -1.119201763e-19)
(0.0789688057154 -0.0151956089006 -2.27026856238e-19)
(0.0724991638494 -0.0109149869376 -2.99667534256e-19)
(0.0639900259865 -0.0328615456518 -3.00587695969e-19)
(0.00543186633464 -0.0343135946675 -5.96355514982e-20)
(0.0616494520633 -0.0131704112503 -2.9975093449e-20)
(0.068806461257 -0.0131263214561 -1.22447911152e-19)
(0.078261413472 -0.0149200926415 -2.65191395982e-19)
(0.0834148393823 -0.00854326328012 -4.07147999158e-19)
(0.0534317219531 -0.0209741828466 -4.05755195812e-19)
(0.0191026537647 -0.0177073517747 -1.1067528642e-19)
(0.0617389876298 -0.00617641689713 -2.15494153055e-20)
(0.067683444911 -0.00573792857312 -8.08976502191e-20)
(0.0783002751754 -0.00872473899136 -1.98374517319e-19)
(0.093708544222 -0.00158691044221 -3.22701545534e-19)
(0.035669106641 -0.0107862965699 -3.18811597391e-19)
(0.0461063721485 -0.0403343190071 -8.49229413379e-20)
(0.0601104939684 -0.000696628426738 -1.66794318571e-20)
(0.0672561045741 0.0022359762254 -5.99095188714e-20)
(0.0790259210791 0.00320552682613 -1.21357600862e-19)
(0.0980271555081 0.0125785920053 -2.01953905282e-19)
(0.0789548283157 -0.0017121166966 -1.98031878422e-19)
(0.0644056410141 -0.0716694172995 -3.21130230859e-20)
(0.0581322055762 0.00294267169357 -1.22141208923e-20)
(0.0630329364583 0.00849342839372 -2.21833404684e-20)
(0.0711387925876 0.014070141532 -5.71239503222e-20)
(0.0873634763869 0.0274092271001 -1.03990415631e-19)
(0.105574588399 0.0284966287776 -1.06518616839e-19)
(0.0739415848445 0.0104784401466 -1.64888570355e-19)
(0.0558287423368 0.00786920259465 2.12454073138e-23)
(0.0569080395007 0.0131110289168 -6.98560482647e-22)
(0.0578488085964 0.0197827601424 -2.89636160579e-20)
(0.0647727882388 0.0347515848146 -4.64077504134e-20)
(0.102027615272 0.0510458114308 -4.76465082615e-20)
(0.120113880772 0.101793206971 -4.11320943991e-20)
(0.0531430702093 0.0130076124412 -5.20521236577e-21)
(0.0500580510965 0.0182223433541 -1.2736270008e-20)
(0.0413228695461 0.0217243235741 -1.67980755243e-20)
(0.0308685013441 0.0322228415865 -5.22370768419e-20)
(0.056281545337 0.0625785429781 -5.14582642422e-20)
(-0.0113172137819 0.321954703515 -6.32258651653e-20)
(0.0509367661033 0.0185226533723 -9.91128429751e-21)
(0.046161835215 0.0238878930286 -9.21583781216e-21)
(0.0308256715111 0.0238953072981 -1.21792049027e-20)
(0.00718317482459 0.0275056610634 -2.78768709731e-20)
(0.00645708245784 0.0506380520407 -2.74517632529e-20)
(-0.125909783531 0.0437761956204 7.83929215877e-21)
(0.0471901193466 0.0235378449064 -5.61445210829e-21)
(0.042455618327 0.0293838757927 -1.46104983122e-20)
(0.0262348039734 0.0266816560842 -6.61246884349e-21)
(0.00229187336614 0.0232132057791 5.19553466195e-21)
(-0.0189361211333 0.0390293650892 2.99940324572e-21)
(-0.0410929622198 0.0441021879717 4.91452330451e-20)
(0.0422064811085 0.0260789878984 -3.37597015619e-21)
(0.0383857651701 0.0315458088384 -4.28698450163e-21)
(0.0262426680286 0.0285418333659 -9.16088315272e-21)
(0.00870887436735 0.0224522899194 -2.24810040952e-20)
(-0.0457419016005 0.0279691332906 -2.32478058986e-20)
(-0.0020351339077 0.0317006079885 -7.85043942868e-20)
(0.037591017514 0.0270191945535 -2.21152930578e-21)
(0.0352873173777 0.0318907587444 -3.78833381822e-21)
(0.0277955617403 0.030348587092 -8.03791748458e-21)
(0.018230308098 0.0250785516255 -2.26236949092e-20)
(-0.0419691993198 0.0259049545075 -2.19943765963e-20)
(0.0159927591749 -0.0198857839185 -9.16570674829e-21)
(0.0336753894705 0.0272643464524 -2.31689029053e-21)
(0.0324183504477 0.0314621679909 -6.09973898601e-21)
(0.0276021542306 0.0316151026265 -1.57653595756e-20)
(0.0233894553777 0.0271139954089 -2.0872491823e-20)
(-0.021331047999 0.0310773108192 -2.3055216534e-20)
(0.0491346290188 -0.0139250490169 1.27603532235e-20)
(0.0258541177981 0.0318075418286 -2.14281543193e-20)
(0.0217952024039 0.0261877734934 -1.61638038226e-20)
(-0.0147250555324 0.0364730867877 -2.53440955872e-20)
(0.139222134996 0.0287250416443 -6.57831393806e-21)
(0.0239765417857 0.0308939433597 -1.63950184673e-20)
(0.0134489508204 0.0237421412925 -8.6757451596e-21)
(-0.0593911077725 0.0396035202944 3.14872363104e-20)
(-0.0319274992346 0.305478753277 1.2444000515e-20)
(0.0221956137781 0.0312516242607 -1.31134609442e-20)
(0.00692807514884 0.0260678817644 -9.80059416883e-21)
(-0.103757648521 0.0370567147888 -1.73515654975e-20)
(-0.180575881036 0.0182626840639 5.79013713087e-21)
)
;

boundaryField
{
    back
    {
        type            noSlip;
    }
    sides
    {
        type            noSlip;
    }
    bottom
    {
        type            noSlip;
    }
    front
    {
        type            noSlip;
    }
    atmosphere
    {
        type            pressureInletOutletVelocity;
        value           nonuniform List<vector> 
27
(
(0 -0.183640306733 0)
(0.0251491012299 0.131181175061 7.57423098837e-19)
(-0.0251867343915 0.131296183404 9.67738947486e-19)
(0 -0.18361324546 0)
(0 -0.24446874721 0)
(0 -0.261381019632 0)
(0 -0.178893771967 0)
(0 -0.0670270736811 0)
(0 -0.0296264995424 0)
(0 -0.0290524520042 0)
(0 -0.0241583098613 0)
(0 -0.0283596252472 0)
(0 -0.0343135946675 0)
(0 -0.0177073517747 0)
(0 -0.0403343190071 0)
(0 -0.0716694172995 0)
(0.0739415848445 0.0104784401466 -1.64888570355e-19)
(0.120113880772 0.101793206971 -4.11320943991e-20)
(-0.0113172137819 0.321954703515 -6.32258651653e-20)
(0 0.0437761956204 0)
(-0.0410929622198 0.0441021879717 4.91452330451e-20)
(-0.0020351339077 0.0317006079885 -7.85043942868e-20)
(0 -0.0198857839185 0)
(0 -0.0139250490169 0)
(0.139222134996 0.0287250416443 -6.57831393806e-21)
(-0.0319274992346 0.305478753277 1.2444000515e-20)
(0 0.0182626840639 0)
)
;
    }
    floatingObject
    {
        type            movingWallVelocity;
        value           nonuniform List<vector> 4((0 0 0) (0 0 0) (-1.04083408559e-16 0 0) (0 0 0));
    }
    procBoundary6to3
    {
        type            processor;
        value           nonuniform List<vector> 8((-0.109510198723 -0.0737006916792 7.59280085596e-18) (-0.06908969369 -0.068803775312 4.84920134667e-18) (-0.0426007881585 -0.0777841709635 2.60125129677e-18) (-0.0159276330626 -0.1044035526 1.15851122899e-18) (0.00907838506509 -0.138521485077 1.06566742443e-18) (0.0664045016506 -0.151378078066 9.87537891765e-19) (0.0146385659003 -0.206605798493 9.22922154838e-19) (-0.0124510148956 -0.244410029454 1.16841012207e-19));
    }
    procBoundary6to7
    {
        type            processor;
        value           nonuniform List<vector> 
11
(
(0.051424624282 0.0113177723977 -2.25268582625e-21)
(0.0491128754145 0.0155486887258 -3.1457695137e-21)
(0.0456477374626 0.0193297833551 -1.60365277624e-21)
(0.0413932940013 0.0218693050001 -5.92498998089e-22)
(0.0372433029379 0.0231873793545 -6.55113908598e-22)
(0.0335738352941 0.023769191119 -3.36353022029e-22)
(0.0304348241432 0.0271325431114 -2.16729862184e-21)
(0.0296861682826 0.0304378972129 -7.18665930059e-21)
(0.0296861682826 0.0304378972129 -7.18665930059e-21)
(0.027277475169 0.0294986621778 -5.39700271294e-21)
(0.0249967675483 0.0294498616753 -2.4250488174e-21)
)
;
    }
    procBoundary6to8
    {
        type            processor;
        value           nonuniform List<vector> 
16
(
(0.109524949529 -0.0737189236662 7.61119258604e-18)
(0.0691029214506 -0.0688258287319 4.8601074152e-18)
(0.0691029214506 -0.0688258287319 4.8601074152e-18)
(0.0691071622807 -0.0637290917662 3.63115033965e-18)
(0.0655650111069 -0.0502454979442 1.42115937205e-18)
(0.0643753449457 -0.0393819158225 2.61890709682e-19)
(0.0635257243145 -0.0310940141917 4.02173688494e-20)
(0.0602181904809 -0.0239286945658 4.60245688732e-21)
(0.0576478580228 -0.0193213486721 -2.68051253393e-21)
(0.0545193365333 -0.0151911827288 -5.36817095184e-21)
(0.0542398558166 -0.0149457338626 -7.62277659857e-21)
(0.0563515786773 -0.0114440264603 -4.19557883643e-21)
(0.0564760699959 -0.00585945641423 -7.38575603454e-21)
(0.0549435371861 -0.00107430129862 -5.97341651306e-21)
(0.0542569273206 0.00220140218702 -3.2517979432e-21)
(0.0531956173225 0.00668175970726 3.7095907706e-22)
)
;
    }
    procBoundary6to9
    {
        type            processor;
        value           nonuniform List<vector> 4((0.0201027431195 0.0311520734294 -4.23713458404e-21) (0.00715925444459 0.0285812250091 -1.01143519621e-20) (-0.112066733817 0.032417346731 -1.04831517664e-20) (-0.0773572988237 0.0106588524986 -4.2294745476e-21));
    }
}


// ************************************************************************* //
