/*--------------------------------*- C++ -*----------------------------------*\
| =========                 |                                                 |
| \\      /  F ield         | OpenFOAM: The Open Source CFD Toolbox           |
|  \\    /   O peration     | Version:  v2012                                 |
|   \\  /    A nd           | Website:  www.openfoam.com                      |
|    \\/     M anipulation  |                                                 |
\*---------------------------------------------------------------------------*/
FoamFile
{
    version     2.0;
    format      ascii;
    class       surfaceVectorField;
    location    "2.6";
    object      Uf;
}
// * * * * * * * * * * * * * * * * * * * * * * * * * * * * * * * * * * * * * //

dimensions      [0 1 -1 0 0 0 0];


internalField   nonuniform List<vector> 
293
(
(-0.070054018964 -0.0380757736242 5.92057174696e-18)
(-0.0601190500204 -0.0498300764232 5.5054028747e-18)
(-0.0299453462332 -0.058620519985 4.32079580297e-18)
(-0.030039877764 -0.0605439576607 4.7788405263e-18)
(0.00155739398509 -0.0714126143725 2.64142934466e-18)
(-0.00743543474979 -0.079146580302 3.18750684895e-18)
(0.0384872257132 -0.0800440138365 1.78018110665e-18)
(0.0216462604098 -0.0917166370099 2.07113838631e-18)
(0.0908003177299 -0.0916056183755 1.56131800343e-18)
(0.0600704747499 -0.113393743849 1.91912148225e-18)
(0.0684253545955 -0.0582235728878 1.28223547315e-18)
(0.0963224809975 -0.03544196845 1.75397678479e-18)
(0.0161589233211 -0.0902281802208 6.04335833753e-19)
(0.0425933882234 0.044312725783 1.57702864149e-18)
(0.0312593742125 0.034317475199 4.50765280355e-19)
(-0.0196932543941 -0.0601256532577 4.36367165403e-18)
(-9.20472375314e-06 -0.0581755763742 4.43618506903e-18)
(-0.00854769033388 -0.0901722409909 3.64555157228e-18)
(-8.08532576946e-06 -0.0752458194577 4.31070554692e-18)
(0.010431398956 -0.0976137809889 2.61721589061e-18)
(-3.92309665408e-06 -0.0938472495852 3.03263563466e-18)
(0.0401752941942 -0.0759810989822 2.21007876191e-18)
(9.40815314538e-06 -0.0995238786605 2.34005375829e-18)
(0.0784316477486 -0.0159659524244 2.11178026361e-18)
(5.44343162913e-05 -0.109493864269 2.34344555157e-18)
(0.0754095869063 0.0802751057419 2.04876995312e-18)
(8.11792950149e-05 0.0186426554804 2.2403367168e-18)
(0.040316060582 0.122862501386 1.42345808809e-18)
(2.59967898542e-06 0.119899416949 2.26126465264e-18)
(-2.41330634402e-05 0.176264557445 8.9323148248e-19)
(0.01967689281 -0.060132874873 4.38321896192e-18)
(0.0601078827798 -0.0498366837322 5.51813391693e-18)
(0.00853578095329 -0.0901845200093 3.6977896093e-18)
(0.0300303486981 -0.060556063028 4.80339767956e-18)
(-0.0104268309456 -0.0976274353652 2.75547350234e-18)
(0.00743010889808 -0.0791606490814 3.25143412255e-18)
(-0.0401186791248 -0.0759829562368 2.47342054795e-18)
(-0.0216386678126 -0.0917264446411 2.22827938486e-18)
(-0.0783051377557 -0.0159078177713 2.47200200477e-18)
(-0.0600214498923 -0.113390417571 2.17968315786e-18)
(-0.0753135566575 0.0803990708288 2.45283141632e-18)
(-0.0962272524049 -0.0353477648418 2.02613784723e-18)
(-0.0403154325248 0.12300296118 1.73103804704e-18)
(-0.0426094030812 0.0444531774358 1.84485648841e-18)
(-0.0312693308176 0.0344403232848 5.53083111815e-19)
(0.0700534188803 -0.0380890464534 5.93831263457e-18)
(0.0299442865619 -0.0586383435082 4.35704219282e-18)
(-0.00155744197016 -0.0714288040699 2.72424000507e-18)
(0.0202127170096 -0.0639897227423 2.98237180873e-18)
(-0.0384861366466 -0.080045596411 1.93454199477e-18)
(-0.013024765993 -0.0858747005676 1.56859129343e-18)
(-0.0907916607134 -0.0915507584181 1.73381900032e-18)
(-0.0485169850028 -0.120927291531 1.42078631573e-18)
(-0.0683921489385 -0.0580644897299 1.41816291932e-18)
(-0.129715354255 -0.110976912633 1.24290193054e-18)
(-0.0161323086362 -0.0901259758131 6.6690155319e-19)
(-0.0105601787989 -0.0991456716738 1.01520993245e-18)
(-0.00682776561706 -0.152827772722 1.07312537153e-19)
(0.0112637973252 -0.0714695798288 1.82672309709e-18)
(0.0340158079905 -0.0614874602338 1.96730347415e-18)
(-0.0192094426911 -0.0958426333639 1.0548356144e-18)
(0.0113467356636 -0.0841800047261 8.3000782627e-19)
(-0.0688142357974 -0.132051414319 9.29869245952e-19)
(-0.0123085725397 -0.11772958454 7.74425323281e-19)
(-0.0639914647955 -0.187183846687 8.39948943679e-19)
(-0.0745881171046 -0.13330615477 7.08105842294e-19)
(-0.00989666137808 -0.173007984892 4.55620916416e-19)
(-0.0247494109949 -0.175206528348 6.60133011999e-19)
(0.00382349864171 -0.219560008052 7.82974083083e-20)
(0.0330682012905 -0.0672557005833 9.70588203326e-19)
(0.0455419196179 -0.0527927360969 9.57226343278e-19)
(0.0163836187912 -0.0932932653866 5.49597535152e-19)
(0.0373843735966 -0.0709423523177 3.68031098529e-19)
(-0.0181208930452 -0.134259942957 5.52661919622e-19)
(0.0286581043817 -0.0976844931298 3.86492397745e-19)
(-0.0357246319343 -0.198687771325 5.28289910614e-19)
(-0.0101640969192 -0.114502840854 3.92504856214e-19)
(-0.0113685436386 -0.205159773155 2.82809503891e-19)
(-0.0182909309617 -0.156987399069 3.64835623199e-19)
(0.0109689556986 -0.212234716724 2.25565366346e-20)
(0.049771524666 -0.0518320472308 3.5466923848e-19)
(0.0537992836304 -0.040162443065 3.10325789757e-19)
(0.0454112531787 -0.0693353296133 2.04925961121e-19)
(0.0548891310891 -0.0508198380129 1.11655256226e-19)
(0.0307929639916 -0.0955277225087 2.26335334336e-19)
(0.0548508783074 -0.07071241114 1.24446369874e-19)
(0.00505952015651 -0.139966075183 2.29050568799e-19)
(0.0342684514291 -0.0730357156786 1.23612629384e-19)
(0.00353887619884 -0.154903043995 1.04582655942e-19)
(-0.00336227522615 -0.0980658756758 1.14286163336e-19)
(0.0155584604841 -0.132004342906 -8.87140593757e-21)
(0.0569355762541 -0.0380769344636 6.73118075027e-20)
(0.058062171823 -0.0291102031229 5.95087993604e-20)
(0.0575794186301 -0.0440950075558 3.11756649786e-20)
(0.06090951864 -0.0311918395329 5.50633777428e-21)
(0.0498402172991 -0.0504637262503 2.17236649212e-20)
(0.0612202052801 -0.0446223810431 6.16810954529e-21)
(0.0243822395695 -0.0615539899694 8.84822392017e-21)
(0.0453529033377 -0.0350672831128 -1.28055949932e-20)
(0.00997815263061 -0.0752542926649 8.32101455742e-22)
(0.0103340192283 -0.0389392486514 -1.13282785676e-20)
(0.0109438434401 -0.0567508379563 -4.72110194323e-21)
(0.0598900162252 -0.0249913757116 -2.29667036794e-21)
(0.057141838929 -0.0202361815834 3.3005439449e-21)
(0.0611433127248 -0.0243751805994 -1.9501217659e-20)
(0.0602958096363 -0.0164864660562 -1.82995013633e-20)
(0.0501247173609 -0.0220595197198 -2.8361150369e-20)
(0.0589051591127 -0.0248933309212 -3.69971823406e-20)
(0.0292828539803 -0.0118465662624 -3.2982097481e-20)
(0.0351377600292 -0.0137679784086 -5.91904844979e-20)
(0.0137511627865 -0.029029713237 -1.68814819666e-20)
(0.0275136465846 -0.00836666663943 -5.68260326723e-20)
(0.0155177041196 -0.0316186531122 -5.13997352567e-21)
(0.0570264529121 -0.0153833099239 -1.27022870504e-20)
(0.0534580278668 -0.0153105532968 -9.05195180475e-21)
(0.0587376258976 -0.0130348804474 -3.57954660449e-20)
(0.0579494436431 -0.0103630606623 -2.65648435242e-20)
(0.0447908079364 -0.0111040995687 -6.78265164695e-20)
(0.0569748571922 -0.0163601489314 -4.96930072864e-20)
(0.033295320139 -0.00389209451124 -8.30344196892e-20)
(0.0279252397926 -0.0108788766467 -7.38345095137e-20)
(0.0287787547044 -0.0193998119496 -4.50845242313e-20)
(0.0430190747955 -0.0133289886974 -7.33976026906e-20)
(0.0279388026971 -0.0329253995079 -5.87742186377e-21)
(0.0554032426539 -0.012965179856 -2.29145082785e-20)
(0.0506588888189 -0.0137372260886 -1.64403264333e-20)
(0.0587139465115 -0.0119478059497 -4.04623847658e-20)
(0.0569333395168 -0.0112783005782 -4.67152586806e-20)
(0.046571183984 -0.014040460779 -5.57010003307e-20)
(0.0590677835325 -0.0165456612117 -7.53544220614e-20)
(0.0402637167946 -0.0228130410665 -6.41976925151e-20)
(0.036697167821 -0.0156671347312 -1.08619318629e-19)
(0.039027720706 -0.0281595451461 -3.4190500323e-20)
(0.0483653311998 -0.027934883658 -1.08588403515e-19)
(0.0289604627609 -0.040309949284 -1.99653776243e-20)
(0.053808247187 -0.0128953210034 -4.02410768354e-20)
(0.0501933812619 -0.0145261250087 -2.82508399988e-20)
(0.0610652619557 -0.0158635146625 -8.16072959762e-20)
(0.0599019899315 -0.0140775953044 -8.59711261167e-20)
(0.05447879428 -0.0218069478265 -1.2827274036e-19)
(0.0650112719908 -0.0173131838366 -1.61561326753e-19)
(0.0473517497654 -0.0350738074033 -1.53010029629e-19)
(0.0499643214753 -0.0163234588478 -2.21601213273e-19)
(0.0395428185424 -0.0408221418188 -9.43632808162e-20)
(0.0541135668617 -0.0348032023798 -2.20793727679e-19)
(0.0196706401641 -0.0478154108192 -4.07833257408e-20)
(0.0547904482182 -0.0158169592286 -7.39808892801e-20)
(0.051365319449 -0.0144500679006 -3.35785238273e-20)
(0.0643036043505 -0.015189468958 -1.65925156894e-19)
(0.0592743305493 -0.0144921687334 -1.18223978325e-19)
(0.0652756982956 -0.0193019415675 -2.54889799666e-19)
(0.0691236383041 -0.0161712555504 -2.41394619126e-19)
(0.0584008451721 -0.0382747604552 -2.89384911323e-19)
(0.0689370796314 -0.0127631229108 -3.42398988012e-19)
(0.0322313089311 -0.0402947242419 -1.67213772604e-19)
(0.0561341103359 -0.029975245888 -3.42234232808e-19)
(0.0157248568522 -0.0346012925215 -5.93290748157e-20)
(0.0567013393166 -0.0134405357171 -7.78216128726e-20)
(0.0530389721936 -0.00992405686718 -2.69072207925e-20)
(0.0649864357238 -0.01354292537 -1.93693440558e-19)
(0.0593761191785 -0.0102527202507 -1.04229436923e-19)
(0.0717818253267 -0.0159202846351 -3.28903807473e-19)
(0.0715007612194 -0.012902767259 -2.32288126609e-19)
(0.0626420347514 -0.0281997133493 -3.95248309497e-19)
(0.0812173764925 -0.00756559629264 -3.61337713111e-19)
(0.0334097494316 -0.0149474039405 -2.3434953502e-19)
(0.0428814184807 -0.013350075443 -3.59749141546e-19)
(0.0169070140351 -0.000193981376897 -8.97505466417e-20)
(0.056860535481 -0.00699200199048 -5.33150448425e-20)
(0.0541337847426 -0.00403365641096 -1.98923882198e-20)
(0.0650671630603 -0.00805105112018 -1.42824122973e-19)
(0.0604341755953 -0.00334336225125 -7.27418914738e-20)
(0.076761554777 -0.00881766046254 -2.64722032247e-19)
(0.0722670226734 -0.0050704896063 -1.63279961684e-19)
(0.0435243443534 -0.0155625109199 -3.2583854516e-19)
(0.0879626603122 0.00216970750208 -2.67515221347e-19)
(0.0219585568426 0.0334302108522 -2.15150153168e-19)
(-0.00611167869248 -0.00556318747501 -2.63476461963e-19)
(0.0624935382018 -0.0449407804624 -8.3458694604e-20)
(0.056778655903 -0.000379758125558 -3.93192348511e-20)
(0.0535169968997 0.000543903159444 -1.50086639985e-20)
(0.0662344757994 0.000156771008969 -9.31977301844e-20)
(0.0598961699843 0.00341060754062 -4.26016733905e-20)
(0.0805098165862 0.0016947634798 -1.66073150784e-19)
(0.0707284984749 0.00529885406406 -9.24252331821e-20)
(0.0656654559739 0.00156537544217 -2.05153138151e-19)
(0.0880921011337 0.0155234425621 -1.56991383756e-19)
(0.0539252417295 -0.073563615366 -1.31785003399e-19)
(0.0690170990589 0.00407605640325 -1.56850167105e-19)
(0.0760376120691 -0.0761716473629 -1.10447056706e-19)
(0.0549647362898 0.00466111274373 -1.82911025379e-20)
(0.05159415794 0.00525054933853 -6.52379593865e-21)
(0.0623975243772 0.00830372358126 -4.18291763882e-20)
(0.0562516029928 0.00959631796367 -1.2801049918e-20)
(0.0755013581033 0.0159685361823 -8.33434661546e-20)
(0.0630630279874 0.0147444152748 -4.5041763677e-20)
(0.085561644815 0.0259380305119 -1.08688412711e-19)
(0.0781218385693 0.027996094056 -7.54687961146e-20)
(0.090271899657 -0.00833288046551 -1.35512220412e-19)
(0.103289075121 0.0293578774425 -8.00871682627e-20)
(0.114784704513 -0.00776212325947 -1.06098030831e-19)
(0.0517522876899 0.0100587991377 -1.03374331879e-21)
(0.0494070536003 0.0111280176202 -2.52443623461e-21)
(0.0547255382962 0.0159733092737 -1.60136372069e-20)
(0.0503346233494 0.0162760299021 -7.08534740619e-21)
(0.062034406834 0.0297691072527 -3.7167093637e-20)
(0.0492664373825 0.021978591185 -2.38087857544e-20)
(0.0859004951742 0.0553347675745 -4.68675516661e-20)
(0.0525557793505 0.0350175221916 -4.8808362827e-20)
(0.139522978125 0.0505337918711 -5.06729786815e-20)
(0.108089792068 0.0502797331 -5.19226649323e-20)
(0.151664481654 0.163399274264 -6.19017794819e-20)
(0.047048404447 0.01594923086 -8.57604032201e-21)
(0.0465813770959 0.0173498098036 -7.38851215237e-21)
(0.0432273172052 0.0226895178011 -1.48804959537e-20)
(0.0435916344056 0.0233923498691 -1.08316516386e-20)
(0.0375656939927 0.037907001496 -3.54500549445e-20)
(0.0340481031724 0.0270630781916 -1.56311907317e-20)
(0.0538615466152 0.0701021116269 -5.38634760932e-20)
(0.0203612153447 0.0354444724593 -4.02485525907e-20)
(0.0756162482755 0.138670905197 -6.31514657327e-20)
(0.0395190220774 0.0609856936197 -3.75789299072e-20)
(0.00116664966518 0.265465594027 -2.01491773277e-20)
(0.0430897938349 0.0223838034194 -9.64412346898e-21)
(0.0426508035788 0.0231020784504 -7.84016399306e-21)
(0.0341947366571 0.0282130721538 -1.15823464166e-20)
(0.0377597596753 0.0297346778494 -1.20795397536e-20)
(0.0166590700096 0.0399801524517 -2.04296883779e-20)
(0.0222802333524 0.0304844815943 -1.06085934408e-20)
(0.00890133723144 0.0606431421299 -2.39640064047e-20)
(-0.000301478640449 0.0318054599505 -1.13277874738e-20)
(-0.0652076050179 0.111042006874 5.42335849779e-21)
(-0.0108815230221 0.0558604352097 -9.09757760117e-21)
(-0.206984339803 0.123762274651 4.34466575015e-20)
(0.0382652449345 0.0283272281019 -1.02755802777e-20)
(0.0374809670174 0.0269257502192 -4.49303530594e-21)
(0.0279553057232 0.0334293087473 -1.11057867779e-20)
(0.0326554543186 0.0334894299226 -9.38744058225e-21)
(0.00786670482233 0.0378366662297 -1.50669253672e-21)
(0.0178722306339 0.0322066518629 -8.2285715985e-21)
(-0.0175695105958 0.0414581015493 3.53864132973e-21)
(-0.00392308407043 0.0280694830659 -9.35227024301e-21)
(-0.0851563687303 0.0755119796717 2.89257214025e-20)
(-0.0449374128357 0.0420842842367 -1.05277286996e-20)
(-0.0680599824753 0.0238789922591 -2.52744673063e-20)
(0.0328285522999 0.031115680422 -3.60489561047e-21)
(0.0321759112472 0.0284004746915 -2.79702051487e-21)
(0.0243379830928 0.0351177501944 -6.51022540286e-21)
(0.0286515040854 0.0341861642198 -3.6975948869e-21)
(0.008374947552 0.0349630861169 -1.60741493048e-20)
(0.0180263400847 0.0327512899802 -8.52587626735e-21)
(-0.0318825180179 0.028471741209 -2.34186402724e-20)
(0.00256814449271 0.0272485845072 -2.26917142606e-20)
(-0.0491849661618 0.0566143187029 -6.47279174084e-20)
(-0.0730808442438 0.0329597649644 -2.37984004124e-20)
(-0.0132486336644 0.00759196127949 -5.81670636136e-20)
(0.0283432103629 0.0312237674456 -2.88971979131e-21)
(0.0275812812123 0.028552151195 -2.24408532814e-21)
(0.0226685370897 0.034569537341 -5.71324575138e-21)
(0.0253043194331 0.0333865553361 -4.83237786884e-21)
(0.0127767927538 0.0341617559262 -1.51434412231e-20)
(0.0184336131088 0.0329749967738 -1.18253290605e-20)
(-0.0284459631657 0.0260368836087 -2.30714744006e-20)
(0.0106927658871 0.0281589872494 -2.15149309775e-20)
(-0.0312168410682 0.0106024509982 -1.72375466176e-20)
(-0.0576469163833 0.0305551332402 -2.39008254108e-20)
(0.0231726489715 -0.0185510956541 2.02071884713e-21)
(0.0246364183625 0.0303382976155 -4.18674340568e-21)
(0.0209442690744 0.0332834233846 -1.0944461178e-20)
(0.015584542219 0.0342152484045 -1.81968188149e-20)
(0.0175013018786 0.0328866607608 -1.8949519472e-20)
(-0.0155233772286 0.0313775546972 -2.23442819878e-20)
(0.0135302426774 0.0280738334677 -1.85495690511e-20)
(-0.00358991376742 0.013745362877 -4.6425599461e-21)
(-0.0400150581455 0.0336268856325 -2.37210758939e-20)
(0.0657666543229 -0.00205239601832 2.98928574063e-21)
(0.0147119221633 0.0336069317088 -1.93022697081e-20)
(0.0157718392892 0.0322819935223 -1.96829430338e-20)
(-0.0104344346374 0.0376321750674 -1.99263629572e-20)
(0.00950484215445 0.0264131366724 -1.27605153279e-20)
(0.0550613356268 0.0406928882228 -1.60892302072e-20)
(-0.0430760894507 0.0371873667257 4.36583366865e-21)
(0.106924971114 0.149230305964 -7.27854694539e-23)
(0.0100782866166 0.0322810098651 -1.31411886537e-20)
(0.014384029731 0.0320333024935 -1.58922794967e-20)
(-0.0310119947867 0.040252817239 1.15316812979e-20)
(0.00153289276262 0.0264919244533 -9.48551774431e-21)
(-0.0548206740673 0.0924795792066 2.03822784064e-20)
(-0.0953030926155 0.0386338608765 7.43786911347e-21)
(-0.179928105479 0.153260328838 6.44267952979e-21)
(0.0055473544961 0.0339156307293 -1.22366085873e-20)
(-0.0532872191269 0.0381311044588 -1.35793299288e-20)
(-0.150454636743 0.0532936344832 -6.50172976315e-21)
)
;

boundaryField
{
    back
    {
        type            calculated;
        value           uniform (0 0 0);
    }
    sides
    {
        type            calculated;
        value           nonuniform List<vector> 0();
    }
    bottom
    {
        type            calculated;
        value           nonuniform List<vector> 0();
    }
    front
    {
        type            calculated;
        value           uniform (0 0 0);
    }
    atmosphere
    {
        type            calculated;
        value           nonuniform List<vector> 
27
(
(0 -0.114675036198 0)
(0.0306271504205 0.15414339641 7.943782976e-19)
(-0.0306605959286 0.154243765516 9.92084667361e-19)
(0 -0.114572496032 0)
(0 -0.183665411828 0)
(0 -0.212310901935 0)
(0 -0.159496963624 0)
(0 -0.0706425320852 0)
(0 -0.0336051770327 0)
(0 -0.0318215741101 0)
(0 -0.0291812206892 0)
(0 -0.0315320367523 0)
(0 -0.0363486261578 0)
(0 -0.0161293646135 0)
(0 -0.0121564063717 0)
(0 -0.0871081005261 0)
(0 -0.0470810454936 0)
(0.174813385436 0.0136533847651 -5.16279835751e-20)
(0.0783815864436 0.289167767496 -7.21755753887e-20)
(-0.142215913568 0.319192137896 3.18772207334e-20)
(0 -0.0634108365204 0)
(-0.0358148584627 0.00180205775617 -1.05565028882e-19)
(0 -0.0258189589324 0)
(0 -0.0288487888806 0)
(0 -0.000465672461844 0)
(-0.0424139228881 0.379331953564 8.68639361917e-21)
(0 -0.00576600857385 0)
)
;
    }
    floatingObject
    {
        type            calculated;
        value           nonuniform List<vector> 4((0 0 0) (0 0 0) (-1.04083408559e-16 0 0) (0 0 0));
    }
    procBoundary6to3
    {
        type            processor;
        value           nonuniform List<vector> 8((-0.098174205843 -0.0503831268203 7.02610354984e-18) (-0.0505613416934 -0.0506121932083 5.01179781793e-18) (-0.0202079856465 -0.0639743434141 2.95806014173e-18) (0.0130248270597 -0.0858625707988 1.52003353296e-18) (0.0485111617862 -0.120918077587 1.35735456978e-18) (0.129703926616 -0.111004876751 1.22718811136e-18) (0.010589919878 -0.099245376957 1.00631671734e-18) (0.00681174930332 -0.152903585644 1.05808939467e-19));
    }
    procBoundary6to7
    {
        type            processor;
        value           nonuniform List<vector> 
11
(
(0.0467199657343 0.013131797403 -3.44687817431e-21)
(0.0440252936279 0.0184614616132 -6.60480390117e-21)
(0.0398274603404 0.0231647218026 -3.61390131915e-21)
(0.0346424807257 0.025816440942 -1.99038309661e-21)
(0.0298010290698 0.0266334158142 -1.44290126411e-21)
(0.0256943894497 0.0265302169209 -1.3186842551e-21)
(0.0237701805064 0.0281488745892 -2.21034720101e-21)
(0.0223578240597 0.0320305633651 -6.62844594661e-21)
(0.0188250444842 0.0318789670575 -1.46335042406e-20)
(0.0166954173817 0.0308949490279 -1.13337908104e-20)
(0.0143899234905 0.0310174162404 -8.48999202425e-21)
)
;
    }
    procBoundary6to8
    {
        type            processor;
        value           nonuniform List<vector> 
16
(
(0.0981844816514 -0.0503970864952 7.04053370467e-18)
(0.0505680670501 -0.0506287358072 5.02942476933e-18)
(0.0410090915113 -0.0576559899027 3.65475438524e-18)
(0.0485000544551 -0.0557267746831 2.50887461703e-18)
(0.0521743953021 -0.0435783901719 1.01148435154e-18)
(0.0541532186748 -0.033821974436 2.01135440471e-19)
(0.0552463322244 -0.0259210926763 2.95041349093e-20)
(0.0523054759599 -0.0190755822995 -3.06351504385e-23)
(0.0501416948925 -0.0157701815563 -7.39395435125e-21)
(0.0473364564298 -0.0133636022792 -1.30971863434e-20)
(0.0478410000319 -0.0146452530438 -2.18415928491e-20)
(0.0506974160504 -0.0117654159538 -1.80305211755e-20)
(0.0515045158332 -0.00589451767054 -1.49759501403e-20)
(0.0506954124343 -0.000992991874696 -1.17369200836e-20)
(0.0500788431587 0.00274364053982 -8.0354879295e-21)
(0.0489102153991 0.00788012322291 -7.73753890876e-23)
)
;
    }
    procBoundary6to9
    {
        type            processor;
        value           nonuniform List<vector> 4((0.0114836311668 0.0320081643997 -9.34655127884e-21) (-0.00268270532428 0.0286513060475 -1.00083731234e-20) (-0.110465873253 0.0365402461373 -1.38868892915e-20) (-0.120868054391 0.0206556695708 -4.75610160901e-22));
    }
}


// ************************************************************************* //
