/*--------------------------------*- C++ -*----------------------------------*\
| =========                 |                                                 |
| \\      /  F ield         | OpenFOAM: The Open Source CFD Toolbox           |
|  \\    /   O peration     | Version:  v2012                                 |
|   \\  /    A nd           | Website:  www.openfoam.com                      |
|    \\/     M anipulation  |                                                 |
\*---------------------------------------------------------------------------*/
FoamFile
{
    version     2.0;
    format      ascii;
    class       volScalarField;
    location    "3.8";
    object      epsilon;
}
// * * * * * * * * * * * * * * * * * * * * * * * * * * * * * * * * * * * * * //

dimensions      [0 2 -3 0 0 0 0];


internalField   nonuniform List<scalar> 
167
(
0.000879111102589
0.000987333780095
0.0010572477842
0.00108456368559
0.00109809187957
0.0011074939082
0.00111586379938
0.00112422808645
0.000991526988752
0.0010154238715
0.00110334080416
0.00113681294252
0.00115185558261
0.00116105980697
0.00116862533678
0.00117601732974
0.00106692848229
0.00111126883985
0.00121397768624
0.00125284767312
0.00126966101873
0.00127947759377
0.00128741665459
0.00129518460865
0.00109757019107
0.00114995092008
0.00125893774776
0.00130005945194
0.00131743594234
0.00132729991095
0.00133520610011
0.00134301286047
0.00135170035678
0.00111223417606
0.00116741608912
0.00127899464223
0.0013209205797
0.00133831456539
0.00134796476785
0.00135564412375
0.00136328661816
0.00137190539867
0.00138317892572
0.00112131382419
0.00117719182323
0.00128987985073
0.00133200710459
0.00134919457772
0.00135852031795
0.00136588653181
0.00137326406442
0.00138165689368
0.0013927004007
0.00112843815246
0.00118428272608
0.00129751304988
0.00133961819676
0.00135652959979
0.00136550361809
0.00137253005756
0.00137959571251
0.00138769316454
0.00139839357489
0.00113490116813
0.00119040960432
0.00130401645664
0.00134605197539
0.00136269288901
0.00137133306309
0.00137802073852
0.0013847685628
0.0013925512307
0.0014028666533
0.00114103870323
0.00119617785955
0.0013101228504
0.00135210007365
0.0013685010591
0.00137684441241
0.00138322219695
0.00138966399194
0.00139712603299
0.00140704584159
0.00114696733469
0.00120177433248
0.00131605953415
0.00135800824432
0.00137420721623
0.0013822859623
0.00138838966967
0.00139455069361
0.00140171327542
0.00141124438898
0.00115273305684
0.00120720684526
0.00132186607164
0.00136382672232
0.00137986571293
0.00138771748612
0.00139357586062
0.00139948571662
0.00140636846516
0.00141553319372
0.00115830323643
0.00121249654276
0.00132754582416
0.00136954658958
0.00138546221546
0.00139312519413
0.00139877009117
0.00140445429563
0.00141108419638
0.00141990012646
0.00116361500389
0.00121759940715
0.00133307580735
0.00137514864917
0.00139097034894
0.00139847674887
0.00140394113858
0.00140942690053
0.00141582349039
0.00142431259456
0.00116871148956
0.00122253087469
0.00133843302311
0.00138059869634
0.0013963575141
0.00140373604613
0.00140904790739
0.00141436548601
0.00142055554601
0.00142873705286
0.00117359368248
0.00122721080138
0.00134358190946
0.00138587529971
0.00140159749169
0.00140887329537
0.00141405539889
0.00141922977622
0.00142524095135
0.00143314804617
0.00117822211909
0.0012316640703
0.00134850457248
0.0013909496592
0.00140665912236
0.00141385831432
0.00141894056614
0.00142399458539
0.00142986279568
0.0014375196351
0.00118258274356
0.0012358823171
0.00135318180712
0.00139578982179
0.00141152011685
0.00141867190113
0.00142367611151
0.00118670052786
0.00123980918894
0.00135759066575
0.0014003927267
0.00141615912172
0.00136173243408
0.0014047382725
)
;

boundaryField
{
    back
    {
        lowReCorrection 0;
        blending        stepwise;
        n               2;
        type            epsilonWallFunction;
        value           nonuniform List<scalar> 
167
(
0.000879111102589
0.000987333780095
0.0010572477842
0.00108456368559
0.00109809187957
0.0011074939082
0.00111586379938
0.00112422808645
0.000991526988752
0.0010154238715
0.00110334080416
0.00113681294252
0.00115185558261
0.00116105980697
0.00116862533678
0.00117601732974
0.00106692848229
0.00111126883985
0.00121397768624
0.00125284767312
0.00126966101873
0.00127947759377
0.00128741665459
0.00129518460865
0.00109757019107
0.00114995092008
0.00125893774776
0.00130005945194
0.00131743594234
0.00132729991095
0.00133520610011
0.00134301286047
0.00135170035678
0.00111223417606
0.00116741608912
0.00127899464223
0.0013209205797
0.00133831456539
0.00134796476785
0.00135564412375
0.00136328661816
0.00137190539867
0.00138317892572
0.00112131382419
0.00117719182323
0.00128987985073
0.00133200710459
0.00134919457772
0.00135852031795
0.00136588653181
0.00137326406442
0.00138165689368
0.0013927004007
0.00112843815246
0.00118428272608
0.00129751304988
0.00133961819676
0.00135652959979
0.00136550361809
0.00137253005756
0.00137959571251
0.00138769316454
0.00139839357489
0.00113490116813
0.00119040960432
0.00130401645664
0.00134605197539
0.00136269288901
0.00137133306309
0.00137802073852
0.0013847685628
0.0013925512307
0.0014028666533
0.00114103870323
0.00119617785955
0.0013101228504
0.00135210007365
0.0013685010591
0.00137684441241
0.00138322219695
0.00138966399194
0.00139712603299
0.00140704584159
0.00114696733469
0.00120177433248
0.00131605953415
0.00135800824432
0.00137420721623
0.0013822859623
0.00138838966967
0.00139455069361
0.00140171327542
0.00141124438898
0.00115273305684
0.00120720684526
0.00132186607164
0.00136382672232
0.00137986571293
0.00138771748612
0.00139357586062
0.00139948571662
0.00140636846516
0.00141553319372
0.00115830323643
0.00121249654276
0.00132754582416
0.00136954658958
0.00138546221546
0.00139312519413
0.00139877009117
0.00140445429563
0.00141108419638
0.00141990012646
0.00116361500389
0.00121759940715
0.00133307580735
0.00137514864917
0.00139097034894
0.00139847674887
0.00140394113858
0.00140942690053
0.00141582349039
0.00142431259456
0.00116871148956
0.00122253087469
0.00133843302311
0.00138059869634
0.0013963575141
0.00140373604613
0.00140904790739
0.00141436548601
0.00142055554601
0.00142873705286
0.00117359368248
0.00122721080138
0.00134358190946
0.00138587529971
0.00140159749169
0.00140887329537
0.00141405539889
0.00141922977622
0.00142524095135
0.00143314804617
0.00117822211909
0.0012316640703
0.00134850457248
0.0013909496592
0.00140665912236
0.00141385831432
0.00141894056614
0.00142399458539
0.00142986279568
0.0014375196351
0.00118258274356
0.0012358823171
0.00135318180712
0.00139578982179
0.00141152011685
0.00141867190113
0.00142367611151
0.00118670052786
0.00123980918894
0.00135759066575
0.0014003927267
0.00141615912172
0.00136173243408
0.0014047382725
)
;
    }
    sides
    {
        lowReCorrection 0;
        blending        stepwise;
        n               2;
        type            epsilonWallFunction;
        value           nonuniform List<scalar> 8(0.000879111102589 0.000987333780095 0.0010572477842 0.00108456368559 0.00109809187957 0.0011074939082 0.00111586379938 0.00112422808645);
    }
    bottom
    {
        lowReCorrection 0;
        blending        stepwise;
        n               2;
        type            epsilonWallFunction;
        value           nonuniform List<scalar> 
18
(
0.000879111102589
0.000991526988752
0.00106692848229
0.00109757019107
0.00111223417606
0.00112131382419
0.00112843815246
0.00113490116813
0.00114103870323
0.00114696733469
0.00115273305684
0.00115830323643
0.00116361500389
0.00116871148956
0.00117359368248
0.00117822211909
0.00118258274356
0.00118670052786
)
;
    }
    front
    {
        lowReCorrection 0;
        blending        stepwise;
        n               2;
        type            epsilonWallFunction;
        value           nonuniform List<scalar> 
167
(
0.000879111102589
0.000987333780095
0.0010572477842
0.00108456368559
0.00109809187957
0.0011074939082
0.00111586379938
0.00112422808645
0.000991526988752
0.0010154238715
0.00110334080416
0.00113681294252
0.00115185558261
0.00116105980697
0.00116862533678
0.00117601732974
0.00106692848229
0.00111126883985
0.00121397768624
0.00125284767312
0.00126966101873
0.00127947759377
0.00128741665459
0.00129518460865
0.00109757019107
0.00114995092008
0.00125893774776
0.00130005945194
0.00131743594234
0.00132729991095
0.00133520610011
0.00134301286047
0.00135170035678
0.00111223417606
0.00116741608912
0.00127899464223
0.0013209205797
0.00133831456539
0.00134796476785
0.00135564412375
0.00136328661816
0.00137190539867
0.00138317892572
0.00112131382419
0.00117719182323
0.00128987985073
0.00133200710459
0.00134919457772
0.00135852031795
0.00136588653181
0.00137326406442
0.00138165689368
0.0013927004007
0.00112843815246
0.00118428272608
0.00129751304988
0.00133961819676
0.00135652959979
0.00136550361809
0.00137253005756
0.00137959571251
0.00138769316454
0.00139839357489
0.00113490116813
0.00119040960432
0.00130401645664
0.00134605197539
0.00136269288901
0.00137133306309
0.00137802073852
0.0013847685628
0.0013925512307
0.0014028666533
0.00114103870323
0.00119617785955
0.0013101228504
0.00135210007365
0.0013685010591
0.00137684441241
0.00138322219695
0.00138966399194
0.00139712603299
0.00140704584159
0.00114696733469
0.00120177433248
0.00131605953415
0.00135800824432
0.00137420721623
0.0013822859623
0.00138838966967
0.00139455069361
0.00140171327542
0.00141124438898
0.00115273305684
0.00120720684526
0.00132186607164
0.00136382672232
0.00137986571293
0.00138771748612
0.00139357586062
0.00139948571662
0.00140636846516
0.00141553319372
0.00115830323643
0.00121249654276
0.00132754582416
0.00136954658958
0.00138546221546
0.00139312519413
0.00139877009117
0.00140445429563
0.00141108419638
0.00141990012646
0.00116361500389
0.00121759940715
0.00133307580735
0.00137514864917
0.00139097034894
0.00139847674887
0.00140394113858
0.00140942690053
0.00141582349039
0.00142431259456
0.00116871148956
0.00122253087469
0.00133843302311
0.00138059869634
0.0013963575141
0.00140373604613
0.00140904790739
0.00141436548601
0.00142055554601
0.00142873705286
0.00117359368248
0.00122721080138
0.00134358190946
0.00138587529971
0.00140159749169
0.00140887329537
0.00141405539889
0.00141922977622
0.00142524095135
0.00143314804617
0.00117822211909
0.0012316640703
0.00134850457248
0.0013909496592
0.00140665912236
0.00141385831432
0.00141894056614
0.00142399458539
0.00142986279568
0.0014375196351
0.00118258274356
0.0012358823171
0.00135318180712
0.00139578982179
0.00141152011685
0.00141867190113
0.00142367611151
0.00118670052786
0.00123980918894
0.00135759066575
0.0014003927267
0.00141615912172
0.00136173243408
0.0014047382725
)
;
    }
    atmosphere
    {
        type            inletOutlet;
        inletValue      nonuniform List<scalar> 0();
        value           nonuniform List<scalar> 0();
    }
    floatingObject
    {
        lowReCorrection 0;
        blending        stepwise;
        n               2;
        type            epsilonWallFunction;
        value           nonuniform List<scalar> 0();
    }
    procBoundary2to0
    {
        type            processor;
        value           nonuniform List<scalar> 
14
(
0.00142863978882
0.00143438037389
0.00144183729018
0.00142328718395
0.00142863978882
0.00142824352845
0.00119047186227
0.00124346033229
0.00142328718395
0.00142056942291
0.00124346033229
0.00136558778732
0.00142056942291
0.00140881931122
)
;
    }
    procBoundary2to1
    {
        type            processor;
        value           nonuniform List<scalar> 
18
(
0.00113314672417
0.00118400454696
0.00130373452228
0.00130373452228
0.00136302596979
0.00136302596979
0.00140131651441
0.00141041254054
0.00141555314057
0.00141940808941
0.00142296629545
0.00142653578136
0.00143021981988
0.00143401109995
0.00143785682743
0.00144171593692
0.00144557427874
0.00144946835717
)
;
    }
}


// ************************************************************************* //
