/*--------------------------------*- C++ -*----------------------------------*\
| =========                 |                                                 |
| \\      /  F ield         | OpenFOAM: The Open Source CFD Toolbox           |
|  \\    /   O peration     | Version:  v2012                                 |
|   \\  /    A nd           | Website:  www.openfoam.com                      |
|    \\/     M anipulation  |                                                 |
\*---------------------------------------------------------------------------*/
FoamFile
{
    version     2.0;
    format      ascii;
    class       volScalarField;
    location    "3.8";
    object      k_0;
}
// * * * * * * * * * * * * * * * * * * * * * * * * * * * * * * * * * * * * * //

dimensions      [0 2 -2 0 0 0 0];


internalField   nonuniform List<scalar> 
167
(
0.00174856986684
0.0020436106576
0.00213897980379
0.00217566587942
0.00219372043862
0.0022062246144
0.002217326363
0.0022283929831
0.00204939271555
0.00252239384868
0.00266596497317
0.00271961435938
0.00274355291159
0.00275814893381
0.00277011745983
0.00278178653315
0.0021520170158
0.00267872055691
0.00284133073237
0.00290166207256
0.0029275647548
0.0029426353143
0.00295479531229
0.0029666690617
0.00219302557912
0.00274052765755
0.00291105776267
0.00297410840778
0.00300055085013
0.00301550946635
0.00302747239037
0.00303926172116
0.00305235426918
0.00221251548383
0.00276820619085
0.00294189478308
0.00300583952102
0.00303216936565
0.00304672797329
0.00305828848767
0.00306977185864
0.00308269645311
0.00309956128864
0.00222454030671
0.00278363834633
0.00295856302364
0.00302263481409
0.00304858080442
0.00306261269242
0.0030736735117
0.00308473141514
0.00309728706023
0.00311376944759
0.00223395284881
0.00279480545633
0.00297022358533
0.00303413810542
0.00305962007927
0.00307309903413
0.00308363212873
0.00309420590062
0.00310630158796
0.00312224946046
0.00224247455356
0.00280443643468
0.00298014023397
0.00304384504064
0.00306888051006
0.00308183902783
0.00309185051418
0.00310193564247
0.00311354710292
0.0031289040637
0.00225055213841
0.00281348859555
0.00298943650545
0.00305295598901
0.00307759459958
0.00309009072348
0.00309962593254
0.00310924197673
0.00312036244754
0.00313511505809
0.00225834104537
0.00282225728053
0.00299846057657
0.00306184304046
0.00308614364029
0.00309822711912
0.00310734090227
0.00311652673387
0.00312718885985
0.00314134863445
0.00226590306372
0.00283075605902
0.00300727370168
0.00307058258915
0.00309460959843
0.00310633788317
0.00311507420049
0.00312387489471
0.00313410877792
0.00314770983656
0.002273196654
0.00283901917164
0.00301588191707
0.00307916191507
0.0031029714287
0.00311440257806
0.00312280987732
0.00313126429944
0.0031411109103
0.00315418032142
0.00228014099677
0.00284697904981
0.0030242513552
0.00308755296955
0.00311119023854
0.00312237326315
0.00313050152242
0.00313865097221
0.00314814017545
0.00316071154208
0.00228679396445
0.00285466100961
0.0030323482865
0.00309570540395
0.00311921806146
0.00313019663885
0.0031380882941
0.00314597851695
0.00315515088378
0.00316725374182
0.00229315813024
0.00286194158656
0.00304012017246
0.00310358817833
0.00312701665032
0.00313782903665
0.00314551868151
0.00315318749481
0.00316208481241
0.00317376931264
0.00229918336877
0.00286886096277
0.00304754131212
0.00311115938722
0.00313454058506
0.00314522640271
0.00315275911006
0.0031602410589
0.00316891723667
0.0031802200864
0.0023048527588
0.00287540748071
0.00305458409556
0.00311837258738
0.00314175779069
0.00315236113108
0.00315976985312
0.00231020003063
0.00288149510758
0.00306121534394
0.00312522447621
0.00314863768224
0.00306743833245
0.00313168637401
)
;

boundaryField
{
    back
    {
        type            kqRWallFunction;
        value           nonuniform List<scalar> 
167
(
0.00174856986684
0.0020436106576
0.00213897980379
0.00217566587942
0.00219372043862
0.0022062246144
0.002217326363
0.0022283929831
0.00204939271555
0.00252239384868
0.00266596497317
0.00271961435938
0.00274355291159
0.00275814893381
0.00277011745983
0.00278178653315
0.0021520170158
0.00267872055691
0.00284133073237
0.00290166207256
0.0029275647548
0.0029426353143
0.00295479531229
0.0029666690617
0.00219302557912
0.00274052765755
0.00291105776267
0.00297410840778
0.00300055085013
0.00301550946635
0.00302747239037
0.00303926172116
0.00305235426918
0.00221251548383
0.00276820619085
0.00294189478308
0.00300583952102
0.00303216936565
0.00304672797329
0.00305828848767
0.00306977185864
0.00308269645311
0.00309956128864
0.00222454030671
0.00278363834633
0.00295856302364
0.00302263481409
0.00304858080442
0.00306261269242
0.0030736735117
0.00308473141514
0.00309728706023
0.00311376944759
0.00223395284881
0.00279480545633
0.00297022358533
0.00303413810542
0.00305962007927
0.00307309903413
0.00308363212873
0.00309420590062
0.00310630158796
0.00312224946046
0.00224247455356
0.00280443643468
0.00298014023397
0.00304384504064
0.00306888051006
0.00308183902783
0.00309185051418
0.00310193564247
0.00311354710292
0.0031289040637
0.00225055213841
0.00281348859555
0.00298943650545
0.00305295598901
0.00307759459958
0.00309009072348
0.00309962593254
0.00310924197673
0.00312036244754
0.00313511505809
0.00225834104537
0.00282225728053
0.00299846057657
0.00306184304046
0.00308614364029
0.00309822711912
0.00310734090227
0.00311652673387
0.00312718885985
0.00314134863445
0.00226590306372
0.00283075605902
0.00300727370168
0.00307058258915
0.00309460959843
0.00310633788317
0.00311507420049
0.00312387489471
0.00313410877792
0.00314770983656
0.002273196654
0.00283901917164
0.00301588191707
0.00307916191507
0.0031029714287
0.00311440257806
0.00312280987732
0.00313126429944
0.0031411109103
0.00315418032142
0.00228014099677
0.00284697904981
0.0030242513552
0.00308755296955
0.00311119023854
0.00312237326315
0.00313050152242
0.00313865097221
0.00314814017545
0.00316071154208
0.00228679396445
0.00285466100961
0.0030323482865
0.00309570540395
0.00311921806146
0.00313019663885
0.0031380882941
0.00314597851695
0.00315515088378
0.00316725374182
0.00229315813024
0.00286194158656
0.00304012017246
0.00310358817833
0.00312701665032
0.00313782903665
0.00314551868151
0.00315318749481
0.00316208481241
0.00317376931264
0.00229918336877
0.00286886096277
0.00304754131212
0.00311115938722
0.00313454058506
0.00314522640271
0.00315275911006
0.0031602410589
0.00316891723667
0.0031802200864
0.0023048527588
0.00287540748071
0.00305458409556
0.00311837258738
0.00314175779069
0.00315236113108
0.00315976985312
0.00231020003063
0.00288149510758
0.00306121534394
0.00312522447621
0.00314863768224
0.00306743833245
0.00313168637401
)
;
    }
    sides
    {
        type            kqRWallFunction;
        value           nonuniform List<scalar> 8(0.00174856986684 0.0020436106576 0.00213897980379 0.00217566587942 0.00219372043862 0.0022062246144 0.002217326363 0.0022283929831);
    }
    bottom
    {
        type            kqRWallFunction;
        value           nonuniform List<scalar> 
18
(
0.00174856986684
0.00204939271555
0.0021520170158
0.00219302557912
0.00221251548383
0.00222454030671
0.00223395284881
0.00224247455356
0.00225055213841
0.00225834104537
0.00226590306372
0.002273196654
0.00228014099677
0.00228679396445
0.00229315813024
0.00229918336877
0.0023048527588
0.00231020003063
)
;
    }
    front
    {
        type            kqRWallFunction;
        value           nonuniform List<scalar> 
167
(
0.00174856986684
0.0020436106576
0.00213897980379
0.00217566587942
0.00219372043862
0.0022062246144
0.002217326363
0.0022283929831
0.00204939271555
0.00252239384868
0.00266596497317
0.00271961435938
0.00274355291159
0.00275814893381
0.00277011745983
0.00278178653315
0.0021520170158
0.00267872055691
0.00284133073237
0.00290166207256
0.0029275647548
0.0029426353143
0.00295479531229
0.0029666690617
0.00219302557912
0.00274052765755
0.00291105776267
0.00297410840778
0.00300055085013
0.00301550946635
0.00302747239037
0.00303926172116
0.00305235426918
0.00221251548383
0.00276820619085
0.00294189478308
0.00300583952102
0.00303216936565
0.00304672797329
0.00305828848767
0.00306977185864
0.00308269645311
0.00309956128864
0.00222454030671
0.00278363834633
0.00295856302364
0.00302263481409
0.00304858080442
0.00306261269242
0.0030736735117
0.00308473141514
0.00309728706023
0.00311376944759
0.00223395284881
0.00279480545633
0.00297022358533
0.00303413810542
0.00305962007927
0.00307309903413
0.00308363212873
0.00309420590062
0.00310630158796
0.00312224946046
0.00224247455356
0.00280443643468
0.00298014023397
0.00304384504064
0.00306888051006
0.00308183902783
0.00309185051418
0.00310193564247
0.00311354710292
0.0031289040637
0.00225055213841
0.00281348859555
0.00298943650545
0.00305295598901
0.00307759459958
0.00309009072348
0.00309962593254
0.00310924197673
0.00312036244754
0.00313511505809
0.00225834104537
0.00282225728053
0.00299846057657
0.00306184304046
0.00308614364029
0.00309822711912
0.00310734090227
0.00311652673387
0.00312718885985
0.00314134863445
0.00226590306372
0.00283075605902
0.00300727370168
0.00307058258915
0.00309460959843
0.00310633788317
0.00311507420049
0.00312387489471
0.00313410877792
0.00314770983656
0.002273196654
0.00283901917164
0.00301588191707
0.00307916191507
0.0031029714287
0.00311440257806
0.00312280987732
0.00313126429944
0.0031411109103
0.00315418032142
0.00228014099677
0.00284697904981
0.0030242513552
0.00308755296955
0.00311119023854
0.00312237326315
0.00313050152242
0.00313865097221
0.00314814017545
0.00316071154208
0.00228679396445
0.00285466100961
0.0030323482865
0.00309570540395
0.00311921806146
0.00313019663885
0.0031380882941
0.00314597851695
0.00315515088378
0.00316725374182
0.00229315813024
0.00286194158656
0.00304012017246
0.00310358817833
0.00312701665032
0.00313782903665
0.00314551868151
0.00315318749481
0.00316208481241
0.00317376931264
0.00229918336877
0.00286886096277
0.00304754131212
0.00311115938722
0.00313454058506
0.00314522640271
0.00315275911006
0.0031602410589
0.00316891723667
0.0031802200864
0.0023048527588
0.00287540748071
0.00305458409556
0.00311837258738
0.00314175779069
0.00315236113108
0.00315976985312
0.00231020003063
0.00288149510758
0.00306121534394
0.00312522447621
0.00314863768224
0.00306743833245
0.00313168637401
)
;
    }
    atmosphere
    {
        type            inletOutlet;
        inletValue      nonuniform List<scalar> 0();
        value           nonuniform List<scalar> 0();
    }
    floatingObject
    {
        type            kqRWallFunction;
        value           nonuniform List<scalar> 0();
    }
    procBoundary2to0
    {
        type            processor;
        value           nonuniform List<scalar> 
14
(
0.00316710999557
0.00317558841459
0.00318658485925
0.0031591943582
0.00316710999557
0.00316652432976
0.00231509198577
0.00288714952319
0.0031591943582
0.00315517143145
0.00288714952319
0.0030732253161
0.00315517143145
0.00313774888082
)
;
    }
    procBoundary2to1
    {
        type            processor;
        value           nonuniform List<scalar> 
18
(
0.00224016286309
0.00279436778666
0.00297971067181
0.00297971067181
0.00306938057064
0.00306938057064
0.00312659872245
0.00314011408204
0.00314773940692
0.00315345160198
0.00315871950101
0.00316399968985
0.00316944471528
0.00317504336513
0.00318071737997
0.00318640605596
0.00319208852839
0.00319781850904
)
;
    }
}


// ************************************************************************* //
