/*--------------------------------*- C++ -*----------------------------------*\
| =========                 |                                                 |
| \\      /  F ield         | OpenFOAM: The Open Source CFD Toolbox           |
|  \\    /   O peration     | Version:  v2012                                 |
|   \\  /    A nd           | Website:  www.openfoam.com                      |
|    \\/     M anipulation  |                                                 |
\*---------------------------------------------------------------------------*/
FoamFile
{
    version     2.0;
    format      ascii;
    class       volScalarField;
    location    "2.3";
    object      k_0;
}
// * * * * * * * * * * * * * * * * * * * * * * * * * * * * * * * * * * * * * //

dimensions      [0 2 -2 0 0 0 0];


internalField   nonuniform List<scalar> 
164
(
0.00487884852382
0.00607750103945
0.00645917031303
0.00660894976207
0.00666728418188
0.00666015606955
0.00653077194933
0.00617307442248
0.00565238805049
0.00563136287616
0.00576929328794
0.00606089317691
0.00640530747408
0.00695498209887
0.0049050176022
0.00610241699211
0.0064848068133
0.0066381383718
0.0067076485256
0.00673936914137
0.00673820086702
0.00669404812658
0.00662110988081
0.00667056660339
0.00676115865711
0.00683444704108
0.00690141878846
0.00718670367448
0.00493426756436
0.00613230586474
0.00651512118618
0.00666978264029
0.00674356474157
0.00678896099492
0.00682326285088
0.00685165113145
0.00688171021668
0.0069383476392
0.00700764306961
0.00707428649074
0.00713341733951
0.00726033015864
0.00496531666924
0.00616553309793
0.0065484523283
0.00670286139248
0.00677697501108
0.00682495475559
0.00686670112544
0.00690922833311
0.00695616079741
0.00701153057301
0.00707302100843
0.00713650226885
0.00720016476542
0.00729490353246
0.00499677458057
0.00620033954814
0.00658308954231
0.0067361159444
0.00680866886555
0.00685527451019
0.00689617611315
0.00693858647203
0.00698501976304
0.00703638726299
0.00709205356134
0.00715061662821
0.00721348461641
0.00730714564859
0.00502745843745
0.00623514291441
0.00661750188984
0.00676845799286
0.00683857560179
0.00688262840826
0.00692077401302
0.00696019687681
0.00700318838656
0.00705030025665
0.00710122628136
0.00715569940861
0.00721791056242
0.00732199666298
0.0050565470892
0.006268779426
0.0066505675005
0.00679903721928
0.00686632248928
0.00690754311717
0.00694273470014
0.00697896232769
0.00701851527875
0.00706194621137
0.0071091891366
0.00716108639579
0.0072262525769
0.00735917439488
0.00508355038992
0.00630045716922
0.00668152052608
0.00682727561406
0.00689155896079
0.00692994332579
0.00696237247223
0.00699575171717
0.00703229775954
0.00707265749341
0.00711713678356
0.00716805933522
0.00724220332723
0.00743471112778
0.00510832324466
0.00632972955886
0.00670994706409
0.00685282570171
0.00691412763177
0.00694980580838
0.00697968099805
0.00701052859383
0.00704451465209
0.00708240577254
0.00712526162727
0.00717944011766
0.00728677511413
0.00766724664623
0.00513041621312
0.00635624803518
0.00673554019319
0.0068755803371
0.00693398200382
0.00696714448114
0.0069947222046
0.00702329432759
0.00705496736353
0.00709047203672
0.00713078479278
0.0071806590015
0.00726864002915
0.00754554576209
0.00514996604422
0.00637994598593
0.00675827506909
0.00689551544888
0.00695116498254
0.00698199643701
0.00700751821019
0.00703405406427
0.00706362502728
0.00709696297804
0.00713500204009
0.00718204291423
0.00726116775056
0.0074870780014
0.0070705388481
0.00710192792956
0.00713820609884
0.00718507312714
0.00727225062099
0.00753323270398
0.00718936323502
0.00729387928105
0.00762550190366
0.00755316254148
)
;

boundaryField
{
    back
    {
        type            kqRWallFunction;
        value           nonuniform List<scalar> 
164
(
0.00487884852382
0.00607750103945
0.00645917031303
0.00660894976207
0.00666728418188
0.00666015606955
0.00653077194933
0.00617307442248
0.00565238805049
0.00563136287616
0.00576929328794
0.00606089317691
0.00640530747408
0.00695498209887
0.0049050176022
0.00610241699211
0.0064848068133
0.0066381383718
0.0067076485256
0.00673936914137
0.00673820086702
0.00669404812658
0.00662110988081
0.00667056660339
0.00676115865711
0.00683444704108
0.00690141878846
0.00718670367448
0.00493426756436
0.00613230586474
0.00651512118618
0.00666978264029
0.00674356474157
0.00678896099492
0.00682326285088
0.00685165113145
0.00688171021668
0.0069383476392
0.00700764306961
0.00707428649074
0.00713341733951
0.00726033015864
0.00496531666924
0.00616553309793
0.0065484523283
0.00670286139248
0.00677697501108
0.00682495475559
0.00686670112544
0.00690922833311
0.00695616079741
0.00701153057301
0.00707302100843
0.00713650226885
0.00720016476542
0.00729490353246
0.00499677458057
0.00620033954814
0.00658308954231
0.0067361159444
0.00680866886555
0.00685527451019
0.00689617611315
0.00693858647203
0.00698501976304
0.00703638726299
0.00709205356134
0.00715061662821
0.00721348461641
0.00730714564859
0.00502745843745
0.00623514291441
0.00661750188984
0.00676845799286
0.00683857560179
0.00688262840826
0.00692077401302
0.00696019687681
0.00700318838656
0.00705030025665
0.00710122628136
0.00715569940861
0.00721791056242
0.00732199666298
0.0050565470892
0.006268779426
0.0066505675005
0.00679903721928
0.00686632248928
0.00690754311717
0.00694273470014
0.00697896232769
0.00701851527875
0.00706194621137
0.0071091891366
0.00716108639579
0.0072262525769
0.00735917439488
0.00508355038992
0.00630045716922
0.00668152052608
0.00682727561406
0.00689155896079
0.00692994332579
0.00696237247223
0.00699575171717
0.00703229775954
0.00707265749341
0.00711713678356
0.00716805933522
0.00724220332723
0.00743471112778
0.00510832324466
0.00632972955886
0.00670994706409
0.00685282570171
0.00691412763177
0.00694980580838
0.00697968099805
0.00701052859383
0.00704451465209
0.00708240577254
0.00712526162727
0.00717944011766
0.00728677511413
0.00766724664623
0.00513041621312
0.00635624803518
0.00673554019319
0.0068755803371
0.00693398200382
0.00696714448114
0.0069947222046
0.00702329432759
0.00705496736353
0.00709047203672
0.00713078479278
0.0071806590015
0.00726864002915
0.00754554576209
0.00514996604422
0.00637994598593
0.00675827506909
0.00689551544888
0.00695116498254
0.00698199643701
0.00700751821019
0.00703405406427
0.00706362502728
0.00709696297804
0.00713500204009
0.00718204291423
0.00726116775056
0.0074870780014
0.0070705388481
0.00710192792956
0.00713820609884
0.00718507312714
0.00727225062099
0.00753323270398
0.00718936323502
0.00729387928105
0.00762550190366
0.00755316254148
)
;
    }
    sides
    {
        type            kqRWallFunction;
        value           nonuniform List<scalar> 0();
    }
    bottom
    {
        type            kqRWallFunction;
        value           nonuniform List<scalar> 
11
(
0.00487884852382
0.0049050176022
0.00493426756436
0.00496531666924
0.00499677458057
0.00502745843745
0.0050565470892
0.00508355038992
0.00510832324466
0.00513041621312
0.00514996604422
)
;
    }
    front
    {
        type            kqRWallFunction;
        value           nonuniform List<scalar> 
164
(
0.00487884852382
0.00607750103945
0.00645917031303
0.00660894976207
0.00666728418188
0.00666015606955
0.00653077194933
0.00617307442248
0.00565238805049
0.00563136287616
0.00576929328794
0.00606089317691
0.00640530747408
0.00695498209887
0.0049050176022
0.00610241699211
0.0064848068133
0.0066381383718
0.0067076485256
0.00673936914137
0.00673820086702
0.00669404812658
0.00662110988081
0.00667056660339
0.00676115865711
0.00683444704108
0.00690141878846
0.00718670367448
0.00493426756436
0.00613230586474
0.00651512118618
0.00666978264029
0.00674356474157
0.00678896099492
0.00682326285088
0.00685165113145
0.00688171021668
0.0069383476392
0.00700764306961
0.00707428649074
0.00713341733951
0.00726033015864
0.00496531666924
0.00616553309793
0.0065484523283
0.00670286139248
0.00677697501108
0.00682495475559
0.00686670112544
0.00690922833311
0.00695616079741
0.00701153057301
0.00707302100843
0.00713650226885
0.00720016476542
0.00729490353246
0.00499677458057
0.00620033954814
0.00658308954231
0.0067361159444
0.00680866886555
0.00685527451019
0.00689617611315
0.00693858647203
0.00698501976304
0.00703638726299
0.00709205356134
0.00715061662821
0.00721348461641
0.00730714564859
0.00502745843745
0.00623514291441
0.00661750188984
0.00676845799286
0.00683857560179
0.00688262840826
0.00692077401302
0.00696019687681
0.00700318838656
0.00705030025665
0.00710122628136
0.00715569940861
0.00721791056242
0.00732199666298
0.0050565470892
0.006268779426
0.0066505675005
0.00679903721928
0.00686632248928
0.00690754311717
0.00694273470014
0.00697896232769
0.00701851527875
0.00706194621137
0.0071091891366
0.00716108639579
0.0072262525769
0.00735917439488
0.00508355038992
0.00630045716922
0.00668152052608
0.00682727561406
0.00689155896079
0.00692994332579
0.00696237247223
0.00699575171717
0.00703229775954
0.00707265749341
0.00711713678356
0.00716805933522
0.00724220332723
0.00743471112778
0.00510832324466
0.00632972955886
0.00670994706409
0.00685282570171
0.00691412763177
0.00694980580838
0.00697968099805
0.00701052859383
0.00704451465209
0.00708240577254
0.00712526162727
0.00717944011766
0.00728677511413
0.00766724664623
0.00513041621312
0.00635624803518
0.00673554019319
0.0068755803371
0.00693398200382
0.00696714448114
0.0069947222046
0.00702329432759
0.00705496736353
0.00709047203672
0.00713078479278
0.0071806590015
0.00726864002915
0.00754554576209
0.00514996604422
0.00637994598593
0.00675827506909
0.00689551544888
0.00695116498254
0.00698199643701
0.00700751821019
0.00703405406427
0.00706362502728
0.00709696297804
0.00713500204009
0.00718204291423
0.00726116775056
0.0074870780014
0.0070705388481
0.00710192792956
0.00713820609884
0.00718507312714
0.00727225062099
0.00753323270398
0.00718936323502
0.00729387928105
0.00762550190366
0.00755316254148
)
;
    }
    atmosphere
    {
        type            inletOutlet;
        inletValue      nonuniform List<scalar> 0();
        value           nonuniform List<scalar> 0();
    }
    floatingObject
    {
        type            kqRWallFunction;
        value           nonuniform List<scalar> 4(0.00565238805049 0.00563136287616 0.00576929328794 0.00606089317691);
    }
    procBoundary8to3
    {
        type            processor;
        value           nonuniform List<scalar> 8(0.0048578076786 0.0060591928178 0.00643985115323 0.00658379285441 0.00662587064377 0.00657320006714 0.00632685102565 0.00544758517038);
    }
    procBoundary8to6
    {
        type            processor;
        value           nonuniform List<scalar> 
16
(
0.00589829291987
0.00676367681795
0.00752119908333
0.00778644521848
0.00754260387183
0.00755694038265
0.00758899000667
0.0076688936026
0.00784496651464
0.0081649069179
0.00907834978043
0.00860485448495
0.00832615873056
0.00843720301008
0.00867550518388
0.00847280796433
)
;
    }
    procBoundary8to7
    {
        type            processor;
        value           nonuniform List<scalar> 
17
(
0.00516694711369
0.00640084021315
0.00677814945425
0.00691270172491
0.00696577869624
0.00699448618784
0.00701813794942
0.00704286010557
0.00704286010557
0.00707576813635
0.00710547029383
0.00714056830571
0.00714056830571
0.00718473120267
0.00727477192855
0.00727477192855
0.00747051722926
)
;
    }
}


// ************************************************************************* //
