/*--------------------------------*- C++ -*----------------------------------*\
| =========                 |                                                 |
| \\      /  F ield         | OpenFOAM: The Open Source CFD Toolbox           |
|  \\    /   O peration     | Version:  v2012                                 |
|   \\  /    A nd           | Website:  www.openfoam.com                      |
|    \\/     M anipulation  |                                                 |
\*---------------------------------------------------------------------------*/
FoamFile
{
    version     2.0;
    format      ascii;
    class       volScalarField;
    location    "1.3";
    object      ddt0(epsilon);
}
// * * * * * * * * * * * * * * * * * * * * * * * * * * * * * * * * * * * * * //

dimensions      [0 2 -4 0 0 0 0];


internalField   nonuniform List<scalar> 
164
(
-0.0206569733288
-0.0203788439836
-0.0215105284387
-0.0217310156195
-0.0217750162123
-0.0218018867654
-0.0218339887839
-0.0218727286958
-0.0206836794296
-0.0204088222285
-0.0215479980447
-0.0217724265226
-0.0218182230628
-0.021846732361
-0.0218808375693
-0.0219219658079
-0.0207008989629
-0.0204318838701
-0.0215827481229
-0.0218107454725
-0.0218581351996
-0.0218883382287
-0.0219245639785
-0.0219682539377
-0.0220193936183
-0.0220779243243
-0.0207140821267
-0.0204474715823
-0.0216115536226
-0.021844739374
-0.0218941188927
-0.0219260224375
-0.0219643544992
-0.0220105592164
-0.0220644361383
-0.0221261292126
-0.0207233261906
-0.0204551662186
-0.0216337411995
-0.0218735352711
-0.0219255277374
-0.021959361184
-0.0219999768545
-0.0220488167155
-0.0221055910032
-0.022170386879
-0.0207276404267
-0.0204546552155
-0.0216487140238
-0.0218965444915
-0.0219518145676
-0.0219878859112
-0.0220310275531
-0.0220827894646
-0.0221427350515
-0.0222107585393
-0.0207258495374
-0.0204453270418
-0.0216557535623
-0.021913095548
-0.0219724093859
-0.0220111267525
-0.0220571375668
-0.022112198939
-0.022175732902
-0.0222474205742
-0.0207167963488
-0.0204266273726
-0.0216541591933
-0.0219224929287
-0.02198670993
-0.0220285789664
-0.0220779138806
-0.0221367911153
-0.0222045267616
-0.0222805961488
-0.0206993869943
-0.020397885511
-0.0216431165869
-0.021923965477
-0.0219940571163
-0.0220396870294
-0.0220929121995
-0.0221562713393
-0.0222290138739
-0.0223104462625
-0.0206725281769
-0.0203584143329
-0.0216217792949
-0.0219166774282
-0.0219937251412
-0.0220438331749
-0.0221016209469
-0.0221702535959
-0.0222489635435
-0.0223369442115
-0.0206350714126
-0.0203075165107
-0.0215892626439
-0.0218997333205
-0.0219849172229
-0.0220403300428
-0.0221034536294
-0.0221782481189
-0.0222639848303
-0.0223598042749
-0.0205858157659
-0.0202445394387
-0.0215447137863
-0.0218722007018
-0.0219667790787
-0.022028422248
-0.0220977391112
-0.0221796547385
-0.0222735472794
-0.0223785315153
-0.0205235561111
-0.0201690202316
-0.0214874171518
-0.0218331904257
-0.021938433723
-0.0220073029705
-0.0220837431616
-0.0221738155878
-0.0222770747583
-0.0223925817979
-0.0204472087606
-0.0200808270967
-0.0214168992714
-0.0217819167108
-0.021899029585
-0.0219761670032
-0.0220607253085
-0.0221601077149
-0.0222740400673
-0.0224015052486
-0.0203559395035
-0.0199802186481
-0.0213330167531
-0.0217177687562
-0.0218477837477
-0.0219342227932
-0.0220280590514
-0.0221379193431
-0.0222639465405
-0.0224050716897
-0.0202491791403
-0.0198678933003
-0.0212360127761
-0.0216405862566
-0.021784108386
-0.0218810210683
-0.0219850048469
-0.0221068200848
-0.022246775291
-0.0224031801464
-0.0201269304474
-0.0197451840701
-0.0211270886309
-0.0215501936302
-0.0217082329758
-0.0218156650682
-0.0219312979027
-0.021619199116
)
;

boundaryField
{
    back
    {
        type            calculated;
        value           nonuniform List<scalar> 
164
(
-0.0206569733288
-0.0203788439836
-0.0215105284387
-0.0217310156195
-0.0217750162123
-0.0218018867654
-0.0218339887839
-0.0218727286958
-0.0206836794296
-0.0204088222285
-0.0215479980447
-0.0217724265226
-0.0218182230628
-0.021846732361
-0.0218808375693
-0.0219219658079
-0.0207008989629
-0.0204318838701
-0.0215827481229
-0.0218107454725
-0.0218581351996
-0.0218883382287
-0.0219245639785
-0.0219682539377
-0.0220193936183
-0.0220779243243
-0.0207140821267
-0.0204474715823
-0.0216115536226
-0.021844739374
-0.0218941188927
-0.0219260224375
-0.0219643544992
-0.0220105592164
-0.0220644361383
-0.0221261292126
-0.0207233261906
-0.0204551662186
-0.0216337411995
-0.0218735352711
-0.0219255277374
-0.021959361184
-0.0219999768545
-0.0220488167155
-0.0221055910032
-0.022170386879
-0.0207276404267
-0.0204546552155
-0.0216487140238
-0.0218965444915
-0.0219518145676
-0.0219878859112
-0.0220310275531
-0.0220827894646
-0.0221427350515
-0.0222107585393
-0.0207258495374
-0.0204453270418
-0.0216557535623
-0.021913095548
-0.0219724093859
-0.0220111267525
-0.0220571375668
-0.022112198939
-0.022175732902
-0.0222474205742
-0.0207167963488
-0.0204266273726
-0.0216541591933
-0.0219224929287
-0.02198670993
-0.0220285789664
-0.0220779138806
-0.0221367911153
-0.0222045267616
-0.0222805961488
-0.0206993869943
-0.020397885511
-0.0216431165869
-0.021923965477
-0.0219940571163
-0.0220396870294
-0.0220929121995
-0.0221562713393
-0.0222290138739
-0.0223104462625
-0.0206725281769
-0.0203584143329
-0.0216217792949
-0.0219166774282
-0.0219937251412
-0.0220438331749
-0.0221016209469
-0.0221702535959
-0.0222489635435
-0.0223369442114
-0.0206350714126
-0.0203075165107
-0.0215892626439
-0.0218997333205
-0.0219849172229
-0.0220403300428
-0.0221034536294
-0.0221782481189
-0.0222639848303
-0.0223598042749
-0.0205858157659
-0.0202445394387
-0.0215447137863
-0.0218722007018
-0.0219667790787
-0.022028422248
-0.0220977391112
-0.0221796547385
-0.0222735472794
-0.0223785315153
-0.0205235561111
-0.0201690202316
-0.0214874171518
-0.0218331904257
-0.021938433723
-0.0220073029705
-0.0220837431616
-0.0221738155878
-0.0222770747583
-0.0223925817979
-0.0204472087606
-0.0200808270967
-0.0214168992714
-0.0217819167108
-0.021899029585
-0.0219761670032
-0.0220607253085
-0.0221601077149
-0.0222740400673
-0.0224015052486
-0.0203559395035
-0.0199802186481
-0.0213330167531
-0.0217177687562
-0.0218477837477
-0.0219342227932
-0.0220280590514
-0.0221379193431
-0.0222639465405
-0.0224050716897
-0.0202491791403
-0.0198678933003
-0.0212360127761
-0.0216405862566
-0.021784108386
-0.0218810210683
-0.0219850048469
-0.0221068200848
-0.022246775291
-0.0224031801464
-0.0201269304474
-0.0197451840701
-0.0211270886309
-0.0215501936302
-0.0217082329758
-0.0218156650682
-0.0219312979027
-0.021619199116
)
;
    }
    sides
    {
        type            calculated;
        value           nonuniform List<scalar> 0();
    }
    bottom
    {
        type            calculated;
        value           nonuniform List<scalar> 
17
(
-0.0206569733288
-0.0206836794296
-0.0207008989629
-0.0207140821267
-0.0207233261906
-0.0207276404267
-0.0207258495374
-0.0207167963488
-0.0206993869943
-0.0206725281769
-0.0206350714126
-0.0205858157659
-0.0205235561111
-0.0204472087606
-0.0203559395035
-0.0202491791403
-0.0201269304474
)
;
    }
    front
    {
        type            calculated;
        value           nonuniform List<scalar> 
164
(
-0.0206569733288
-0.0203788439836
-0.0215105284387
-0.0217310156195
-0.0217750162123
-0.0218018867654
-0.0218339887839
-0.0218727286958
-0.0206836794296
-0.0204088222285
-0.0215479980447
-0.0217724265226
-0.0218182230628
-0.021846732361
-0.0218808375693
-0.0219219658079
-0.0207008989629
-0.0204318838701
-0.0215827481229
-0.0218107454725
-0.0218581351996
-0.0218883382287
-0.0219245639785
-0.0219682539377
-0.0220193936183
-0.0220779243243
-0.0207140821267
-0.0204474715823
-0.0216115536226
-0.021844739374
-0.0218941188927
-0.0219260224375
-0.0219643544992
-0.0220105592164
-0.0220644361383
-0.0221261292126
-0.0207233261906
-0.0204551662186
-0.0216337411995
-0.0218735352711
-0.0219255277374
-0.021959361184
-0.0219999768545
-0.0220488167155
-0.0221055910032
-0.022170386879
-0.0207276404267
-0.0204546552155
-0.0216487140238
-0.0218965444915
-0.0219518145676
-0.0219878859112
-0.0220310275531
-0.0220827894646
-0.0221427350515
-0.0222107585393
-0.0207258495374
-0.0204453270418
-0.0216557535623
-0.021913095548
-0.0219724093859
-0.0220111267525
-0.0220571375668
-0.022112198939
-0.022175732902
-0.0222474205742
-0.0207167963488
-0.0204266273726
-0.0216541591933
-0.0219224929287
-0.02198670993
-0.0220285789664
-0.0220779138806
-0.0221367911153
-0.0222045267616
-0.0222805961488
-0.0206993869943
-0.020397885511
-0.0216431165869
-0.021923965477
-0.0219940571163
-0.0220396870294
-0.0220929121995
-0.0221562713393
-0.0222290138739
-0.0223104462625
-0.0206725281769
-0.0203584143329
-0.0216217792949
-0.0219166774282
-0.0219937251412
-0.0220438331749
-0.0221016209469
-0.0221702535959
-0.0222489635435
-0.0223369442114
-0.0206350714126
-0.0203075165107
-0.0215892626439
-0.0218997333205
-0.0219849172229
-0.0220403300428
-0.0221034536294
-0.0221782481189
-0.0222639848303
-0.0223598042749
-0.0205858157659
-0.0202445394387
-0.0215447137863
-0.0218722007018
-0.0219667790787
-0.022028422248
-0.0220977391112
-0.0221796547385
-0.0222735472794
-0.0223785315153
-0.0205235561111
-0.0201690202316
-0.0214874171518
-0.0218331904257
-0.021938433723
-0.0220073029705
-0.0220837431616
-0.0221738155878
-0.0222770747583
-0.0223925817979
-0.0204472087606
-0.0200808270967
-0.0214168992714
-0.0217819167108
-0.021899029585
-0.0219761670032
-0.0220607253085
-0.0221601077149
-0.0222740400673
-0.0224015052486
-0.0203559395035
-0.0199802186481
-0.0213330167531
-0.0217177687562
-0.0218477837477
-0.0219342227932
-0.0220280590514
-0.0221379193431
-0.0222639465405
-0.0224050716897
-0.0202491791403
-0.0198678933003
-0.0212360127761
-0.0216405862566
-0.021784108386
-0.0218810210683
-0.0219850048469
-0.0221068200848
-0.022246775291
-0.0224031801464
-0.0201269304474
-0.0197451840701
-0.0211270886309
-0.0215501936302
-0.0217082329758
-0.0218156650682
-0.0219312979027
-0.021619199116
)
;
    }
    atmosphere
    {
        type            calculated;
        value           nonuniform List<scalar> 0();
    }
    floatingObject
    {
        type            calculated;
        value           nonuniform List<scalar> 0();
    }
    procBoundary4to0
    {
        type            processor;
        value           nonuniform List<scalar> 8(-0.0206284714871 -0.0203433803913 -0.0214680533478 -0.0216859447331 -0.021728568085 -0.0217538992366 -0.0217840465229 -0.0218203945203);
    }
    procBoundary4to3
    {
        type            processor;
        value           nonuniform List<scalar> 
13
(
-0.0220669208611
-0.0222223078665
-0.0223965209519
-0.0199902035019
-0.0196147463478
-0.0210075008817
-0.02144848188
-0.0217392165063
-0.0220669208611
-0.0218667943358
-0.02144848188
-0.0217392165063
-0.0215193104016
)
;
    }
    procBoundary4to5
    {
        type            processor;
        value           nonuniform List<scalar> 
18
(
-0.0219180616768
-0.0219701257099
-0.0219701257099
-0.0220253555398
-0.0221441231051
-0.0221957516312
-0.0222431691413
-0.0222867042024
-0.0223269060558
-0.0223644530824
-0.0223999284982
-0.0224335579214
-0.0224651144763
-0.0224940188155
-0.0225196473017
-0.0225416130825
-0.0225597974739
-0.0225748216418
)
;
    }
}


// ************************************************************************* //
