/*--------------------------------*- C++ -*----------------------------------*\
| =========                 |                                                 |
| \\      /  F ield         | OpenFOAM: The Open Source CFD Toolbox           |
|  \\    /   O peration     | Version:  v2012                                 |
|   \\  /    A nd           | Website:  www.openfoam.com                      |
|    \\/     M anipulation  |                                                 |
\*---------------------------------------------------------------------------*/
FoamFile
{
    version     2.0;
    format      ascii;
    class       volVectorField;
    location    "2.1";
    object      ddt0(rho,U);
}
// * * * * * * * * * * * * * * * * * * * * * * * * * * * * * * * * * * * * * //

dimensions      [1 -2 -2 0 0 0 0];


internalField   nonuniform List<vector> 
167
(
(2.22726415238 -2.15795105954 1.15635912031e-19)
(1.46364614277 -7.97643519947 -7.71562777955e-19)
(1.63458226071 -12.1363851892 5.17314023976e-19)
(1.89651986612 -17.3839908065 7.58298677952e-20)
(2.14524777521 -22.9465590436 -1.17923924234e-19)
(2.43304754748 -29.2686425832 -4.00322105386e-19)
(2.79502528544 -36.5446039487 -3.96567470983e-19)
(3.25099470318 -44.9360493821 -1.83453741406e-18)
(8.16792891451 -1.22150664518 4.92283353438e-19)
(7.41969265374 -6.88563523549 3.87579868187e-19)
(7.86075434796 -11.0357559837 6.40396198137e-19)
(8.51494469222 -16.0504322148 6.85865218232e-19)
(9.27518124176 -21.2895674485 2.47808708994e-18)
(10.1826870994 -27.2194480357 8.33575674272e-19)
(11.3080312082 -34.05194343 2.09050575209e-18)
(12.7245521572 -41.9743193081 6.87939532918e-19)
(12.0751062034 -1.07367897204 3.44447787371e-19)
(11.5943334722 -6.55595522668 -2.71242811584e-18)
(12.2161803168 -10.4040144905 5.21408033042e-19)
(13.1453218385 -15.1518180604 4.88636002291e-19)
(14.3303916946 -20.1093254391 4.32049708037e-19)
(15.7983488514 -25.7484437478 -2.39196883739e-19)
(17.6344808696 -32.2160148536 -7.89826876384e-21)
(19.896509901 -39.7545740737 -2.81594888512e-19)
(16.2770166984 -0.961814194032 -1.61141789947e-19)
(15.9023967607 -6.14120676919 -1.04595493548e-18)
(16.7463986899 -9.56927140148 6.61893580714e-19)
(17.9908907473 -13.9786535961 4.17871334444e-19)
(19.5934084247 -18.5792048984 1.13363563871e-19)
(21.6166493511 -23.8046188775 -3.13295906039e-19)
(24.1403307983 -29.8098964395 -5.53720179004e-19)
(27.2164078618 -36.7854091218 6.17876066343e-20)
(30.9312402783 -45.1749143365 2.68473133619e-19)
(20.0148132855 -0.746711207563 7.15234404538e-19)
(19.6536617445 -5.55407802909 -2.98874231253e-18)
(20.7080129505 -8.46726849672 3.3518867792e-19)
(22.2775163613 -12.4252526351 4.22225831394e-19)
(24.3251824498 -16.5378877706 1.40263366174e-19)
(26.9095350466 -21.233598431 -4.43507524785e-20)
(30.114916457 -26.6430251541 -4.19650759588e-20)
(34.0207120934 -32.9886423394 3.72983023264e-20)
(38.6511856904 -40.5438706238 -4.24063654962e-21)
(44.2847747611 -49.678467713 -6.0344287167e-20)
(23.2758547933 -0.507178173865 6.40122393436e-19)
(22.8966234762 -4.75244226357 -1.81084772568e-18)
(24.1421637836 -7.10413856842 -3.17346697721e-21)
(26.0305535001 -10.4847540666 2.75093206572e-19)
(28.505851867 -13.9943576015 1.16715047332e-19)
(31.6412813801 -18.0376797783 8.00317819719e-21)
(35.5225336718 -22.7149822527 3.09215636495e-21)
(40.2438034442 -28.2626139997 2.1180725793e-20)
(45.9017091066 -34.9219764904 3.12666457664e-20)
(52.6300666042 -42.9291412346 3.62451322957e-20)
(25.9247941584 -0.217358273378 4.97992513749e-19)
(25.4849071694 -3.79456865459 1.11899399139e-19)
(26.9234054207 -5.51125096456 8.32190119152e-19)
(29.1006441672 -8.2007877011 2.84483858958e-19)
(31.9642049915 -10.9738884416 8.42849503529e-20)
(35.6135495663 -14.2338210669 3.99904079079e-20)
(40.1369761033 -18.0484635041 2.26652772813e-21)
(45.6520177477 -22.6132758344 6.49953780083e-21)
(52.294324646 -28.1596336408 2.03377918056e-20)
(60.2271878482 -34.884274803 -3.1176576991e-20)
(27.8674268431 0.108434972761 9.26282059097e-19)
(27.3393057666 -2.70125339357 -2.13069398859e-18)
(28.9581344343 -3.69420889925 -2.07832491818e-21)
(31.3893451774 -5.60469328194 3.94951793959e-19)
(34.597018091 -7.53376649925 1.2164052064e-19)
(38.6887526985 -9.88250239556 8.81476994204e-21)
(43.7971733773 -12.6842484494 2.92768028711e-20)
(50.0259830473 -16.1095581701 -1.6393639009e-20)
(57.5537476245 -20.348574908 1.59994458798e-20)
(66.5684659451 -25.5904176502 1.02189040137e-20)
(29.0339077881 0.466917296539 3.0194910249e-19)
(28.4100954834 -1.49692386732 -1.10359699663e-18)
(30.1582432184 -1.69457514606 3.85189597992e-19)
(32.8112868502 -2.7441914954 6.21326634263e-19)
(36.2960466195 -3.73399277236 1.34783120998e-19)
(40.7539376872 -5.05368611543 1.00350086582e-19)
(46.3326722291 -6.72114800135 -7.73406772486e-21)
(53.1543019738 -8.86253200968 4.04408602108e-20)
(61.4261012212 -11.6205069103 -1.58463411375e-20)
(71.3653063156 -15.1728541096 -1.19579560973e-20)
(29.3671635292 0.852266079458 -3.99009350338e-20)
(28.6323098095 -0.217730034546 -3.07868382759e-18)
(30.4706389344 0.448645261434 -2.99237031211e-19)
(33.2813229793 0.330351280814 2.21025339313e-19)
(36.9651886091 0.342457820501 7.94287662655e-20)
(41.6861765157 0.132042124949 -3.18890437979e-21)
(47.5966852584 -0.294737812965 8.95920270167e-21)
(54.8633549488 -1.02241599112 -6.85591639136e-23)
(63.6972179898 -2.14271457518 2.91964779054e-20)
(74.3337098068 -3.82574951936 -2.63910514891e-20)
(28.8338422124 1.25413504656 8.85256075379e-20)
(27.9656748349 1.1153870987 5.94931574295e-19)
(29.8575923203 2.67391860037 4.57917067814e-19)
(32.7461973434 3.52895797738 4.22889603891e-19)
(36.5374370988 4.59803422555 7.44512994713e-20)
(41.3991385901 5.55425084551 -8.1691297126e-21)
(47.4986413507 6.44559283703 -5.4694397766e-21)
(55.019581019 7.2329632772 -8.6922641465e-21)
(64.1930832764 7.84427988606 -2.67149805262e-20)
(75.261613321 8.18114880777 -3.87054266401e-20)
(27.4169335535 1.65815339426 8.51577768503e-19)
(26.3913910669 2.46211164998 -4.36100872334e-19)
(28.2911445065 4.929372681 6.35538635998e-19)
(31.1865567564 6.77122434131 4.06667489776e-19)
(34.9841853939 8.91735880719 5.74057680842e-20)
(39.8551324746 11.0691894048 6.21624854017e-21)
(45.9779657447 13.3164735124 -3.65808455113e-20)
(53.5508622304 15.6656790716 -6.26118936475e-20)
(62.7881449941 18.0919105609 -1.30441248363e-19)
(73.9867435414 20.5394068918 -1.41893286172e-19)
(25.1288722693 2.05470554735 6.75609856316e-19)
(23.9221829677 3.79006634064 -2.55945521072e-18)
(25.7964445184 7.1497896312 -1.94050443333e-19)
(28.6055655461 9.96531157238 2.68025958768e-19)
(32.3010351958 13.1823644269 9.81466235307e-20)
(37.0405971119 16.5215223293 -4.5279793502e-20)
(43.003706058 20.1301685388 -1.20284089173e-20)
(50.3904233938 24.0333232463 -3.83437710167e-20)
(59.411407749 28.271214786 -1.68861614669e-19)
(70.3916130179 32.8874178801 -1.35969834439e-20)
(21.9989826404 2.41953849992 7.80265486541e-19)
(20.6190293217 5.06883468328 -1.14575751514e-18)
(22.3748080492 9.27527734047 -4.37114662411e-19)
(25.0402709315 13.0068825452 1.78870906331e-19)
(28.5241859772 17.2623919069 1.35868136719e-20)
(32.9840603937 21.7425253172 -4.22424502603e-20)
(38.5982069664 26.6530105847 -2.8999991966e-20)
(45.54849515 32.0629469217 1.62441752468e-20)
(54.0768714624 38.0857331403 -1.36128125237e-19)
(64.4792119092 44.8379082101 -1.57933725645e-19)
(18.0629418122 2.7770567681 -1.84797595619e-19)
(16.4807728247 6.24038968387 -2.1200233682e-18)
(18.0760729726 11.2225072199 -2.46735479213e-19)
(20.5358893894 15.8338758381 1.86146531443e-20)
(23.7156619562 21.0324923137 -1.62816423688e-20)
(27.7617095919 26.5654529488 5.83182189344e-21)
(32.8435840942 32.6837770374 -5.42800789866e-21)
(39.1423759344 39.5057366822 3.54346643481e-20)
(46.8788725132 47.194268149 1.24052959445e-20)
(56.31792864 55.9464960567 -2.24352377023e-20)
(13.394059708 3.07573491903 -1.80985182768e-20)
(11.5797887813 7.28871352762 -2.67444384232e-20)
(13.0047151554 12.9686434117 1.5760231783e-19)
(15.1881833674 18.3509510839 -2.03036639989e-20)
(17.9604977454 24.3872938139 2.46472523045e-20)
(21.4788978226 30.8399672877 -1.07594861465e-20)
(25.8701308457 38.021479842 1.01107357551e-21)
(31.2924963782 46.0877964653 -8.55057674745e-21)
(37.9442666595 55.2540368057 -6.43105442884e-21)
(46.0479557541 65.7862332976 -1.04954460923e-20)
(8.09003007872 3.32770162299 8.34271323509e-19)
(6.06010707063 8.17925917185 5.70911324888e-19)
(7.24726988659 14.4523513655 2.73308000797e-19)
(9.1046460519 20.4805381671 2.08614686501e-19)
(11.4010413355 27.214437539 7.24746641778e-20)
(14.2801326061 34.4422267658 2.78191671758e-20)
(17.8496556623 42.486242967 3.84435098512e-20)
(2.3150518988 3.53482488693 1.37838103884e-18)
(0.0241202466741 8.89551103889 6.54358611569e-19)
(0.987111476958 15.6292305759 4.10524819503e-19)
(2.45401564053 22.1789617927 1.80372318213e-19)
(4.20359726241 29.4458805259 2.7554079858e-20)
(-5.71589319947 16.4912372717 1.97929921711e-19)
(-4.64533694951 23.37265572 3.53386732456e-19)
)
;

boundaryField
{
    back
    {
        type            calculated;
        value           uniform (0 0 0);
    }
    sides
    {
        type            calculated;
        value           uniform (0 0 0);
    }
    bottom
    {
        type            calculated;
        value           uniform (0 0 0);
    }
    front
    {
        type            calculated;
        value           uniform (0 0 0);
    }
    atmosphere
    {
        type            calculated;
        value           nonuniform List<vector> 0();
    }
    floatingObject
    {
        type            calculated;
        value           nonuniform List<vector> 0();
    }
    procBoundary2to0
    {
        type            processor;
        value           nonuniform List<vector> 
14
(
(22.218002499 51.5687514872 1.04696628325e-20)
(27.5288096214 61.9407704905 -1.01668018391e-20)
(33.9642685231 73.9395887346 -1.07751251094e-21)
(6.35478916733 37.2530837233 -1.9187341593e-20)
(22.218002499 51.5687514872 1.04696628325e-20)
(8.99645205703 45.9504334398 -7.77096419311e-21)
(-3.89909525351 3.64532095153 7.02845792159e-19)
(-6.42005470569 9.42009626676 1.33466980208e-20)
(6.35478916733 37.2530837233 -1.9187341593e-20)
(-3.46609482186 31.0069395432 9.52193909123e-21)
(-6.42005470569 9.42009626676 1.33466980208e-20)
(-12.7572923332 17.0029573614 -1.92004918581e-19)
(-3.46609482186 31.0069395432 9.52193909123e-21)
(-12.0608014336 24.0990480958 8.6991967878e-20)
)
;
    }
    procBoundary2to1
    {
        type            processor;
        value           nonuniform List<vector> 
18
(
(3.79621577949 -54.7357413447 -1.70989520952e-18)
(14.398593823 -51.31736768 -7.58837105484e-19)
(22.6475485893 -48.7065915876 -2.21382845478e-19)
(22.6475485893 -48.7065915876 -2.21382845478e-19)
(35.4000502871 -55.1785111681 -2.28634557647e-19)
(35.4000502871 -55.1785111681 -2.28634557647e-19)
(50.907105499 -60.5141163648 3.67845529322e-20)
(60.6932540405 -52.5689646109 3.70845140788e-20)
(69.6316889485 -43.0793895361 3.59471022902e-20)
(77.2659857774 -32.0923920954 2.13844341648e-20)
(83.1943200832 -19.7310496819 5.6903697451e-20)
(87.056774506 -6.22421468353 1.15823880559e-20)
(88.5630299877 8.1478458392 2.16424945681e-20)
(87.4982311543 22.9929063883 1.46788680582e-19)
(83.7155592229 37.9129479803 5.91881131171e-21)
(77.1421701654 52.4053943781 1.69956102423e-19)
(67.8262474251 65.9554348343 2.44264107354e-20)
(55.9429752304 78.0163529271 2.08353363463e-20)
)
;
    }
}


// ************************************************************************* //
