/*--------------------------------*- C++ -*----------------------------------*\
| =========                 |                                                 |
| \\      /  F ield         | OpenFOAM: The Open Source CFD Toolbox           |
|  \\    /   O peration     | Version:  v2012                                 |
|   \\  /    A nd           | Website:  www.openfoam.com                      |
|    \\/     M anipulation  |                                                 |
\*---------------------------------------------------------------------------*/
FoamFile
{
    version     2.0;
    format      ascii;
    class       volScalarField;
    location    "2.1";
    object      p;
}
// * * * * * * * * * * * * * * * * * * * * * * * * * * * * * * * * * * * * * //

dimensions      [1 -1 -2 0 0 0 0];


internalField   nonuniform List<scalar> 
167
(
8388.23922308
7898.93339219
7409.86396737
6921.06544119
6432.56796021
5944.4016374
5456.59115149
4969.16856845
8387.88874936
7898.57735634
7409.49139914
6920.66538557
6432.13355205
5943.92437424
5456.06272816
4968.58109465
8387.29586676
7897.97235063
7408.85739316
6919.98669176
6431.39434343
5943.10728464
5455.15051877
4967.55826009
8386.45248415
7897.11177247
7407.95441306
6919.01910796
6430.33855431
5941.9378051
5453.8423563
4966.08409192
4478.70292354
8385.37012341
7896.00268705
7406.78975428
6917.7706464
6428.97559182
5940.42749259
5452.15001789
4964.17407036
4476.53436289
3989.27026678
8384.07412451
7894.6724152
7405.39289258
6916.27277409
6427.33972618
5938.61384616
5450.11619971
4961.87494431
4473.92078841
3986.29162462
8382.59689347
7893.15537903
7403.79953974
6914.56358858
6425.47221786
5936.54223904
5447.79121155
4959.24339422
4470.92620855
3982.87338946
8380.97612416
7891.49030379
7402.05029053
6912.68627978
6423.41979651
5934.26393903
5445.23198611
4956.34350334
4467.62064594
3979.09220515
8379.25358754
7889.72025747
7400.19008959
6910.68877456
6421.23434702
5931.8358636
5442.5018323
4953.24557209
4464.08315936
3975.03488107
8377.47455847
7887.89168013
7398.26751716
6908.62274958
6418.9720491
5929.31983371
5439.66910136
4950.02623524
4460.39903173
3970.7988181
8375.68658901
7886.05327239
7396.33335393
6906.5427405
6416.69202571
5926.78080593
5436.8060919
4946.76651861
4456.66090979
3966.48860837
8373.93797546
7884.25475443
7394.43961834
6904.50423888
6414.45482735
5924.28580771
5433.98783743
4943.55153773
4452.96553628
3962.2167051
8372.27700003
7882.54526522
7392.63812194
6902.56284896
6412.32113158
5921.9021948
5431.29042048
4940.46805122
4449.41298569
3958.09846171
8370.75116097
7880.97345409
7390.97999583
6900.77297279
6410.35015209
5919.69593045
5428.78836344
4937.60138106
4446.10204512
3954.25071869
8369.405685
7879.58599377
7389.51334046
6899.18619488
6408.59818812
5917.72941443
5426.55236215
4935.03307656
4443.12899166
3950.78664532
8368.28111944
7878.424242
7388.28197697
6897.84912673
6407.11637245
5916.05972253
5424.64720184
4932.83865335
4440.58205547
3947.81321713
8367.41222512
7877.524007
7387.32331072
6896.80211296
6405.9484976
5914.73620591
5423.12925395
8366.82990442
7876.91652594
7386.66954446
6896.07856009
6405.13137602
7386.3469528
6895.70601579
)
;

boundaryField
{
    back
    {
        type            calculated;
        value           nonuniform List<scalar> 
167
(
8388.23922308
7898.93339219
7409.86396737
6921.06544119
6432.56796021
5944.4016374
5456.59115149
4969.16856845
8387.88874936
7898.57735634
7409.49139914
6920.66538557
6432.13355205
5943.92437424
5456.06272816
4968.58109465
8387.29586676
7897.97235063
7408.85739316
6919.98669176
6431.39434343
5943.10728464
5455.15051877
4967.55826009
8386.45248415
7897.11177247
7407.95441306
6919.01910796
6430.33855431
5941.9378051
5453.8423563
4966.08409192
4478.70292354
8385.37012341
7896.00268705
7406.78975428
6917.7706464
6428.97559182
5940.42749259
5452.15001789
4964.17407036
4476.53436289
3989.27026678
8384.07412451
7894.6724152
7405.39289258
6916.27277409
6427.33972618
5938.61384616
5450.11619971
4961.87494431
4473.92078841
3986.29162462
8382.59689347
7893.15537903
7403.79953974
6914.56358858
6425.47221786
5936.54223904
5447.79121155
4959.24339422
4470.92620855
3982.87338946
8380.97612416
7891.49030379
7402.05029053
6912.68627978
6423.41979651
5934.26393903
5445.23198611
4956.34350334
4467.62064594
3979.09220515
8379.25358754
7889.72025747
7400.19008959
6910.68877456
6421.23434702
5931.8358636
5442.5018323
4953.24557209
4464.08315936
3975.03488107
8377.47455847
7887.89168013
7398.26751716
6908.62274958
6418.9720491
5929.31983371
5439.66910136
4950.02623524
4460.39903173
3970.7988181
8375.68658901
7886.05327239
7396.33335393
6906.5427405
6416.69202571
5926.78080593
5436.8060919
4946.76651861
4456.66090979
3966.48860837
8373.93797546
7884.25475443
7394.43961834
6904.50423888
6414.45482735
5924.28580771
5433.98783743
4943.55153773
4452.96553628
3962.2167051
8372.27700003
7882.54526522
7392.63812194
6902.56284896
6412.32113158
5921.9021948
5431.29042048
4940.46805122
4449.41298569
3958.09846171
8370.75116097
7880.97345409
7390.97999583
6900.77297279
6410.35015209
5919.69593045
5428.78836344
4937.60138106
4446.10204512
3954.25071869
8369.405685
7879.58599377
7389.51334046
6899.18619488
6408.59818812
5917.72941443
5426.55236215
4935.03307656
4443.12899166
3950.78664532
8368.28111944
7878.424242
7388.28197697
6897.84912673
6407.11637245
5916.05972253
5424.64720184
4932.83865335
4440.58205547
3947.81321713
8367.41222512
7877.524007
7387.32331072
6896.80211296
6405.9484976
5914.73620591
5423.12925395
8366.82990442
7876.91652594
7386.66954446
6896.07856009
6405.13137602
7386.3469528
6895.70601579
)
;
    }
    sides
    {
        type            calculated;
        value           nonuniform List<scalar> 8(8388.23922308 7898.93339219 7409.86396737 6921.06544119 6432.56796021 5944.4016374 5456.59115149 4969.16856845);
    }
    bottom
    {
        type            calculated;
        value           nonuniform List<scalar> 
18
(
8633.04776867
8632.69729724
8632.10441926
8631.26104345
8630.17869073
8628.88270088
8627.40547949
8625.78472031
8624.06219436
8622.28317661
8620.49521919
8618.7466182
8617.08565518
8615.55982743
8614.21436208
8613.08981538
8612.22094287
8611.63864071
)
;
    }
    front
    {
        type            calculated;
        value           nonuniform List<scalar> 
167
(
8388.23922308
7898.93339219
7409.86396737
6921.06544119
6432.56796021
5944.4016374
5456.59115149
4969.16856845
8387.88874936
7898.57735634
7409.49139914
6920.66538557
6432.13355205
5943.92437424
5456.06272816
4968.58109465
8387.29586676
7897.97235063
7408.85739316
6919.98669176
6431.39434343
5943.10728464
5455.15051877
4967.55826009
8386.45248415
7897.11177247
7407.95441306
6919.01910796
6430.33855431
5941.9378051
5453.8423563
4966.08409192
4478.70292354
8385.37012341
7896.00268705
7406.78975428
6917.7706464
6428.97559182
5940.42749259
5452.15001789
4964.17407036
4476.53436289
3989.27026678
8384.07412451
7894.6724152
7405.39289258
6916.27277409
6427.33972618
5938.61384616
5450.11619971
4961.87494431
4473.92078841
3986.29162462
8382.59689347
7893.15537903
7403.79953974
6914.56358858
6425.47221786
5936.54223904
5447.79121155
4959.24339422
4470.92620855
3982.87338946
8380.97612416
7891.49030379
7402.05029053
6912.68627978
6423.41979651
5934.26393903
5445.23198611
4956.34350334
4467.62064594
3979.09220515
8379.25358754
7889.72025747
7400.19008959
6910.68877456
6421.23434702
5931.8358636
5442.5018323
4953.24557209
4464.08315936
3975.03488107
8377.47455847
7887.89168013
7398.26751716
6908.62274958
6418.9720491
5929.31983371
5439.66910136
4950.02623524
4460.39903173
3970.7988181
8375.68658901
7886.05327239
7396.33335393
6906.5427405
6416.69202571
5926.78080593
5436.8060919
4946.76651861
4456.66090979
3966.48860837
8373.93797546
7884.25475443
7394.43961834
6904.50423888
6414.45482735
5924.28580771
5433.98783743
4943.55153773
4452.96553628
3962.2167051
8372.27700003
7882.54526522
7392.63812194
6902.56284896
6412.32113158
5921.9021948
5431.29042048
4940.46805122
4449.41298569
3958.09846171
8370.75116097
7880.97345409
7390.97999583
6900.77297279
6410.35015209
5919.69593045
5428.78836344
4937.60138106
4446.10204512
3954.25071869
8369.405685
7879.58599377
7389.51334046
6899.18619488
6408.59818812
5917.72941443
5426.55236215
4935.03307656
4443.12899166
3950.78664532
8368.28111944
7878.424242
7388.28197697
6897.84912673
6407.11637245
5916.05972253
5424.64720184
4932.83865335
4440.58205547
3947.81321713
8367.41222512
7877.524007
7387.32331072
6896.80211296
6405.9484976
5914.73620591
5423.12925395
8366.82990442
7876.91652594
7386.66954446
6896.07856009
6405.13137602
7386.3469528
6895.70601579
)
;
    }
    atmosphere
    {
        type            calculated;
        value           nonuniform List<scalar> 0();
    }
    floatingObject
    {
        type            calculated;
        value           nonuniform List<scalar> 0();
    }
    procBoundary2to0
    {
        type            processor;
        value           nonuniform List<scalar> 
14
(
4931.08258217
4438.53856043
3945.42224429
5913.79859607
4931.08258217
5422.04316207
8366.56051119
7876.62730045
5913.79859607
6404.69201088
7876.62730045
7386.37264921
6404.69201088
6895.7010959
)
;
    }
    procBoundary2to1
    {
        type            processor;
        value           nonuniform List<scalar> 
18
(
4482.17582968
4481.51981827
4480.366553
4480.366553
3991.7266555
3991.7266555
3502.42101843
3499.03302018
3495.12887928
3490.79470304
3486.12894771
3481.24104484
3476.25208212
3471.29116813
3466.49437776
3461.99929865
3457.94206296
3454.45075912
)
;
    }
}


// ************************************************************************* //
