/*--------------------------------*- C++ -*----------------------------------*\
| =========                 |                                                 |
| \\      /  F ield         | OpenFOAM: The Open Source CFD Toolbox           |
|  \\    /   O peration     | Version:  v2012                                 |
|   \\  /    A nd           | Website:  www.openfoam.com                      |
|    \\/     M anipulation  |                                                 |
\*---------------------------------------------------------------------------*/
FoamFile
{
    version     2.0;
    format      ascii;
    class       volScalarField;
    location    "6";
    object      ddt0(k);
}
// * * * * * * * * * * * * * * * * * * * * * * * * * * * * * * * * * * * * * //

dimensions      [0 2 -3 0 0 0 0];


internalField   nonuniform List<scalar> 
164
(
-0.000287181248343
-0.000361901047562
-0.000389146142775
-0.000400726451309
-0.000406014273175
-0.000409275601141
-0.000413162153843
-0.000395213122016
-0.000363911227716
-0.000356000875609
-0.000325685239688
-0.000153511389558
-0.000146493355649
-0.000106247371986
-0.00028807425496
-0.00036255485583
-0.00039009900432
-0.000401923947268
-0.000407393084436
-0.000410000161488
-0.000410274138176
-0.000398718510518
-0.000404949947174
-0.000398689482253
-0.00040254303723
-0.000380615128091
-0.000333836919609
-0.000234011651537
-0.000289249382393
-0.000363726909084
-0.000391535660466
-0.00040356230637
-0.000409196566451
-0.000412161064698
-0.000413689836164
-0.00041428485739
-0.000414393004498
-0.000413857073326
-0.000410156906937
-0.00039455316559
-0.000364354361723
-0.000285691414217
-0.000290609197645
-0.000365250123442
-0.000393253804414
-0.000405401970769
-0.000411060744505
-0.000414090048881
-0.00041608363775
-0.000417749822101
-0.000418882239667
-0.000418736517889
-0.000414997415214
-0.000402336182797
-0.000374120383559
-0.000308270278685
-0.000292081385262
-0.000367012950761
-0.000395169302869
-0.000407389209489
-0.000413043141742
-0.000416021049166
-0.000418005898893
-0.000419671187893
-0.000421063250611
-0.000421429915153
-0.000418892632091
-0.000409428397555
-0.00038408509868
-0.000321619736544
-0.000293561113372
-0.00036888939239
-0.000397144876
-0.000409391574475
-0.000415003082347
-0.000417892145663
-0.000419772410065
-0.000421336845483
-0.000422730262499
-0.000423441293569
-0.000421965246561
-0.000414651337889
-0.000392012926562
-0.000330835214997
-0.000295019064587
-0.000370753174496
-0.000399079739367
-0.000411310694439
-0.000416859719913
-0.000419658807894
-0.000421434547207
-0.000422897761318
-0.00042423136565
-0.000425068475396
-0.000424120587788
-0.000418080948222
-0.000397531542295
-0.000338004389734
-0.000296370771508
-0.00037252786779
-0.000400898204108
-0.000413077394647
-0.000418542497552
-0.000421252735005
-0.000422938412943
-0.000424319051986
-0.000425583048721
-0.000426403730927
-0.000425612248089
-0.000420041175725
-0.000400448585431
-0.000343591109795
-0.000297602608994
-0.000374195880109
-0.000402556030791
-0.000414654785477
-0.000420014407666
-0.00042262606066
-0.000424224534088
-0.00042552153878
-0.000426679883823
-0.000427347756051
-0.000426357832847
-0.000420531433968
-0.000400653470705
-0.000343258992046
-0.000298705500998
-0.000375719762996
-0.000404032680605
-0.000416016971234
-0.000421254470964
-0.000423761467305
-0.000425270719584
-0.000426474468967
-0.000427511720949
-0.00042799975027
-0.000426666710017
-0.000420102887269
-0.000399010332154
-0.000338931749497
-0.000299715805095
-0.000377081796752
-0.00040530831957
-0.00041715895736
-0.000422265344908
-0.000424668850241
-0.000426096289242
-0.000427220116933
-0.000428161063052
-0.000428507246103
-0.00042688232561
-0.000419690053728
-0.00039741349245
-0.000335581755529
-0.000428684014117
-0.000428963879982
-0.000427235665318
-0.000419761195302
-0.000397062168962
-0.000336066905186
-0.000420296939188
-0.000397700807455
-0.000337841016824
-0.000338882102191
)
;

boundaryField
{
    back
    {
        type            calculated;
        value           nonuniform List<scalar> 
164
(
-0.000287181248343
-0.000361901047562
-0.000389146142775
-0.000400726451309
-0.000406014273175
-0.000409275601141
-0.000413162153843
-0.000395213122016
-0.000363911227716
-0.000356000875609
-0.000325685239688
-0.000153511389558
-0.000146493355649
-0.000106247371986
-0.00028807425496
-0.00036255485583
-0.00039009900432
-0.000401923947268
-0.000407393084436
-0.000410000161488
-0.000410274138176
-0.000398718510518
-0.000404949947174
-0.000398689482253
-0.00040254303723
-0.000380615128091
-0.000333836919609
-0.000234011651537
-0.000289249382393
-0.000363726909084
-0.000391535660466
-0.00040356230637
-0.000409196566451
-0.000412161064698
-0.000413689836164
-0.00041428485739
-0.000414393004498
-0.000413857073326
-0.000410156906937
-0.00039455316559
-0.000364354361723
-0.000285691414217
-0.000290609197645
-0.000365250123442
-0.000393253804414
-0.000405401970769
-0.000411060744505
-0.000414090048881
-0.00041608363775
-0.000417749822101
-0.000418882239667
-0.000418736517889
-0.000414997415214
-0.000402336182797
-0.000374120383559
-0.000308270278685
-0.000292081385262
-0.000367012950761
-0.000395169302869
-0.000407389209489
-0.000413043141742
-0.000416021049166
-0.000418005898893
-0.000419671187893
-0.000421063250611
-0.000421429915153
-0.000418892632091
-0.000409428397555
-0.00038408509868
-0.000321619736544
-0.000293561113372
-0.00036888939239
-0.000397144876
-0.000409391574475
-0.000415003082347
-0.000417892145663
-0.000419772410065
-0.000421336845483
-0.000422730262499
-0.000423441293569
-0.000421965246561
-0.000414651337889
-0.000392012926562
-0.000330835214997
-0.000295019064587
-0.000370753174496
-0.000399079739367
-0.000411310694439
-0.000416859719913
-0.000419658807894
-0.000421434547207
-0.000422897761318
-0.00042423136565
-0.000425068475396
-0.000424120587788
-0.000418080948222
-0.000397531542295
-0.000338004389734
-0.000296370771508
-0.00037252786779
-0.000400898204108
-0.000413077394647
-0.000418542497552
-0.000421252735005
-0.000422938412943
-0.000424319051986
-0.000425583048721
-0.000426403730927
-0.000425612248089
-0.000420041175725
-0.000400448585431
-0.000343591109795
-0.000297602608994
-0.000374195880109
-0.000402556030791
-0.000414654785477
-0.000420014407666
-0.00042262606066
-0.000424224534088
-0.00042552153878
-0.000426679883823
-0.000427347756051
-0.000426357832847
-0.000420531433968
-0.000400653470705
-0.000343258992046
-0.000298705500998
-0.000375719762996
-0.000404032680605
-0.000416016971234
-0.000421254470964
-0.000423761467305
-0.000425270719584
-0.000426474468967
-0.000427511720949
-0.00042799975027
-0.000426666710017
-0.000420102887269
-0.000399010332154
-0.000338931749497
-0.000299715805095
-0.000377081796752
-0.00040530831957
-0.00041715895736
-0.000422265344908
-0.000424668850241
-0.000426096289242
-0.000427220116933
-0.000428161063052
-0.000428507246103
-0.00042688232561
-0.000419690053728
-0.00039741349245
-0.000335581755529
-0.000428684014117
-0.000428963879982
-0.000427235665318
-0.000419761195302
-0.000397062168962
-0.000336066905186
-0.000420296939188
-0.000397700807455
-0.000337841016824
-0.000338882102191
)
;
    }
    sides
    {
        type            calculated;
        value           nonuniform List<scalar> 0();
    }
    bottom
    {
        type            calculated;
        value           nonuniform List<scalar> 
11
(
-0.000287181248343
-0.00028807425496
-0.000289249382393
-0.000290609197645
-0.000292081385262
-0.000293561113372
-0.000295019064587
-0.000296370771508
-0.000297602608994
-0.000298705500998
-0.000299715805095
)
;
    }
    front
    {
        type            calculated;
        value           nonuniform List<scalar> 
164
(
-0.000287181248343
-0.000361901047562
-0.000389146142775
-0.000400726451309
-0.000406014273175
-0.000409275601141
-0.000413162153843
-0.000395213122016
-0.000363911227716
-0.000356000875609
-0.000325685239688
-0.000153511389558
-0.000146493355649
-0.000106247371986
-0.00028807425496
-0.00036255485583
-0.00039009900432
-0.000401923947268
-0.000407393084436
-0.000410000161488
-0.000410274138176
-0.000398718510518
-0.000404949947174
-0.000398689482253
-0.00040254303723
-0.000380615128091
-0.000333836919609
-0.000234011651537
-0.000289249382393
-0.000363726909084
-0.000391535660466
-0.00040356230637
-0.000409196566451
-0.000412161064698
-0.000413689836164
-0.00041428485739
-0.000414393004498
-0.000413857073326
-0.000410156906937
-0.00039455316559
-0.000364354361723
-0.000285691414217
-0.000290609197645
-0.000365250123442
-0.000393253804414
-0.000405401970769
-0.000411060744505
-0.000414090048881
-0.00041608363775
-0.000417749822101
-0.000418882239667
-0.000418736517889
-0.000414997415214
-0.000402336182797
-0.000374120383559
-0.000308270278685
-0.000292081385262
-0.000367012950761
-0.000395169302869
-0.000407389209489
-0.000413043141742
-0.000416021049166
-0.000418005898893
-0.000419671187893
-0.000421063250611
-0.000421429915153
-0.000418892632091
-0.000409428397555
-0.00038408509868
-0.000321619736544
-0.000293561113372
-0.00036888939239
-0.000397144876
-0.000409391574475
-0.000415003082347
-0.000417892145663
-0.000419772410065
-0.000421336845483
-0.000422730262499
-0.000423441293569
-0.000421965246561
-0.000414651337889
-0.000392012926562
-0.000330835214997
-0.000295019064587
-0.000370753174496
-0.000399079739367
-0.000411310694439
-0.000416859719913
-0.000419658807894
-0.000421434547207
-0.000422897761318
-0.00042423136565
-0.000425068475396
-0.000424120587788
-0.000418080948222
-0.000397531542295
-0.000338004389734
-0.000296370771508
-0.00037252786779
-0.000400898204108
-0.000413077394647
-0.000418542497552
-0.000421252735005
-0.000422938412943
-0.000424319051986
-0.000425583048721
-0.000426403730927
-0.000425612248089
-0.000420041175725
-0.000400448585431
-0.000343591109795
-0.000297602608994
-0.000374195880109
-0.000402556030791
-0.000414654785477
-0.000420014407666
-0.00042262606066
-0.000424224534088
-0.00042552153878
-0.000426679883823
-0.000427347756051
-0.000426357832847
-0.000420531433968
-0.000400653470705
-0.000343258992046
-0.000298705500998
-0.000375719762996
-0.000404032680605
-0.000416016971234
-0.000421254470964
-0.000423761467305
-0.000425270719584
-0.000426474468967
-0.000427511720949
-0.00042799975027
-0.000426666710017
-0.000420102887269
-0.000399010332154
-0.000338931749497
-0.000299715805095
-0.000377081796752
-0.00040530831957
-0.00041715895736
-0.000422265344908
-0.000424668850241
-0.000426096289242
-0.000427220116933
-0.000428161063052
-0.000428507246103
-0.00042688232561
-0.000419690053728
-0.00039741349245
-0.000335581755529
-0.000428684014117
-0.000428963879982
-0.000427235665318
-0.000419761195302
-0.000397062168962
-0.000336066905186
-0.000420296939188
-0.000397700807455
-0.000337841016824
-0.000338882102191
)
;
    }
    atmosphere
    {
        type            calculated;
        value           nonuniform List<scalar> 0();
    }
    floatingObject
    {
        type            calculated;
        value           nonuniform List<scalar> 4(-0.000363911227716 -0.000356000875609 -0.000325685239688 -0.000153511389558);
    }
    procBoundary8to3
    {
        type            processor;
        value           nonuniform List<scalar> 8(-0.00028658893193 -0.000361285006208 -0.00038828298726 -0.000399642662541 -0.000404608370771 -0.000405629411281 -0.000400517132136 -0.00030838476331);
    }
    procBoundary8to6
    {
        type            processor;
        value           nonuniform List<scalar> 
16
(
-0.000222444081725
-0.000236639852478
-1.44787024302e-05
-7.30872934137e-05
-0.000140916713072
-0.00018209830519
-0.000195655228883
-0.000196899315285
-0.000201018413347
-0.000215694356564
-0.000214044845008
-0.000196078900631
-0.000189235833706
-0.00020003040404
-0.00021102929718
-0.000209868821991
)
;
    }
    procBoundary8to7
    {
        type            processor;
        value           nonuniform List<scalar> 
17
(
-0.000300518050925
-0.000378245997363
-0.000406373553645
-0.000418082116871
-0.000423057130918
-0.000425366015133
-0.000426722559608
-0.000427789402766
-0.000427789402766
-0.000429040202212
-0.00042933962454
-0.00042766425229
-0.00042766425229
-0.000421183067263
-0.00039910357074
-0.00039910357074
-0.000341739477142
)
;
    }
}


// ************************************************************************* //
