/*--------------------------------*- C++ -*----------------------------------*\
| =========                 |                                                 |
| \\      /  F ield         | OpenFOAM: The Open Source CFD Toolbox           |
|  \\    /   O peration     | Version:  v2012                                 |
|   \\  /    A nd           | Website:  www.openfoam.com                      |
|    \\/     M anipulation  |                                                 |
\*---------------------------------------------------------------------------*/
FoamFile
{
    version     2.0;
    format      ascii;
    class       volScalarField;
    location    "6";
    object      p_rgh;
}
// * * * * * * * * * * * * * * * * * * * * * * * * * * * * * * * * * * * * * //

dimensions      [1 -1 -2 0 0 0 0];


internalField   nonuniform List<scalar> 
164
(
8720.36567188
8720.72801493
8721.47671868
8722.61695865
8724.17498612
8726.22877423
8728.84494293
8732.33386466
8737.84609333
8743.9442387
8750.72514287
8758.23706254
8772.09358874
8781.19550647
8719.27325298
8719.6564739
8720.45254084
8721.67452454
8723.35413826
8725.5410709
8728.29449693
8731.90875749
8737.03697588
8742.84497808
8749.69820147
8757.78684001
8767.6560764
8776.61049042
8717.77327974
8718.16890254
8718.99161975
8720.2576526
8722.0016054
8724.27863863
8727.17494459
8730.85724515
8735.51281429
8741.00313226
8747.41286158
8754.87760389
8763.30439927
8771.87141321
8715.85218615
8716.24974473
8717.07638108
8718.34776708
8720.09508097
8722.36684368
8725.23292097
8728.78834201
8733.11232701
8738.20705526
8744.0937442
8750.80665735
8758.28004182
8766.33285141
8713.50780774
8713.89711394
8714.70615542
8715.94763026
8717.64631927
8719.84010216
8722.578276
8725.9195882
8729.91282734
8734.57342019
8739.92260283
8745.93727659
8752.55062056
8759.86958926
8710.74884538
8711.12107828
8711.89404553
8713.07688591
8714.68771114
8716.75370309
8719.30841386
8722.39139266
8726.03184276
8730.23086646
8735.02080249
8740.38676813
8746.20558865
8752.33962519
8707.59297531
8707.94084321
8708.66302671
8709.76531016
8711.25976282
8713.16475488
8715.50224317
8718.29973739
8721.56744756
8725.29793331
8729.50438129
8734.19167682
8739.07161755
8744.48430398
8704.06547667
8704.3834762
8705.04393231
8706.0497479
8707.4081061
8709.13045568
8711.23011351
8713.7265527
8716.60899381
8719.8647543
8723.55098645
8727.47472296
8731.60519905
8736.31404589
8700.19760441
8700.48196082
8701.07315621
8701.97189188
8703.18158292
8704.70827076
8706.55845538
8708.74349914
8711.24610877
8714.07712615
8717.24188116
8720.62866724
8724.02852293
8727.90983797
8696.02506203
8696.27334956
8696.79036831
8697.57530971
8698.62863207
8699.95217329
8701.54711543
8703.41826654
8705.56290278
8707.97711771
8710.63263641
8713.49068301
8716.57373986
8719.39944738
8691.58632028
8691.79678683
8692.23639526
8692.90317692
8693.79538568
8694.91173124
8696.25020818
8697.81017417
8699.59289525
8701.577688
8703.73942179
8706.13705789
8708.69161831
8711.18430744
8693.39635688
8694.960596
8696.61538164
8698.44091989
8700.42195266
8702.56432686
8690.60807899
8692.03767044
8693.63000767
8684.80920471
)
;

boundaryField
{
    back
    {
        type            fixedFluxPressure;
        gradient        uniform 0;
        value           nonuniform List<scalar> 
164
(
8720.36567188
8720.72801493
8721.47671868
8722.61695865
8724.17498612
8726.22877423
8728.84494293
8732.33386466
8737.84609333
8743.9442387
8750.72514287
8758.23706254
8772.09358874
8781.19550647
8719.27325298
8719.6564739
8720.45254084
8721.67452454
8723.35413826
8725.5410709
8728.29449693
8731.90875749
8737.03697588
8742.84497808
8749.69820147
8757.78684001
8767.6560764
8776.61049042
8717.77327974
8718.16890254
8718.99161975
8720.2576526
8722.0016054
8724.27863863
8727.17494459
8730.85724515
8735.51281429
8741.00313226
8747.41286158
8754.87760389
8763.30439927
8771.87141321
8715.85218615
8716.24974473
8717.07638108
8718.34776708
8720.09508097
8722.36684368
8725.23292097
8728.78834201
8733.11232701
8738.20705526
8744.0937442
8750.80665735
8758.28004182
8766.33285141
8713.50780774
8713.89711394
8714.70615542
8715.94763026
8717.64631927
8719.84010216
8722.578276
8725.9195882
8729.91282734
8734.57342019
8739.92260283
8745.93727659
8752.55062056
8759.86958926
8710.74884538
8711.12107828
8711.89404553
8713.07688591
8714.68771114
8716.75370309
8719.30841386
8722.39139266
8726.03184276
8730.23086646
8735.02080249
8740.38676813
8746.20558865
8752.33962519
8707.59297531
8707.94084321
8708.66302671
8709.76531016
8711.25976282
8713.16475488
8715.50224317
8718.29973739
8721.56744756
8725.29793331
8729.50438129
8734.19167682
8739.07161755
8744.48430398
8704.06547667
8704.3834762
8705.04393231
8706.0497479
8707.4081061
8709.13045568
8711.23011351
8713.7265527
8716.60899381
8719.8647543
8723.55098645
8727.47472296
8731.60519905
8736.31404589
8700.19760441
8700.48196082
8701.07315621
8701.97189188
8703.18158292
8704.70827076
8706.55845538
8708.74349914
8711.24610877
8714.07712615
8717.24188116
8720.62866724
8724.02852293
8727.90983797
8696.02506203
8696.27334956
8696.79036831
8697.57530971
8698.62863207
8699.95217329
8701.54711543
8703.41826654
8705.56290278
8707.97711771
8710.63263641
8713.49068301
8716.57373986
8719.39944738
8691.58632028
8691.79678683
8692.23639526
8692.90317692
8693.79538568
8694.91173124
8696.25020818
8697.81017417
8699.59289525
8701.577688
8703.73942179
8706.13705789
8708.69161831
8711.18430744
8693.39635688
8694.960596
8696.61538164
8698.44091989
8700.42195266
8702.56432686
8690.60807899
8692.03767044
8693.63000767
8684.80920471
)
;
    }
    sides
    {
        type            fixedFluxPressure;
        gradient        nonuniform List<scalar> 0();
        value           nonuniform List<scalar> 0();
    }
    bottom
    {
        type            fixedFluxPressure;
        gradient        uniform 0;
        value           nonuniform List<scalar> 
11
(
8720.36567188
8719.27325298
8717.77327974
8715.85218615
8713.50780774
8710.74884538
8707.59297531
8704.06547667
8700.19760441
8696.02506203
8691.58632028
)
;
    }
    front
    {
        type            fixedFluxPressure;
        gradient        uniform 0;
        value           nonuniform List<scalar> 
164
(
8720.36567188
8720.72801493
8721.47671868
8722.61695865
8724.17498612
8726.22877423
8728.84494293
8732.33386466
8737.84609333
8743.9442387
8750.72514287
8758.23706254
8772.09358874
8781.19550647
8719.27325298
8719.6564739
8720.45254084
8721.67452454
8723.35413826
8725.5410709
8728.29449693
8731.90875749
8737.03697588
8742.84497808
8749.69820147
8757.78684001
8767.6560764
8776.61049042
8717.77327974
8718.16890254
8718.99161975
8720.2576526
8722.0016054
8724.27863863
8727.17494459
8730.85724515
8735.51281429
8741.00313226
8747.41286158
8754.87760389
8763.30439927
8771.87141321
8715.85218615
8716.24974473
8717.07638108
8718.34776708
8720.09508097
8722.36684368
8725.23292097
8728.78834201
8733.11232701
8738.20705526
8744.0937442
8750.80665735
8758.28004182
8766.33285141
8713.50780774
8713.89711394
8714.70615542
8715.94763026
8717.64631927
8719.84010216
8722.578276
8725.9195882
8729.91282734
8734.57342019
8739.92260283
8745.93727659
8752.55062056
8759.86958926
8710.74884538
8711.12107828
8711.89404553
8713.07688591
8714.68771114
8716.75370309
8719.30841386
8722.39139266
8726.03184276
8730.23086646
8735.02080249
8740.38676813
8746.20558865
8752.33962519
8707.59297531
8707.94084321
8708.66302671
8709.76531016
8711.25976282
8713.16475488
8715.50224317
8718.29973739
8721.56744756
8725.29793331
8729.50438129
8734.19167682
8739.07161755
8744.48430398
8704.06547667
8704.3834762
8705.04393231
8706.0497479
8707.4081061
8709.13045568
8711.23011351
8713.7265527
8716.60899381
8719.8647543
8723.55098645
8727.47472296
8731.60519905
8736.31404589
8700.19760441
8700.48196082
8701.07315621
8701.97189188
8703.18158292
8704.70827076
8706.55845538
8708.74349914
8711.24610877
8714.07712615
8717.24188116
8720.62866724
8724.02852293
8727.90983797
8696.02506203
8696.27334956
8696.79036831
8697.57530971
8698.62863207
8699.95217329
8701.54711543
8703.41826654
8705.56290278
8707.97711771
8710.63263641
8713.49068301
8716.57373986
8719.39944738
8691.58632028
8691.79678683
8692.23639526
8692.90317692
8693.79538568
8694.91173124
8696.25020818
8697.81017417
8699.59289525
8701.577688
8703.73942179
8706.13705789
8708.69161831
8711.18430744
8693.39635688
8694.960596
8696.61538164
8698.44091989
8700.42195266
8702.56432686
8690.60807899
8692.03767044
8693.63000767
8684.80920471
)
;
    }
    atmosphere
    {
        type            totalPressure;
        rho             rho;
        psi             none;
        gamma           1;
        p0              nonuniform List<scalar> 0();
        value           nonuniform List<scalar> 0();
    }
    floatingObject
    {
        type            fixedFluxPressure;
        gradient        uniform 0;
        value           nonuniform List<scalar> 4(8737.84609333 8743.9442387 8750.72514287 8758.23706254);
    }
    procBoundary8to3
    {
        type            processor;
        value           nonuniform List<scalar> 8(8721.07181972 8721.40927721 8722.09814828 8723.11254008 8724.4023057 8725.85818808 8727.33064258 8728.36120676);
    }
    procBoundary8to6
    {
        type            processor;
        value           nonuniform List<scalar> 
16
(
8783.21233579
8786.83688542
8790.05451841
8786.23234019
8781.33941618
8775.27667021
8768.06430072
8759.74978304
8750.65815866
8741.27988279
8731.94935783
8722.81260699
8713.8880586
8704.77213939
8695.41084876
8685.99303648
)
;
    }
    procBoundary8to7
    {
        type            processor;
        value           nonuniform List<scalar> 
17
(
8686.92094363
8687.09248343
8687.45264054
8687.99868127
8688.7273051
8689.63555576
8690.71813856
8691.97203792
8691.97203792
8687.02275262
8688.20249783
8689.43316414
8689.43316414
8682.97638535
8683.74236494
8683.74236494
8675.89144855
)
;
    }
}


// ************************************************************************* //
