/*--------------------------------*- C++ -*----------------------------------*\
| =========                 |                                                 |
| \\      /  F ield         | OpenFOAM: The Open Source CFD Toolbox           |
|  \\    /   O peration     | Version:  v2012                                 |
|   \\  /    A nd           | Website:  www.openfoam.com                      |
|    \\/     M anipulation  |                                                 |
\*---------------------------------------------------------------------------*/
FoamFile
{
    version     2.0;
    format      ascii;
    class       volVectorField;
    location    "1.2";
    object      ddt0(rho,U);
}
// * * * * * * * * * * * * * * * * * * * * * * * * * * * * * * * * * * * * * //

dimensions      [1 -2 -2 0 0 0 0];


internalField   nonuniform List<vector> 
164
(
(-236.704611682 5.44113355938 1.24286726073e-19)
(-248.432109671 6.08684083715 -4.36460710025e-20)
(-262.390260074 6.8039425228 -1.29655760394e-19)
(-279.052600487 7.63252038055 -1.78181467522e-19)
(-299.040910761 8.64593841394 -3.47109453371e-19)
(-323.348753324 9.29221021425 -6.0330715023e-19)
(-352.94024942 18.6520127441 1.27653454969e-18)
(-389.788138615 17.9531731805 -7.79029994764e-18)
(-424.261518142 26.5050512163 -2.16519171872e-17)
(-421.355905511 59.2280911384 -3.37300401379e-18)
(-141.789416664 12.6770233077 2.41150901524e-18)
(-0.538424587265 0.0326191122931 4.0737046996e-20)
(-236.606453425 -5.33668903381 -2.87321134544e-20)
(-248.170697434 -6.78221301269 1.07987134103e-19)
(-262.007417669 -8.56183914725 -4.33326114862e-20)
(-278.561397397 -10.8036138308 1.00112125272e-19)
(-298.497051015 -13.6569518972 -1.75783447205e-19)
(-322.621639514 -16.4731053557 2.58320122859e-18)
(-351.884948361 -17.1712907785 1.01610512075e-18)
(-395.692854988 -25.7023115671 -6.81374731789e-18)
(-439.549550362 -30.0709024438 1.37628908804e-17)
(-435.934182826 7.31379948185 -3.76950867625e-18)
(-149.576257562 -2.26639009513 4.55198728625e-18)
(-0.554915871622 -0.0630938559314 3.75514038413e-20)
(-258.909669922 -23.5536428307 -1.84207090626e-21)
(-274.677995341 -28.8053670014 1.34277928404e-19)
(-293.596862724 -35.2993523099 1.41074020224e-19)
(-316.670113279 -43.7350568219 1.22296157861e-18)
(-346.219255054 -53.2804084741 -1.8332765551e-18)
(-385.726477185 -68.5675685139 -5.86781744793e-18)
(-431.152464096 -91.9046986466 1.83877915185e-17)
(-433.7140603 -55.7607903562 1.56080713109e-18)
(-156.759284497 -24.2379866849 -8.68328262126e-18)
(-0.719649546462 -0.130414534354 -5.37971015439e-20)
(-253.33380785 -37.4961628927 1.12098555144e-19)
(-267.621274173 -45.427790621 1.06921288601e-19)
(-284.568293374 -55.4638428439 2.04359563242e-19)
(-305.200803001 -68.7162761863 7.9504419672e-19)
(-330.824953671 -85.236372721 4.62948402423e-18)
(-364.57935131 -109.700391331 -1.42157910028e-19)
(-405.212322417 -152.057018765 7.19014859099e-18)
(-408.655236065 -129.904561749 2.91847320284e-17)
(-157.77603924 -57.4816112934 -1.62812507707e-17)
(-1.25620660006 0.10232255351 -1.44680348136e-19)
(-245.628422182 -49.9069837534 1.22791901428e-19)
(-257.898984655 -59.9543090409 -3.58226938032e-20)
(-272.069858601 -72.70762486 7.30798376481e-19)
(-288.620216628 -89.4521354534 3.12257822579e-19)
(-308.338518828 -110.81776204 4.16895410335e-18)
(-332.275309627 -140.825098982 3.86661841006e-18)
(-356.254622548 -196.966907072 2.45922099827e-17)
(-347.788095672 -204.171806648 -4.80704380529e-17)
(-164.048339503 -102.818109162 -8.87621260349e-17)
(-2.84870863212 1.12258867782 -2.28188090402e-19)
(-236.360173594 -60.4276748811 -5.15353100284e-20)
(-246.319292547 -71.8208860314 -4.99081614687e-19)
(-257.10780707 -86.0963199844 4.17868092296e-19)
(-268.642354178 -104.747105094 -6.80724917341e-19)
(-280.809745768 -128.574443821 4.63907906276e-18)
(-294.667650889 -162.323678896 -6.0870709325e-18)
(-309.922551493 -219.644624893 -1.00221826505e-17)
(-306.652871047 -287.821322799 -8.17082056685e-18)
(-131.241594448 -182.632374764 1.02698278755e-16)
(-4.24567997671 -9.07076659658 -3.55901948644e-21)
(-226.201416243 -68.9381081691 -1.4964449145e-19)
(-233.860106374 -80.728936723 2.97625383612e-20)
(-241.222785378 -95.0946909788 -1.93546441642e-18)
(-247.517309295 -113.429725464 -2.0805028869e-18)
(-251.533639604 -137.064898231 -2.80521614188e-18)
(-253.337806838 -171.117445607 -2.50049291369e-17)
(-248.475809532 -234.38386601 5.59147058941e-18)
(-221.045253982 -290.165389706 6.3019684152e-17)
(-104.856197398 -171.339868503 -1.16800402463e-16)
(2.18014633315 1.10427017115 -1.5649242807e-20)
(-215.846624447 -75.5974747691 2.34641783557e-19)
(-221.616111039 -86.9126619665 -4.85161042225e-19)
(-226.235053005 -99.9152290191 -4.11203188986e-20)
(-228.307870728 -115.371570266 -1.0833990105e-19)
(-225.22591456 -134.13472032 -1.85493208156e-18)
(-213.357621012 -159.803131866 1.96974471328e-18)
(-179.997035456 -198.60431575 1.30994886344e-18)
(-92.3464988421 -216.242913662 2.69641017548e-17)
(-107.8728392 -130.935013913 6.65711105273e-18)
(0.714278717054 -0.193857615436 -4.90798885452e-20)
(-205.858810398 -80.8919082784 -5.98312243683e-20)
(-210.48024833 -91.2162742468 4.98568383881e-21)
(-213.69905156 -101.989786483 7.01845721672e-20)
(-214.098714806 -112.797731309 -5.22277853675e-20)
(-208.837041874 -122.198350911 1.20282839494e-20)
(-192.634188595 -127.654167407 -3.08505923773e-18)
(-151.455990741 -125.961879064 -1.16467382342e-17)
(-101.023211965 -87.203360725 1.90604433516e-17)
(-140.338619216 -59.5128634682 5.83435395072e-17)
(0.598587386482 0.0896415950121 3.10822975418e-18)
(-196.500310608 -85.4959713989 6.935168199e-20)
(-200.782802154 -94.852055061 5.25802883766e-19)
(-204.056270379 -103.716669563 1.73123231512e-19)
(-205.720747526 -110.804608183 1.49098870797e-18)
(-204.798994466 -112.401653875 -1.19999449009e-18)
(-202.026530747 -98.9117820697 7.16851457077e-18)
(-176.402677545 -99.2644555352 5.64514634751e-17)
(-204.400374825 58.5531141055 1.08155121284e-18)
(-282.809337468 28.4687097075 2.30260348582e-17)
(-0.0293682076448 0.571682681756 3.67879545052e-19)
(-187.70439065 -90.016326139 2.13753631539e-19)
(-192.202284963 -98.8237129779 -2.0407101255e-19)
(-196.305290081 -107.026878396 -5.95918645698e-20)
(-200.503142375 -113.838404676 6.3791030633e-18)
(-206.995099641 -118.544493541 9.2758554512e-18)
(-227.838229901 -84.368028397 2.12353139194e-17)
(-237.371253861 -177.920383437 2.27768081313e-16)
(-295.063094687 -17.5288531296 3.28346443598e-16)
(24.6662238393 -94.723009532 -4.38449892632e-16)
(31.7264614464 217.382839094 -1.00197260772e-16)
(-179.21973355 -94.783090605 -4.54338004144e-20)
(-184.110789688 -103.40812619 -2.95220033006e-19)
(-188.820601712 -111.848839429 -1.3438585248e-18)
(-193.680253527 -121.154708371 -1.66838822602e-18)
(-199.445909239 -136.364188275 -7.59608120749e-18)
(-198.456439858 -137.332043779 -9.67952525578e-17)
(-221.433139628 -260.872348289 7.60421117947e-17)
(-234.253897674 -243.280134083 -3.0568026966e-16)
(-722.092186006 -317.997841927 -3.37935343002e-16)
(-0.502058629712 -0.119467907292 3.66336249581e-19)
(-170.838452419 -99.8983850425 8.31412758703e-23)
(-176.180124557 -108.30596605 1.19905979424e-19)
(-181.083976969 -116.243489557 -5.46087118697e-20)
(-184.770168911 -123.797377409 2.79883866702e-20)
(-185.011220933 -131.87696045 -1.20326842252e-17)
(-176.87383923 -122.837052155 -6.33545088063e-17)
(-170.188330171 -121.614212053 9.93453803277e-17)
(-108.211101209 -1.3297767925 -1.78662787969e-16)
(-135.930315753 27.1751059949 1.0814822895e-16)
(-0.612297788459 -0.754189924564 -1.41499326035e-19)
(-162.459473449 -105.531984733 -3.43863015562e-19)
(-168.53460663 -113.610920739 -2.36284134121e-19)
(-174.11628398 -120.538689739 2.13128201394e-18)
(-178.200764378 -125.819638755 -1.54723405979e-18)
(-179.81319018 -128.556892066 6.36273647355e-18)
(-183.619631799 -118.964988379 -9.15261634065e-18)
(-213.249710609 -137.410347093 5.57887973505e-17)
(-329.585382018 -73.478530332 -1.91047647362e-16)
(-389.148346525 -29.3794355724 1.78738592157e-16)
(-1.67055424897 0.848965940267 -1.29532880038e-18)
(-153.913633831 -112.039089575 1.94355315312e-19)
(-161.247324404 -119.966464271 -3.61243608214e-20)
(-168.563817084 -126.150548139 1.25468202361e-18)
(-175.593880993 -130.558908016 5.29086819787e-19)
(-183.499809289 -132.627064859 -2.24600644525e-17)
(-192.083902309 -136.798473628 6.33548969377e-17)
(-181.812155636 -231.801979224 -2.14378684544e-16)
(-193.307789818 -374.54508877 -2.53441565623e-16)
(-816.739209448 -549.772666276 4.44023393878e-16)
(-172.620363932 -197.885158304 1.37957642959e-16)
(-144.883593797 -119.817606582 3.5706454239e-20)
(-153.916778714 -128.119759539 2.76724512479e-19)
(-163.523151132 -134.410725651 1.6535745195e-19)
(-172.806401841 -137.660986982 5.1092291319e-18)
(-173.606628367 -141.835003564 3.82697807713e-18)
(-171.416565601 -127.759789452 3.83456081671e-17)
(-148.074978967 -148.519981712 2.82169412908e-17)
(-172.139152603 77.9678868547 4.61142649592e-16)
(441.902856411 345.329335914 3.16904889726e-16)
(-2.12234343159 -0.630909250718 2.07967027432e-18)
)
;

boundaryField
{
    back
    {
        type            calculated;
        value           uniform (0 0 0);
    }
    sides
    {
        type            calculated;
        value           nonuniform List<vector> 0();
    }
    bottom
    {
        type            calculated;
        value           nonuniform List<vector> 0();
    }
    front
    {
        type            calculated;
        value           uniform (0 0 0);
    }
    atmosphere
    {
        type            calculated;
        value           nonuniform List<vector> 
16
(
(0.649402736538 0.0326191122911 1.95065641994e-20)
(-0.466908029781 -0.0630938559312 3.58913288303e-20)
(-0.661283862673 -0.130414534354 -5.24743127725e-20)
(-1.6500325725 0.10232255351 4.32948022077e-20)
(-0.120092766997 1.2349994312 -2.06025378635e-21)
(-4.24567819288 -9.07076659658 -3.55900075661e-21)
(-0.000495081919686 0.880173981606 5.59094840637e-24)
(2.50710884232e-07 -0.184294225618 -2.60850280384e-27)
(-3.43337224391e-08 0.0908611032134 -6.86986117984e-28)
(1.75867968999e-08 0.571665495804 8.04628921382e-28)
(31.7264614403 217.382839093 -1.00197260772e-16)
(0 -0.119498825526 0)
(4.3177221009e-13 -0.75418546387 3.30697883147e-34)
(5.53643814888e-13 0.848965936505 1.85089582628e-32)
(-172.620363932 -197.885158304 1.37957642959e-16)
(0 -0.623451870265 0)
)
;
    }
    floatingObject
    {
        type            calculated;
        value           nonuniform List<vector> 0();
    }
    procBoundary5to0
    {
        type            processor;
        value           nonuniform List<vector> 
12
(
(-234.922901181 16.1785124933 1.93321912546e-20)
(-246.43317263 18.8814520602 1.67683688849e-19)
(-260.074458906 22.0251004515 6.12237330611e-20)
(-276.240502368 25.8077714585 3.96566089112e-19)
(-295.451670808 30.5775755099 1.88943430612e-19)
(-318.504313317 37.1306428593 7.17202145484e-19)
(-347.140244333 47.576273059 1.25670061281e-18)
(-373.81449788 44.8512542746 -1.18015764141e-17)
(-408.608426717 74.3524087 -8.31363334869e-18)
(-404.061020082 103.291615694 -6.29291256491e-18)
(-134.786968091 19.7334047978 -4.5752860705e-18)
(-0.571098069261 0.0204417646051 -1.19819123189e-20)
)
;
    }
    procBoundary5to3
    {
        type            processor;
        value           nonuniform List<vector> 10((-134.87670976 -129.153932727 -7.65798670846e-20) (-145.68492975 -138.418914475 -4.46623498661e-19) (-157.47671929 -145.292170436 -1.79292006729e-18) (-169.566095378 -147.368527193 -1.15583235618e-18) (-182.014575485 -143.599603125 -1.54149017319e-19) (-189.856473424 -106.687755932 2.11306557699e-17) (-213.462712542 -56.5755930272 8.43314278852e-17) (-274.154406125 23.4830094942 4.05912209495e-16) (-439.146964595 20.4635061095 1.16493035181e-17) (-1.32580103409 -0.111853294195 4.58873998543e-18));
    }
    procBoundary5to4
    {
        type            processor;
        value           nonuniform List<vector> 
18
(
(-226.898257366 4.81367313726 -6.05842967281e-20)
(-226.874053021 -4.1894063935 1.59331330088e-20)
(-234.615532786 -15.8350626584 8.76241042165e-20)
(-245.703251888 -19.2883210069 3.64371886981e-20)
(-245.703251888 -19.2883210069 3.64371886981e-20)
(-241.227347786 -31.0497083367 7.13689980328e-21)
(-234.94304249 -41.7231584399 -3.22354135365e-20)
(-227.281221843 -51.05900567 1.36477425714e-19)
(-218.719058159 -58.9761076986 6.30196345711e-20)
(-209.711610242 -65.5881813909 -1.53516242156e-19)
(-200.630500334 -71.191921704 9.15838928374e-21)
(-191.687047797 -76.1924061957 9.52429574829e-20)
(-182.905560403 -80.9827126045 7.139454189e-20)
(-174.183645562 -85.8509556147 1.40872116595e-19)
(-165.384001452 -90.9858740317 -1.29940641875e-19)
(-156.349945827 -96.5686162923 9.94709635752e-20)
(-146.881274023 -102.825981224 -1.46521408573e-19)
(-136.680569405 -109.974825435 1.57168085103e-19)
)
;
    }
}


// ************************************************************************* //
