/*--------------------------------*- C++ -*----------------------------------*\
| =========                 |                                                 |
| \\      /  F ield         | OpenFOAM: The Open Source CFD Toolbox           |
|  \\    /   O peration     | Version:  v2012                                 |
|   \\  /    A nd           | Website:  www.openfoam.com                      |
|    \\/     M anipulation  |                                                 |
\*---------------------------------------------------------------------------*/
FoamFile
{
    version     2.0;
    format      ascii;
    class       volVectorField;
    location    "1.2";
    object      U_0;
}
// * * * * * * * * * * * * * * * * * * * * * * * * * * * * * * * * * * * * * //

dimensions      [0 1 -1 0 0 0 0];


internalField   nonuniform List<vector> 
164
(
(0.137321402859 -0.00304161264572 -3.28304306627e-24)
(0.140798102274 -0.00339377698092 -2.0645912513e-23)
(0.144586538431 -0.00367284217217 -5.73554587376e-23)
(0.148659913259 -0.00382439935071 -3.44374831402e-23)
(0.152991879231 -0.00377235552889 -2.32269137008e-23)
(0.157566411748 -0.00342451566172 6.17113418357e-23)
(0.162165318489 -0.00226113696014 1.6848152484e-22)
(0.167063254355 -0.00273526289394 -1.9446073367e-21)
(0.169437823491 0.00452757970964 -6.8582993059e-22)
(0.17269577002 -0.00195833912359 -1.88609838325e-21)
(0.134632743799 0.0110093009096 -1.6206478805e-21)
(0.135004908463 0.00784781881228 -1.54291885044e-21)
(0.137544607646 0.000256342778545 1.13783016694e-23)
(0.140976778711 0.000212305980613 1.83150065296e-23)
(0.144689251947 0.000204017287256 -1.67286176583e-23)
(0.148623012754 0.000284830922802 5.49222165289e-23)
(0.152723492888 0.000539744144184 6.18517400508e-23)
(0.156901491905 0.00096222973225 2.70468626309e-22)
(0.161006694299 0.00230735034799 -8.76587172806e-23)
(0.164688596783 0.00212093671051 -3.2386038491e-21)
(0.167199475249 0.00951599643674 -5.41777389934e-21)
(0.168606912359 0.00459622445325 -6.06729267358e-22)
(0.130827602866 0.0171298058673 2.23164961327e-22)
(0.136696729849 0.0126164257175 -9.99351709271e-22)
(0.14456224675 0.00399702383742 1.14079100455e-23)
(0.148417603911 0.00423291289626 4.87004792426e-23)
(0.152342435913 0.00454252835203 6.86186232003e-23)
(0.156214529243 0.00495785523401 3.00112607369e-22)
(0.159938073038 0.00609764623248 -3.4822400432e-22)
(0.162606419003 0.00584597466157 -2.94020838603e-21)
(0.164090245533 0.0125619523398 -9.7700021884e-21)
(0.16432298804 0.00898374779606 1.78867582284e-22)
(0.128178825512 0.0200858780137 3.78248920678e-21)
(0.14611435114 0.00784542905952 3.95843342726e-21)
(0.144263353035 0.00776518730372 -2.268362917e-23)
(0.148123727677 0.00809572299671 1.51664828199e-23)
(0.152003037053 0.00837393612842 2.25782739567e-23)
(0.155760766129 0.00863343048679 1.93388485315e-22)
(0.15912832541 0.00920582620099 9.38695839952e-22)
(0.161206832013 0.00843869195475 -6.46887203865e-22)
(0.161581297051 0.0135788649464 -9.59475549494e-21)
(0.160733079132 0.0108175219498 -8.95184941097e-21)
(0.128071375929 0.0202170746396 -6.89871829683e-21)
(0.1645199735 -0.0101162435996 -7.82462799732e-21)
(0.143821604467 0.0115977970123 -5.06184584465e-23)
(0.1478020282 0.0120059373465 -3.79490736682e-23)
(0.151816747158 0.0122127286172 -1.24606291682e-22)
(0.155667628544 0.0121771590494 2.93715246697e-22)
(0.159030254292 0.0119907986974 8.56351487e-22)
(0.161089404452 0.0102177902234 -7.18274719953e-21)
(0.16100414562 0.0126527331226 -1.25947054994e-20)
(0.15996642155 0.00941892429163 -8.38785449029e-21)
(0.131138669834 0.0144401016969 -2.0824659569e-20)
(0.236813552403 -0.0476526897272 -1.39924911699e-20)
(0.143232779757 0.0156021552698 -2.8992941426e-23)
(0.147461113618 0.0161211602456 1.73856804929e-23)
(0.151785266876 0.0162793784013 -7.02377573498e-23)
(0.156029546682 0.0159449028436 2.40245925869e-22)
(0.159908781538 0.0150129760589 1.0222609272e-21)
(0.16276653888 0.0119250269855 -5.01674144444e-21)
(0.163569006232 0.0108611285945 -7.74785093756e-21)
(0.163162124655 0.00409224768525 1.30759912352e-21)
(0.135041636564 0.00400832893038 5.98392224631e-20)
(0.184881639377 0.0645173182126 5.17230757447e-20)
(0.142453945391 0.0198851104912 1.95278383424e-23)
(0.147038830727 0.0205916151794 9.7717533302e-24)
(0.15183455871 0.0208210861603 3.44421422882e-23)
(0.156758396609 0.0203720362158 4.59180079704e-23)
(0.161672569493 0.0189952585943 -1.24017995534e-21)
(0.166178498601 0.0149596923401 1.96528186551e-21)
(0.169603438649 0.0109972270877 -8.53952046935e-21)
(0.171718007737 -0.00168044673226 -3.29497359421e-21)
(0.152419973504 -0.0091615597558 -1.39438144881e-20)
(0.164239797474 -0.125865445844 -7.08355433238e-21)
(0.141409091646 0.0245272885373 -5.37982021657e-23)
(0.146418138738 0.0255331975164 8.65340067357e-24)
(0.151779549223 0.0260297272742 2.66319843522e-23)
(0.157531523501 0.0258162420004 -7.46301585298e-23)
(0.163796164095 0.0246182906372 -3.24022643153e-22)
(0.170710245319 0.0207067245037 -1.0442025924e-21)
(0.178897769186 0.0161491907321 -8.92251502899e-21)
(0.189223222043 -0.00242919493484 -1.27082488898e-20)
(0.206039747615 -0.0153920692631 -4.65424088836e-20)
(0.347744255347 -0.241176223599 -4.27354569857e-20)
(0.140011009672 0.029569508248 5.30430545349e-23)
(0.145458391518 0.0309883674459 3.05181975344e-23)
(0.151365677952 0.0319515286745 3.4041027775e-23)
(0.157847731058 0.0323770212511 -1.32882234139e-22)
(0.165219554822 0.0322277033039 -8.80981943221e-22)
(0.174084270357 0.0304461457227 4.25551780605e-21)
(0.185462771079 0.0302425359688 -2.52287261716e-21)
(0.198476020222 0.019214212378 -5.63300418824e-21)
(0.285361429141 0.0291941696044 -1.11173162126e-19)
(0.778549848987 -0.434155154898 1.63793960178e-20)
(0.13818301477 0.0350139578216 -7.37009689559e-24)
(0.144046685662 0.0369131342988 -8.57261667216e-24)
(0.15039635963 0.0384305370225 -3.41976685802e-23)
(0.157307207444 0.0396471706461 9.57049387098e-25)
(0.165054678979 0.0408944640317 -5.74475993809e-22)
(0.174389955853 0.0416294240165 2.85654311673e-21)
(0.188858123053 0.0434831398549 -4.27182054862e-21)
(0.201086235904 0.0593202986683 -1.79607529613e-20)
(0.559945408635 0.035061752491 -2.76236800699e-19)
(2.11661421495 -0.631516193134 2.02220252992e-19)
(0.135879878887 0.0408510306768 -1.14546211005e-22)
(0.142148745591 0.0432341511215 -3.95067584126e-23)
(0.148861318785 0.0452331706913 -5.18791600792e-22)
(0.15594353481 0.0469954864193 6.26923605727e-22)
(0.163147556493 0.0490894493843 1.16590050914e-21)
(0.169526765014 0.0545213938863 -2.40879567306e-22)
(0.174235662885 0.0475252751067 3.47133202087e-20)
(0.168563624115 0.149502550167 1.02629033013e-19)
(0.319465956533 -0.0252156467805 1.4203131562e-18)
(0.324314150265 2.43017505866 1.37933171255e-18)
(0.133086223358 0.047098894606 2.05021773682e-22)
(0.139803735614 0.0499411246824 1.14078771932e-22)
(0.146924698025 0.0522795259434 5.98675142175e-23)
(0.15429770092 0.0539997712328 1.76819274432e-22)
(0.161580386124 0.0546636576806 -4.292847039e-21)
(0.168734777797 0.0531888734891 -1.61308661709e-20)
(0.174139939806 0.0322648069609 2.89572933219e-21)
(0.177997351695 0.020186267299 -4.28495300666e-20)
(-0.181619543286 -0.0857330185167 -3.18927701684e-19)
(-1.21555569289 -0.426110269641 1.35252301197e-20)
(0.12979046981 0.0538269769326 -5.84049244793e-24)
(0.137060494508 0.057135440238 2.03945588356e-22)
(0.144749169261 0.0598295356895 -9.05612401328e-23)
(0.152810568329 0.0618458688686 -7.04139539787e-23)
(0.161539319703 0.0633175343517 -9.42096709753e-22)
(0.172254644368 0.0639048961564 -4.49317378223e-21)
(0.186720822117 0.0639314953315 -5.28415112106e-21)
(0.214812465141 0.0641601325782 -7.39590238926e-20)
(0.184351453878 0.0942080688309 -1.63510503402e-19)
(0.334313448162 -0.751855588369 -2.90192971526e-19)
(0.125956217685 0.061144966075 3.21444438703e-22)
(0.133921303455 0.0649566484982 2.03554108104e-23)
(0.142306526238 0.0680506410959 1.53789421919e-22)
(0.150972069295 0.0706073559172 5.34938811844e-22)
(0.160096727027 0.0736916264463 4.57310055153e-22)
(0.171060086735 0.0777059949004 1.22678684235e-21)
(0.185683292032 0.0868335901639 -1.0441927475e-20)
(0.200265791795 0.114580688758 -1.21263617598e-19)
(0.481034602752 0.0878652191674 -3.13842009373e-19)
(1.88784871181 -0.607635518763 -2.3639089396e-19)
(0.121510631914 0.0691987744372 2.02786485758e-22)
(0.130368480835 0.0735454567944 1.91258260029e-22)
(0.13963114857 0.0768540191563 -2.49517959668e-22)
(0.148703044546 0.079240652742 2.19770054218e-22)
(0.156252781634 0.0826545874205 -2.48468626612e-21)
(0.158140358624 0.0909302730482 -5.67822576481e-21)
(0.152872217853 0.0894386060456 6.41344971224e-20)
(0.12740418947 0.211851510786 4.13165289975e-23)
(0.222004166548 0.0657487560797 -1.06058048516e-19)
(0.239051184437 2.64044103142 -4.19359397405e-20)
(0.116329859045 0.078200434671 1.40907277837e-22)
(0.126377391266 0.0831972127847 1.74771184575e-22)
(0.136993909323 0.0865362925928 -7.18965063733e-22)
(0.14743319475 0.0873618521961 3.30823734764e-22)
(0.156793340419 0.0843999181415 5.2940962494e-22)
(0.163011740401 0.0744425306329 -1.80028499466e-20)
(0.160613079913 0.0333503847321 8.40448804105e-21)
(0.120697177975 -0.0125485753728 -9.57189751732e-21)
(-0.348315604655 -0.154821623603 3.20695595244e-19)
(-1.4300504095 -0.459982756105 2.12995699511e-19)
)
;

boundaryField
{
    back
    {
        type            noSlip;
    }
    sides
    {
        type            noSlip;
    }
    bottom
    {
        type            noSlip;
    }
    front
    {
        type            noSlip;
    }
    atmosphere
    {
        type            pressureInletOutletVelocity;
        value           nonuniform List<vector> 
16
(
(0.135004908463 0.00784781881228 -1.54291885044e-21)
(0.136696729849 0.0126164257175 -9.99351709271e-22)
(0.14611435114 0.00784542905952 3.95843342726e-21)
(0 -0.0101162435996 0)
(0 -0.0476526897272 0)
(0.184881639377 0.0645173182126 5.17230757447e-20)
(0 -0.125865445844 0)
(0 -0.241176223599 0)
(0 -0.434155154898 0)
(0 -0.631516193134 0)
(0.324314150265 2.43017505866 1.37933171255e-18)
(0 -0.426110269641 0)
(0 -0.751855588369 0)
(0 -0.607635518763 0)
(0.239051184437 2.64044103142 -4.19359397405e-20)
(0 -0.459982756105 0)
)
;
    }
    floatingObject
    {
        type            movingWallVelocity;
        value           nonuniform List<vector> 0();
    }
    procBoundary5to0
    {
        type            processor;
        value           nonuniform List<vector> 
12
(
(0.136757674937 -0.00637842013134 -3.56558273941e-23)
(0.140294893999 -0.00707418177391 -1.90466294095e-23)
(0.144188899398 -0.0076797232602 -6.86682417249e-23)
(0.148431921895 -0.00814369314417 -2.65070237313e-23)
(0.153022317807 -0.00839519224888 3.22375487123e-23)
(0.157963515767 -0.00832848047508 2.65604562256e-22)
(0.163205690039 -0.00783448630268 -2.85169518236e-22)
(0.168789938304 -0.00781135249783 -2.44982948017e-21)
(0.17105402466 -0.00188624139712 -1.20921813987e-20)
(0.175603830983 -0.0107191215728 -3.36420686094e-21)
(0.138449875234 0.00308700002033 4.97154303566e-21)
(0.127084264072 -0.00131078064433 3.92110474993e-21)
)
;
    }
    procBoundary5to3
    {
        type            processor;
        value           nonuniform List<vector> 10((0.110188098421 0.0884210930593 4.27992794299e-24) (0.121796900908 0.0944023783055 6.11932714142e-23) (0.134538525642 0.098305376461 -5.94388235612e-22) (0.148315394967 0.099111653985 8.23157242919e-23) (0.163112109909 0.0954269817636 5.89774948947e-22) (0.179670748357 0.0887221666494 -5.69273920154e-21) (0.19746995943 0.0747839814989 7.99400749982e-21) (0.219920331059 0.0523365387841 1.61088295172e-20) (0.163294908649 0.0590062501699 8.37012960745e-20) (-0.356902975116 -0.562777846345 1.23255686271e-19));
    }
    procBoundary5to4
    {
        type            processor;
        value           nonuniform List<vector> 
18
(
(0.134184828884 -0.0026515804946 -8.93178809008e-24)
(0.134416882423 0.000311134577687 -9.19554265321e-25)
(0.137453879089 0.00354081990956 6.26630933319e-24)
(0.140879927386 0.00377410955914 2.02790679456e-23)
(0.140879927386 0.00377410955914 2.02790679456e-23)
(0.140551020673 0.00734526208618 1.73503914422e-23)
(0.139995097241 0.0109932381427 4.80073165093e-23)
(0.139200507075 0.0147927633907 -1.55797163524e-23)
(0.138139356106 0.0188165612716 -4.3000443047e-23)
(0.136759833245 0.0231239319433 2.01819347069e-23)
(0.134999138703 0.0277539874627 4.3046034254e-23)
(0.132797217426 0.0327274290112 8.12854804716e-23)
(0.130104091743 0.038059019556 9.26850067306e-23)
(0.126877761797 0.0437759574409 -5.71444466485e-23)
(0.123072390033 0.0499312485746 9.05489685805e-23)
(0.118618584142 0.056603125621 5.79170862458e-23)
(0.113407445927 0.0638947852152 1.82887642999e-22)
(0.107273269267 0.0719381666431 1.24817312332e-22)
)
;
    }
}


// ************************************************************************* //
