/*--------------------------------*- C++ -*----------------------------------*\
| =========                 |                                                 |
| \\      /  F ield         | OpenFOAM: The Open Source CFD Toolbox           |
|  \\    /   O peration     | Version:  v2012                                 |
|   \\  /    A nd           | Website:  www.openfoam.com                      |
|    \\/     M anipulation  |                                                 |
\*---------------------------------------------------------------------------*/
FoamFile
{
    version     2.0;
    format      ascii;
    class       surfaceScalarField;
    location    "4.6";
    object      alphaPhi0.water;
}
// * * * * * * * * * * * * * * * * * * * * * * * * * * * * * * * * * * * * * //

dimensions      [0 3 -1 0 0 0 0];
oriented        oriented;


internalField   nonuniform List<scalar> 
306
(
0.00010268642274
-1.46034922108e-05
0.000118978270222
-1.62774216791e-05
0.000137311243039
-1.83288410661e-05
0.000158174630127
-2.08706932202e-05
0.000182186212928
-2.40270133626e-05
0.000210029899538
-2.78689364887e-05
0.000241172184797
-3.11662352194e-05
0.000270627045774
-2.94776434223e-05
0.000297542725702
-2.69191962243e-05
0.000196056716158
-1.45468483536e-05
-3.51535614927e-06
-9.73531021055e-06
5.18461730909e-06
9.92529588952e-05
-2.86930571138e-05
0.000114966340905
-3.19760525986e-05
0.000132686220461
-3.60476968763e-05
0.000152869360154
-4.10640249481e-05
0.000176143671167
-4.73192661342e-05
0.00020332770096
-5.50779299155e-05
0.000236099588218
-6.39602899459e-05
0.000275134569151
-6.85298394052e-05
0.000320216839543
-7.20007071746e-05
0.000236035291673
-6.09386983168e-05
2.38241686027e-06
-2.02108019003e-05
7.95375612064e-06
9.35882933783e-05
0.000108252382143
-4.66249539468e-05
0.000124705246646
-5.24993706539e-05
0.000143442423353
-5.98119538136e-05
0.000165021461787
-6.89167094714e-05
0.000190537362637
-8.06163507709e-05
0.000222220843592
-9.56573067563e-05
0.000263495786745
-0.00010981526117
0.000320959517337
-0.000129460987401
0.000250638120835
-0.000130810261129
-7.24666561834e-06
-2.29175527989e-05
7.07160568726e-07
0.000101077748889
0.000115921149424
-6.7339567568e-05
0.000132595662644
-7.64941953345e-05
0.000151611411131
-8.79458820911e-05
0.000173725176134
-0.000102743195939
0.000201008425095
-0.000122949320922
0.000237544252499
-0.000146354129724
0.00029042818547
-0.00018234458744
0.000234327115444
-0.000199379397662
-7.39124397392e-07
-3.22713172005e-05
-2.40664509745e-06
0.000106303912252
-8.04563954684e-05
0.00012055989222
-9.07547020414e-05
0.000136352652611
-0.000103747864092
0.000153859433371
-0.000120257464078
0.000173695609369
-0.000142787045313
0.000196542788758
-0.00016919834211
0.00022280300094
-0.000208609526268
0.000175327143721
-0.00023875762555
-6.17638452342e-06
-3.1180073244e-05
-6.94139925559e-06
9.56687905583e-05
-9.16360671287e-05
0.00010760178776
-0.000102693233817
0.000120147382798
-0.000116299400968
0.000133010610802
-0.000133123052438
0.000144692376605
-0.000154465376012
0.000153050807742
-0.000177550533463
0.000149143432266
-0.000204708536077
9.30816492142e-05
-0.000224418372989
-1.64114701076e-05
-9.08180222917e-05
1.45707976278e-06
8.44765840428e-05
-0.000100878559157
9.40695779734e-05
-0.000112291649374
0.000103814352267
-0.000126048041142
0.000113222593519
-0.000142530914232
0.000120776492118
-0.000162014498168
0.000123543574338
-0.000180311130291
0.000110741969972
-0.000191910413317
3.98395584759e-05
-0.000176594313233
-4.42359892903e-06
-7.93596348421e-05
4.36829242087e-06
7.29791567175e-05
-0.000108266615815
8.04596672376e-05
-0.000119778794132
8.79249531105e-05
-0.000133517228966
9.51925637529e-05
-0.000149797705412
0.000102122017682
-0.000168939936362
0.000109227818662
-0.000187411915607
0.000120651166914
-0.000203333852179
0.00010132465315
-0.000210480017724
4.65013940561e-06
-0.000107447009152
5.90649282851e-06
6.1399746836e-05
-0.000113848092449
6.68544241424e-05
-0.00012524089462
7.22045772551e-05
-0.00013887369367
7.75283085546e-05
-0.000155123658507
8.31530000276e-05
-0.0001745634138
9.0791885661e-05
-0.0001950486709
0.000106705056941
-0.000219246093794
0.000100291932625
-0.000258673581661
-1.26979185197e-06
-0.000107377493759
1.73255537448e-06
4.98851273929e-05
-0.00011768650903
5.33604177824e-05
-0.000128723527233
5.6437505682e-05
-0.000141957971104
5.91934432169e-05
-0.000157884720383
6.16791417249e-05
-0.000177051105449
6.44851485854e-05
-0.000197854725133
7.06257428326e-05
-0.000225386769545
6.08697530754e-05
-0.00028231117692
1.38303619538e-06
-9.37527283802e-05
2.42510631368e-06
3.86479689907e-05
-0.000119920630731
4.01971556151e-05
-0.000130280497398
4.09224672211e-05
-0.00014269029395
4.0642023553e-05
-0.000157610000512
3.90651055118e-05
-0.000175477271782
3.56237211767e-05
-0.000194415030175
2.64552477012e-05
-0.000216215333654
1.63879878193e-05
-0.000273723310766
3.85596042926e-07
-6.77555477954e-05
-1.24244639951e-07
2.80602031737e-05
-0.000120537766576
2.78054176841e-05
-0.00013003128634
2.63369115702e-05
-0.000141228091163
2.32631425153e-05
-0.000154541664832
1.83117173157e-05
-0.000170529725937
1.16883213142e-05
-0.000187793965072
1.88241314294e-06
-0.000206376805051
-1.19007104039e-05
-0.000253767883025
1.49598122047e-06
-4.65984409494e-05
1.23791620321e-07
1.84427395705e-05
-0.000119898080845
1.66770172519e-05
-0.000128270463678
1.34403888954e-05
-0.000137997006885
8.36316536468e-06
-0.000149469427432
1.15420559204e-06
-0.000163324505456
-7.93517682177e-06
-0.000178706176987
-2.36330044547e-05
-0.000190641175219
-2.58496248824e-05
-0.000226650062938
2.17068975431e-08
-2.66281421501e-05
1.29872836604e-08
9.9114109738e-06
-0.000118213130815
7.01036605516e-06
-0.00012537330219
2.62791333492e-06
-0.000133618910144
-3.61057576416e-06
-0.000143234729526
-1.21563318606e-05
-0.000154781383272
-2.37637567768e-05
-0.000167084609116
-3.50533412103e-05
-0.000179386561464
-3.10023292134e-05
-0.000200033175343
-4.72418239175e-07
-7.63927728606e-06
1.30467724886e-08
2.56667840673e-06
-0.000115739273148
-1.02883236641e-06
-0.000121780517702
-6.12324878974e-06
-0.000128527204169
-1.28061337129e-05
-0.000136553897384
-2.1051788353e-05
-0.000146536489019
-2.97190085845e-05
-0.000158385880801
-4.09765961623e-05
-0.000168117029355
-2.58432739066e-05
-0.000184589234404
-1.90040277624e-07
2.42444455628e-06
9.87504372645e-10
-3.45573145796e-06
-7.63248785336e-06
-1.30796953838e-05
-2.0049857261e-05
-2.87102543565e-05
-3.87343232692e-05
-5.15353313494e-05
-3.09910100846e-05
-9.678553101e-08
)
;

boundaryField
{
    back
    {
        type            calculated;
        value           uniform 0;
    }
    sides
    {
        type            calculated;
        value           uniform 0;
    }
    bottom
    {
        type            calculated;
        value           nonuniform List<scalar> 0();
    }
    front
    {
        type            calculated;
        value           uniform 0;
    }
    atmosphere
    {
        type            calculated;
        value           nonuniform List<scalar> 
16
(
-9.45646395918e-06
-3.66300039608e-07
3.81028708686e-16
4.65110676675e-07
-5.38593699128e-06
-9.12545906054e-06
-2.59904491964e-06
1.52240351006e-06
-1.16537462787e-06
-1.52531545876e-07
-1.46028041556e-07
-2.09283954583e-07
9.82495894608e-08
-3.20132213138e-07
-1.37855209195e-07
-9.12885407186e-08
)
;
    }
    floatingObject
    {
        type            calculated;
        value           nonuniform List<scalar> 0();
    }
    procBoundary1to0
    {
        type            processor;
        value           nonuniform List<scalar> 10(-0.000112773418122 -0.000117605267258 -0.000123081303204 -0.00012958414222 -0.000137875316136 -0.000148300987752 -0.000155322917873 -0.000162782828148 9.61891801759e-06 7.42270315455e-10);
    }
    procBoundary1to2
    {
        type            processor;
        value           nonuniform List<scalar> 
18
(
-8.80460106719e-05
-8.51257879523e-05
-8.03443620917e-05
-4.18983609821e-05
-8.76429920218e-05
-6.00321052926e-05
-9.31832987965e-05
-8.44859394587e-05
-7.52374371761e-05
-6.55954207934e-05
-5.5821608729e-05
-4.60559077483e-05
-3.64199752257e-05
-2.74467372528e-05
-1.90842896126e-05
-1.15979854567e-05
-5.04227670211e-06
4.88412472915e-07
)
;
    }
}


// ************************************************************************* //
