/*--------------------------------*- C++ -*----------------------------------*\
| =========                 |                                                 |
| \\      /  F ield         | OpenFOAM: The Open Source CFD Toolbox           |
|  \\    /   O peration     | Version:  v2012                                 |
|   \\  /    A nd           | Website:  www.openfoam.com                      |
|    \\/     M anipulation  |                                                 |
\*---------------------------------------------------------------------------*/
FoamFile
{
    version     2.0;
    format      ascii;
    class       volScalarField;
    location    "1.6";
    object      p_rgh;
}
// * * * * * * * * * * * * * * * * * * * * * * * * * * * * * * * * * * * * * //

dimensions      [1 -1 -2 0 0 0 0];


internalField   nonuniform List<scalar> 
164
(
8819.68203142
8820.31592535
8821.30534126
8822.88651647
8825.0036675
8827.65774267
8830.85335294
8834.59912456
8810.55312512
8811.148045
8812.0444061
8813.5012745
8815.4464441
8817.87818995
8820.79945456
8824.2283033
8828.13358392
8832.54679334
8837.51722116
8800.93381551
8801.50169802
8802.29152749
8803.62827482
8805.39949638
8807.60325921
8810.2300969
8813.36977429
8816.84728705
8820.75432251
8825.08434478
8829.82028525
8834.7786437
8790.90533534
8791.34309621
8792.1205634
8793.32211254
8794.91937727
8796.90576501
8799.27457686
8802.02741666
8805.11037394
8808.5161965
8812.21502591
8816.15639687
8820.27363652
8824.61530822
8780.45313997
8780.82222148
8781.53558696
8782.61491508
8784.04710402
8785.82260694
8787.92770461
8790.34472142
8793.03666868
8795.96620502
8799.078454
8802.29415483
8805.50856272
8808.57807271
8769.63069227
8769.94936929
8770.58958816
8771.55323748
8772.82882406
8774.40438186
8776.26201335
8778.37746398
8780.71255921
8783.21672856
8785.81795101
8788.41353171
8790.85786535
8792.9420364
8758.47933308
8758.75491858
8759.32393545
8760.17846772
8761.3076521
8762.69813696
8764.33160524
8766.18086465
8768.20680371
8770.35397686
8772.54334425
8774.66157991
8776.54516552
8777.96300316
8747.03588466
8747.27278958
8747.77383246
8748.52660249
8749.52056027
8750.74320177
8752.17750315
8753.79752195
8755.56660277
8757.43206565
8759.31848892
8761.11759381
8762.67235201
8763.76564461
8735.33477712
8735.53530249
8735.97231695
8736.63009793
8737.49946055
8738.57034924
8739.82887748
8741.25417487
8742.81573649
8744.47050301
8746.15640047
8747.78449185
8749.2267102
8750.31319371
8723.40771522
8723.57333085
8723.94972064
8724.51758953
8725.27071581
8726.20277412
8727.30444333
8728.56246304
8729.95630569
8731.45751673
8733.02470018
8734.59884097
8736.09585773
8737.41518708
8738.35655676
8738.55042551
8711.28484757
8711.41579201
8711.73383533
8712.21488601
8712.8569811
8713.65780625
8714.61430169
8715.72183499
8716.97310296
8718.35682998
8719.85650284
8721.44825503
8723.0994082
8724.78473856
8726.40651698
8727.74584336
8698.9957606
8699.09097828
8699.35194624
8699.74626238
8700.27764988
8700.9484755
8701.76243202
8702.72441189
8703.84049649
8705.11774029
8706.56528302
8708.19482996
8710.0248239
8712.09733521
8714.41649114
8716.9281273
)
;

boundaryField
{
    back
    {
        type            fixedFluxPressure;
        gradient        uniform 0;
        value           nonuniform List<scalar> 
164
(
8819.68203142
8820.31592535
8821.30534126
8822.88651647
8825.0036675
8827.65774267
8830.85335294
8834.59912456
8810.55312512
8811.148045
8812.0444061
8813.5012745
8815.4464441
8817.87818995
8820.79945456
8824.2283033
8828.13358392
8832.54679334
8837.51722116
8800.93381551
8801.50169802
8802.29152749
8803.62827482
8805.39949638
8807.60325921
8810.2300969
8813.36977429
8816.84728705
8820.75432251
8825.08434478
8829.82028525
8834.7786437
8790.90533534
8791.34309621
8792.1205634
8793.32211254
8794.91937727
8796.90576501
8799.27457686
8802.02741666
8805.11037394
8808.5161965
8812.21502591
8816.15639687
8820.27363652
8824.61530822
8780.45313997
8780.82222148
8781.53558696
8782.61491508
8784.04710402
8785.82260694
8787.92770461
8790.34472142
8793.03666868
8795.96620502
8799.078454
8802.29415483
8805.50856272
8808.57807271
8769.63069227
8769.94936929
8770.58958816
8771.55323748
8772.82882406
8774.40438186
8776.26201335
8778.37746398
8780.71255921
8783.21672856
8785.81795101
8788.41353171
8790.85786535
8792.9420364
8758.47933308
8758.75491858
8759.32393545
8760.17846772
8761.3076521
8762.69813696
8764.33160524
8766.18086465
8768.20680371
8770.35397686
8772.54334425
8774.66157991
8776.54516552
8777.96300316
8747.03588466
8747.27278958
8747.77383246
8748.52660249
8749.52056027
8750.74320177
8752.17750315
8753.79752195
8755.56660277
8757.43206565
8759.31848892
8761.11759381
8762.67235201
8763.76564461
8735.33477712
8735.53530249
8735.97231695
8736.63009793
8737.49946055
8738.57034924
8739.82887748
8741.25417487
8742.81573649
8744.47050301
8746.15640047
8747.78449185
8749.2267102
8750.31319371
8723.40771522
8723.57333085
8723.94972064
8724.51758953
8725.27071581
8726.20277412
8727.30444333
8728.56246304
8729.95630569
8731.45751673
8733.02470018
8734.59884097
8736.09585773
8737.41518708
8738.35655676
8738.55042551
8711.28484757
8711.41579201
8711.73383533
8712.21488601
8712.8569811
8713.65780625
8714.61430169
8715.72183499
8716.97310296
8718.35682998
8719.85650284
8721.44825503
8723.0994082
8724.78473856
8726.40651698
8727.74584336
8698.9957606
8699.09097828
8699.35194624
8699.74626238
8700.27764988
8700.9484755
8701.76243202
8702.72441189
8703.84049649
8705.11774029
8706.56528302
8708.19482996
8710.0248239
8712.09733521
8714.41649114
8716.9281273
)
;
    }
    sides
    {
        type            fixedFluxPressure;
        gradient        nonuniform List<scalar> 0();
        value           nonuniform List<scalar> 0();
    }
    bottom
    {
        type            fixedFluxPressure;
        gradient        uniform 0;
        value           nonuniform List<scalar> 
12
(
8819.68203142
8810.55312512
8800.93381551
8790.90533534
8780.45313997
8769.63069227
8758.47933308
8747.03588466
8735.33477712
8723.40771522
8711.28484757
8698.9957606
)
;
    }
    front
    {
        type            fixedFluxPressure;
        gradient        uniform 0;
        value           nonuniform List<scalar> 
164
(
8819.68203142
8820.31592535
8821.30534126
8822.88651647
8825.0036675
8827.65774267
8830.85335294
8834.59912456
8810.55312512
8811.148045
8812.0444061
8813.5012745
8815.4464441
8817.87818995
8820.79945456
8824.2283033
8828.13358392
8832.54679334
8837.51722116
8800.93381551
8801.50169802
8802.29152749
8803.62827482
8805.39949638
8807.60325921
8810.2300969
8813.36977429
8816.84728705
8820.75432251
8825.08434478
8829.82028525
8834.7786437
8790.90533534
8791.34309621
8792.1205634
8793.32211254
8794.91937727
8796.90576501
8799.27457686
8802.02741666
8805.11037394
8808.5161965
8812.21502591
8816.15639687
8820.27363652
8824.61530822
8780.45313997
8780.82222148
8781.53558696
8782.61491508
8784.04710402
8785.82260694
8787.92770461
8790.34472142
8793.03666868
8795.96620502
8799.078454
8802.29415483
8805.50856272
8808.57807271
8769.63069227
8769.94936929
8770.58958816
8771.55323748
8772.82882406
8774.40438186
8776.26201335
8778.37746398
8780.71255921
8783.21672856
8785.81795101
8788.41353171
8790.85786535
8792.9420364
8758.47933308
8758.75491858
8759.32393545
8760.17846772
8761.3076521
8762.69813696
8764.33160524
8766.18086465
8768.20680371
8770.35397686
8772.54334425
8774.66157991
8776.54516552
8777.96300316
8747.03588466
8747.27278958
8747.77383246
8748.52660249
8749.52056027
8750.74320177
8752.17750315
8753.79752195
8755.56660277
8757.43206565
8759.31848892
8761.11759381
8762.67235201
8763.76564461
8735.33477712
8735.53530249
8735.97231695
8736.63009793
8737.49946055
8738.57034924
8739.82887748
8741.25417487
8742.81573649
8744.47050301
8746.15640047
8747.78449185
8749.2267102
8750.31319371
8723.40771522
8723.57333085
8723.94972064
8724.51758953
8725.27071581
8726.20277412
8727.30444333
8728.56246304
8729.95630569
8731.45751673
8733.02470018
8734.59884097
8736.09585773
8737.41518708
8738.35655676
8738.55042551
8711.28484757
8711.41579201
8711.73383533
8712.21488601
8712.8569811
8713.65780625
8714.61430169
8715.72183499
8716.97310296
8718.35682998
8719.85650284
8721.44825503
8723.0994082
8724.78473856
8726.40651698
8727.74584336
8698.9957606
8699.09097828
8699.35194624
8699.74626238
8700.27764988
8700.9484755
8701.76243202
8702.72441189
8703.84049649
8705.11774029
8706.56528302
8708.19482996
8710.0248239
8712.09733521
8714.41649114
8716.9281273
)
;
    }
    atmosphere
    {
        type            totalPressure;
        rho             rho;
        psi             none;
        gamma           1;
        p0              nonuniform List<scalar> 0();
        value           nonuniform List<scalar> 0();
    }
    floatingObject
    {
        type            fixedFluxPressure;
        gradient        nonuniform List<scalar> 0();
        value           nonuniform List<scalar> 0();
    }
    procBoundary7to6
    {
        type            processor;
        value           nonuniform List<scalar> 
11
(
8828.90034484
8811.29118868
8794.39285371
8778.59146578
8764.06730734
8750.75780051
8750.75780051
8750.04844952
8737.79785914
8729.16424099
8720.25602746
)
;
    }
    procBoundary7to8
    {
        type            processor;
        value           nonuniform List<scalar> 
17
(
8828.28028885
8828.96081721
8830.03314553
8831.7362702
8834.02036546
8836.88935635
8840.34852236
8844.40651745
8838.89570688
8838.89570688
8843.75960636
8849.2140201
8843.21210317
8843.21210317
8848.5211948
8840.51736554
8840.51736554
)
;
    }
    procBoundary7to9
    {
        type            processor;
        value           nonuniform List<scalar> 
16
(
8686.5702144
8686.6291114
8686.83151831
8687.13586746
8687.55210789
8688.0874401
8688.75204226
8689.56002988
8690.52999831
8691.68627412
8693.06140127
8694.69916981
8696.66231238
8699.04599706
8701.93515544
8705.4206481
)
;
    }
}


// ************************************************************************* //
