/*--------------------------------*- C++ -*----------------------------------*\
| =========                 |                                                 |
| \\      /  F ield         | OpenFOAM: The Open Source CFD Toolbox           |
|  \\    /   O peration     | Version:  v2012                                 |
|   \\  /    A nd           | Website:  www.openfoam.com                      |
|    \\/     M anipulation  |                                                 |
\*---------------------------------------------------------------------------*/
FoamFile
{
    version     2.0;
    format      ascii;
    class       volScalarField;
    location    "5.9";
    object      alpha.water;
}
// * * * * * * * * * * * * * * * * * * * * * * * * * * * * * * * * * * * * * //

dimensions      [0 0 0 0 0 0 0];


internalField   nonuniform List<scalar> 
166
(
1.00000123049
1.00000630424
1.00001306379
1.00001947626
1.00002374711
1.00002567315
1.00002079456
0.999999679118
0.999999977125
0.991654519455
0.435588921386
-4.45800991913e-10
2.34764799455e-14
0.999987339408
0.999988408001
0.999999981707
1.0000049665
1.00001104198
1.00001764739
1.0000223846
1.00002464722
1.0000202561
0.999999999488
0.999999999933
0.992292241527
0.450447837944
-1.39388591827e-24
-1.40658798246e-13
0.999998092951
0.999996674052
0.999987339579
0.999987339408
0.999989893892
0.999999767563
1.00000326026
1.00000834834
1.00001398427
1.00001848365
1.00002066441
1.00001718403
1
1
0.993544744591
0.466029949021
1.56990867443e-39
-6.30827895084e-12
0.999999121882
0.999997893951
0.9999945082
0.99999192188
0.999989978366
0.999992889047
0.999994029645
0.999999134798
1.00000186365
1.00000610633
1.0000108231
1.00001484549
1.00001686758
1.00001411713
1
1
0.995033132205
0.481706718564
-1.64382070414e-33
-4.189537525e-11
0.999999781155
0.999999015011
0.999997626066
0.9999970177
0.999997876109
0.999997548696
0.999996139289
0.999997291807
1.00000082343
1.00000418707
1.00000808609
1.00001153474
1.00001335893
1.0000110387
1
1
0.996481417459
0.498450327452
8.6164123288e-28
-2.41630218783e-11
0.999999945044
0.999999671818
0.999999094958
0.99999903159
0.999998551521
0.999997463978
0.999998463239
0.999997314934
1.00000008416
1.00000243265
1.00000541452
1.00000821047
1.00000976303
1.00000774958
0.99999999634
1
0.997673417218
0.51648764442
1.25804312871e-12
-3.34895009566e-10
1.00000026357
0.999999967575
0.999999826415
0.999998935161
0.999997390144
0.999997390144
0.999999294903
0.999999295021
0.999999760482
1.00000085746
1.00000252735
1.00000441535
1.00000560033
1.00000410419
0.999999987617
0.999999998492
0.998546934453
0.534700433197
5.89282689942e-11
1.71286576122e-10
1.00000081635
1.00000052482
1.00000012748
0.999999681589
0.999998621256
0.999997902922
0.999998918449
0.999998815915
0.999999587597
0.999999804924
1.00000036934
1.00000101152
1.00000156537
1.00000101235
0.999999854361
0.999999967643
0.999156732325
0.552511585194
1.92732562603e-09
-2.20576868697e-25
1.00000141632
1.00000122937
1.00000080068
1.000000309
0.999999994147
0.999998914887
0.999994416182
0.999992164158
0.999994640056
0.999998013482
0.999998884588
0.999999273281
0.999999715414
0.999998758674
0.999992975478
0.999999700317
0.999580743571
0.570481088962
5.49256566532e-08
1.92732562603e-09
)
;

boundaryField
{
    back
    {
        type            zeroGradient;
    }
    sides
    {
        type            zeroGradient;
    }
    bottom
    {
        type            zeroGradient;
    }
    front
    {
        type            zeroGradient;
    }
    atmosphere
    {
        type            inletOutlet;
        inletValue      uniform 0;
        value           nonuniform List<scalar> 9(0 0 0 -4.189537525e-11 0 0 0 0 1.92732562603e-09);
    }
    floatingObject
    {
        type            zeroGradient;
    }
    procBoundary0to1
    {
        type            processor;
        value           nonuniform List<scalar> 10(1.00001843043 1.00002138923 1.00002321587 1.00001797429 0.999999801229 0.99999993282 0.991394450674 0.423326640588 6.5824459682e-07 1.73445674844e-14);
    }
    procBoundary0to2
    {
        type            processor;
        value           nonuniform List<scalar> 
14
(
1.00000135669
1.00000663723
1.00001210902
0.999987806505
0.999996613431
0.999996613431
0.999998306916
0.999997456456
0.999987339408
0.999987339408
0.999992900165
0.999992900165
0.999990106586
0.999990106586
)
;
    }
    procBoundary0to4
    {
        type            processor;
        value           nonuniform List<scalar> 8(1.00000192135 1.00000192154 1.0000016059 1.00000121431 1.00000085127 0.999999933109 0.999997247433 0.999991884605);
    }
    procBoundary0to5
    {
        type            processor;
        value           nonuniform List<scalar> 
12
(
0.999988323668
0.99999434253
0.999994325192
0.999994907521
0.999993718662
0.999992510585
0.999990836935
0.999992713952
0.999856812205
0.58956634498
8.22167840171e-07
2.26247683877e-22
)
;
    }
}


// ************************************************************************* //
