/*--------------------------------*- C++ -*----------------------------------*\
| =========                 |                                                 |
| \\      /  F ield         | OpenFOAM: The Open Source CFD Toolbox           |
|  \\    /   O peration     | Version:  v2012                                 |
|   \\  /    A nd           | Website:  www.openfoam.com                      |
|    \\/     M anipulation  |                                                 |
\*---------------------------------------------------------------------------*/
FoamFile
{
    version     2.0;
    format      ascii;
    class       volScalarField;
    location    "5.9";
    object      ddt0(epsilon);
}
// * * * * * * * * * * * * * * * * * * * * * * * * * * * * * * * * * * * * * //

dimensions      [0 2 -4 0 0 0 0];


internalField   nonuniform List<scalar> 
166
(
-0.00021476668914
-0.000215880711517
-0.000217318254627
-0.000219649234436
-0.000224123581341
-0.000234294488701
-0.000258278492144
-0.000314126783206
-0.0004892257579
-0.00177918949745
-0.00919852265914
-0.0271216364464
-0.0077090323915
-0.000213949579745
-0.000214852889877
-0.000215747965982
-0.000216772546884
-0.000218089175975
-0.000220088808695
-0.000223635226945
-0.000230573952901
-0.000243551420457
-0.000257318315506
-0.000250102082195
-0.000837045513674
-0.00544798041987
-0.00700057457985
0.0441260460356
-0.000178909109067
-0.000185898575117
-0.00021363087786
-0.000214928809694
-0.000215829511734
-0.000216697360245
-0.000217674782103
-0.000218892920155
-0.000220609183746
-0.000223352920517
-0.000227737549635
-0.00023185682639
-0.000211331195275
-5.30871687205e-05
-7.2777099441e-05
-0.00335053972961
0.0105098558746
0.194490530654
-0.000179351390604
-0.000186383169096
-0.000204741931999
-0.000211809349303
-0.000214577369178
-0.000215887676533
-0.000216786673874
-0.000217640095115
-0.000218584711658
-0.000219727530766
-0.000221226660646
-0.000223311657051
-0.000225609287907
-0.000222658040773
-0.000176392513322
0.000101626264617
0.000696824645763
-0.00278793488216
-0.0105918185549
0.664033389618
-0.000179672716063
-0.000186916576765
-0.000205478766984
-0.000212660982081
-0.000215479942279
-0.000216801290224
-0.00021770513084
-0.000218557224872
-0.000219485395762
-0.000220572556805
-0.000221908361681
-0.00022346589604
-0.000224036349184
-0.000215431998173
-0.000151251805248
0.000207428399596
0.00149578228825
5.95110657952e-05
-0.0324141416221
0.0242686034433
-0.000180068727867
-0.000187402842767
-0.000206159551851
-0.000213454439699
-0.000216326078848
-0.000217665928918
-0.000218578475497
-0.000219437438712
-0.000220364100683
-0.000221417777437
-0.000222628632545
-0.000223768059954
-0.000222908853237
-0.00020983284486
-0.00013490607922
0.000259203366653
0.00206156914048
0.00297034816259
-0.0349254513984
-0.0887568640056
-0.000180488407414
-0.000187840670322
-0.000206779918585
-0.000214183684629
-0.000217109798363
-0.000218480947428
-0.00021940764436
-0.000220276251145
-0.000221210952814
-0.000222250313356
-0.000223373838186
-0.000224177385984
-0.000222194561903
-0.000205841151217
-0.000125782185663
0.000272911336991
0.00241186922634
0.00568725763735
-0.0531192177865
-0.44809464054
-0.000180888747032
-0.000188217906625
-0.000207332460448
-0.000214843986123
-0.000217831829678
-0.000219238778385
-0.00022018701603
-0.000221069397502
-0.000222013044576
-0.000223049852911
-0.000224117649299
-0.000224677920122
-0.000221866385208
-0.000203283558033
-0.000122123363543
0.000256790018358
0.00254940562973
0.00911466358785
-0.0458639917634
-0.641702002278
-0.000181258826929
-0.000188535459422
-0.000207814842163
-0.000215432635619
-0.000218481313424
-0.000219921538908
-0.000220896719545
-0.00022180324195
-0.00022276509138
-0.00022380811643
-0.000224843629684
-0.000225253471491
-0.000221881020534
-0.000201985865006
-0.00012256110448
0.000216626145721
0.00245684290671
0.0135958854887
-0.0273363178899
-0.0394029362348
)
;

boundaryField
{
    back
    {
        type            calculated;
        value           nonuniform List<scalar> 
166
(
-0.00021476668914
-0.000215880711517
-0.000217318254627
-0.000219649234436
-0.000224123581341
-0.000234294488701
-0.000258278492144
-0.000314126783206
-0.0004892257579
-0.00177918949745
-0.00919852265914
-0.0271216364464
-0.0077090323915
-0.000213949579745
-0.000214852889877
-0.000215747965982
-0.000216772546884
-0.000218089175975
-0.000220088808695
-0.000223635226945
-0.000230573952901
-0.000243551420457
-0.000257318315506
-0.000250102082195
-0.000837045513674
-0.00544798041987
-0.00700057457985
0.0441260460356
-0.000178909109067
-0.000185898575117
-0.00021363087786
-0.000214928809694
-0.000215829511734
-0.000216697360245
-0.000217674782103
-0.000218892920155
-0.000220609183746
-0.000223352920517
-0.000227737549635
-0.00023185682639
-0.000211331195275
-5.30871687205e-05
-7.2777099441e-05
-0.00335053972961
0.0105098558746
0.194490530654
-0.000179351390604
-0.000186383169096
-0.000204741931999
-0.000211809349303
-0.000214577369178
-0.000215887676533
-0.000216786673874
-0.000217640095115
-0.000218584711658
-0.000219727530766
-0.000221226660646
-0.000223311657051
-0.000225609287907
-0.000222658040773
-0.000176392513322
0.000101626264617
0.000696824645763
-0.00278793488216
-0.0105918185549
0.664033389618
-0.000179672716063
-0.000186916576765
-0.000205478766984
-0.000212660982081
-0.000215479942279
-0.000216801290224
-0.00021770513084
-0.000218557224872
-0.000219485395762
-0.000220572556805
-0.000221908361681
-0.00022346589604
-0.000224036349184
-0.000215431998173
-0.000151251805248
0.000207428399596
0.00149578228825
5.95110657951e-05
-0.0324141416221
0.0242686034433
-0.000180068727867
-0.000187402842767
-0.000206159551851
-0.000213454439699
-0.000216326078848
-0.000217665928918
-0.000218578475497
-0.000219437438712
-0.000220364100683
-0.000221417777437
-0.000222628632545
-0.000223768059954
-0.000222908853237
-0.00020983284486
-0.00013490607922
0.000259203366653
0.00206156914048
0.00297034816259
-0.0349254513984
-0.0887568640056
-0.000180488407414
-0.000187840670322
-0.000206779918585
-0.000214183684629
-0.000217109798363
-0.000218480947428
-0.00021940764436
-0.000220276251145
-0.000221210952814
-0.000222250313356
-0.000223373838186
-0.000224177385984
-0.000222194561903
-0.000205841151217
-0.000125782185663
0.000272911336991
0.00241186922634
0.00568725763735
-0.0531192177865
-0.44809464054
-0.000180888747032
-0.000188217906625
-0.000207332460448
-0.000214843986123
-0.000217831829678
-0.000219238778385
-0.00022018701603
-0.000221069397502
-0.000222013044576
-0.000223049852911
-0.000224117649299
-0.000224677920122
-0.000221866385208
-0.000203283558033
-0.000122123363543
0.000256790018358
0.00254940562973
0.00911466358785
-0.0458639917634
-0.641702002278
-0.000181258826929
-0.000188535459422
-0.000207814842163
-0.000215432635619
-0.000218481313424
-0.000219921538908
-0.000220896719545
-0.00022180324195
-0.00022276509138
-0.00022380811643
-0.000224843629684
-0.000225253471491
-0.000221881020534
-0.000201985865006
-0.00012256110448
0.000216626145721
0.00245684290671
0.0135958854887
-0.0273363178899
-0.0394029362348
)
;
    }
    sides
    {
        type            calculated;
        value           nonuniform List<scalar> 0();
    }
    bottom
    {
        type            calculated;
        value           nonuniform List<scalar> 7(-0.000178909109067 -0.000179351390604 -0.000179672716063 -0.000180068727867 -0.000180488407414 -0.000180888747032 -0.000181258826929);
    }
    front
    {
        type            calculated;
        value           nonuniform List<scalar> 
166
(
-0.00021476668914
-0.000215880711517
-0.000217318254627
-0.000219649234436
-0.000224123581341
-0.000234294488701
-0.000258278492144
-0.000314126783206
-0.0004892257579
-0.00177918949745
-0.00919852265914
-0.0271216364464
-0.0077090323915
-0.000213949579745
-0.000214852889877
-0.000215747965982
-0.000216772546884
-0.000218089175975
-0.000220088808695
-0.000223635226945
-0.000230573952901
-0.000243551420457
-0.000257318315506
-0.000250102082195
-0.000837045513674
-0.00544798041987
-0.00700057457985
0.0441260460356
-0.000178909109067
-0.000185898575117
-0.00021363087786
-0.000214928809694
-0.000215829511734
-0.000216697360245
-0.000217674782103
-0.000218892920155
-0.000220609183746
-0.000223352920517
-0.000227737549635
-0.00023185682639
-0.000211331195275
-5.30871687205e-05
-7.2777099441e-05
-0.00335053972961
0.0105098558746
0.194490530654
-0.000179351390604
-0.000186383169096
-0.000204741931999
-0.000211809349303
-0.000214577369178
-0.000215887676533
-0.000216786673874
-0.000217640095115
-0.000218584711658
-0.000219727530766
-0.000221226660646
-0.000223311657051
-0.000225609287907
-0.000222658040773
-0.000176392513322
0.000101626264617
0.000696824645763
-0.00278793488216
-0.0105918185549
0.664033389618
-0.000179672716063
-0.000186916576765
-0.000205478766984
-0.000212660982081
-0.000215479942279
-0.000216801290224
-0.00021770513084
-0.000218557224872
-0.000219485395762
-0.000220572556805
-0.000221908361681
-0.00022346589604
-0.000224036349184
-0.000215431998173
-0.000151251805248
0.000207428399596
0.00149578228825
5.95110657951e-05
-0.0324141416221
0.0242686034433
-0.000180068727867
-0.000187402842767
-0.000206159551851
-0.000213454439699
-0.000216326078848
-0.000217665928918
-0.000218578475497
-0.000219437438712
-0.000220364100683
-0.000221417777437
-0.000222628632545
-0.000223768059954
-0.000222908853237
-0.00020983284486
-0.00013490607922
0.000259203366653
0.00206156914048
0.00297034816259
-0.0349254513984
-0.0887568640056
-0.000180488407414
-0.000187840670322
-0.000206779918585
-0.000214183684629
-0.000217109798363
-0.000218480947428
-0.00021940764436
-0.000220276251145
-0.000221210952814
-0.000222250313356
-0.000223373838186
-0.000224177385984
-0.000222194561903
-0.000205841151217
-0.000125782185663
0.000272911336991
0.00241186922634
0.00568725763735
-0.0531192177865
-0.44809464054
-0.000180888747032
-0.000188217906625
-0.000207332460448
-0.000214843986123
-0.000217831829678
-0.000219238778385
-0.00022018701603
-0.000221069397502
-0.000222013044576
-0.000223049852911
-0.000224117649299
-0.000224677920122
-0.000221866385208
-0.000203283558033
-0.000122123363543
0.000256790018358
0.00254940562973
0.00911466358785
-0.0458639917634
-0.641702002278
-0.000181258826929
-0.000188535459422
-0.000207814842163
-0.000215432635619
-0.000218481313424
-0.000219921538908
-0.000220896719545
-0.00022180324195
-0.00022276509138
-0.00022380811643
-0.000224843629684
-0.000225253471491
-0.000221881020534
-0.000201985865006
-0.00012256110448
0.000216626145721
0.00245684290671
0.0135958854887
-0.0273363178899
-0.0394029362348
)
;
    }
    atmosphere
    {
        type            calculated;
        value           nonuniform List<scalar> 9(0.00254579128255 -0.003609563386 -0.00981950103295 0.177098579959 -0.0437613066472 0.667694164511 -0.974499464433 -2.08138647216 6.97513471099e-08);
    }
    floatingObject
    {
        type            calculated;
        value           nonuniform List<scalar> 0();
    }
    procBoundary0to1
    {
        type            processor;
        value           nonuniform List<scalar> 10(-0.000219020882135 -0.000224052986722 -0.000235903360106 -0.000266641468796 -0.000351223634522 -0.000661755591677 -0.00264588954135 -0.0132009358568 -0.0422645489319 -0.027482725211);
    }
    procBoundary0to2
    {
        type            processor;
        value           nonuniform List<scalar> 
14
(
-0.000213817817233
-0.000214922015025
-0.000216479779147
-0.000212981419676
-0.000213867009911
-0.000213867009911
-0.000178282532333
-0.000185344127228
-0.000212708767154
-0.000212708767154
-0.000204003632638
-0.000204003632638
-0.000210928565372
-0.000210928565372
)
;
    }
    procBoundary0to4
    {
        type            processor;
        value           nonuniform List<scalar> 8(-0.000181580055871 -0.000188790065112 -0.000208224652227 -0.00021594143396 -0.000219047294989 -0.000220521640141 -0.000221524264766 -0.000222464624618);
    }
    procBoundary0to5
    {
        type            processor;
        value           nonuniform List<scalar> 
12
(
-0.000223463210104
-0.000224523406446
-0.000225551494624
-0.000225879108719
-0.000222191558916
-0.000201814361997
-0.000127399143731
0.000153993975665
0.00221724901239
0.0167040890874
0.0369864664853
-0.000846322875446
)
;
    }
}


// ************************************************************************* //
