/*--------------------------------*- C++ -*----------------------------------*\
| =========                 |                                                 |
| \\      /  F ield         | OpenFOAM: The Open Source CFD Toolbox           |
|  \\    /   O peration     | Version:  v2012                                 |
|   \\  /    A nd           | Website:  www.openfoam.com                      |
|    \\/     M anipulation  |                                                 |
\*---------------------------------------------------------------------------*/
FoamFile
{
    version     2.0;
    format      ascii;
    class       volScalarField;
    location    "5.7";
    object      alpha.water;
}
// * * * * * * * * * * * * * * * * * * * * * * * * * * * * * * * * * * * * * //

dimensions      [0 0 0 0 0 0 0];


internalField   nonuniform List<scalar> 
1984
(
0.999999143721
0.999999069203
0.999998891455
0.999998901436
0.999999446984
1.00000072562
1.00000209066
1.00000327061
1.0000045032
1.00000528015
1.00000685609
1.00000544729
1.00000054291
0.999998324257
0.999998311197
0.99999852257
0.976936644178
0.345301407418
4.39927420175e-05
1.80235202743e-05
0.999999067177
0.99999891896
0.999998898044
0.999998921608
0.999999662159
1.00000083065
1.00000225836
1.00000379437
1.00000434563
1.00000582043
1.00000716363
1.00000450477
1.00000029645
0.999998375436
0.999998356863
0.999998522636
0.968100361307
0.345040119208
-5.17428867911e-10
2.02088670557e-06
0.999999084706
0.999998994397
0.999998919602
0.999999132886
0.999999847769
1.00000073683
1.00000221112
1.00000351792
1.00000279369
1.00000249084
1.00000505942
1.00000400489
0.99999956462
0.999998003566
0.999998404052
0.999998522636
0.967639944573
0.344074731678
-4.36421565841e-09
-9.176937708e-08
0.999999308653
0.999999306513
0.999999296656
0.99999945426
0.999999938937
1.00000057181
1.00000197763
1.00000363868
1.00000167072
0.999997701682
0.999998211545
0.999999260468
0.999998960407
0.99999772648
0.999998453917
0.999998522636
0.967784255729
0.34185825418
1.03187543147e-06
-8.5384920829e-09
0.999999578552
0.999999627862
0.999999707263
0.999999812418
1.00000004822
1.00000038961
1.00000129978
1.00000232319
1.00000110256
0.999995621195
0.999990803964
0.999994279008
0.999998390219
0.999997595196
0.999998454015
0.999998521999
0.97000254787
0.338101238342
4.20870249872e-05
1.35604547776e-06
0.999999862455
0.99999995098
1.00000006655
1.00000014103
1.00000013424
1.00000023396
1.00000057937
1.00000068977
0.999999046362
0.999993391086
0.999983194897
0.999988051914
0.999997598796
0.999997583301
0.999998447004
0.999998519443
0.972708223968
0.333021497404
3.24385923474e-05
6.49977791216e-06
1.00000011784
1.00000022356
1.00000033096
1.00000037731
1.00000023673
1.00000003523
0.999999951867
0.999999334982
0.999997193351
0.999987569498
0.99997677355
0.99998661746
0.999996906006
0.999997488721
0.999998512194
0.999998564202
0.973514724954
0.328792487307
6.50147111347e-06
7.33666326921e-08
1.0000002915
1.00000038771
1.00000051055
1.00000050674
1.0000002935
0.999999864564
0.999999519432
0.999998278321
0.999994581689
0.999983014567
0.99997677355
0.999979913414
0.999992837803
0.999995986637
0.999998453939
0.999998806766
0.97126769151
0.327027465508
7.51174401285e-08
8.65556408486e-12
1.00000037478
1.00000046213
1.00000053947
1.0000004943
1.00000025971
0.999999797548
0.999999094615
0.999997249514
0.999992023594
0.999978614908
0.99997677355
0.999981197596
0.999991211053
0.999992728275
0.999998237618
0.999999137584
0.969065611927
0.329212694273
-4.65976134193e-12
-8.65759342161e-12
1.00000033985
1.0000003945
1.00000046939
1.00000040276
1.00000017026
0.999999762804
0.999998880488
0.999996511634
0.999989897925
0.999980028872
0.99997680399
0.999990190234
0.999996010841
0.999996392514
0.999999021121
0.99999939825
0.969220542423
0.334940280942
-4.3443711026e-13
-2.21168470268e-10
1.00000022137
1.0000002356
1.00000029078
1.00000026138
0.99999994705
0.999999552054
0.999998469824
0.999994261769
0.999991705137
0.999990152515
0.999986747375
0.999997773298
0.999998751546
0.999998807505
0.999999650219
0.999999700408
0.97153997423
0.343159385092
-1.90603457894e-16
-1.44109975507e-11
1.00000000481
0.999999969786
1.00000002145
1.00000002989
0.999999701542
0.999998330427
0.999996769248
0.999996758572
0.999998726269
0.999999137475
0.999998659435
0.999999803854
1.00000054934
0.999999791992
0.999999856407
0.999999940621
0.975213605516
0.354061995186
-8.72739557229e-20
-1.26053163171e-09
0.999999657343
0.999999551842
0.99999953936
0.999999479917
0.999999286948
0.999998094466
0.999998102787
0.999999759602
1.00000033138
1.00000146673
1.00000208236
1.00000375151
1.00000469742
1.00000211566
0.999999998316
1
0.979349880718
0.368973472485
-1.46651371995e-22
-3.91560057812e-13
0.999999278932
0.999999038637
0.999998964444
0.999998640945
0.999998408422
0.999998849209
0.999999590021
1.00000058438
1.0000031102
1.000005764
1.00000814706
1.00000996582
1.00001091635
1.00000741439
0.99999999962
1.00000000003
0.983549786672
0.388179804681
-1.69904235363e-14
5.01544256351e-38
0.999997850812
0.999997822181
0.999997828786
0.999998176977
0.999997948707
0.999998980493
0.999999787935
1.00000147698
1.00000588291
1.00001038463
1.00001525189
1.00001705824
1.00001821356
1.00001366538
0.999999999049
1.00000000002
0.987542952194
0.411044856531
-1.16089104096e-15
-4.57629334921e-16
0.999998058655
0.999997536787
0.999997352468
0.9999974361
0.999997338078
0.999997859903
0.999999473979
1.00000164885
1.0000071505
1.00001365019
1.0000204508
1.00002306136
1.00002460539
1.0000194509
1
1.00000000001
0.991091819099
0.436555068968
-6.13638165833e-13
-1.66141693173e-16
0.999998245489
0.999998174001
0.999997351042
0.999993754088
0.999991682207
0.999987860849
0.999996849016
1.00000098363
1.00000742436
1.00001466977
1.00002210251
1.0000263852
1.00002847664
1.00002346636
1
1.00000000001
0.994057798986
0.463934027798
0
-4.43075693312e-19
0.999998115718
0.99999733321
0.999995799598
0.999992868057
0.999987054732
0.999987055084
0.999988287973
1.00000004424
1.00000550986
1.00001196872
1.00001898448
1.00002389915
1.00002631933
1.00002228768
1
1.00000000002
0.996372463057
0.4920984889
0
-2.66433583339e-17
0.999997837057
0.999996461435
0.999992960911
0.999990445939
0.999987054749
0.99998705477
0.999989996431
0.999999899238
1.0000037876
1.00000918066
1.00001512152
1.00001980974
1.00002214078
1.00001907982
1.00000181945
1.00000000002
0.998107417454
0.520676894901
0
-2.15572658139e-15
0.999998958822
0.999997761195
0.999994260725
0.999991567331
0.999989707047
0.999992626879
0.999993970608
0.999999506248
1.00000241021
1.00000690302
1.0000118594
1.0000160454
1.00001821809
1.00001592625
1.00000239628
1.00000000001
0.999288977766
0.549006564827
3.32322892874e-09
2.08803699657e-14
0.999999737243
0.99999892675
0.999997388994
0.999996523435
0.999997482477
0.999997484303
0.999996076242
0.999997651444
1.00000136854
1.00000495767
1.00000906065
1.00001265862
1.00001462525
1.00001281448
1.00000127662
1.00000000001
0.999877670217
0.576019712807
1.0717397755e-07
1.41171825502e-23
0.999999929553
0.999999654978
0.999998980085
0.999998980073
0.999998578725
0.999997484249
0.999998428816
0.999997493014
1.00000058834
1.00000314631
1.0000063292
1.00000927144
1.00001096164
1.00000934172
1
1.00000000009
0.999999739474
0.599293226072
0.00168005781885
-1.23179717593e-24
1.0000002953
0.999999983687
0.999999823728
0.999998970006
0.999997440962
0.99999744627
0.999999539841
0.999999532355
1.0000001839
1.00000149451
1.00000332191
1.00000535582
1.00000666263
1.0000052714
1
1.00000000022
0.999999756575
0.618614614472
0.00763905621114
-9.23223323358e-25
1.00000089047
1.00000058926
1.00000018346
0.999999679479
0.999998686417
0.999998031385
0.999999210659
0.999999277508
1.0000000068
1.0000003938
1.00000111534
1.00000178716
1.00000229591
1.00000169517
0.999999749023
0.999999760309
0.999999479982
0.637104988768
0.0135187634134
-3.75070399447e-24
1.00000151682
1.0000013112
1.00000085616
1.0000003403
0.999999929506
0.999998900245
0.999994770072
0.999992713988
0.999995082271
0.999998377786
0.999999419337
0.999999696401
1.00000014392
0.999999176863
0.999992455753
0.999998630955
0.999997115094
0.654448638461
0.0196630901128
0
1.00000208307
1.00000206177
1.00000170518
1.00000126857
1.00000089015
0.999999913214
0.99999713596
0.999992186763
0.999989106838
0.999994846876
0.999994828629
0.999995617085
0.999994463162
0.999992834087
0.999990253179
0.999991963816
0.999992683961
0.671385359488
0.0259062054452
-1.2767279434e-22
1.0000024605
1.00000260735
1.00000242085
1.00000207812
1.00000165036
1.00000083824
0.999999974596
0.999997243772
0.999988552938
0.999988306807
0.999993530737
0.999989646519
0.999988627595
0.99998884122
0.999990813116
0.999991391809
0.999990811244
0.688033746088
0.0316618738451
-5.28616153593e-23
1.00000288856
1.00000315966
1.00000311246
1.00000285977
1.00000238637
1.00000153857
1.0000004895
0.999998619496
0.999990642324
0.99997521971
0.999975238071
0.999984659963
0.99998825264
0.999990625799
0.999990626383
0.99999081316
0.999990617332
0.703005636251
0.0365740583791
-6.45796589928e-26
1.00000339697
1.00000374839
1.00000378724
1.0000035845
1.00000305978
1.00000205169
1.00000062741
0.999998094909
0.999993034123
0.999978274237
0.99996911409
0.999985105618
0.999988509213
0.999988451699
0.999989921894
0.999990621458
0.99999027892
0.717277606388
0.0411815482113
-3.53420511367e-25
1.00000388089
1.00000427671
1.00000436478
1.00000417947
1.00000359375
1.00000241191
1.00000058621
0.999997649926
0.99999252221
0.99998436189
0.999969102831
0.999970891719
0.999988506064
0.999975559728
0.999988556541
0.99999027875
0.999989280586
0.730738434461
0.0464843912719
-2.6655511277e-20
1.00000425493
1.00000466121
1.00000477453
1.00000458869
1.00000394281
1.0000026228
1.00000048413
0.99999770724
0.99999095713
0.999979721716
0.999969102825
0.999969102825
0.999977528113
0.999970012884
0.999982229639
0.999992342416
0.999987346448
0.743181951302
0.0529307357923
-2.63009564542e-20
1.0000044562
1.00000484136
1.00000496312
1.00000476875
1.0000040746
1.00000266711
1.0000003807
0.999997751866
0.999991054975
0.999979543512
0.999969102831
0.999970592039
0.999970012884
0.999970012884
0.999970012884
0.999997115849
0.999991737633
0.754933519626
0.0605727183316
-6.27134608327e-20
1.00000444053
1.00000477834
1.000004894
1.0000046872
1.00000396133
1.00000252401
1.00000024217
0.999997794939
0.999991596259
0.999985446518
0.999977088255
0.999977265792
0.999970012925
0.999970012884
0.999980453573
0.999999669035
0.999997213801
0.7663896362
0.069213600198
-6.22334503683e-20
1.00000418393
1.00000445554
1.00000454862
1.00000432769
1.00000359256
1.00000219329
1.00000007932
0.999997886656
0.99999295359
0.999990967456
0.999987525779
0.999971798665
0.999970013085
0.999982185628
0.999998977631
0.999999997512
0.999999669037
0.777540227574
0.078565073341
-1.01306025372e-22
1.00000368699
1.00000388533
1.00000393889
1.00000371106
1.0000030117
1.00000171967
0.999999924779
0.999998093454
0.999994954016
0.999989610333
0.999980737551
0.999980015215
0.999981924023
0.99999383495
1.00000231504
1
0.999999997512
0.787431281702
0.0870506011718
-7.87978597251e-17
1.00000298115
1.00000311393
1.0000031306
1.00000292435
1.00000232267
1.00000122321
0.999999727139
0.999998408167
0.99999603382
0.999990711699
0.999981885233
0.999991424074
0.9999995601
1
1.00000395795
1.00000216292
1
0.798145963205
0.0937273508624
-9.18168820306e-14
1.00000214929
1.00000223065
1.00000225142
1.00000210054
1.00000163772
1.00000076165
0.999999645947
0.999998723251
0.999997060828
0.99999509484
0.999991587277
0.99999992702
1.00000114617
1.00000220985
1.00000466634
1.00000500222
1
0.811294329041
0.100024656663
-9.19241444607e-29
1.00000134121
1.00000138889
1.00000144949
1.00000137351
1.00000105535
1.00000040626
0.999999625412
0.999999349822
0.999999442093
0.999999802227
0.999998611604
1.00000093457
1.00000559981
1.00000650327
1.00000532865
1.00000555873
1
0.825636356261
0.10902900452
-2.0969857047e-30
1.00000069547
1.0000007457
1.00000084423
1.000000839
1.00000063111
1.00000018638
0.999999743936
1.00000009358
1.0000011066
1.00000240304
1.00000094882
1.00000417095
1.00000673112
1.00000597994
1.00000440024
1.00000422647
1.00000041064
0.837409385306
0.118506515872
-1.01312566243e-22
1.00000017131
1.00000028894
1.00000044084
1.00000055492
1.00000039244
1.00000014757
1.00000035959
1.00000147184
1.00000400846
1.0000044827
1.00000748259
1.00000562076
1.00000427311
0.999998968424
1.00000095884
1.00000147403
1.00000117016
0.848098903619
0.128146793636
0
0.999999831544
1.00000002175
1.00000034284
1.0000001167
1.00000047956
1.00000030697
1.00000088185
1.00000284248
1.00000412628
1.00000728292
1.00000985593
1.00000342828
0.999996661797
0.999993359129
0.999994086539
0.999999260966
1.00000073247
0.856765882231
0.139980325349
-5.78241158659e-20
0.999999688179
1.00000003625
0.99999976691
1.00000062254
0.999999556233
1.00000055151
1.00000117953
1.00000291466
1.00000650382
1.00000855981
1.00001098229
1.0000085964
1.00000297157
0.999994878277
0.999994767928
0.999998742418
1.0000011257
0.862010631237
0.154786167546
-1.97208459738e-08
0.999999418984
0.999999535539
1.00000008241
0.999998975635
1.00000008711
0.999999355865
1.00000111829
1.00000222
1.00000370284
1.00000493935
1.00000589642
1.00000551917
1.00000253531
0.999998259833
0.99999569379
0.999998326926
1.00000037873
0.86434538934
0.16069858781
-2.64615832957e-10
1.00000049039
1.00000071883
1.00000057814
1.0000004928
0.999999404794
1.00000035244
1.00000084933
1.00000169463
1.00000287517
1.00000387033
1.00000461991
1.00000416789
1.0000021921
0.999998653862
0.999995636963
0.999998078943
1.00000002337
0.881666993182
0.165346392518
5.60155362996e-07
1.00000106723
1.00000120293
1.0000009306
1.00000047875
1.00000012658
1.00000000917
1.00000029004
1.00000097745
1.00000186532
1.00000237517
1.00000236237
1.00000146134
1
0.999994675849
0.999994235787
0.999997527734
1
0.89556349252
0.171794118016
1.14956488158e-19
1.00000143097
1.00000139575
1.00000099616
1.00000040808
0.9999998501
0.999999556727
0.999999733728
1.00000027088
1.00000088551
1.00000119501
1.00000082915
0.999999970698
0.99999738601
0.999987079504
0.999992055716
0.999996344349
0.999999999688
0.898160124006
0.180883150236
0
1.00000156397
1.00000134479
1.00000078938
1.00000009834
0.999999498045
0.999999113972
0.999999192361
0.999999501639
1.00000038168
1.00000095508
1.00000062265
0.999999291808
0.999994877771
0.999981915289
0.999987791361
0.999994018861
0.999999933964
0.904543147105
0.197556853468
1.34554712975e-20
1.00000141982
1.0000010654
1.00000036753
0.999999552451
0.999999027489
0.999998752582
0.999998407691
0.999998969409
1.00000044183
1.00000099114
1.00000055668
0.999999670927
0.999993336949
0.999980879739
0.999985731384
0.999993294031
0.999999641716
0.90989673427
0.221666238305
-2.82344315751e-20
1.00000098709
1.00000055349
0.999999806713
0.999999048991
0.999998649684
0.999998481588
0.999998495621
0.9999995948
0.999985196731
0.999979698975
0.999985815322
0.999991121881
0.999999237473
0.902122806914
0.247879536023
-2.16840434497e-20
1.00000050562
1.00000016165
0.999999557342
0.999999147074
0.999999176496
0.999999174581
0.999999118691
0.999999799902
0.999990549184
0.999983922754
0.99999207119
0.99999688113
0.999999578588
0.907510857159
0.268341591743
1.1163188384e-20
1.0000004101
1.000000187
1.00000012122
1.00000025008
1.00000044942
1.00000042225
1.00000028316
1.00000084088
0.999990688738
0.999983922302
0.999990905501
0.999996928226
0.999999892733
0.915940417297
0.254896734043
-4.43113306696e-10
1.00000035138
1.00000027539
1.00000090244
1.00000143963
1.00000168584
1.00000167917
1.00000166924
1.0000016451
0.999991891811
0.999987451966
0.999989540673
0.999996540344
0.999999999976
0.908237597119
0.213711613438
-1.98898335556e-21
1.00000188194
1.00000265498
1.00000308359
1.00000351444
1.00000381559
1.00000368432
1.00000299692
1.00000165872
1.0000022039
1.00000150586
1.00000081302
0.999999798048
0.99999402764
0.999988326009
0.999988325421
0.999996694501
1
0.902799501527
0.190953563431
-1.27054942089e-22
1.00000256278
1.00000354475
1.00000399604
1.00000430654
1.00000452738
1.00000442386
1.00000379424
1.00000255442
1.00000095515
0.999999477346
0.999998628696
0.999998315778
0.999997927488
0.999990021578
0.999991650965
0.99999851829
1.00000021276
0.898577655157
0.181478923162
5.50518476156e-20
1.00000426485
1.00000518411
1.00000560849
1.00000578332
1.00000567908
1.00000506443
1.00000375447
1.00000171233
0.999999336862
0.999997615076
0.999995650384
0.99999579475
0.999997049933
0.999989881516
0.99999420638
0.999999472486
1.0000005802
0.886623505276
0.169682500937
0.000411201964552
1.00000564048
1.00000648189
1.00000677446
1.00000670604
1.0000061975
1.00000505525
1.00000315748
1.00000049618
0.999998153558
0.999996130151
0.999993599214
0.999991456291
0.999991465222
0.999987371622
0.999992909424
0.99999950688
1.00000046292
0.876145513355
0.161168114617
0.00023189714246
1.00000657877
1.00000734552
1.00000759776
1.00000733677
1.00000639683
1.00000477931
1.00000238198
0.99999939193
0.999997212187
0.999994950498
0.999994315429
0.999989982602
0.999978253721
0.999971595938
0.999983333752
0.999999001894
1.00000034418
0.872833882472
0.155373318618
-3.52930394689e-21
1.0000073647
1.00000800943
1.00000816929
1.00000778331
1.00000666917
1.00000468533
1.00000177099
0.999998918263
0.999996876523
0.999992090136
0.999989867998
0.999989436639
0.999971774354
0.999918675642
0.999955762269
0.99999915964
1.00000029756
0.872634905647
0.150505082141
2.60812632077e-21
1.00000756921
1.00000801581
1.00000813544
1.00000777249
1.00000663601
1.0000044919
1.00000132314
0.999998818792
0.999995583736
0.99998830591
0.999980889911
0.99997553314
0.999930845483
0.999903177386
0.999920342147
0.99999386407
1.00000003092
0.870444871827
0.15009362691
7.97262739184e-22
1.00000696503
1.00000725117
1.00000746277
1.00000730424
1.00000638939
1.00000440774
1.00000133458
0.999999374809
0.99999395177
0.99998249478
0.999979637264
0.999955620242
0.999903177386
0.999903177386
0.999903177386
0.999980604186
1
0.861312869041
0.15123078398
-2.46018594316e-08
1.00000552392
1.00000592877
1.0000065432
1.0000069423
1.00000664511
1.00000519225
1.00000238
1.0000000962
0.999993342687
0.999986666388
0.999982904026
0.999968985919
0.999914683763
0.999903177386
0.999903177386
0.999977077685
1
0.852480488733
0.142697115395
-1.11984599378e-17
1.00000382856
1.00000462815
1.00000590749
1.00000712729
1.00000765878
1.00000687708
1.00000431177
1.00000132425
0.999997485764
0.999993782425
0.999987179431
0.999974334806
0.999972863554
0.999908333462
0.999917890353
0.999986605877
0.99999998016
0.844523458491
0.130229167102
-9.21525288088e-22
1.00000254124
1.00000367012
1.00000550107
1.00000741367
1.00000867512
1.00000849766
1.000006463
1.00000311974
1.0000003823
0.999994231105
0.999983355799
0.999983359879
0.999980069388
0.999957878506
0.999949449385
0.999984690262
0.999999898183
0.831815615885
0.116558129692
-6.17831789743e-22
1.00000155568
1.00000283376
1.00000496393
1.00000736799
1.00000919661
1.00000980345
1.00000822261
1.00000501487
1.00000213238
0.999992595802
0.999973664755
0.999957979314
0.999953216008
0.99995509523
0.99995661127
0.999984101508
0.999996665655
0.813073664504
0.103531367773
-2.50506932365e-19
1.00000100756
1.00000194665
1.00000354568
1.0000053991
1.00000689984
1.00000752139
1.00000692169
1.00000470202
1.0000015608
0.99999530842
0.999980099377
0.999941625189
0.99992325759
0.99992325759
0.999928464327
0.999983750946
0.999989007285
0.795083741668
0.0937874079871
-3.92063244395e-19
1.00000070949
1.00000145953
1.00000282763
1.00000451806
1.00000600529
1.00000682782
1.00000669672
1.00000513028
1.00000205198
0.999998902223
0.999991993582
0.999970136315
0.999924163827
0.99992325759
0.99992325759
0.999983035445
0.999982492019
0.784734302702
0.0864723128762
-5.19048666638e-19
1.00000044032
1.0000012154
1.00000239158
1.00000394119
1.00000540176
1.00000636464
1.00000646518
1.00000529441
1.00000282005
0.999999639307
0.999994969474
0.999988150742
0.999970176619
0.99992325759
0.999947593348
0.999981479939
0.999979021717
0.775941407182
0.0804635840859
-1.53183452021e-17
0.999999955004
1.00000082453
1.00000204391
1.00000342726
1.00000480873
1.00000581637
1.00000599402
1.0000050422
1.00000285047
0.999999935234
0.9999960408
0.999989025276
0.999981034452
0.999974715171
0.999965846991
0.999979287574
0.999976697718
0.767121404796
0.07300661208
-2.48231783611e-19
0.999999719813
1.00000036676
1.00000164129
1.00000292473
1.00000416731
1.00000509337
1.00000527124
1.00000442606
1.00000255836
0.999999946764
0.999996331083
0.999989374842
0.999984358062
0.99998435817
0.999977706606
0.999977964575
0.999977628392
0.757562308274
0.0636971508464
-4.89906343884e-21
0.999999568082
1.00000002606
1.00000123298
1.00000242928
1.00000348358
1.00000424493
1.00000438862
1.00000363376
1.00000208957
0.999999762924
0.999996681205
0.999991178079
0.999982114992
0.999974859469
0.999977785197
0.999977741705
0.999977670125
0.748164520318
0.0557952315634
-4.62787346866e-19
0.99999953261
1.00000002238
1.00000088544
1.0000019184
1.00000280423
1.00000338641
1.00000347424
1.00000280361
1.00000152673
0.99999960197
0.999997221946
0.99999354147
0.999986799202
0.999972569095
0.999972783471
0.999977670125
0.999976361341
0.737918517362
0.0497362317567
-1.07033346396e-17
0.9999996841
1.00000015485
1.00000070803
1.00000149379
1.00000222231
1.00000264486
1.00000264375
1.00000199603
1.00000088593
0.999999462905
0.999997695776
0.99999533941
0.999992581649
0.999976560637
0.99997220527
0.999978374991
0.999975091699
0.725933891239
0.044482752403
-9.5131005827e-18
0.999999861289
1.00000024397
1.0000007154
1.00000125895
1.00000179855
1.00000206804
1.0000018972
1.00000115649
1.00000001932
0.999998678775
0.999997271632
0.999996640506
0.999995576252
0.999989259037
0.999973118829
0.999983582467
0.999980611785
0.712362804689
0.0391006286668
-6.23052904837e-18
0.999999906663
1.00000021385
1.00000065957
1.00000112784
1.00000151835
1.00000161831
1.0000011932
1.00000030242
0.999999045621
0.999996392102
0.999994163511
0.999992679896
0.999990909515
0.99998651074
0.99998374571
0.999984061793
0.999983582469
0.696777180153
0.0334311329982
-6.71117429602e-23
0.999999958342
1.00000024173
1.00000063284
1.0000010817
1.00000139749
1.00000128444
1.00000061762
0.99999965393
0.999996953955
0.999992418661
0.999986493048
0.999979801507
0.99997508491
0.999974642907
0.99998275704
0.999986662687
0.999983969166
0.679769422343
0.0273800529783
-3.23889196002e-28
0.999999965144
1.00000023224
1.00000057505
1.00000095998
1.00000113898
1.00000084316
1
0.999998813997
0.999995961547
0.999990877046
0.999981690257
0.999974642766
0.999974642766
0.999974642766
0.999975189906
0.999990360657
0.99998593398
0.661317339544
0.0209603995541
-1.52233776784e-39
1.00000035932
1.00000056042
1.00000074108
1.00000083718
1.00000070081
1.00000020322
0.999999465918
0.999998178184
0.999996775834
0.99999517081
0.999992255883
0.999990329451
0.999983274712
0.999976094569
0.999989263279
0.999994379879
0.999992580802
0.641771023617
0.0145389973793
-8.8620251296e-19
1.00000058707
1.00000069877
1.00000076465
1.00000072395
1.00000045921
0.999999893707
0.999998939876
0.999997333168
0.999996484436
0.999996433029
0.999996369069
0.999992207586
0.99999510151
0.999996528157
0.99999467569
0.999996309002
0.999995359266
0.621504814129
0.00816332385672
-9.17414798416e-20
1.00000064212
1.00000068419
1.00000069319
1.00000060444
1.00000030438
0.999999715645
0.99999855159
0.999996548506
0.999993085456
0.999991716745
0.999992033248
0.999992350754
0.999995130475
0.999996935073
0.999997020193
0.999996951518
0.999996581902
0.600633386497
0.00161528888745
-6.11710485719e-28
1.00000053251
1.00000057051
1.00000059838
1.0000005565
1.00000034328
0.999999859389
0.999998852552
0.999996954975
0.99999382874
0.999991716745
0.999991716771
0.999992582587
0.999991700055
0.999994022593
0.999997340564
0.999997041643
0.999848265519
0.57488498581
1.13486964521e-07
1.34748824617e-19
1.00000037773
1.00000047834
1.00000054014
1.0000006175
1.00000058147
1.00000025068
0.999999836716
0.999999050407
0.999998375795
0.999996798596
0.999995725156
0.99999739974
0.999991699595
0.999991699595
0.999997995197
0.999997947512
0.999176375532
0.545660295734
2.37331659497e-09
4.53558436678e-16
1.00000029624
1.00000042607
1.00000046111
1.00000078545
1.00000095388
1.00000084105
1.0000002965
0.999999908361
0.99999945075
0.999998963202
0.999999010614
0.999997514954
0.999994149131
0.999993837075
0.999999210851
0.999999005501
0.997858496515
0.515663327618
1.76465197345e-24
-1.62848958155e-16
1.00000029756
1.00000037719
1.00000068049
1.00000092892
1.00000135835
1.00000127542
1.00000088775
1.00000020031
0.999999746105
0.9999994556
0.999999164341
0.999997854065
0.99999757942
0.999999186119
1.00000000006
0.999999780786
0.995866449802
0.485937065607
3.00595919509e-47
-1.59166313578e-31
1.00000070311
1.00000067881
1.00000069993
1.00000109757
1.00000145747
1.00000146325
1.00000098022
1.00000048074
0.999999927347
1.00000031422
1.00000004487
1.00000040253
1.00000046988
1.00000021503
1.00000000008
1.00000000057
0.993309690589
0.457339638154
2.76176714416e-48
2.00620763721e-37
1.00000100036
1.00000087879
1.00000097737
1.00000139204
1.00000153846
1.00000142703
1.00000104942
1.00000074055
1.00000059445
1.00000092465
1.00000144282
1.00000131933
1.00000174917
1.00000118972
1.00000000002
1.0000000003
0.990168689492
0.430413917141
-2.99915917943e-14
-9.20791269064e-15
1.00000077561
1.00000163612
1.0000013967
1.00000155413
1.00000157395
1.00000138831
1.00000106492
1.00000086676
1.00000090174
1.00000115204
1.00000186203
1.00000243749
1.00000307488
1.00000184081
1
1.00000000007
0.986559324484
0.405913542695
-1.21889030793e-11
-9.62737735619e-13
1.00000181159
1.00000118279
1.0000016678
1.00000170566
1.00000160787
1.00000136182
1.00000107201
1.00000094097
1.00000081488
1.00000039845
1.00000106868
1.00000221217
1.00000309624
1.00000172045
1
1
0.982834755368
0.384765354607
-2.53943784133e-12
-1.56745293488e-10
1.00000130999
1.00000189659
1.00000184308
1.00000179296
1.00000161595
1.00000133129
1.00000108504
1.00000081528
1.00000004077
0.999999857111
1.00000007676
1.00000076423
1.00000234211
1.0000011186
1
1
0.979434242975
0.367576165363
-3.02138923722e-10
-1.64747940312e-12
1.00000194373
1.00000192657
1.00000186534
1.00000177088
1.00000155451
1.00000128488
1.00000099891
1.00000009305
0.999998861567
0.999999227611
0.999998455499
1.0000000346
1.00000102291
1.00000014247
1
1
0.976475408684
0.354403625022
-4.16069176947e-12
-7.42754275529e-11
1.00000181368
1.00000175069
1.00000170056
1.00000159689
1.00000139585
1.00000114523
1.00000059085
0.999998794214
0.999997032815
0.999995725151
0.999995929894
0.999999537622
0.999999948118
0.999999941112
1
0.999999998181
0.973608750353
0.344677271102
-4.75852018208e-12
-6.19609738058e-09
1.00000147103
1.00000137895
1.00000133983
1.00000126873
1.00000111151
1.00000083992
0.999999939122
0.999997906466
0.999992238246
0.99998923116
0.999996658192
0.999998670357
0.999999202481
0.999999385866
0.999999874206
0.999999997353
0.971644398153
0.337171388246
-5.52581634674e-13
-1.78471526793e-09
1.00000095388
1.00000082953
1.00000082037
1.00000081375
1.00000070764
1.00000035163
0.999999506936
0.999997642345
0.999989713884
0.999982459143
0.999994811248
0.999995042078
0.999995213955
0.999996690789
0.999999487071
0.999999951646
0.970397990325
0.3324261392
-1.36981274503e-08
-1.90451540646e-08
1.00000033203
1.00000019865
1.00000022585
1.00000031025
1.00000022073
0.999999968775
0.999999291814
0.999996590657
0.999989368325
0.999979321554
0.999981608701
0.999990087494
0.999991662667
0.999992224547
0.999998667564
0.999999813994
0.97028628634
0.331300137419
-2.74653403604e-11
9.61236466792e-09
0.999999866619
0.999999759419
0.999999867895
0.999999963063
0.999999901311
0.999999553478
0.999998696712
0.999995843768
0.999991421254
0.999979371286
0.999966973173
0.999985238717
0.999987187412
0.999988883492
0.999996902243
0.999999675855
0.970264068746
0.333105659628
8.72910541981e-06
1.38744662053e-08
0.999998983233
0.999998835938
0.999999025851
0.999999283415
0.999999313115
0.999998873812
0.999997960896
0.9999946642
0.999987674423
0.999973994848
0.999966837389
0.999974601785
0.999983685979
0.999988492726
0.999991327449
0.999999580977
0.969627573791
0.336051146128
4.12658245536e-05
9.03110137314e-06
0.999998239729
0.999998088711
0.999998346005
0.999998759221
0.999998850948
0.999998387342
0.999997192512
0.999991963392
0.999982941612
0.999969670894
0.999966808726
0.999966837389
0.999983734458
0.999987480388
0.99999382796
0.99999940101
0.968450238507
0.338926208497
4.88449291507e-05
1.71187949909e-06
0.999997228911
0.99999716133
0.999997631974
0.999998032515
0.999998171684
0.999997945862
0.999996371828
0.999987801486
0.999978305453
0.999966818246
0.999966798991
0.999972817669
0.999983035086
0.999987679357
0.999995946442
0.999999096273
0.967118829411
0.341053337532
1.45636405901e-06
-8.00466860246e-09
0.999996575922
0.999996575922
0.999996575922
0.999996931708
0.99999761326
0.999997167475
0.999994801272
0.999986364897
0.999966912177
0.999966655688
0.999970601223
0.99998341689
0.999983893543
0.999990025335
0.999993196581
0.999998785403
0.966919019417
0.343154335914
-3.79737450725e-09
-2.0901348486e-08
0.999996679953
0.999996810638
0.999997319583
0.999997468458
0.999997839541
0.999997239096
0.999993489473
0.999984802015
0.999973577243
0.999966655688
0.999981942909
0.999987429871
0.99998687573
0.999990127207
0.999993215737
0.999998530268
0.96903493445
0.344789673183
3.73643947983e-09
2.88238295048e-06
0.99999834419
0.999998640233
0.999998666627
0.999998651563
0.999998606207
0.999997824798
0.999993437273
0.99999152788
0.999985275519
0.999981184983
0.999992402079
0.999992574914
0.999992574978
0.999992412745
0.999993363602
0.999998233521
0.977533534721
0.346488594639
5.08898218164e-05
1.83669950976e-05
)
;

boundaryField
{
    back
    {
        type            zeroGradient;
    }
    sides
    {
        type            zeroGradient;
    }
    bottom
    {
        type            zeroGradient;
    }
    front
    {