/*--------------------------------*- C++ -*----------------------------------*\
| =========                 |                                                 |
| \\      /  F ield         | OpenFOAM: The Open Source CFD Toolbox           |
|  \\    /   O peration     | Version:  v2012                                 |
|   \\  /    A nd           | Website:  www.openfoam.com                      |
|    \\/     M anipulation  |                                                 |
\*---------------------------------------------------------------------------*/
FoamFile
{
    version     2.0;
    format      ascii;
    class       volScalarField;
    location    "5.7";
    object      ddt0(k);
}
// * * * * * * * * * * * * * * * * * * * * * * * * * * * * * * * * * * * * * //

dimensions      [0 2 -3 0 0 0 0];


internalField   nonuniform List<scalar> 
1984
(
-0.000273767679263
-0.000320637803619
-0.000335725799666
-0.00034212445854
-0.000345756604107
-0.000348431396619
-0.000350903812739
-0.000353510987003
-0.000355963347163
-0.000359473287167
-0.000365095329818
-0.000378340493515
-0.000415754807043
-0.000542926918329
-0.00105081948545
-0.0030439692034
-0.00945289761091
-0.0246877200371
-0.0565166941069
-0.15667518433
-0.000320344585251
-0.000390005071174
-0.00041100147754
-0.000419234934098
-0.000423236845997
-0.00042588844114
-0.000428082175381
-0.000430241683456
-0.000432678176951
-0.0004360522083
-0.000442448888881
-0.000458038496412
-0.000502291159786
-0.000652117255024
-0.0012657345034
-0.00370141504743
-0.0106987379426
-0.0231132038111
-0.0404444945402
0.088745055469
-0.000339085200193
-0.000416917360092
-0.000441265191772
-0.000450712128875
-0.000455174254694
-0.000458131970413
-0.000460700954178
-0.000463290620089
-0.000466209894961
-0.000470399991176
-0.000478138248225
-0.000495791611234
-0.00054367342742
-0.000698917259473
-0.00132921488864
-0.00378172016128
-0.0107004755077
-0.0232720500988
-0.0360738644063
0.253200005263
-0.000347548777521
-0.000428366614815
-0.000454202107687
-0.000464224837083
-0.0004689002259
-0.000471985229468
-0.000474704924703
-0.00047748216016
-0.000480739100904
-0.000485222179796
-0.000493387054073
-0.000511572537029
-0.000559767070137
-0.000712134739334
-0.00130283833443
-0.00357967484899
-0.0101615035629
-0.0228743054825
-0.0393998074229
0.191133818596
-0.000352153577681
-0.000434072391509
-0.00046053635004
-0.000470806611458
-0.000475521607116
-0.000478588033898
-0.000481293879749
-0.000484111574021
-0.000487394709583
-0.000491996702244
-0.00050001852305
-0.000517634135544
-0.000563390037342
-0.000701764938639
-0.00120996293717
-0.00317396526968
-0.00926649034573
-0.0223345889562
-0.0473539134422
-0.102790197241
-0.00035531528092
-0.000437451283586
-0.000464306183399
-0.000474689987818
-0.000479368195595
-0.000482336127134
-0.000484932536127
-0.000487654623802
-0.000490822007331
-0.00049519969507
-0.000502798264755
-0.00051894400644
-0.000559320463169
-0.000671740061869
-0.00103903958551
-0.0025600401459
-0.00820622708375
-0.0216036969794
-0.0464394330718
-0.173261479366
-0.000357965969354
-0.000439934003846
-0.000467114929662
-0.000477578440939
-0.000482201226326
-0.000485044216291
-0.000487487591316
-0.00049003644996
-0.000493018057453
-0.000497076186179
-0.000504038704416
-0.00051829709601
-0.000552168523819
-0.000636380636608
-0.000880062641759
-0.00199932280379
-0.00708077386687
-0.020679845392
-0.041464818513
-0.197985394312
-0.000360468297309
-0.000442051353655
-0.000469601162904
-0.000480149171893
-0.000484730795742
-0.000487448528444
-0.000489734064125
-0.000492085611692
-0.000494835691179
-0.000498538498163
-0.000504759553418
-0.000517147202245
-0.000545789610787
-0.000614266217464
-0.000811662315578
-0.00173011430227
-0.005999925981
-0.0180060256012
-0.0347183654237
-0.0220457023914
-0.000362942580356
-0.000444212687793
-0.000472018254622
-0.000482678615707
-0.000487221106569
-0.000489821101862
-0.000491949567543
-0.000494128714385
-0.000496633980987
-0.000499997587401
-0.00050549902716
-0.000516280787992
-0.000540226386553
-0.000599732061963
-0.000781817532067
-0.00159200494213
-0.00501921948771
-0.0145631848812
-0.0292333256866
-0.0131589705337
-0.000365394530438
-0.000446298028683
-0.000474422740338
-0.000485207418464
-0.000489752255235
-0.000492246912381
-0.000494215331713
-0.000496200686205
-0.000498467809933
-0.000501435574295
-0.000506019427397
-0.000513872356276
-0.000527408666544
-0.000546883882377
-0.000596006110791
-0.00111632790468
-0.00371721079664
-0.0108808154624
-0.0234432286148
-0.0115091273307
-0.000367471821061
-0.000448398086183
-0.000476966935818
-0.000487894199884
-0.00049238457578
-0.000494748542801
-0.000496547588734
-0.00049833304315
-0.000500340332841
-0.00050285114088
-0.000506333254407
-0.000510865050123
-0.000513920779967
-0.000497781171514
-0.000429438535883
-0.00054362642469
-0.00210930330946
-0.0073458885993
-0.0179533451867
-0.0100405765263
-0.000369280313561
-0.000450708704354
-0.000479607320404
-0.000490622352939
-0.000495057500247
-0.000497301987464
-0.000498945798496
-0.00050055173
-0.000502324972618
-0.000504409619643
-0.000506978685701
-0.000509249405692
-0.000505278833749
-0.000466003713344
-0.000302737576056
-1.16911831205e-05
-0.000482110662007
-0.00365548029445
-0.0116956348882
-0.00775038418611
-0.000371085680337
-0.000453024079581
-0.000482257038004
-0.000493354734532
-0.000497740064589
-0.00049986829722
-0.000501372754801
-0.000502807367774
-0.000504367611535
-0.000506121247348
-0.000507994262476
-0.000508566853167
-0.000500182384351
-0.000447444148697
-0.000218392855526
0.000405988368319
0.000901371538034
-0.000465709391893
-0.00581980698312
-0.0050932930114
-0.000372865658818
-0.000455329650239
-0.000484905492083
-0.00049608219193
-0.000500406576502
-0.000502409018496
-0.000503773930108
-0.000505055717577
-0.000506426909488
-0.0005079000114
-0.000509196874912
-0.000508557636342
-0.000497278078061
-0.000436206773549
-0.000166255410943
0.000691538669512
0.0019024409913
0.00150941103598
-0.00289885352386
-0.00371752435285
-0.000374649428382
-0.000457650058965
-0.000487526186818
-0.000498748104934
-0.000502993380061
-0.000504874159506
-0.000506100867293
-0.000507242892389
-0.000508445280583
-0.000509672377518
-0.00051058137041
-0.000509053336591
-0.000495866682059
-0.0004303379328
-0.000141850558282
0.000842148957941
0.00251874859714
0.00266547699324
-0.0013451185123
-0.00271186343465
-0.00037641422478
-0.000459931740319
-0.000490061963595
-0.000501291392771
-0.00050544521001
-0.000507207393678
-0.000508311125677
-0.000509334027497
-0.000510401249751
-0.000511466232349
-0.000512041238156
-0.000509978850196
-0.000495905723709
-0.000429957072989
-0.000143488936178
0.000873975116204
0.00279885226177
0.00305005108612
0.000193940960473
0.000563446696135
-0.000378140361074
-0.000462145129029
-0.000492462183897
-0.000503649930417
-0.000507714585235
-0.000509382228026
-0.000510382827337
-0.000511287127619
-0.000512274620007
-0.000513172981495
-0.000513563705765
-0.000511266983608
-0.000497240497884
-0.000433969256512
-0.000162409646288
0.000829752328386
0.00272791825802
0.00255509686711
0.00424450055776
0.0203934756331
-0.000379817959354
-0.00046424654487
-0.000494627461726
-0.000505718683581
-0.000509692963151
-0.000511280553702
-0.000512234325849
-0.000513081594191
-0.000513964112789
-0.000514785232792
-0.000515073911764
-0.000512753630353
-0.000499212254736
-0.000439430573868
-0.000187011992699
0.000748987206902
0.00250530508249
0.0006476499791
0.00498433377347
0.10718241348
-0.000381412231343
-0.000466144930103
-0.00049642376018
-0.00050737695222
-0.000511271577998
-0.000512844430781
-0.000513755145224
-0.000514574706792
-0.000515438003167
-0.000516242673838
-0.000516516132808
-0.000514274886067
-0.000501281229012
-0.000444675160043
-0.000210926131233
0.000662599891335
0.002471891243
-0.000119394557768
-0.0193472663338
-0.0876872610006
-0.000382930727493
-0.000467560649794
-0.000497675790784
-0.000508594407221
-0.000512485755001
-0.000514030128797
-0.000514927999476
-0.000515744996138
-0.0005166023109
-0.000517429360144
-0.000517744737519
-0.00051562504499
-0.000503056725438
-0.000448814934119
-0.000232772127355
0.000560230300449
0.00255983859268
0.00228322886849
-0.022444031459
-0.111010299331
-0.000384310979891
-0.000468317402611
-0.000498470783898
-0.000509427757125
-0.000513354782081
-0.000514931729168
-0.000515865918724
-0.000516712319487
-0.000517593573892
-0.000518434826386
-0.000518781401103
-0.000516727702312
-0.000504315742398
-0.000451041926767
-0.000248178340409
0.000455709207929
0.00257885465024
0.00592643519589
-0.0112153391979
-0.22120767481
-0.000384762320125
-0.000468627882151
-0.000498900623885
-0.000509938954447
-0.00051393147271
-0.000515562664077
-0.000516537156713
-0.000517415649637
-0.000518335267671
-0.000519218659638
-0.000519604133144
-0.000517580754391
-0.000505018554456
-0.000451096737887
-0.000255466689478
0.000372661689166
0.00255423470293
0.0101201662359
0.00896282280589
-0.00507459779795
-0.0003847620589
-0.000468659776269
-0.000499056893561
-0.000510179438567
-0.000514240797193
-0.000515929836187
-0.00051694760177
-0.000517866031114
-0.000518835320597
-0.000519772377894
-0.000520213092077
-0.000518202479716
-0.000505460913419
-0.000450877154436
-0.000262049795918
0.000294561496926
0.00242106936262
0.0117671898113
0.0245339662377
0.00468558554622
-0.000384603994693
-0.000468481456733
-0.000498981273553
-0.000510172592011
-0.000514300965573
-0.000516051625173
-0.000517126385942
-0.000518097336809
-0.000519116143249
-0.00052010847243
-0.000520608192193
-0.00051865245395
-0.000505921585288
-0.000451331472648
-0.000270038326923
0.000213897339961
0.00215391899868
0.0121013181448
0.0292110361801
0.00684037352757
-0.000384340466883
-0.00046813490033
-0.000498703674569
-0.000509949893597
-0.000514140062041
-0.000515956374878
-0.000517100112884
-0.000518134563572
-0.000519206343458
-0.000520252490251
-0.000520821726539
-0.000518995081722
-0.000506546607514
-0.000453098361866
-0.00028130476834
0.000129524612074
0.00174008835555
0.0112611989988
0.031945477718
0.00981293118683
-0.000383983778961
-0.000467635173333
-0.000498246533693
-0.000509532542949
-0.000513775072174
-0.000515649301782
-0.000516850856871
-0.000517944198146
-0.000519078785521
-0.000520198755262
-0.000520879107969
-0.000519265629139
-0.00050739137969
-0.00045608823431
-0.000296854585505
2.54225714876e-05
0.0011435463306
0.00984938915489
0.0396721321708
0.0225579728503
-0.00038350659294
-0.00046697883183
-0.000497604732061
-0.000508914133296
-0.000513202399836
-0.000515128266808
-0.000516384163431
-0.000517537753191
-0.000518739556043
-0.000519953184541
-0.000520785983917
-0.000519489787446
-0.000508577012424
-0.00046067094856
-0.000316744539707
-8.27952079623e-05
0.000531223652513
0.00871746916738
0.0575890616832
0.0649114849994
-0.000382896043742
-0.000466204145723
-0.000496808217786
-0.000508123889941
-0.000512451499002
-0.000514431257953
-0.000515750132491
-0.000516971761637
-0.000518250599768
-0.000519568526631
-0.000520555822066
-0.000519635959074
-0.000509863967956
-0.000465514822838
-0.000327419576277
-7.66390717843e-05
0.0006913745868
0.00806236787105
0.0409601419474
0.0370941382448
-0.000382204587526
-0.000465303666539
-0.000495854712393
-0.000507163120556
-0.000511526549032
-0.000513562530953
-0.000514949621524
-0.00051624607279
-0.000517607474317
-0.000519030395999
-0.000520175738033
-0.000519716870392
-0.00051147089963
-0.000471881548398
-0.00034186138965
-5.85891323773e-05
0.00104366091022
0.00779856108937
0.0231041841664
0.0104884265224
-0.000381429987844
-0.000464276092224
-0.000494740016388
-0.00050603316869
-0.0005104356374
-0.000512531746063
-0.00051399021594
-0.000515366939465
-0.000516821651311
-0.00051836166442
-0.000519710172988
-0.000519819954137
-0.000513566422273
-0.000480624918103
-0.00036407900984
-8.43053773735e-05
0.00109305536583
0.00720191098453
0.0148682629854
0.00281340387645
-0.000380569711071
-0.00046312253093
-0.000493466983899
-0.000504741649509
-0.000509185901765
-0.000511348549509
-0.000512884936962
-0.000514348640476
-0.000515913425479
-0.000517592093947
-0.000519173008803
-0.000519962000378
-0.000516195119441
-0.000491810205736
-0.00039826844376
-0.000158201490578
0.000899714608209
0.00624700924332
0.0112846307936
0.0010482586449
-0.000379617050694
-0.000461843912018
-0.000492037792973
-0.000503288678734
-0.000507783843837
-0.000510022062801
-0.000511644832131
-0.000513202292307
-0.000514880191185
-0.000516702243386
-0.000518547035512
-0.000520121748839
-0.000519147845775
-0.000503955402543
-0.000438567755982
-0.000278498919982
0.000510273289356
0.00585889032873
0.0176003146243
0.00381963211889
-0.000378583854196
-0.000460409873635
-0.000490453182911
-0.0005016843294
-0.000506239914377
-0.000508562501624
-0.000510276692138
-0.000511938473571
-0.000513725840315
-0.000515691102261
-0.000517824689235
-0.000520267584062
-0.000522306999971
-0.000517318021714
-0.000485055359576
-0.000450092221364
-4.35392562864e-05
0.00581912984921
0.0217556669579
0.00608859836458
-0.000377521897512
-0.00045884117279
-0.000488717695613
-0.000499941740371
-0.000504566655326
-0.000506983201526
-0.000508796305369
-0.00051056367927
-0.000512463085659
-0.000514578316987
-0.00051703835039
-0.000520429755351
-0.000525419597873
-0.000529579668525
-0.000532536826352
-0.000623360456627
-0.00068623094622
0.0044414128172
0.0295232505227
0.0129369652782
-0.000376280615685
-0.000457155449847
-0.000486851085762
-0.000498066157889
-0.00050277119757
-0.000505291933133
-0.000507214187288
-0.000509089296319
-0.000511110343446
-0.000513390104597
-0.000516219075634
-0.000520577951894
-0.000528480295834
-0.000542069592447
-0.000573438731583
-0.000749320157885
-0.00111495901143
0.00228085271059
0.0285239116418
0.0223998987357
-0.000374772401455
-0.000455388962282
-0.000484919381517
-0.000496116356235
-0.00050088824093
-0.000503510705476
-0.000505549435344
-0.00050755449588
-0.000509697645638
-0.00051215332801
-0.000515359851329
-0.000520731190263
-0.000531686729375
-0.000554065306994
-0.000610836106808
-0.000822480525829
-0.00126207504998
0.00103917729727
0.0213955444432
0.0305903608023
-0.000372774087838
-0.000453635269861
-0.000482955224742
-0.000494104696338
-0.000498924262618
-0.000501638198045
-0.000503787925138
-0.000505911885699
-0.000508203775254
-0.000510846994391
-0.000514499022314
-0.000521401688377
-0.000535590081722
-0.000567636596248
-0.000649903129143
-0.000907660847816
-0.0013604567552
0.00107516114337
0.0201350268854
0.0209558697203
-0.00037064968898
-0.000451757235856
-0.000480872529068
-0.000491986408078
-0.000496867957237
-0.00049968937027
-0.000501966190875
-0.000504223272712
-0.000506644901963
-0.000509421477737
-0.000513268029487
-0.000520578670673
-0.000537905156126
-0.000580048964871
-0.000688854189943
-0.00100078174169
-0.00157459635493
-6.08059318678e-06
0.0155571158511
0.00594239686161
-0.00036839676243
-0.000449753570418
-0.000478675716346
-0.000489769540618
-0.000494729514711
-0.000497676340684
-0.000500098957068
-0.000502507505822
-0.000505069739636
-0.000508004485732
-0.000512082847267
-0.000519812253484
-0.000538051822418
-0.000583010994167
-0.000702757416273
-0.00105306801907
-0.00172315319138
-0.000306524229071
0.0166138927729
0.00770176790351
-0.000366039686317
-0.000447631936206
-0.000476373698813
-0.000487463719372
-0.000492516382629
-0.000495608157318
-0.000498195393755
-0.000500778347915
-0.000503483176797
-0.000506637302417
-0.000510789280115
-0.00051872701022
-0.000537262356109
-0.000584471230407
-0.000715846170695
-0.00110672447698
-0.00189982713329
-0.000788603636625
0.0119680504451
-0.00124987045548
-0.000363543455047
-0.000445391420825
-0.000473970615891
-0.000485081043334
-0.000490235683361
-0.000493498396034
-0.00049629177813
-0.000499056882177
-0.000502037026187
-0.000505284479715
-0.000509580049193
-0.00051725153521
-0.000535210950034
-0.000583752830098
-0.000728647737388
-0.00116491192738
-0.00208848082383
-0.00172876387749
0.00314943843545
0.00742498380009
-0.000360952746309
-0.000443037552941
-0.000471493864334
-0.000482604052963
-0.000487943722064
-0.000491364534696
-0.000494369377172
-0.00049743251595
-0.000500567673093
-0.000504142891467
-0.000508592619784
-0.000516103475872
-0.000533637646943
-0.000584614953928
-0.000747358180831
-0.00123446085407
-0.0022654146424
-0.00286231692372
-0.00204233411351
0.0283094906406
-0.00035827540371
-0.000440625364083
-0.000468933912393
-0.00048016249331
-0.000485567359968
-0.000489257926944
-0.000492422825568
-0.000495697229243
-0.000499198591711
-0.000503173279326
-0.000508180595751
-0.000516190934466
-0.000534527956681
-0.000589518089353
-0.000771655679038
-0.00130778317338
-0.00240929285589
-0.00346382333621
-0.00292097827503
-0.0569850911761
-0.000355457593966
-0.000438053258399
-0.000466275850476
-0.000477521407457
-0.00048315100333
-0.000486891236384
-0.000490266411814
-0.000493690542544
-0.000497445470831
-0.000501946532006
-0.000507811220673
-0.000517160392989
-0.000537989437747
-0.000598626926069
-0.000799106681506
-0.00137911789397
-0.00250211153966
-0.00324360006224
-0.015844257046
-0.230486130141
-0.000352628749317
-0.000435499831586
-0.000463644112441
-0.000474924954281
-0.000480544778683
-0.000484307065703
-0.000487514951004
-0.00049069834593
-0.000494485064762
-0.000499618617592
-0.000506550975182
-0.000517775438609
-0.000543451413322
-0.000612590103813
-0.000830771466492
-0.00145265320868
-0.00262916209215
-0.00296611781208
-0.0108950611235
-0.217403695374
-0.000349860115865
-0.000432973217047
-0.000461056527397
-0.000472302542952
-0.000477721316114
-0.000480920643653
-0.000483099243733
-0.000485123545166
-0.000487831982124
-0.000493352425132
-0.000501273709983
-0.00051462180158
-0.000551517442003
-0.000636830120314
-0.000877747161043
-0.00154003954268
-0.00278026871269
-0.00256251561414
0.00187720550542
-0.0734199351566
-0.000347179593106
-0.000430531927032
-0.000458568960949
-0.000469604228345
-0.000474233616999
-0.000475350262568
-0.000473732502414
-0.000470936058924
-0.000467360389857
-0.000472325482939
-0.000481697809826
-0.000501985347817
-0.00056835756402
-0.000683423519737
-0.000952638112022
-0.00163932820052
-0.00290530881216
-0.00257271080726
0.0129252097863
-0.0246049103755
-0.000344645130706
-0.000428255593877
-0.000456240617322
-0.00046681642118
-0.000469664429855
-0.00046572310331
-0.00045225976339
-0.000418962233785
-0.000406445632579
-0.000396333713329
-0.000411556316566
-0.000478753152859
-0.000580113206764
-0.000767227004958
-0.00106554615488
-0.00174758060644
-0.00298827879872
-0.00309882936764
0.0210306825372
-0.051947760451
-0.000342262616499
-0.000426164794983
-0.000454115612945
-0.00046422635126
-0.000465959400518
-0.000459888066328
-0.000440494672711
-0.00038168579633
-0.000633553832387
-0.000834570646491
-0.00116161734727
-0.00181485100365
-0.00295513941128
-0.00374622681775
0.0204972412268
0.217407995218
-0.000340514747664
-0.000424922835065
-0.000452968896593
-0.000462752384838
-0.000463359683344
-0.000454841310747
-0.000430113193952
-0.00035541435267
-0.000652896212994
-0.000960981995539
-0.00124855673481
-0.00185836027244
-0.00290212664785
-0.00361228790581
-0.00329487917397
0.019399966798
-0.000340181906312
-0.000424731913358
-0.000452820974041
-0.000462636189456
-0.000463257756648
-0.000454691160623
-0.000430126273867
-0.000355854536863
-0.000654268944072
-0.000961319045669
-0.00124457450496
-0.00185765372076
-0.00292237985666
-0.00313465708407
-0.00399794138324
-0.105758522443
-0.00034176447311
-0.000425764332363
-0.000453764179337
-0.000463931816058
-0.00046572420809
-0.00045976071663
-0.000440842953352
-0.000382138176283
-0.000636219253963
-0.000833891010523
-0.00115476687966
-0.00181017557865
-0.002930597982
-0.00308528166916
0.0076078164919
0.0391581971127
-0.000344109076447
-0.000427755603055
-0.000455791754706
-0.000466462637577
-0.000469424956714
-0.000465577101907
-0.000451639646906
-0.000417711922641
-0.000407176535652
-0.000396149124397
-0.000410900181026
-0.000479490650959
-0.000583409276265
-0.000765830515358
-0.00106029729631
-0.00173369920635
-0.00290962347978
-0.00283157241074
0.0144888800319
0.0219840975375
-0.000346679015519
-0.000429994139436
-0.00045810134757
-0.000469256704917
-0.000474020765207
-0.00047527151352
-0.00047383174987
-0.000470190206346
-0.000467669971672
-0.000472571133763
-0.000481991693792
-0.000501280342579
-0.000567511816501
-0.000684874988872
-0.000957785582866
-0.00163724304494
-0.00283345671075
-0.0027368956913
0.00475838869139
0.100695587517
-0.000349394220618
-0.000432408511812
-0.000460570396999
-0.000471940191217
-0.000477506263264
-0.000480871208341
-0.000483233781957
-0.0004854230448
-0.000488207249383
-0.000493751737051
-0.000501819379131
-0.000515504018345
-0.000553078489246
-0.000641624981071
-0.00089163559996
-0.001555901186
-0.00274597336492
-0.00227670425209
0.00653102112401
-0.0244168059249
-0.000352194353907
-0.000434938439786
-0.000463154811808
-0.000474552853905
-0.000480305256012
-0.00048421668097
-0.000487584152464
-0.000490913676369
-0.000494796396634
-0.000500001500169
-0.000507080538112
-0.000518657532877
-0.000545294245296
-0.000618007422499
-0.000845936064643
-0.00147565534096
-0.00264427858564
-0.00230448498317
0.00916178096311
-0.00602380112472
-0.000355049416408
-0.000437505732153
-0.000465791227582
-0.000477139765425
-0.000482829249128
-0.000486744838745
-0.000490254959945
-0.00049381329477
-0.000497678733964
-0.000502271568437
-0.000508246353517
-0.000517810923278
-0.000539226621881
-0.000601917884729
-0.000808463905872
-0.00139185700875
-0.00245038735803
-0.00196887180313
0.00646555632338
-0.0126021085687
-0.000357884687255
-0.000440058399713
-0.000468430110305
-0.000479705441918
-0.000485248175643
-0.000488988004981
-0.000492325643261
-0.000495725177606
-0.000499349027973
-0.000503427849741
-0.000508527474673
-0.000516612921392
-0.000534999461436
-0.000590371476817
-0.000775330630117
-0.00130712735098
-0.00222779079079
-0.00145765493001
0.00449384469897
-0.0157684292177
-0.000360637948578
-0.000442555961983
-0.00047103615773
-0.000482240148048
-0.000487614692027
-0.000491137533316
-0.000494226967213
-0.000497359281713
-0.000500684787291
-0.000504370253167
-0.000508978227502
-0.000516528111545
-0.000534083282218
-0.000585693089463
-0.000752862099809
-0.0012366646528
-0.00208928903693
-0.00173860369991
0.00310404184505
-0.00223491953259
-0.000363276748902
-0.000444966292258
-0.000473574520792
-0.000484722731405
-0.000489940448655
-0.000493251746197
-0.000496099788371
-0.000498968396456
-0.00050201775957
-0.000505426593946
-0.000509842293781
-0.000517578047905
-0.000535937732896
-0.000586961433625
-0.000741362199116
-0.00118367884034
-0.00199830943059
-0.00222865438282
-0.00963257091548
-0.07907163231
-0.000365818664556
-0.00044727088151
-0.000476025059553
-0.000487140530398
-0.000492226406007
-0.000495353031831
-0.000497988217187
-0.000500630061265
-0.00050344981516
-0.000506656156652
-0.000510974229657
-0.000518942486995
-0.000537894837081
-0.000587287811941
-0.00072633674878
-0.00112245596899
-0.00185062129352
-0.00173237673723
-0.00477155064986
-0.00912525216279
-0.000368213524691
-0.000449445133336
-0.000478372367756
-0.000489481617076
-0.000494463079303
-0.000497434947889
-0.000499889985298
-0.000502337937291
-0.000504971618958
-0.000507988155892
-0.000512116370854
-0.00051987361894
-0.000538103038802
-0.000583300259776
-0.000704078861908
-0.00105183162918
-0.00170028998784
-0.00101910614167
0.0107652525886
0.0727455270623
-0.000370501603826
-0.000451492352278
-0.000480610101254
-0.000491734911033
-0.000496632391998
-0.000499471792096
-0.000501775710129
-0.000504065886821
-0.000506539625296
-0.000509381074875
-0.000513266550034
-0.000520565209485
-0.000537524727564
-0.000578279220511
-0.000683270199197
-0.000990002614632
-0.00158677442909
-0.000663196263112
0.00911455175468
0.0268520654821
-0.000372652594777
-0.000453415444557
-0.000482736535972
-0.000493893572057
-0.000498725880271
-0.000501458031495
-0.000503628364065
-0.000505783733409
-0.000508125666887
-0.000510795980396
-0.000514524524516
-0.000521321442929
-0.000534893477901
-0.000564685434879
-0.000640181007106
-0.000885267964553
-0.0013264238052
0.00119581420098
0.0192018438575
0.0191540315453
-0.000374663193626
-0.000455219045895
-0.00048474643291
-0.000495940946324
-0.00050071530627
-0.000503343411324
-0.000505395547494
-0.000507426131234
-0.000509621625725
-0.000512132494554
-0.000515402104181
-0.000520828450344
-0.000531461495059
-0.000551778031168
-0.000600284706925
-0.000784608791622
-0.00104609218782
0.00320799464341
0.0268894732766
0.0224396901178
-0.000376197896384
-0.000456998195126
-0.000486700516549
-0.000497919403431
-0.000502628354135
-0.000505153916506
-0.000507087390311
-0.00050898554017
-0.000511039073198
-0.000513363972622
-0.000516255227697
-0.000520663197189
-0.000528353120756
-0.000540387766739
-0.00056353708864
-0.000700175411461
-0.000826309566824
0.00447132861523
0.0318516412293
0.014539125944
-0.000377463002627
-0.000458701318288
-0.000488584113471
-0.000499814952505
-0.000504448201058
-0.000506872513073
-0.000508697726101
-0.0005104857118
-0.000512423433482
-0.000514587805558
-0.000517118404815
-0.000520517652305
-0.000525577396965
-0.000529331984623
-0.000530171357774
-0.000614681418815
-0.000656811626777
0.00430909872863
0.0315444052197
0.013732575198
-0.000378518085627
-0.000460270481613
-0.000490327617565
-0.000501575587248
-0.000506140967989
-0.000508474372216
-0.000510200479259
-0.000511884798061
-0.000513710916634
-0.000515729606485
-0.000517967502914
-0.000520476126593
-0.000522774539512
-0.000519328000637
-0.00049483654119
-0.000494388606384
-0.000302273547716
0.00404412359422
0.0176432935004
0.00637606999104
-0.000379576761522
-0.000461702616014
-0.000491918794718
-0.000503190309088
-0.000507699746828
-0.000509949925481
-0.000511584362434
-0.000513169153977
-0.000514882657823
-0.000516757767533
-0.000518723980666
-0.000520447113462
-0.000520145821926
-0.000508490938085
-0.000459211686217
-0.000369939712188
0.000100053938882
0.00426847346194
0.01092762034
0.0010935499158
-0.000380526772257
-0.000462988694948
-0.000493356147354
-0.000504649075117
-0.000509111100246
-0.00051128750071
-0.00051283665711
-0.000514325624935
-0.000515927224145
-0.00051765706585
-0.000519365026054
-0.000520388589577
-0.000517738893669
-0.000498441739281
-0.000425928192478
-0.000277703346928
0.000432462883803
0.00602765300975
0.0130852915767
0.000877519441509
-0.000381359472161
-0.000464138349862
-0.000494633184318
-0.000505948656128
-0.00051036718186
-0.000512476461042
-0.000513945910135
-0.000515342766217
-0.000516836211457
-0.000518420397136
-0.000519879964323
-0.00052026171275
-0.000515447742687
-0.000488810494741
-0.000396020128525
-0.000194205303272
0.000681659897373
0.00663015821591
0.0186876042477
0.00393213855507
-0.000382128880048
-0.000465175099822
-0.000495749034959
-0.000507079588634
-0.0005114609264
-0.000513509009886
-0.000514903715558
-0.000516213076075
-0.000517600627847
-0.000519045683866
-0.00052027238308
-0.000520071854052
-0.000513258967337
-0.000479673995182
-0.000367000748738
-0.000121361078424
0.000809423150684
0.00684756470335
0.0237567536393
0.0083794631659
-0.000382812896606
-0.000466075949653
-0.000496705021288
-0.000508044136407
-0.000512389138957
-0.000514379404571
-0.000515703219206
-0.000516929343032
-0.000518216314683
-0.000519528901607
-0.000520533775454
-0.000519788064979
-0.000511112274002
-0.000471202803509
-0.000344073675267
-9.04446791615e-05
0.000788442976592
0.00723954394054
0.0291146517718
0.0187399758943
-0.000383400279661
-0.000466842614641
-0.000497504506096
-0.000508840683758
-0.000513145764712
-0.000515078425368
-0.000516333244686
-0.000517479952415
-0.000518673696928
-0.000519866809062
-0.000520672192923
-0.000519449354854
-0.000509076030484
-0.000463472475043
-0.000324823885512
-8.37928000789e-05
0.000550317168745
0.00696622083712
0.0444791613844
0.067258171541
-0.000383882838016
-0.000467488857201
-0.000498144701558
-0.000509460919269
-0.000513719702951
-0.000515592591088
-0.000516779445715
-0.000517851209226
-0.000518962245966
-0.000520054398344
-0.000520697676637
-0.000519104658041
-0.000507473427596
-0.000457431892038
-0.000307858209664
-5.80711548588e-05
0.000616783857906
0.00857614240089
0.0483605983249
0.0412540634486
-0.000384255131237
-0.000468009916995
-0.000498624469451
-0.000509902269862
-0.000514106625664
-0.000515916684459
-0.000517034524238
-0.000518030839014
-0.000519057686833
-0.000520049086079
-0.000520546902828
-0.000518633722875
-0.000506030860344
-0.000452475252331
-0.000287280598259
3.79344537191e-05
0.00109190397658
0.0103977061147
0.045603226971
0.0278630178464
-0.000384503810901
-0.000468361834471
-0.000498910462956
-0.000510132292254
-0.000514272278717
-0.000516015942856
-0.000517065511131
-0.000517988793195
-0.000518934143139
-0.000519824684126
-0.00052017911884
-0.000517978312972
-0.000504627780692
-0.000447845894068
-0.00026069371616
0.000204266435951
0.00180168560597
0.0111052293984
0.036382894178
0.0156316125434
-0.000384663357813
-0.000468558076898
-0.000499004270981
-0.000510155924225
-0.000514224946154
-0.00051590064153
-0.000516884152588
-0.00051773807267
-0.000518606932001
-0.000519405202553
-0.00051963102425
-0.000517189694438
-0.000503232017554
-0.000444051768036
-0.000236519944943
0.000358626358313
0.00228832882834
0.0112473751579
0.0330138770221
0.0121096412427
-0.000384692905887
-0.000468544587182
-0.000498869181922
-0.000509936912854
-0.000513931840626
-0.000515540523267
-0.000516465293348
-0.000517267011327
-0.000518079310786
-0.000518810805294
-0.000518925546292
-0.000516288582924
-0.000501926041433
-0.000441271728659
-0.000218645208273
0.000477162619773
0.0025618195902
0.0102653035013
0.0196787234957
0.00240119628448
-0.000384297271009
-0.00046824477495
-0.000498446843731
-0.000509430082798
-0.000513356736808
-0.000514904080372
-0.000515777163434
-0.000516537997174
-0.000517305785061
-0.000517977651526
-0.000518004629594
-0.00051516667045
-0.000500270752592
-0.000437725914586