/*--------------------------------*- C++ -*----------------------------------*\
| =========                 |                                                 |
| \\      /  F ield         | OpenFOAM: The Open Source CFD Toolbox           |
|  \\    /   O peration     | Version:  v2012                                 |
|   \\  /    A nd           | Website:  www.openfoam.com                      |
|    \\/     M anipulation  |                                                 |
\*---------------------------------------------------------------------------*/
FoamFile
{
    version     2.0;
    format      ascii;
    class       volScalarField;
    location    "5.7";
    object      ddt0(epsilon);
}
// * * * * * * * * * * * * * * * * * * * * * * * * * * * * * * * * * * * * * //

dimensions      [0 2 -4 0 0 0 0];


internalField   nonuniform List<scalar> 
1984
(
-0.000175168467518
-0.000197097903988
-0.000212117317924
-0.000218932241785
-0.000222927490749
-0.000225916419677
-0.00022867407888
-0.000231515305996
-0.000234316895049
-0.000238010694161
-0.000243523193246
-0.000255378101035
-0.000287621179891
-0.000399939492513
-0.000917267913553
-0.00369791404892
-0.0172254681253
-0.0649049470263
-0.199008660889
-0.987506229946
-0.000197164893404
-0.000198800782244
-0.000216282905786
-0.000223621062482
-0.00022737145971
-0.000229904239841
-0.000232017418095
-0.000234094507525
-0.000236361870096
-0.0002393455262
-0.000244478202727
-0.000256066786555
-0.000288117502666
-0.000399404858437
-0.000920603756862
-0.00375214126452
-0.0158133507335
-0.046226069059
-0.111834214495
-0.236618687692
-0.000214257345379
-0.000219160518844
-0.000239776387885
-0.000248333026637
-0.000252570611252
-0.000255390813127
-0.000257803780277
-0.000260188912988
-0.000262867851548
-0.000266461582165
-0.000272675510481
-0.000286150830746
-0.000322139852077
-0.000441999442001
-0.000995048247696
-0.0039180220907
-0.0160467078468
-0.0476683363886
-0.115267250209
0.0403505758807
-0.000222143497092
-0.000228080624034
-0.000250084190493
-0.000259175568782
-0.000263599129391
-0.000266498147403
-0.000268995714489
-0.000271515679457
-0.00027436192525
-0.000278211096947
-0.000284771219586
-0.000298798545434
-0.000335392635879
-0.000454179450054
-0.000972940401529
-0.00365774096775
-0.0150437880533
-0.0467082666089
-0.121951536414
-0.0730373308298
-0.000226531193016
-0.000232636532933
-0.000255262273335
-0.000264560821702
-0.000268998810253
-0.000271855305161
-0.000274309565093
-0.000276806752423
-0.000279667476711
-0.000283511289921
-0.000289974625742
-0.000303597592229
-0.000338436211111
-0.000446574054059
-0.000886694748011
-0.00313064548838
-0.0133539914088
-0.0450891255587
-0.128599427399
-0.412316962851
-0.000229603802312
-0.000235466220744
-0.000258441966206
-0.000267813470703
-0.000272192795622
-0.000274941633074
-0.000277278941145
-0.000279667676047
-0.00028240677831
-0.000286093022245
-0.000292205609754
-0.000304775943576
-0.000335616769788
-0.00042390017133
-0.000738836903978
-0.00237546100684
-0.0113529845761
-0.0434434802531
-0.11409813912
-0.658664923221
-0.000232190026333
-0.000237637038065
-0.000260863341685
-0.000270267687105
-0.000274567161069
-0.000277185496561
-0.000279375108288
-0.0002816034275
-0.000284168055503
-0.000287592621639
-0.000293190597655
-0.000304376627537
-0.000330655109016
-0.000398892623817
-0.000605543281728
-0.00171688476461
-0.00923921548529
-0.0409087838803
-0.105700310045
-0.0839897966492
-0.000234521132149
-0.0002395374063
-0.000263024935432
-0.000272459645851
-0.000276672180036
-0.000279150295496
-0.000281179728744
-0.000283235819683
-0.000285598407628
-0.000288731998728
-0.000293738542209
-0.000303558258193
-0.000325457698521
-0.00037937700788
-0.000537879289419
-0.00138934057595
-0.00748407693349
-0.0338409509829
-0.0902543982938
-0.0557803119576
-0.000236517876931
-0.000241440072733
-0.000265142707175
-0.000274584106542
-0.000278695464448
-0.000281028555558
-0.00028289563161
-0.000284771834453
-0.000286893858372
-0.000289626042428
-0.000293757083921
-0.000300861090995
-0.000314509404775
-0.00033911789677
-0.000396042092409
-0.000949021004911
-0.00525486151867
-0.0237618470543
-0.0688627392929
-0.0462504923908
-0.000238430875428
-0.000243301840655
-0.000267214238637
-0.00027666147343
-0.000280679563047
-0.000282873694573
-0.000284585487809
-0.000286285778778
-0.000288193208761
-0.000290577193645
-0.000293882871025
-0.00029867396031
-0.000303691519864
-0.000296902230772
-0.000238367264577
-0.000337548488624
-0.00280791093752
-0.0148718801924
-0.0478834802782
-0.0365008746181
-0.00024028944347
-0.000245126652805
-0.000269239514787
-0.000278685128192
-0.00028261364503
-0.000284682087501
-0.000286249238037
-0.00028779402744
-0.000289508013813
-0.00029158325349
-0.000294234950683
-0.000297145491751
-0.000296340612182
-0.000268114881886
-0.000120712383185
0.000228771945737
-0.000345807168794
-0.00657828117623
-0.0295207029307
-0.0275742935345
-0.000242093051204
-0.000246905969265
-0.000271188048047
-0.000280618287749
-0.000284464878164
-0.000286425729283
-0.000287869014513
-0.000289272209962
-0.000290819347668
-0.000292628269387
-0.000294754678732
-0.000296511524855
-0.000292419472662
-0.000253529674488
-5.15507231254e-05
0.000664361405639
0.00177859395709
0.000772764827067
-0.0110435843517
-0.0168221008948
-0.000243836436036
-0.00024859881166
-0.000272999277043
-0.000282412795229
-0.000286195677766
-0.000288067339377
-0.000289410155754
-0.000290699238776
-0.0002921058486
-0.000293712872498
-0.000295467674028
-0.000296423788544
-0.000290737773002
-0.000248448076104
-2.24737774395e-05
0.00092926530791
0.0032911612773
0.00611266104639
0.00408511805339
-0.00590626925813
-0.000245497976499
-0.000250104228208
-0.000274583034218
-0.000283998898337
-0.00028774971906
-0.000289570950362
-0.000290847253348
-0.000292049655767
-0.000293347690681
-0.000294789374375
-0.000296256611984
-0.000296696003302
-0.000290245661384
-0.000247408455532
-1.59921541476e-05
0.00105378217966
0.00421768087729
0.0088337831949
0.00907688025037
-0.00235783604294
-0.000246916285718
-0.000251355177059
-0.000275980897676
-0.000285430611671
-0.000289153049138
-0.000290914432453
-0.000292129015962
-0.000293285407098
-0.000294512795877
-0.000295835824239
-0.000297104452206
-0.000297220783829
-0.00029046397992
-0.000248826707892
-2.54577665711e-05
0.00105801054685
0.00458690927698
0.00987481116067
0.0103274987736
-0.00044122140169
-0.000247770923409
-0.00025241450062
-0.000277195796374
-0.00028669174638
-0.000290407521264
-0.00029214533573
-0.00029331711437
-0.000294402748963
-0.000295560325254
-0.0002968042708
-0.000297967226756
-0.000297941307995
-0.000291367199856
-0.000252667893795
-4.80679312109e-05
0.000971760825636
0.00450676552704
0.00927400907571
0.011753309732
0.0117262671927
-0.000248389175733
-0.000253329095186
-0.000278258187919
-0.000287795311028
-0.000291524025621
-0.000293247642301
-0.00029439098452
-0.000295444449027
-0.000296554996971
-0.000297732174359
-0.000298808684545
-0.000298801798369
-0.000292894094989
-0.000258638901133
-7.89880430561e-05
0.000835058691551
0.00402286935612
0.00654203791366
0.015938669987
0.127468009236
-0.000248860348741
-0.000254118869272
-0.000279170719871
-0.000288753026546
-0.000292473582197
-0.000294187225667
-0.000295325384166
-0.000296362228727
-0.00029745325481
-0.000298609521638
-0.000299677915432
-0.000299761069054
-0.000294572678813
-0.000264563587572
-0.000109887672403
0.000685287852655
0.00346738802415
0.00207047749619
-0.0164741129985
0.457230816454
-0.000249190005357
-0.000254788016198
-0.000279948383669
-0.000289550123911
-0.000293267065755
-0.000294976440255
-0.000296099611976
-0.000297132855577
-0.000298225731461
-0.0002993899879
-0.000300479383687
-0.000300686922893
-0.000296136359779
-0.000269551855685
-0.000135822190374
0.000547334273837
0.0031236796964
0.00210088241813
-0.0612348399889
-0.366454554503
-0.000249437122446
-0.000255307062138
-0.000280559464924
-0.000290184774431
-0.000293902613746
-0.000295600728618
-0.000296723423778
-0.000297767449891
-0.000298874192418
-0.000300057486787
-0.000301184131696
-0.000301514977021
-0.000297458089555
-0.000273443800181
-0.000157255176169
0.000416509575328
0.00285196976205
0.0060140760399
-0.0450448505107
-0.567661431741
-0.000249661444642
-0.000255669875978
-0.000281005263547
-0.000290655639525
-0.000294380664057
-0.00029608461274
-0.000297217664628
-0.000298274573841
-0.000299398539186
-0.000300605681913
-0.000301774387458
-0.000302203798333
-0.000298466072608
-0.000275932958678
-0.000172043970528
0.00030683856952
0.00258363987831
0.0120371313616
-0.0133642845337
-0.0815962657089
-0.00024986258356
-0.000255895115323
-0.000281295979421
-0.000290976461812
-0.000294719086542
-0.000296437439054
-0.00029758208587
-0.000298650686493
-0.000299793943561
-0.000301029776244
-0.000302237299157
-0.000302741153034
-0.00029916032652
-0.000277191710152
-0.000180905901279
0.000225188062716
0.00233971493368
0.0159954088742
0.0605560446457
0.0169081942102
-0.000250014922516
-0.000255998131029
-0.000281449594308
-0.000291158233678
-0.000294920167648
-0.000296653992176
-0.000297811716166
-0.00029889529929
-0.00030006153296
-0.000301328007423
-0.000302577526506
-0.000303138444313
-0.000299673242982
-0.00027815373154
-0.000188678474921
0.000150816170329
0.00205506484683
0.0166002686083
0.0709267872588
0.0267655261726
-0.000250067173822
-0.00025598120394
-0.000281471003422
-0.000291201615593
-0.00029498464915
-0.000296736266768
-0.000297912632055
-0.0002990171525
-0.000300206668937
-0.000301503442563
-0.000302792662809
-0.000303422069051
-0.000300141505225
-0.000279316670052
-0.000196546036158
7.99092224383e-05
0.00168345333718
0.0159999669437
0.0770662129521
0.0332764655382
-0.000250031756392
-0.000255858566243
-0.000281367117799
-0.000291113942695
-0.000294917676464
-0.00029669107345
-0.000297891997501
-0.00029902106097
-0.000300235209889
-0.000301561415932
-0.000302892287702
-0.000303618091645
-0.000300629922734
-0.000281019208236
-0.000205773204317
1.25491488407e-05
0.00124074834309
0.0140601053421
0.0786395450823
0.0456633253782
-0.000249906452551
-0.00025562682979
-0.000281139680217
-0.00029089667047
-0.000294720034729
-0.000296516700405
-0.000297740804066
-0.000298894301504
-0.000300136974626
-0.000301498651814
-0.000302890032866
-0.000303746440615
-0.00030116796548
-0.000283198779142
-0.000216890665903
-6.44120253917e-05
0.000648798736998
0.0108948836882
0.084344926301
0.105744422506
-0.000249683785534
-0.000255294726671
-0.000280795388079
-0.000290553591104
-0.000294393855494
-0.000296211476771
-0.000297458232381
-0.000298637089213
-0.000299908501894
-0.000301313392922
-0.000302781038957
-0.000303810982687
-0.000301816486162
-0.000286054963457
-0.000230016672309
-0.000142912735174
4.31963370108e-05
0.0075412958888
0.111906794601
0.382467983341
-0.000249342716425
-0.000254869044777
-0.000280333797173
-0.00029008445616
-0.000293940982396
-0.000295783301762
-0.000297059948943
-0.000298271998071
-0.000299581597347
-0.000301037574305
-0.000302584729948
-0.000303820040189
-0.000302504890958
-0.000289065286788
-0.000238138066849
-0.000144038666535
0.000211969275615
0.00777144448728
0.0841028541874
0.203549463775
-0.000248925701276
-0.000254347561687
-0.000279755759411
-0.000289491736775
-0.000293364655413
-0.000295235658967
-0.000296547204577
-0.000297798164859
-0.000299148822175
-0.000300658870421
-0.000302295014819
-0.000303793630634
-0.000303388396195
-0.000292964885706
-0.00024862719589
-0.000139529993152
0.000576568086332
0.00905627187691
0.0532432565899
0.0496148484488
-0.000248431581778
-0.000253729338091
-0.000279056729007
-0.000288773774963
-0.000292667386596
-0.000294572045906
-0.000295922824524
-0.000297217463561
-0.000298620948
-0.000300198628077
-0.000301954835395
-0.000303799520345
-0.000304613165693
-0.000298312407006
-0.00026327780934
-0.000159911725845
0.000655349794914
0.00913809854851
0.0378303914832
0.0145287212022
-0.00024785709279
-0.000253014780462
-0.00027823774357
-0.000287934010679
-0.000291851612278
-0.000293796091715
-0.000295192170845
-0.000296536889254
-0.000298004974282
-0.000299668086363
-0.000301581917875
-0.000303888127926
-0.000306322416617
-0.000305464929807
-0.000286503031642
-0.000215995986576
0.000498372828164
0.00818205553619
0.0282970895562
0.00574077583812
-0.000247177524205
-0.000252206118736
-0.000277301330766
-0.000286971994011
-0.000290919984223
-0.000292911639661
-0.000294360486668
-0.000295763199517
-0.000297302115476
-0.000299063682871
-0.000301183324836
-0.000304100555408
-0.000308561636815
-0.000313930596553
-0.000314327734984
-0.000307240337518
0.000105732507875
0.00695314947646
0.037791924677
0.0141632050685
-0.000246383841757
-0.000251283437295
-0.000276249367156
-0.000285895716766
-0.000289878639096
-0.000291923644023
-0.000293431051753
-0.000294899662971
-0.00029651362893
-0.000298386994807
-0.000300764038933
-0.000304453336637
-0.000311375500151
-0.000324377732449
-0.000348365654199
-0.000442331099501
-0.000483993299248
0.0061893817052
0.0554179496046
0.0325549030567
-0.000245456059801
-0.000250266779012
-0.000275093074398
-0.000284709314962
-0.000288731638931
-0.000290836484023
-0.000292408554035
-0.000293947826594
-0.000295642740495
-0.000297641665441
-0.000300326597388
-0.000304911950598
-0.000314461770311
-0.000334884233641
-0.000384845842601
-0.000580047628773
-0.00110962082351
0.00336943403691
0.0600375414812
0.0604419321883
-0.000244098690008
-0.00024923679546
-0.000273896476219
-0.000283468864991
-0.000287509115611
-0.000289663439913
-0.000291300410874
-0.000292914732623
-0.000294703348712
-0.000296854156403
-0.000299836395971
-0.000305328208427
-0.000317525292021
-0.000345512143816
-0.00041710649205
-0.000678846640371
-0.00146774146637
0.000673633256559
0.0531035167021
0.114439229719
-0.000242621742707
-0.000248105581115
-0.000272590698027
-0.000282118182095
-0.000286184082167
-0.000288394756246
-0.000290101307632
-0.000291792448703
-0.000293664419867
-0.000295920986724
-0.000299202922207
-0.000305624727325
-0.000320258517782
-0.000354704590928
-0.000445704813107
-0.000740593431146
-0.00157254532455
-0.00043887182849
0.0431375825903
0.192949417973
-0.000241024929889
-0.00024687117236
-0.000271176543938
-0.000280663154227
-0.000284763903458
-0.000287042583112
-0.000288831208882
-0.000290610248242
-0.000292571491521
-0.000294923084425
-0.000298338411049
-0.000305059766727
-0.000321307078295
-0.000362174311396
-0.000471193157627
-0.000804924253567
-0.00166337991901
-0.000438661483501
0.046034338555
0.134706125534
-0.000239309406105
-0.00024553280633
-0.000269656723993
-0.000279110226747
-0.000283257782824
-0.000285618524231
-0.000287503983588
-0.000289384907184
-0.000291449175043
-0.000293905605185
-0.000297454281481
-0.00030440258167
-0.000321100373811
-0.000363317595556
-0.000478663721556
-0.000839352378765
-0.00174283986066
-0.000964765406938
0.027583440765
0.0368023143577
-0.000237473137942
-0.000244090519784
-0.000268036999596
-0.000277468007756
-0.000281676099394
-0.000284134969794
-0.000286134033305
-0.000288140527782
-0.000290326564462
-0.000292909513876
-0.000296606065344
-0.000303777745117
-0.000320885710941
-0.000364506666123
-0.000486938087818
-0.000879713877272
-0.00189802797898
-0.00137862053373
0.0290670691909
0.0541109605411
-0.000235531899016
-0.000242546410773
-0.000266322155328
-0.000275743885783
-0.000280027822096
-0.000282606585607
-0.000284760556848
-0.00028689808238
-0.000289227885484
-0.000291923117752
-0.000295730102575
-0.000302868137928
-0.00031988411883
-0.000364430728734
-0.00049460958959
-0.000922528747444
-0.00208016686602
-0.00194940399266
0.0301850620274
0.0111079574509
-0.000233464490517
-0.000240906425006
-0.000264522628523
-0.00027395919608
-0.000278340561621
-0.000281077211878
-0.000283354527757
-0.000285671457011
-0.00028814204664
-0.000290990728221
-0.000294793178537
-0.000301615110242
-0.000317868482746
-0.000362663305387
-0.000501982949738
-0.000969629688978
-0.0022651776689
-0.00298484114361
0.0156893617721
-0.348215656461
-0.000231322956897
-0.000239186955399
-0.000262674570411
-0.000272118202855
-0.00027663171456
-0.00027947150716
-0.000281945668891
-0.00028448303592
-0.000287139782839
-0.000290150442516
-0.0002940287931
-0.000300634516619
-0.000316322765162
-0.000362299446799
-0.000514512936572
-0.00102787725551
-0.0024352290764
-0.00437391955474
-0.00334161962643
-0.24359705437
-0.000229094989345
-0.000237410423803
-0.000260745628825
-0.000270254043639
-0.00027483145352
-0.000277908510591
-0.00028049988386
-0.000283154249958
-0.000286052162639
-0.000289340104817
-0.000293513887145
-0.000300391928493
-0.000316527262233
-0.000365188316934
-0.000532009263974
-0.00109048899189
-0.00257995759279
-0.0051656355819
-0.00841515599023
-0.206569146911
-0.000226787534938
-0.000235562672362
-0.00025878525801
-0.000268288406551
-0.000273008098141
-0.000276090902149
-0.00027883131993
-0.000281616664639
-0.000284696511306
-0.000288345811478
-0.00029306047781
-0.000300821872236
-0.000318781224734
-0.000371624554554
-0.000552775766456
-0.00115306770232
-0.00269082984552
-0.00451001373398
-0.00862359226812
-0.934343886878
-0.000224456812145
-0.000233708150574
-0.000256821882617
-0.000266322527888
-0.000271015041811
-0.000274076157409
-0.000276632763123
-0.000279180750611
-0.000282263929212
-0.000286358367284
-0.00029175869499
-0.00030081700269
-0.000322650958989
-0.000382340573666
-0.000578467338776
-0.00122110005526
-0.00283877741507
-0.00435829287976
0.00194174038002
-0.880352620814
-0.000222183917688
-0.000231883659897
-0.000254892455263
-0.000264324591686
-0.000268812032161
-0.000271343114825
-0.000272917543272
-0.000274287864891
-0.000276508674094
-0.000280897661667
-0.000286848234016
-0.00029745347393
-0.000328512575201
-0.000401717900473
-0.000619552720317
-0.00130997226033
-0.00301529068165
-0.00407475792105
0.0249451211955
-0.54211329574
-0.000219997497301
-0.000230133272172
-0.000253033168502
-0.00026224442498
-0.000266054877695
-0.000266842074602
-0.000265065834761
-0.000261821395085
-0.000259131051075
-0.000263134112671
-0.000269787774826
-0.000283710538153
-0.000338569985986
-0.000439242873112
-0.000688871516845
-0.00142480495488
-0.00318098033845
-0.00437134927402
0.0326023825092
0.184521234585
-0.000217956296431
-0.000228522675349
-0.000251296013392
-0.000260094975846
-0.000262516988425
-0.0002594387794
-0.000248728076527
-0.000224717238783
-0.000271371450446
-0.000266344273725
-0.000279080074285
-0.000339290696448
-0.000355528107151
-0.000511194493987
-0.000801746551057
-0.00156819190795
-0.00333260968626
-0.00555312261968
0.0393654489131
0.704715818473
-0.000216076681467
-0.000227060557898
-0.000249723903077
-0.00025810898393
-0.000259595408525
-0.000254656349868
-0.000238449308383
-0.000251423148395
-0.000504808397998
-0.000587530881906
-0.000918338230251
-0.00168517897949
-0.00336189044221
-0.00644462768355
0.00656183806851
0.970540333314
-0.000214763014589
-0.000226201924425
-0.000248865824702
-0.000256981869637
-0.000257646939672
-0.000250932601225
-0.000230947569988
-0.000228737906438
-0.000558581373598
-0.00068187488844
-0.00101396497879
-0.00175046578836
-0.00332348641564
-0.00579620292472
-0.0108931136109
-0.0902167045798
-0.000214503019614
-0.000226067050695
-0.00024875763284
-0.000256902458081
-0.000257592116712
-0.000250869918675
-0.000231023033013
-0.000229172177667
-0.000558847811975
-0.00068325770619
-0.00101100973847
-0.00174536367771
-0.00331517736601
-0.00490930413362
0.0067774810095
-0.51283606261
-0.000215695722401
-0.000226775872783
-0.000249475303499
-0.000257912553808
-0.000259465860736
-0.000254616863333
-0.00023872578554
-0.000251919218628
-0.000506341303807
-0.000585933056509
-0.000908271732561
-0.0016652738917
-0.00330188082247
-0.00516986532735
0.010522568586
0.206723488671
-0.000217481864873
-0.000228104695556
-0.000250918175656
-0.000259815807004
-0.000262368430653
-0.000259432451516
-0.000248437389984
-0.000223947793469
-0.000272520509863
-0.000266636135076
-0.000278982791175
-0.000338846402652
-0.000354912592528
-0.000507943793454
-0.000791927198535
-0.00154008165488
-0.00322285313748
-0.00491148126297
0.0184571073039
0.644948259945
-0.000219668736382
-0.000229814455863
-0.000252756080183
-0.000262047298466
-0.000265951230561
-0.00026684107918
-0.000265194641783
-0.000261364736442
-0.000259387396143
-0.000263352962715
-0.000270040138529
-0.000283950512069
-0.000338688464765
-0.000439630055513
-0.00068995972647
-0.00141259994951
-0.00307528461366
-0.0042622418281
0.00590893177196
-0.0395030852807
-0.000221897075252
-0.000231570283264
-0.000254631055597
-0.000264147747657
-0.0002687341113
-0.000271374155719
-0.000273059510564
-0.000274522171193
-0.00027676200607
-0.000281163012441
-0.000287234972849
-0.000298092597056
-0.000329607140524
-0.000405139388309
-0.000629204844146
-0.00131699285341
-0.00293926802009
-0.00349852219206
0.0185315913301
-0.0697063171756
-0.000224198544693
-0.000233408208777
-0.000256576581421
-0.00026616422903
-0.00027095019387
-0.000274106322926
-0.000276749989059
-0.000279361799105
-0.000282472484448
-0.000286592382977
-0.000292109086014
-0.00030144919863
-0.000324018953058
-0.000386481744284
-0.000590008734111
-0.00123724948788
-0.00282651631913
-0.00371278378763
0.0236549991288
-0.0373634342081
-0.000226545549588
-0.000235273039351
-0.000258549586802
-0.000268133583404
-0.000272903995034
-0.000276106547149
-0.000278917508286
-0.000281754958625
-0.000284860273348
-0.000288536101761
-0.000293330421296
-0.000301274674959
-0.000319747815534
-0.000374336920075
-0.000560355584924
-0.00116401867408
-0.00264044130771
-0.00331715075454
0.0171610825822
-0.0827974144562
-0.000228876806797
-0.000237127092964
-0.000260516810826
-0.000270067379106
-0.000274740313786
-0.00027782430792
-0.000280522251485
-0.000283251896025
-0.000286176544155
-0.000289492918161
-0.00029371926742
-0.000300676496891
-0.000316966109078
-0.00036624167274
-0.000535914475301
-0.00109491178527
-0.00243177294275
-0.00265521868915
0.010399874503
-0.0781225392155
-0.000231140059114
-0.000238939280639
-0.00026245446396
-0.000271965586759
-0.000276515526372
-0.000279437469911
-0.000281951613353
-0.000284484302225
-0.000287190269
-0.000290238512079
-0.000294166786815
-0.000300847143526
-0.000316715068105
-0.00036369314846
-0.00052103535304
-0.00104072207815
-0.00230808507591
-0.00320415237162
-0.00206940319366
0.205464278223
-0.000233308202056
-0.000240685716145
-0.000264338670523
-0.000273817500334
-0.000278247730961
-0.000281006786645
-0.000283337570751
-0.000285674718739
-0.000288182031066
-0.00029104791989
-0.000294892945389
-0.000301834167827
-0.000318555951845
-0.000365844772466
-0.000515386002434
-0.00100189030351
-0.00222313380409
-0.00357209124121
-0.0219778565611
-0.270228909509
-0.000235400467548
-0.000242358182142
-0.00026615776098
-0.000275617046616
-0.00027994161343
-0.000282553754481
-0.000284719652042
-0.00028688666551
-0.000289231708586
-0.00029196614908
-0.000295790158204
-0.00030302932111
-0.000320481308511
-0.000367306498447
-0.000506483530181
-0.000952954599144
-0.00207298490028
-0.00295894926579
-0.0163610045321
-0.0690078906998
-0.000237370298885
-0.000243936258714
-0.000267895950666
-0.000277350932263
-0.000281586979213
-0.000284072806115
-0.000286096841343
-0.000288121239317
-0.000290328862008
-0.000292936432258
-0.000296660009655
-0.000303852861707
-0.000321040366952
-0.00036530405449
-0.000490826324979
-0.000891953588302
-0.0019152214999
-0.00243064060029
0.00733497987838
0.52813916556
-0.000239237653656
-0.000245412095328
-0.000269540765274
-0.000279006809179
-0.000283171873328
-0.000285550496799
-0.000287454786293
-0.000289355806886
-0.00029144450618
-0.000293930258802
-0.000297499930706
-0.000304425206687
-0.000320894750928
-0.000362348327587
-0.000476041902017
-0.000838485572263
-0.00178648764628
-0.00191211117571
0.015068689413
0.140979635851
-0.000240973698709
-0.000246782446984
-0.000271086879911
-0.000280577984464
-0.000284688312457
-0.000286978753386
-0.000288781233139
-0.000290578327566
-0.000292558746313
-0.000294933136997
-0.000298382126988
-0.000305080163401
-0.000321059152412
-0.000360851652481
-0.000466817511523
-0.000797854053786
-0.00167150911736
-0.000258143232989
0.0465984600503
0.118392569826
-0.000242579423538
-0.000248044981104
-0.000272525411728
-0.000282049934829
-0.000286117638651
-0.000288334029377
-0.000290050865893
-0.000291757302952
-0.000293646975711
-0.000295930206549
-0.000299231888664
-0.00030564213768
-0.000320190870707
-0.000353359083917
-0.000438530188221
-0.000708180820493
-0.00135951433936
0.00299754674891
0.0746995448294
0.156540651554
-0.000244061081078
-0.000249193169893
-0.000273848344195
-0.000283416052148
-0.000287455318815
-0.000289613385565
-0.000291259782983
-0.000292889931329
-0.000294700528422
-0.000296880681876
-0.000299890153599
-0.000305396220455
-0.000317444932958
-0.000344427602892
-0.000409812703095
-0.000631986231058
-0.00116137595175
0.00398702400861
0.0754184133834
0.0805372013889
-0.000245420184704
-0.000250235112569
-0.000275056362533
-0.000284672339116
-0.00028868771858
-0.000290797133393
-0.000292379137846
-0.000293934639198
-0.000295655681778
-0.000297690965408
-0.000300416262575
-0.000305025661997
-0.000314600803224
-0.00033455695253
-0.000381390763606
-0.00056254550831
-0.00101453375194
0.00346219091055
0.0634142841786
0.0658981107394
-0.000246389758776
-0.000251241679768
-0.000276207335363
-0.000285856786831
-0.000289843415035
-0.000291894369422
-0.000293411632735
-0.000294898259303
-0.000296539397505
-0.000298453537784
-0.000300895824136
-0.000304654928141
-0.00031175116197
-0.00032553768469
-0.000353387040786
-0.000466108537516
-0.000664117566706
0.0037702993709
0.0345288376022
0.0233700574136
-0.000247199779835
-0.000252157901566
-0.000277258885555
-0.000286936928016
-0.000290890934153
-0.000292889526952
-0.000294348339124
-0.000295771213019
-0.000297337034088
-0.000299140187747
-0.000301338721462
-0.000304380830469
-0.0003092790032
-0.000316781345306
-0.000326973835396
-0.000367964431987
-0.000230061801397
0.00544414704168
0.0213309470799
0.00410731616767
-0.000247890320322
-0.000252967819999
-0.000278196664226
-0.000287899415126
-0.000291825741194
-0.000293778422296
-0.000295184718919
-0.000296548840111
-0.000298043997309
-0.000299746916732
-0.000301743469577
-0.000304222359598
-0.000307358297239
-0.000309600998742
-0.000303903166616
-0.00030278816632
1.91865438649e-05
0.00742114809389
0.0429215458548
0.0121795937595
-0.000248440619271
-0.000253677102809
-0.000279015660561
-0.000288742064826
-0.000292643194468
-0.000294555638143
-0.000295915169537
-0.000297225644652
-0.000298656872438
-0.000300268985196
-0.000302098031329
-0.00030413180789
-0.00030583321818
-0.000303451689952
-0.000285176322354
-0.000248811205699
0.000203622124466
0.00749790589445
0.0421364974469
0.0159240900736
-0.000248924781705
-0.000254298691893
-0.000279712199481
-0.000289457527849
-0.000293339552981
-0.000295217837213
-0.00029653588107
-0.000297797698848
-0.000299169163725
-0.000300700748339
-0.000302389241832
-0.000304065317604
-0.000304546990236
-0.000297984590424
-0.000267014818758
-0.000197637032879
0.000293493686009
0.00713491598475
0.046360092907
0.0285954515112
-0.000249327621693
-0.000254816430715
-0.000280287762903
-0.000290048836547
-0.00029391450314
-0.000295763235847
-0.000297044376369
-0.000298262067756
-0.000299579092853
-0.000301037712722
-0.000302601991655
-0.000303964694421
-0.000303373897147
-0.000293044303275
-0.000252279505074
-0.00017414926936
0.000251707466702
0.00707516476335
0.0554985817548
0.0769977247886
-0.000249643385339
-0.000255231253587
-0.000280745990605
-0.000290517538435
-0.000294367351511
-0.00029618932417
-0.000297436927397
-0.000298614482872
-0.000299882557981
-0.000301276789649
-0.000302732220083
-0.000303827947329
-0.00030226279626
-0.000288480808755
-0.000239038934656
-0.00015926974447
5.53381848667e-05
0.0057480644087
0.0806145169652
0.401108443942
-0.000249867767108
-0.000255557379902
-0.000281090660901
-0.000290863756579
-0.000294696385722
-0.000296492794554
-0.000297709370083
-0.000298850163379
-0.000300074523072
-0.000301412802248
-0.000302776239925
-0.000303654454056
-0.000301325928862
-0.000284664174041
-0.000226543724494
-0.000132185909893
0.000112221676527
0.00799148761625
0.0972060880125
0.215449951253
-0.000249990938164
-0.00025579132067
-0.000281321580063
-0.000291086642415
-0.000294900292481
-0.000296672784776
-0.00029786111009
-0.000298967854241
-0.000300150534814
-0.000301435067129
-0.000302715702187
-0.000303396052742
-0.000300409072517
-0.000281204875566
-0.000211442168442
-5.57520696933e-05
0.00058033235435
0.0111946574007
0.103792437669
0.15183959125
-0.000250015948222
-0.000255919080034
-0.000281433492801
-0.000291181978553
-0.000294973136708
-0.000296721699444
-0.000297882802598
-0.000298956176073
-0.000300096468071
-0.000301323454807
-0.000302516085637
-0.000302999094834
-0.00029941896373
-0.000277677544751
-0.000192378120476
7.25872010901e-05
0.00134074554741
0.0135864100554
0.0875119235699
0.0794180554085
-0.00024995963404
-0.000255943341283
-0.000281421041412
-0.000291148314651
-0.000294917865108
-0.000296645883082
-0.000297784412606
-0.000298829441588
-0.000299932750058
-0.000301108062769
-0.000302219273214
-0.000302522723861
-0.000298396914046
-0.000274460112356
-0.000174003765717
0.000199338615599
0.00192056873935
0.01475229524
0.0862070197358
0.0650406968161
-0.0002498175012
-0.000255848024702
-0.000281278923689
-0.000290979809089
-0.000294729406921
-0.00029643972683
-0.000297559979712
-0.000298584309975
-0.000299659398044
-0.000300794422974
-0.000301829750884
-0.000301968954007
-0.000297373670197
-0.000271621535258
-0.000158489068272
0.000305536456599
0.00232433687707
0.0148069936307
0.0795281869953
0.0544753397501
-0.000249614804126
-0.000255628951967
-0.000280998220342
-0.000290669908829
-0.000294402375141
-0.000296097818262
-0.000297202467504
-0.000298210036039
-0.000299261526227
-0.000300358983682
-0.000301327196827
-0.00030129219462
-0.000296134946346
-0.000268216876704
-0.000142383337751
0.000404691108548
0.00268323840058