/*--------------------------------*- C++ -*----------------------------------*\
| =========                 |                                                 |
| \\      /  F ield         | OpenFOAM: The Open Source CFD Toolbox           |
|  \\    /   O peration     | Version:  v2012                                 |
|   \\  /    A nd           | Website:  www.openfoam.com                      |
|    \\/     M anipulation  |                                                 |
\*---------------------------------------------------------------------------*/
FoamFile
{
    version     2.0;
    format      ascii;
    class       volScalarField;
    location    "5.7";
    object      nut;
}
// * * * * * * * * * * * * * * * * * * * * * * * * * * * * * * * * * * * * * //

dimensions      [0 2 -1 0 0 0 0];


internalField   nonuniform List<scalar> 
1984
(
0.000215417786685
0.00026218138788
0.000268889568102
0.00027177827772
0.000273382051197
0.00027457477122
0.000275660177294
0.000276764400508
0.00027799623788
0.000279502697392
0.000281731009306
0.000285887441526
0.000295803541636
0.000323104224496
0.000394083557323
0.00053654277717
0.000743463891757
0.000985180239991
0.00125222159393
0.00156121428509
0.000262425575153
0.00038801846937
0.000399693590285
0.000404442419297
0.000406805536416
0.000408358542014
0.000409667180883
0.000410969889806
0.000412434415531
0.000414358983974
0.000417484798277
0.000423888166446
0.000440053105392
0.000485048156424
0.00059863433686
0.000811237713806
0.00109428323256
0.00140495907977
0.00176570724517
0.00324840432957
0.000269376382512
0.000400338508875
0.000413024329518
0.000418115430554
0.000420556340311
0.000422096834973
0.000423373704842
0.0004246451837
0.000426095885875
0.000428044939276
0.000431283072463
0.000438034893015
0.000455039343748
0.000501816554311
0.00061816620376
0.000833470302491
0.00111899791562
0.00143311394883
0.00182348742392
0.00321649016982
0.000272344341269
0.000405460940988
0.000418557287326
0.000423775033427
0.000426222097159
0.000427729864533
0.000428972316078
0.000430219150061
0.000431657460322
0.000433609580366
0.000436869389833
0.000443647593203
0.000460533038776
0.000506348274084
0.000619768653399
0.000832332848653
0.00112207733191
0.00145031308908
0.00183702282027
0.00252660510856
0.000273875312734
0.000407939312049
0.000421193160827
0.000426437802154
0.000428853383346
0.000430313355795
0.000431509662594
0.000432718667516
0.000434126901693
0.000436044715367
0.000439240274872
0.000445812715301
0.000461854431272
0.00050446023339
0.000610333210262
0.000816973465468
0.00111585262199
0.00146780522883
0.00185453236857
0.00223928259851
0.000274870161107
0.000409426426455
0.00042272895413
0.000427956990253
0.000430324793286
0.000431729127669
0.000432872712711
0.000434033792607
0.000435395245387
0.000437253717312
0.000440329473873
0.00044655985046
0.000461377261707
0.000499730415415
0.000595896966696
0.000795997940459
0.00110665710181
0.00148810028782
0.00193018161938
0.00236166577048
0.000275657111097
0.000410537731574
0.000423845514197
0.000429040886961
0.000431356673729
0.000432704151344
0.000433792904561
0.000434901709793
0.000436208197361
0.000437995142576
0.0004409402895
0.000446850530631
0.000460703606684
0.000496088422819
0.0005856747388
0.000780157787885
0.00109737328251
0.00149793085452
0.00198253266397
0.00247097529379
0.000276354935422
0.000411502047189
0.000424798424277
0.00042995795478
0.000432223527387
0.000433517076221
0.000434552447166
0.000435609097743
0.000436858819739
0.000438571834977
0.000441395293748
0.00044707316152
0.000460515929942
0.000495365176067
0.000584287273237
0.000776258614504
0.00108958961757
0.00149521259121
0.00201659040548
0.00267631527731
0.000277004249426
0.000412392594372
0.000425679053554
0.000430805009813
0.000433025639228
0.000434270099952
0.000435255918397
0.000436262172918
0.00043745724131
0.000439097879546
0.000441806231022
0.000447288383309
0.000460484652984
0.000495484706821
0.000585406606322
0.000775306780081
0.00107977545266
0.00148326230437
0.00201993833879
0.00269923429201
0.000277615174564
0.000413242647936
0.000426518479177
0.000431614842278
0.00043379552811
0.000434996547944
0.000435937686949
0.000436897779193
0.00043804063716
0.00043961054349
0.000442201429815
0.000447458846878
0.000460231726841
0.000494581859133
0.000583428294599
0.000769652315902
0.00106775485403
0.00147283487371
0.00202449465698
0.00271353447267
0.000278193045409
0.000414050359805
0.000427321592082
0.000432393932616
0.000434540659916
0.000435703724337
0.000436605473541
0.000437524008008
0.000438618461824
0.000440120470569
0.000442590348831
0.00044758276795
0.000459695690672
0.000492333080308
0.000577431450646
0.000758960294588
0.00105676270978
0.00147190090081
0.00204864465962
0.00302210395269
0.000278735965186
0.000414816759069
0.000428089219517
0.000433142785727
0.000435260723324
0.000436390787497
0.000437257698979
0.000438139063173
0.000439188910157
0.00044062503775
0.000442974004086
0.000447685001159
0.000458986001188
0.000489118762305
0.000568306195321
0.000744389252729
0.00104705231752
0.00147930929569
0.00207738090325
0.00303981600325
0.000279243175323
0.00041554117435
0.000428819106333
0.000433858167928
0.000435951633746
0.000437053411841
0.000437889931339
0.00043873742904
0.00043974501599
0.000441115710577
0.00044333836759
0.000447749894839
0.00045818845456
0.00048568830894
0.000558685425908
0.000728827691459
0.00103732819164
0.00148779606305
0.0021037578445
0.00305091307571
0.000279712112386
0.000416218847863
0.000429508066372
0.000434536756852
0.000436610125015
0.00043768749277
0.000438497282857
0.000439314325227
0.000440282237669
0.000441589934462
0.000443688062413
0.000447799734047
0.000457416743564
0.000482597103302
0.000550211149029
0.000714325215938
0.00102666279575
0.00149282908436
0.00212246698974
0.0030588254283
0.000280138471673
0.000416850127986
0.000430153467638
0.000435175513287
0.000437232403578
0.000438288908578
0.000439075293764
0.000439865271043
0.000440797140641
0.000442046086568
0.000444023548192
0.000447847313264
0.000456706478344
0.000479853375377
0.000542700649491
0.000700005910619
0.00101142443517
0.0014872783315
0.00212787506432
0.00306292232361
0.000280526628025
0.000417432513474
0.000430753141317
0.00043577153012
0.000437814874523
0.000438853572962
0.000439619441809
0.000440385948434
0.000441285275426
0.000442478763947
0.000444344822772
0.000447902206535
0.000456067618543
0.000477348994596
0.000535555350565
0.00068464482878
0.000990350351652
0.00146753777369
0.0021153720123
0.00306343774755
0.000280871994458
0.00041796417195
0.000431304327595
0.000436321967804
0.000438354342393
0.000439377870635
0.000440126673567
0.000440872508211
0.00044174238987
0.000442884746687
0.000444645362268
0.000447956776681
0.000455481576266
0.000475000203798
0.000528558146664
0.000668201979377
0.000962534190026
0.00142772561892
0.00207421772873
0.00306464871898
0.00028117160927
0.000418442610807
0.000431807260163
0.000436827063094
0.000438851567002
0.000439863166534
0.000440597026164
0.000441323359266
0.00044216558821
0.00044325912539
0.000444919343218
0.00044799829339
0.000454932989064
0.000472888293392
0.00052231386755
0.00065294683907
0.000932855431056
0.00136973515112
0.00198389382923
0.00309532139756
0.00028142580958
0.000418868876001
0.000432261831696
0.000437287200239
0.000439306658327
0.000440308982705
0.000441030448974
0.000441739738842
0.000442556316064
0.000443605544416
0.000445173893242
0.000448045496458
0.000454479733604
0.000471208961451
0.000517575119703
0.000640770756266
0.00090844860538
0.0013215819293
0.00181298644832
0.00244067016772
0.000281655159093
0.00041924516109
0.00043266674676
0.000437700272162
0.000439717929814
0.000440713863377
0.000441424923465
0.000442119979313
0.000442915307465
0.000443927617966
0.000445419781924
0.000448119987884
0.000454167139755
0.000470023905371
0.000514353970389
0.000632008472507
0.000890596867396
0.0013088581091
0.00180693535919
0.00232217208948
0.000281866883744
0.000419570471998
0.000433017260188
0.00043806189923
0.000440081485258
0.000441072790049
0.000441776350511
0.000442460795966
0.00044323966892
0.000444222503282
0.000445653474867
0.000448220065441
0.000453986066618
0.000469315753506
0.000512620439211
0.000626785986449
0.000878587587632
0.00131960483018
0.00191226941939
0.00242054911501
0.000282058312739
0.000419838316799
0.000433309340281
0.000438368727834
0.000440393889121
0.0004413843275
0.000442083617072
0.000442761084069
0.000443528155273
0.000444487736138
0.000445870401173
0.000448335230764
0.000453909655109
0.00046898946186
0.000512096091859
0.000624373141992
0.000870235521932
0.00133707904703
0.00201493873456
0.00301058140487
0.000282218607425
0.000420048620226
0.000433544284948
0.000438621554749
0.000440655371789
0.000441648544559
0.00044234642384
0.000443019580837
0.000443778268543
0.000444720025598
0.000446064268942
0.000448450515919
0.000453893840639
0.00046885317454
0.000511953076666
0.000622456178817
0.000860468898674
0.00133525581212
0.00212228619264
0.00307668621868
0.000282341778043
0.000420200737274
0.000433723483772
0.000438821803008
0.000440867106168
0.00044186493266
0.000442563350758
0.000443234214052
0.000443987158876
0.000444915615956
0.000446229427519
0.000448552908712
0.000453890028731
0.000468744076228
0.000511755494258
0.000620328062357
0.000848195124098
0.00131108500511
0.00211658314937
0.00308208051565
0.000282423219967
0.000420296421505
0.000433848522829
0.000438969529285
0.000441027657097
0.000442031163341
0.000442731628244
0.000443402423986
0.00044415250428
0.000445071701886
0.000446361431733
0.000448631424493
0.000453865567773
0.00046856658341
0.000511293961447
0.000617875979742
0.000834959680349
0.00127347980443
0.0020787815537
0.00308024689768
0.000282460237683
0.000420336316846
0.000433919421519
0.000439063328046
0.000441135427061
0.000442146607559
0.000442851347363
0.000443524667287
0.000444274868301
0.000445187981037
0.000446457284437
0.000448676193147
0.000453799584989
0.000468291673406
0.000510564096949
0.000614799087148
0.000819405283328
0.00122770224128
0.00204767003829
0.00308630035827
0.000282453088461
0.000420322069193
0.000433934580115
0.000439101562286
0.000441188826274
0.000442209635794
0.000442920863041
0.000443598918619
0.00044435208702
0.000445263109357
0.000446516376722
0.000448687872699
0.000453690984855
0.000467899087957
0.000509487198364
0.000611217637357
0.000804161606373
0.00118520774655
0.0020480987469
0.00312153785666
0.000282407128082
0.000420253870846
0.000433892300506
0.000439082270937
0.000441186259307
0.000442218517734
0.00044293822285
0.000443622999106
0.000444381207196
0.000445293719377
0.000446537031204
0.000448669796925
0.00045356258696
0.000467490678144
0.000508643007589
0.000610893148201
0.000809021368328
0.00119612866448
0.00200322165774
0.00308731662689
0.000282324494352
0.000420127236842
0.000433789474462
0.000439002773303
0.000441125418209
0.000442171522083
0.000442902133957
0.000443596288917
0.000444362817662
0.000445281463356
0.000446523087762
0.000448631946439
0.000453438282214
0.00046711511765
0.00050784040655
0.00061092801976
0.000818940046388
0.00122500323142
0.00197922181865
0.00305798580889
0.000282198448163
0.000419939005551
0.00043362247461
0.000438860061648
0.000441003958751
0.000442066917166
0.000442811539351
0.000443518526336
0.000444297419449
0.000445227416866
0.000446477626135
0.000448587536131
0.000453354722234
0.000466807325215
0.000506935279518
0.000609971141334
0.000821734065409
0.00123310167324
0.00195890637206
0.00304585587885
0.00028202911978
0.000419687703923
0.00043338917223
0.00043865194747
0.000440819907444
0.000441903220491
0.000442665435233
0.000443389063997
0.000444184818267
0.000445133619013
0.000446409455859
0.00044856466023
0.000453391241705
0.000466756942021
0.000506155424953
0.00060806453722
0.000818786680111
0.00122542791921
0.00194070298186
0.00304170226178
0.000281814418103
0.00041936956827
0.000433086039139
0.00043837541559
0.000440571239914
0.000441679200579
0.000442463294628
0.000443208086971
0.000444026538666
0.000445004587044
0.00044633204581
0.000448604321034
0.000453679702441
0.000467370803055
0.000506552212555
0.000606360354283
0.000810797767386
0.0012096427369
0.0019550656144
0.00304962282495
0.000281548575225
0.000418976897203
0.000432709214133
0.000438028245019
0.000440256360401
0.000441393855805
0.000442204916801
0.000442976317202
0.000443824772263
0.000444844877761
0.000446256339306
0.000448737936638
0.000454317234098
0.000468920588618
0.000508731522699
0.000605762604604
0.000798564966059
0.00118464639943
0.00195838264546
0.00305577787371
0.000281226652643
0.000418508416178
0.000432256843787
0.000437608761933
0.000439873886654
0.000441046157703
0.000441889833265
0.000442694208864
0.000443580623977
0.000444655483359
0.000446179702305
0.000448950282675
0.000455250242497
0.000471277656954
0.000512526814702
0.000607394307459
0.000786826078433
0.00114495614647
0.00194765012262
0.00306243152685
0.000280852275788
0.000417962949402
0.000431726663655
0.000437114852459
0.000439422080618
0.000440634895515
0.000441517289089
0.000442361220713
0.000443292751227
0.000444431379544
0.000446082101818
0.000449165419412
0.00045622215168
0.000473728457928
0.000516673531197
0.000610587004955
0.000781667665914
0.00111179658087
0.00189505610586
0.00306230646172
0.00028041991215
0.000417339052173
0.000431117604394
0.000436545066645
0.000438899515346
0.000440158942838
0.000441086345855
0.000441976085457
0.000442958507577
0.000444163995578
0.000445931665075
0.000449270641108
0.000456895267066
0.000475427852822
0.000519428243152
0.000612935807862
0.000781028426993
0.00110135963667
0.00184378598353
0.00305911099132
0.000279931175838
0.000416634100567
0.000430428376339
0.000435898291469
0.000438304986056
0.000439617270545
0.000440596398733
0.000441538539123
0.000442576612261
0.000443847662737
0.00044570713015
0.000449194985871
0.000457072094742
0.000475917625916
0.000519961905359
0.000612405327388
0.000778496287888
0.0011036552408
0.00184813172504
0.00304952808395
0.000279382722622
0.000415850260997
0.000429659290355
0.000435174053402
0.00043763788303
0.00043900928757
0.000440047164753
0.000441048703608
0.000442148324662
0.00044348429287
0.000445413365191
0.000448968197052
0.000456842148186
0.000475437208697
0.00051870278692
0.00060930848831
0.00077153936554
0.00108763200725
0.00182812190706
0.00303679717741
0.000278776313802
0.000414986487019
0.000428811312308
0.000434373238338
0.000436898602841
0.000438335300334
0.000439439380675
0.000440508330829
0.000441676416811
0.000443079416712
0.00044506668645
0.000448635704287
0.000456380656188
0.000474515437877
0.000516809560343
0.000605868688813
0.000764223757056
0.00106722897492
0.00180273300483
0.00303673650186
0.000278110428246
0.000414047533303
0.000427888304973
0.000433498596299
0.000436088861874
0.000437596607687
0.000438774536252
0.000439919310478
0.000441163409418
0.000442632491306
0.000444659663451
0.000448176575749
0.000455668114436
0.000473202254612
0.00051452942417
0.000602280354362
0.000757220341388
0.00104488750981
0.00172929571018
0.00300284181134
0.000277384531037
0.000413039222262
0.000426896318962
0.000432554254354
0.000435211965003
0.000436795289598
0.000438054482641
0.000439284360147
0.000440610181331
0.000442150046629
0.000444190259219
0.000447588466628
0.000454697950195
0.000471514408133
0.000511940572229
0.000598569990349
0.00074936560268
0.00101258066929
0.00160505941358
0.00305266386402
0.0002766069469
0.000411973921668
0.000425844234451
0.000431549324583
0.000434270896387
0.000435933319891
0.000437278994634
0.000438601627259
0.000440026990203
0.000441644173063
0.000443700281728
0.000446974522905
0.000453716517325
0.000469927466025
0.000509784556315
0.000595689172202
0.000743429481774
0.000989224720934
0.00150806566058
0.00307438600526
0.000275781454857
0.000410863851411
0.00042474727019
0.000430489649258
0.000433273917136
0.00043500591077
0.000436436775185
0.000437857329969
0.000439391188388
0.000441108752303
0.000443212511647
0.000446438151264
0.000452986547183
0.000468875382552
0.000508499988394
0.000594108825049
0.000741405245207
0.00098809109577
0.00148023546339
0.00214748418502
0.000274918463271
0.000409731799065
0.000423625538905
0.000429397193924
0.000432218637925
0.000433999492771
0.000435480518559
0.000436972437564
0.000438617383318
0.000440461814378
0.000442664698061
0.000445978813913
0.000452662114889
0.000468639682489
0.000508259801367
0.000593692696523
0.000742752232533
0.00101351761868
0.00156128782644
0.00219028650962
0.000274037467773
0.000408606531796
0.00042250575222
0.000428280003136
0.000431095074488
0.000432836746255
0.000434244796409
0.000435680820273
0.000437377283496
0.000439364936375
0.000441716164383
0.000445272001731
0.000452633632027
0.000469390444986
0.000509388547869
0.000594499768882
0.000742415924333
0.00101800852733
0.00160759793624
0.00231020355477
0.000273169057738
0.000407534878313
0.000421420918903
0.000427150222351
0.000429849747089
0.00043133108096
0.000432272527742
0.000433131100946
0.000434572168802
0.000436652684589
0.000439155427593
0.000443159702166
0.000452348610854
0.000471387710355
0.000513023430045
0.00059809406081
0.000740599402066
0.000996913903861
0.0016132964528
0.00288135862337
0.000272337291977
0.000406551350785
0.000420398687541
0.000425998966114
0.000428376123889
0.000429090273271
0.000428428924491
0.000426374370781
0.00042645062156
0.000428286297047
0.00043095977819
0.000435954866064
0.000449689544122
0.000474567046562
0.000520722069674
0.000606831614275
0.000742773679597
0.000979112833737
0.00161276903248
0.00256018703957
0.000271576315465
0.000405705432053
0.000419484035239
0.000424868270484
0.00042668121332
0.000425939616437
0.000421413292043
0.000409584713308
0.000296427645589
0.000295644392234
0.000297659474429
0.000303974970972
0.000440120990628
0.000480602349992
0.000535710957276
0.000622891884259
0.000751966824111
0.000972354172383
0.00159937176464
0.00252068812698
0.000270909165668
0.000404975432626
0.000418707933026
0.000423878614709
0.000425147901331
0.000423003832454
0.000414439663249
0.000285645672364
0.000335865606484
0.000509048453286
0.000565136477422
0.000647099113535
0.000766442388676
0.000973892607919
0.00158621807412
0.0026326878425
0.000270471925935
0.000404567629522
0.000418282947032
0.000423328634547
0.000424287194058
0.000421430757956
0.00041106048051
0.000279120676176
0.000346753205353
0.000531319454323
0.000587242125479
0.000664735238309
0.000776541673964
0.000980566076715
0.00149800900013
0.0026219976459
0.000270470135758
0.000404565384378
0.000418282105547
0.000423328300903
0.000424286548955
0.000421430167565
0.00041105792573
0.000279124675665
0.000346550977035
0.000530775941202
0.000586539465985
0.000664372647575
0.000778059614774
0.000993792569858
0.00154879363475
0.00242964244425
0.000270908372668
0.000404969830025
0.000418706545361
0.000423877350062
0.000425143618654
0.000422994266541
0.00041441803744
0.00028563077674
0.000335601180555
0.000508299370132
0.00056406457421
0.000646929189233
0.000771493568802
0.00100854780907
0.00164850888314
0.00259072863036
0.000271578459643
0.000405704494903
0.000419484918035
0.000424867886711
0.000426673549493
0.000425915131428
0.000421364899957
0.000409535348471
0.000296335260503
0.000295589767589
0.000297637523391
0.000304012879511
0.000440160287451
0.00048059212542
0.000535840693667
0.000624051830767
0.000758533342206
0.00100784913464
0.00168621680603
0.00271250979849
0.000272343840578
0.00040656121269
0.000420403602736
0.000425999679475
0.000428371386535
0.000429077396438
0.000428402757608
0.000426338969095
0.000426411380711
0.000428266494113
0.000430972131452
0.00043606239769
0.000449940823002
0.000475196595303
0.00052232931549
0.000609696788513
0.00074863108556
0.00100139722373
0.00166734959657
0.00320544955038
0.000273177350465
0.000407549312377
0.000421427630652
0.000427149969072
0.000429844801612
0.00043132194609
0.000432257455447
0.000433109977476
0.0004345564889
0.000436649982794
0.000439185434573
0.000443287819415
0.000452733618002
0.000472491153948
0.000515608024413
0.000602077057739
0.000744836083631
0.00100652880573
0.00166604850967
0.00266840914589
0.000274045048797
0.000408622201362
0.000422511922532
0.00042827957418
0.000431089795687
0.000432828267309
0.000434234199977
0.000435668023399
0.000437365736636
0.000439360240935
0.000441739547107
0.000445384302749
0.000453006172854
0.000470497826805
0.000512010464733
0.000598591468742
0.00074557094185
0.00101617937638
0.00168489688595
0.002719261978
0.000274923429472
0.000409743873953
0.00042363032669
0.00042939556586
0.000432214455452
0.000433991401531
0.000435470782842
0.000436961608351
0.000438605137784
0.000440451861191
0.00044267013024
0.000446040666497
0.000452906524473
0.00046941946288
0.000510243590005
0.00059716856213
0.000747990871545
0.00103393386869
0.00172246977217
0.00311766292238
0.000275786067598
0.000410876946517
0.000424751906828
0.000430489851752
0.000433268898909
0.000435000432816
0.000436428178782
0.000437846680617
0.000439377908132
0.000441094677648
0.000443203582007
0.000446457338871
0.000453112858374
0.000469370157643
0.000509965933044
0.00059706684599
0.000750053276263
0.00104690798408
0.00174330345627
0.00303885373858
0.000276611208228
0.000411986000316
0.000425848927362
0.0004315478288
0.000434268349502
0.000435928068585
0.000437272061488
0.000438592635133
0.000440012688498
0.000441626737811
0.000443680664916
0.000446971950512
0.000453805856208
0.000470394162871
0.000511287959097
0.000598724845482
0.000752876311543
0.00104923847051
0.00172538354892
0.00295776182659
0.000277387572497
0.000413047763981
0.000426899512602
0.000432554724865
0.00043521092539
0.000436794073705
0.000438052017656
0.000439278848452
0.000440602394838
0.000442136881478
0.000444172925685
0.000447585620373
0.000454787700613
0.000472021756098
0.000513558364121
0.000601488060821
0.000755558923477
0.00103742785596
0.00159344270587
0.00247701452638
0.000278112250263
0.000414052047631
0.000427891036436
0.000433500739572
0.000436091831791
0.000437600431311
0.000438778120863
0.000439920759571
0.000441160058618
0.000442624478519
0.000444641949529
0.000448159635362
0.000455687293517
0.000473465260353
0.000515529487974
0.000604219121925
0.000760256688824
0.00104451541675
0.00160841162652
0.0023661209565
0.000278777595678
0.000414988896008
0.000428814726062
0.000434378169666
0.00043690571987
0.000438344237757
0.000439448913703
0.00044051634014
0.000441679967208
0.000443075617219
0.000445051441329
0.000448599101914
0.000456302166228
0.000474416117435
0.00051691635388
0.000606860464568
0.000767982245371
0.0010726604153
0.0017631731525
0.00304034576623
0.000279384293977
0.000415853098041
0.000429664131134
0.000435181561439
0.000437648572196
0.000439022668369
0.00044006199543
0.000441062752059
0.000442158103841
0.000443485108183
0.000445399034342
0.000448920623312
0.000456707737004
0.000475136729624
0.000518336001889
0.000609895919168
0.000775534010693
0.00109127610763
0.00178958218523
0.00304785208309
0.000279933231383
0.000416635204604
0.000430432586664
0.000435906445054
0.000438317407132
0.000439633481148
0.000440615080148
0.000441557682931
0.000442592943863
0.000443854459136
0.000445695144311
0.00044914149404
0.000456926737237
0.000475591051635
0.000519495429379
0.000612515488987
0.000780492759565
0.00110797323404
0.00184965793838
0.00305107799226
0.000280419586842
0.000417333010343
0.000431117694455
0.000436551582962
0.000438911871492
0.000440176368155
0.000441107609424
0.000441999238516
0.000442980132294
0.000444178607176
0.00044592793077
0.000449223795508
0.000456770455
0.000475189625552
0.000519158966987
0.000613138169932
0.00078337940266
0.00112233956199
0.00189856023636
0.00305945991508
0.000280851323828
0.000417953302596
0.000431724339966
0.000437120361241
0.000439434277971
0.000440652756495
0.000441539674025
0.000442386660514
0.000443318564415
0.000444453728725
0.00044609230269
0.000449143407984
0.000456145870366
0.000473604126375
0.000516630022995
0.000611182542737
0.000785084187714
0.00113282924746
0.00192903704466
0.00305951128812
0.000281226246524
0.000418498177587
0.000432253961346
0.000437614115962
0.000439886160393
0.000441064073399
0.000441912421575
0.000442720710477
0.000443609009846
0.000444682764576
0.000446200993813
0.000448954911512
0.000455226517073
0.000471221248018
0.000512491603282
0.000607408948776
0.000786930332072
0.00114210817059
0.00194647322809
0.00306291867193
0.000281549686245
0.000418967524023
0.000432707027593
0.000438034064894
0.00044026872983
0.000441411503137
0.000442227172735
0.00044300285254
0.000443854350893
0.00044487464143
0.000446282647597
0.000448753484467
0.000454317061311
0.000468866054211
0.000508388294777
0.000604369808119
0.000793286000089
0.00116540691331
0.00193337748169
0.00305274851785
0.00028181726172
0.000419361474828
0.000433085060405
0.000438382045783
0.000440583857706
0.00044169663792
0.000442485135696
0.000443234206234
0.00044405635438
0.000445035436143
0.000446360784764
0.000448622151231
0.000453670976928
0.000467226687903
0.000505746852761
0.000603186797859
0.00079981909191
0.00117975689119
0.00190549905243
0.00303912800202
0.000282034647296
0.00041968274687
0.000433390313608
0.00043865978395
0.000440833212701
0.000441920885561
0.000442687080955
0.000443414900573
0.000444214599036
0.000445165213007
0.000446439493515
0.000448580747361
0.000453354163244
0.000466461177307
0.000504788036168
0.000603145394719
0.000804200340738
0.00119866450668
0.00192060232929
0.00303874510598
0.000282207297997
0.00041993737639
0.000433626358009
0.000438869977996
0.000441018587744
0.000442085377628
0.000442833567992
0.00044354462943
0.000444327573378
0.000445260133065
0.000446509546215
0.000448603903031
0.00045329085731
0.000466348161967
0.000504984349426
0.000604470940492
0.000808853055455
0.00121012606759
0.00195341138799
0.00304800453183
0.000282335942748
0.000420129755555
0.000433795857011
0.000439014620215
0.00044114171783
0.000442191294436
0.000442925080422
0.000443623039246
0.000444393758085
0.000445315780142
0.00044655821072
0.000448653709522
0.000453375789881
0.000466634977673
0.000505976850177
0.000606850445293
0.00081254388808
0.00121439987828
0.00197670323781
0.00305752555081
0.000282420106329
0.000420259442922
0.000433901382692
0.000439096454963
0.00044120461313
0.000442239946277
0.000442962293548
0.000443650191979
0.000444412223253
0.000445329031555
0.00044657592359
0.000448701962897
0.000453532614019
0.000467161778199
0.000507434924781
0.000609061380547
0.000812436319652
0.00121005703781
0.00199119784924
0.00306920404171
0.000282466743964
0.000420329564014
0.000433946069396
0.000439118176476
0.000441209418885
0.000442232905743
0.000442946340385
0.000443626801511
0.000444383028825
0.000445298424397
0.0004465566098
0.000448727570788
0.00045370153617
0.000467778650489
0.000509091250067
0.000611246545794
0.000807840297581
0.00118522220469
0.00199996400586
0.00311459213456
0.000282475224396
0.000420345231896
0.000433933256328
0.000439082331001
0.000441158122633
0.000442171819333
0.000442878662173
0.000443554167721
0.000444307359961
0.000445224742346
0.000446498684039
0.000448719485077
0.000453830781305
0.000468284179598
0.000510415920239
0.000613243076802
0.000808463358889
0.0011910480336
0.00202600061374
0.00309549901195
0.000282440443065
0.000420308564525
0.000433865124452
0.000438990782779
0.000441052185354
0.000442058029081
0.000442760516834
0.000443433712334
0.000444187197644
0.000445110780966
0.000446405397114
0.000448678887072
0.000453914014934
0.000468625279786
0.000511330175255
0.000616181016789
0.000820449258419
0.00122996572525
0.00206484557842
0.00309237623858
0.000282363245363
0.000420216945006
0.000433743003775
0.000438845382447
0.000440893608028
0.00044189323696
0.000442593241352
0.00044326654162
0.000444023618867
0.000444958071457
0.00044627987764
0.000448613934013
0.000453966896541
0.000468869604312
0.000512089507955
0.00062067248141
0.000842822938829
0.00128536733822
0.00210264005155
0.00308853044072
0.000282243614917
0.000420068585265
0.000433566587024
0.000438647391012
0.000440683929242
0.000441678833247
0.000442377993765
0.000443053248265
0.000443815931863
0.000444764274885
0.000446118841703
0.000448524987047
0.000454013292484
0.000469099699342
0.000512712987351
0.000624784981498
0.00086124996719
0.00132016834403
0.00211673105543
0.00308180008447
0.000282083911761
0.000419861472804
0.0004333345523
0.000438396944413
0.000440424413494
0.000441416536457
0.000442116917292
0.000442796142656
0.000443566495464
0.00044453219644
0.000445927076242
0.000448421848112
0.000454078264885
0.000469405330535
0.000513346616947
0.000627823069846
0.000873152760321
0.00132539191911
0.00199751134279
0.00300981641064
0.000281893532792
0.000419597442751
0.00043304650875
0.000438093812366
0.000440115399907
0.000441107381718
0.000441811564032
0.000442497547525
0.000443279207498
0.000444267635787
0.000445712537749
0.000448318421106
0.000454210498604
0.000469963642444
0.00051457096707
0.000631292025408
0.000881847740919
0.00131008230046
0.00188935845223
0.00241976089672
0.000281684043858
0.000419278114439
0.0004327015389
0.000437737299549
0.000439756584096
0.000440752168114
0.000441463066824
0.000442158765091
0.000442956030247
0.000443973168316
0.00044547946851
0.000448223988421
0.00045442386953
0.000470823642761
0.000516799256674
0.000637119308718
0.000894141000267
0.00130773380901
0.00181142603191
0.00234535805875
0.00028145857958
0.000418905990735
0.000432299980435
0.000437327480874
0.000439348826014
0.000440351609909
0.000441072113143
0.000441780352987
0.000442596816004
0.000443648630967
0.000445228968204
0.000448143840301
0.000454743004123
0.000472079036669
0.00052030122802
0.00064653473806
0.000913831789793
0.00132901174471
0.00184228150815
0.00248866777045
0.000281203292527
0.000418479971836
0.000431845701093
0.000436867725492
0.000438894618671
0.000439907367273
0.000440640623031
0.000441364981587
0.000442204281522
0.000443296981734
0.000444963425534
0.000448076813216
0.000455165313082
0.000473744416311
0.000525196752881
0.00065955938981
0.000941232452202
0.00138085737955
0.00200934990657