/*--------------------------------*- C++ -*----------------------------------*\
| =========                 |                                                 |
| \\      /  F ield         | OpenFOAM: The Open Source CFD Toolbox           |
|  \\    /   O peration     | Version:  v2012                                 |
|   \\  /    A nd           | Website:  www.openfoam.com                      |
|    \\/     M anipulation  |                                                 |
\*---------------------------------------------------------------------------*/
FoamFile
{
    version     2.0;
    format      ascii;
    class       volVectorField;
    location    "2.4";
    object      ddt0(rho,U);
}
// * * * * * * * * * * * * * * * * * * * * * * * * * * * * * * * * * * * * * //

dimensions      [1 -2 -2 0 0 0 0];


internalField   nonuniform List<vector> 
166
(
(121.07356737 -19.1528391203 1.48955916871e-20)
(124.222846379 -22.2430131167 1.71160703589e-20)
(127.378879596 -25.7122988652 -1.31926785101e-20)
(130.341198799 -29.5837838124 1.20668191692e-20)
(132.814987548 -33.9507717775 3.52917857325e-19)
(134.361667283 -38.8627794393 -6.88682528903e-20)
(134.471941249 -44.3385995894 1.81738280958e-20)
(132.564596756 -50.3709444086 -2.77318015521e-18)
(127.786211538 -57.1056214251 -3.36757130957e-19)
(117.797405117 -44.8816290769 -2.61623996327e-18)
(3.01252139141 63.3011670307 -6.82144090002e-18)
(-12.179261258 42.045391223 -5.92882100968e-18)
(11.5423635741 5.12469815901 -6.12606009823e-19)
(117.962498166 -11.0915087037 3.86716694176e-20)
(120.849289259 -13.3891624804 9.60654409855e-20)
(124.058980023 -16.000444629 -3.87247850173e-20)
(127.454138659 -19.0088222641 9.19301419074e-21)
(130.970874186 -22.5362839904 1.91392782672e-19)
(134.396614347 -26.7280524464 3.57154408407e-20)
(137.46270059 -31.7800164484 2.78492547321e-19)
(139.772856344 -37.9230775301 -7.98631146056e-20)
(140.783233594 -45.3729921223 3.07560037015e-19)
(139.750464257 -54.3434202938 2.45306850636e-18)
(136.421993565 -66.0340329931 4.85534468483e-18)
(127.248181256 -62.6734479322 -2.07960952363e-17)
(4.89051123117 38.3489207272 -2.79913467762e-17)
(-14.0563978148 29.6809670579 -1.84812145136e-17)
(4.72473402623 0.989164009752 -1.67874691495e-19)
(113.423354148 -0.264427789562 2.86961266397e-19)
(112.30919908 -2.38249976726 -6.66025425542e-19)
(117.441977268 -6.61739380938 7.01638266522e-20)
(120.141065858 -8.31402638392 1.4113330006e-20)
(123.236133546 -10.256859441 2.16689156068e-20)
(126.737786694 -12.5510027885 -1.07087537605e-20)
(130.590511259 -15.3311304272 1.21802093433e-19)
(134.714332229 -18.7689577943 4.45664659804e-20)
(138.964979355 -23.0997020404 7.87648524194e-20)
(143.122681982 -28.6140776284 1.73926798027e-19)
(146.874823687 -35.7280982052 -1.39266550931e-19)
(149.760306161 -44.9600728138 1.3819403804e-19)
(150.998854283 -56.8856099736 -1.61376769577e-18)
(150.893971583 -73.7511470315 5.91843178304e-18)
(146.398065271 -77.0154605955 6.14002248623e-18)
(22.487681004 21.5887625575 -2.74027094218e-17)
(-7.68322945544 21.0421479475 -1.45307141807e-17)
(-0.555412098852 1.08286476108 -1.83630518281e-20)
(114.592995309 0.0147173300247 -1.01624924103e-19)
(113.425357868 -1.52688408106 -1.63295829959e-18)
(114.502070398 -2.16237960298 2.86040900574e-20)
(116.457108211 -3.15496810885 1.58178323765e-19)
(118.874174449 -4.12204672099 3.2406331577e-20)
(121.750332131 -5.33713409192 -3.71731508446e-22)
(125.13768192 -6.80284711033 4.82400639718e-20)
(129.047278208 -8.65016094857 -3.12232906604e-20)
(133.462646006 -11.0356944234 8.39632809954e-20)
(138.362083894 -14.1652311346 4.65886851435e-20)
(143.673226915 -18.3262223964 -1.48374274911e-19)
(149.303277939 -23.893304584 1.11606854367e-19)
(155.072042329 -31.4292244655 -1.12575912863e-19)
(160.779992181 -41.7072690458 4.87057578836e-19)
(165.88476167 -55.7516996693 -4.01697736727e-19)
(171.327349145 -77.5223894111 9.86174475418e-18)
(175.440472274 -89.0871521811 1.15048995165e-17)
(48.114790651 -0.934207450746 2.11341149058e-18)
(-9.35831864848 15.7008586507 3.39845260083e-17)
(3.65280463003 -8.61802594662 1.23349613111e-18)
(115.186675811 0.300365874819 8.67117208364e-20)
(113.951320632 -0.619082340971 -7.59733517629e-20)
(115.10230327 -0.669857429169 1.72685482394e-19)
(117.160823474 -1.07209670517 1.04670200094e-19)
(119.699039825 -1.46350433844 3.72322536914e-20)
(122.787342555 -2.09270448141 -4.61379688986e-20)
(126.487471533 -2.96934441017 2.74506748289e-21)
(130.841376951 -4.22689341773 1.39929957109e-20)
(135.881019363 -6.01898797104 6.70155134211e-20)
(141.621601374 -8.56284915829 1.96183212913e-20)
(148.116795565 -12.1633506106 5.2320137857e-20)
(155.407783932 -17.2284127518 1.73119391333e-20)
(163.535318572 -24.366632186 -5.0494219646e-20)
(172.610164122 -34.4673714279 1.94202349056e-19)
(182.663944626 -48.6103494012 4.85390061433e-19)
(195.298109878 -71.3457286994 3.02020090115e-18)
(211.895700702 -85.943904633 9.59481816181e-18)
(89.1974949099 -15.8810075051 1.03869986118e-17)
(2.46573858232 7.74448965388 -7.60379878473e-18)
(4.7106351079 1.84096721327 3.02356971334e-19)
(115.159424432 0.589721532178 3.83128759135e-19)
(113.85415798 0.335143251863 8.70998688479e-20)
(115.055434861 0.90559728744 2.02548032014e-19)
(117.203019232 1.12405520655 2.43187147626e-20)
(119.883410578 1.36660790447 8.73956247551e-20)
(123.180697804 1.4124309038 2.90111889192e-20)
(127.183683865 1.23974319331 1.61396352236e-20)
(131.944461252 0.73573282089 1.58630018655e-20)
(137.570435492 -0.260717835848 4.80659298342e-21)
(144.134978376 -1.93160668764 3.3231155079e-20)
(151.796884899 -4.5394251379 5.12811603215e-20)
(160.723307672 -8.47843177239 -1.2272738529e-19)
(171.223955196 -14.3101072222 2.15950905049e-19)
(183.630823384 -22.8521310652 -2.45012150065e-19)
(198.673980105 -34.885105687 -2.27383373256e-19)
(218.131429231 -54.6411235172 2.66804840119e-19)
(245.762800842 -68.0829613439 -3.83034393752e-18)
(131.547231043 -17.6953668108 3.88845551951e-18)
(12.6767824473 4.00983968101 2.56290000802e-18)
(1.44165098134 0.368109832426 -9.53008009418e-20)
(114.487302297 0.882195613854 6.43181259202e-19)
(113.115820379 1.31582248142 -1.47610652997e-19)
(114.343790109 2.53461767133 -1.30080672502e-19)
(116.561431505 3.43199136521 1.17851039368e-19)
(119.361755838 4.37081753901 5.55894297033e-20)
(122.828586444 5.16306451041 3.50272278601e-22)
(127.071255674 5.77999956166 -2.96797319435e-20)
(132.175917595 6.15397874474 -2.98164882578e-20)
(138.293285677 6.16987140845 -1.62320852124e-20)
(145.575689495 5.66281412032 -2.28398098594e-20)
(154.225210877 4.4260959025 3.90578806367e-21)
(164.553278923 2.19776152092 -1.88029670063e-19)
(177.022056838 -1.51189387271 9.06994464371e-20)
(192.233156999 -7.30753806572 8.04944334146e-20)
(211.364939103 -15.4843600542 1.52405845763e-18)
(236.025961332 -29.5390498767 2.51886351262e-18)
(271.707275534 -39.7637491056 3.56952657208e-18)
(164.827202437 -10.4745719941 -4.27347973067e-18)
(15.8109161179 1.77774413647 -1.67469502904e-18)
(0.507548098347 0.0399126007118 -3.74169264798e-21)
(113.169958867 1.18062611115 5.02596247655e-19)
(111.737471024 2.32576220103 3.61885927733e-20)
(112.96302794 4.21333083157 -5.82233311062e-20)
(115.222226021 5.81520337347 1.80011289885e-19)
(118.085770839 7.4854990433 4.43700480271e-20)
(121.655033246 9.07651790829 1.07182435532e-20)
(126.051106362 10.5782317308 -9.69871132416e-23)
(131.414443351 11.9554860075 -8.01469490859e-21)
(137.871180227 13.1338871617 -6.12141006349e-20)
(145.64234657 13.9968941883 -5.81521611585e-21)
(154.990389809 14.4430471121 -1.3131479973e-19)
(166.324923858 14.3261094877 -2.79749398439e-19)
(180.120054919 13.3360323323 1.91443829413e-19)
(197.243976868 11.1618602643 -5.49684619787e-19)
(218.95055864 7.79070093325 3.50884510162e-19)
(246.768518591 1.20201127895 1.00745205622e-18)
(287.027435539 -5.42941117637 -6.2340402573e-19)
(186.814778889 2.02132479478 -9.11566218711e-18)
(14.2415003857 1.14929663946 -2.55471516171e-19)
(0.356443088175 0.082475461843 -2.3072767105e-21)
(111.167028102 1.49230337236 4.65395861999e-19)
(109.662929733 3.33886085464 -4.54433093033e-19)
(110.882277131 5.89278814776 -5.8847523601e-20)
(113.136177251 8.22921137603 6.43024372434e-20)
(116.013799669 10.6579737718 -3.19631164861e-22)
(119.612031698 13.0870159172 7.92653219525e-21)
(124.065690551 15.5287203515 -9.82745451158e-21)
(129.518987594 17.9688757129 4.5078818941e-20)
(136.137043368 20.395193155 8.02302402292e-21)
(144.118944029 22.7843593413 -2.7713891426e-20)
(153.823664468 25.1187316467 5.67468616595e-20)
(165.615154228 27.3490048585 -2.23921894543e-19)
(180.045979649 29.4014467237 1.06385212201e-19)
(198.02784224 31.1761065655 -7.48099316804e-19)
(220.816643007 32.9338770337 3.47757100173e-19)
(249.859005429 34.3237930957 1.58246203845e-18)
(292.946301723 29.4982325424 3.38223552271e-18)
(195.500067098 15.6420432371 2.26766355776e-18)
(9.8721572734 1.0058451846 -4.20767587642e-19)
(0.282614578591 0.188525860045 -5.75167382634e-21)
)
;

boundaryField
{
    back
    {
        type            calculated;
        value           uniform (0 0 0);
    }
    sides
    {
        type            calculated;
        value           nonuniform List<vector> 0();
    }
    bottom
    {
        type            calculated;
        value           uniform (0 0 0);
    }
    front
    {
        type            calculated;
        value           uniform (0 0 0);
    }
    atmosphere
    {
        type            calculated;
        value           nonuniform List<vector> 9((-25.1325953614 5.12469815901 1.07294007631e-18) (14.4281113376 0.989164009752 -3.91475878565e-19) (5.26147161423 1.08286476108 -2.44922409618e-18) (7.66199596037 -8.61802594873 2.49260028417e-18) (-5.6591054153 1.84096717815 -8.53954033889e-19) (2.25214761684 0.368110630037 1.16234532808e-19) (0.0923503167774 0.0399127862476 2.35476252246e-21) (-0.00012673163831 0.0824754602062 -3.4352219453e-24) (-7.53091189371e-05 0.188525859999 2.5181790376e-24));
    }
    floatingObject
    {
        type            calculated;
        value           nonuniform List<vector> 0();
    }
    procBoundary0to1
    {
        type            processor;
        value           nonuniform List<vector> 10((126.904736868 -32.1518875747 -7.10378127342e-20) (129.25990325 -35.7462908317 2.07595230336e-20) (130.634925049 -39.3744539698 -3.19695685605e-19) (130.569020409 -43.0113414895 -2.10608112006e-19) (128.559291354 -46.6322234718 6.61205421291e-19) (123.877266151 -50.5370236333 -6.08249163394e-19) (119.484026071 -30.5069589301 1.08010930389e-17) (30.1786346731 79.2757565208 2.65719637282e-17) (5.69079446545 39.5253006331 1.21728136338e-17) (21.7638613962 5.41884589001 3.87867983486e-19));
    }
    procBoundary0to2
    {
        type            processor;
        value           nonuniform List<vector> 
14
(
(117.934257146 -22.1408097809 1.01903848608e-20)
(121.002449068 -25.3135012942 2.46311678962e-20)
(124.068174697 -28.6531609895 1.32910969218e-19)
(115.355980644 -13.6804332939 1.14353691164e-19)
(118.081123944 -16.3432161615 1.31836837338e-19)
(118.081123944 -16.3432161615 1.31836837338e-19)
(111.667363356 -0.517268308019 9.20633821018e-19)
(110.614707125 -3.20094342204 2.04966784337e-19)
(115.447179332 -8.96034902698 8.37610447258e-20)
(115.447179332 -8.96034902698 8.37610447258e-20)
(113.339707337 -3.56968305114 8.47741555061e-20)
(113.339707337 -3.56968305114 8.47741555061e-20)
(115.172977008 -5.13460495631 -2.363456322e-21)
(115.172977008 -5.13460495631 -2.363456322e-21)
)
;
    }
    procBoundary0to4
    {
        type            processor;
        value           nonuniform List<vector> 8((108.471986718 1.78290230568 1.34859180183e-19) (106.890383672 4.3448351502 5.01970235323e-20) (108.097038382 7.56253936547 1.1653188259e-19) (110.299377364 10.6165845403 -1.61618003385e-20) (113.123827178 13.8102622425 1.85440401319e-21) (116.659175653 17.0835538348 1.90001017922e-20) (121.044278661 20.4741047502 1.97372560156e-21) (126.439050248 24.025120815 1.28178660451e-20));
    }
    procBoundary0to5
    {
        type            processor;
        value           nonuniform List<vector> 
12
(
(132.999036626 27.7352013713 5.39631226581e-21)
(140.9296342 31.6852047316 2.30405351036e-20)
(150.560623947 35.9489249308 5.76259486074e-20)
(162.240916669 40.5832687758 9.46910125574e-20)
(176.5396129 45.7745846182 3.58117804363e-19)
(194.298161523 51.6553906707 2.37619123542e-19)
(216.931455078 58.4145577741 1.54813710046e-19)
(245.792617457 67.7485976671 2.63417200619e-18)
(289.382362151 67.2152017617 -6.9997129896e-19)
(191.177139953 30.8023330535 -6.10059969449e-18)
(4.72289811075 0.934703504356 -2.69682418726e-19)
(0.231716564007 0.28307410839 -1.88326411944e-20)
)
;
    }
}


// ************************************************************************* //
