/*--------------------------------*- C++ -*----------------------------------*\
| =========                 |                                                 |
| \\      /  F ield         | OpenFOAM: The Open Source CFD Toolbox           |
|  \\    /   O peration     | Version:  v2012                                 |
|   \\  /    A nd           | Website:  www.openfoam.com                      |
|    \\/     M anipulation  |                                                 |
\*---------------------------------------------------------------------------*/
FoamFile
{
    version     2.0;
    format      ascii;
    class       volScalarField;
    location    "2.4";
    object      epsilon_0;
}
// * * * * * * * * * * * * * * * * * * * * * * * * * * * * * * * * * * * * * //

dimensions      [0 2 -3 0 0 0 0];


internalField   nonuniform List<scalar> 
166
(
0.00436881967466
0.00438278322599
0.00439939773746
0.00442181715752
0.00446041585465
0.00454481490539
0.00474703618382
0.00521306781482
0.00619297541664
0.00811487780253
0.0119934821768
0.0221136712421
0.0795067542133
0.00435689326085
0.00436869632259
0.00438078893427
0.00439443165912
0.00441064274418
0.00443244036825
0.00446980633893
0.0045515780147
0.00474885872633
0.00521153262154
0.00623075610005
0.00843561769503
0.0133789740944
0.0242519117649
0.0754515643884
0.00374483032967
0.00386506192648
0.00435293452054
0.00436878251789
0.00438037138696
0.0043922510404
0.00440565841107
0.0044215557676
0.00444280926609
0.00447894826234
0.00455771422977
0.00474837697735
0.00520286982022
0.00625277221303
0.00873815420993
0.0148547695817
0.0292358605594
0.0869971295502
0.00375531225976
0.00387638614647
0.00421602078608
0.00432768044639
0.00436429266825
0.00437998068344
0.00439143803281
0.00440318762158
0.0044164478772
0.00443212579071
0.00445292351208
0.00448790031963
0.00456362486509
0.00474748034017
0.00519295997162
0.00626151815707
0.00892125526919
0.015665248912
0.0328769801715
0.104075074119
0.00376474453726
0.00388681565624
0.00422684877788
0.00433841403501
0.00437488144505
0.00439047152622
0.00440187002932
0.00441357177189
0.00442677873759
0.00444233271344
0.00446277914455
0.0044966831287
0.00456947914587
0.00474691825419
0.00518459754526
0.00626750793699
0.00904044721902
0.0161214544286
0.0341601522346
0.0930636683624
0.00377301352693
0.00389630812751
0.00423674374137
0.00434826309367
0.00438465877639
0.00440022710996
0.00441163869316
0.00442336211165
0.00443659528299
0.00445213022928
0.00447233596109
0.00450526588777
0.00457524323165
0.00474656176932
0.0051771331763
0.0062710524253
0.0091233037228
0.0164091224043
0.0353851443136
0.109361792183
0.00378005547251
0.00390479619635
0.00424566718999
0.0043572054353
0.00439359530951
0.00440920131013
0.00442068977289
0.00443252327414
0.0044458752749
0.00446149714137
0.00448156226418
0.00451361210231
0.00458080572854
0.00474605644341
0.00516927651242
0.00626963924445
0.00917460027067
0.016609726319
0.0376050898227
0.142350697109
0.00378585812898
0.0039122612449
0.00425358718693
0.00436521048146
0.00440165442766
0.00441735870083
0.00442899585198
0.00444103418187
0.00445459937442
0.00447039222207
0.00449042390149
0.00452170182795
0.00458616833891
0.00474521966634
0.00515996816992
0.00626078581487
0.00919139426174
0.0167452907026
0.0401644425262
0.155337260469
0.00379034500337
0.00391855265774
0.00426038370007
0.0043721881691
0.00440876844634
0.0044246472736
0.00443651389887
0.00444882735478
0.00446270566487
0.00447877737549
0.00449889843585
0.00452951310871
0.0045913707436
0.00474414683454
0.00514943543551
0.00624489990724
0.00917889318162
0.01681896057
0.0438056944585
0.158336266269
)
;

boundaryField
{
    back
    {
        lowReCorrection 0;
        blending        stepwise;
        n               2;
        type            epsilonWallFunction;
        value           nonuniform List<scalar> 
166
(
0.00436881967466
0.00438278322599
0.00439939773746
0.00442181715752
0.00446041585465
0.00454481490539
0.00474703618382
0.00521306781482
0.00619297541664
0.00811487780253
0.0119934821768
0.0221136712421
0.0795067542133
0.00435689326085
0.00436869632259
0.00438078893427
0.00439443165912
0.00441064274418
0.00443244036825
0.00446980633893
0.0045515780147
0.00474885872633
0.00521153262154
0.00623075610005
0.00843561769503
0.0133789740944
0.0242519117649
0.0754515643884
0.00374483032967
0.00386506192648
0.00435293452054
0.00436878251789
0.00438037138696
0.0043922510404
0.00440565841107
0.0044215557676
0.00444280926609
0.00447894826234
0.00455771422977
0.00474837697735
0.00520286982022
0.00625277221303
0.00873815420993
0.0148547695817
0.0292358605594
0.0869971295502
0.00375531225976
0.00387638614647
0.00421602078608
0.00432768044639
0.00436429266825
0.00437998068344
0.00439143803281
0.00440318762158
0.0044164478772
0.00443212579071
0.00445292351208
0.00448790031963
0.00456362486509
0.00474748034017
0.00519295997162
0.00626151815707
0.00892125526919
0.015665248912
0.0328769801715
0.104075074119
0.00376474453726
0.00388681565624
0.00422684877788
0.00433841403501
0.00437488144505
0.00439047152622
0.00440187002932
0.00441357177189
0.00442677873759
0.00444233271344
0.00446277914455
0.0044966831287
0.00456947914587
0.00474691825419
0.00518459754526
0.00626750793699
0.00904044721902
0.0161214544286
0.0341601522346
0.0930636683624
0.00377301352693
0.00389630812751
0.00423674374137
0.00434826309367
0.00438465877639
0.00440022710996
0.00441163869316
0.00442336211165
0.00443659528299
0.00445213022928
0.00447233596109
0.00450526588777
0.00457524323165
0.00474656176932
0.0051771331763
0.0062710524253
0.0091233037228
0.0164091224043
0.0353851443136
0.109361792183
0.00378005547251
0.00390479619635
0.00424566718999
0.0043572054353
0.00439359530951
0.00440920131013
0.00442068977289
0.00443252327414
0.0044458752749
0.00446149714137
0.00448156226418
0.00451361210231
0.00458080572854
0.00474605644341
0.00516927651242
0.00626963924445
0.00917460027067
0.016609726319
0.0376050898227
0.142350697109
0.00378585812898
0.0039122612449
0.00425358718693
0.00436521048146
0.00440165442766
0.00441735870083
0.00442899585198
0.00444103418187
0.00445459937442
0.00447039222207
0.00449042390149
0.00452170182795
0.00458616833891
0.00474521966634
0.00515996816992
0.00626078581487
0.00919139426174
0.0167452907026
0.0401644425262
0.155337260469
0.00379034500337
0.00391855265774
0.00426038370007
0.0043721881691
0.00440876844634
0.0044246472736
0.00443651389887
0.00444882735478
0.00446270566487
0.00447877737549
0.00449889843585
0.00452951310871
0.0045913707436
0.00474414683454
0.00514943543551
0.00624489990724
0.00917889318162
0.01681896057
0.0438056944585
0.158336266269
)
;
    }
    sides
    {
        lowReCorrection 0;
        blending        stepwise;
        n               2;
        type            epsilonWallFunction;
        value           nonuniform List<scalar> 0();
    }
    bottom
    {
        lowReCorrection 0;
        blending        stepwise;
        n               2;
        type            epsilonWallFunction;
        value           nonuniform List<scalar> 7(0.00374483032967 0.00375531225976 0.00376474453726 0.00377301352693 0.00378005547251 0.00378585812898 0.00379034500337);
    }
    front
    {
        lowReCorrection 0;
        blending        stepwise;
        n               2;
        type            epsilonWallFunction;
        value           nonuniform List<scalar> 
166
(
0.00436881967466
0.00438278322599
0.00439939773746
0.00442181715752
0.00446041585465
0.00454481490539
0.00474703618382
0.00521306781482
0.00619297541664
0.00811487780253
0.0119934821768
0.0221136712421
0.0795067542133
0.00435689326085
0.00436869632259
0.00438078893427
0.00439443165912
0.00441064274418
0.00443244036825
0.00446980633893
0.0045515780147
0.00474885872633
0.00521153262154
0.00623075610005
0.00843561769503
0.0133789740944
0.0242519117649
0.0754515643884
0.00374483032967
0.00386506192648
0.00435293452054
0.00436878251789
0.00438037138696
0.0043922510404
0.00440565841107
0.0044215557676
0.00444280926609
0.00447894826234
0.00455771422977
0.00474837697735
0.00520286982022
0.00625277221303
0.00873815420993
0.0148547695817
0.0292358605594
0.0869971295502
0.00375531225976
0.00387638614647
0.00421602078608
0.00432768044639
0.00436429266825
0.00437998068344
0.00439143803281
0.00440318762158
0.0044164478772
0.00443212579071
0.00445292351208
0.00448790031963
0.00456362486509
0.00474748034017
0.00519295997162
0.00626151815707
0.00892125526919
0.015665248912
0.0328769801715
0.104075074119
0.00376474453726
0.00388681565624
0.00422684877788
0.00433841403501
0.00437488144505
0.00439047152622
0.00440187002932
0.00441357177189
0.00442677873759
0.00444233271344
0.00446277914455
0.0044966831287
0.00456947914587
0.00474691825419
0.00518459754526
0.00626750793699
0.00904044721902
0.0161214544286
0.0341601522346
0.0930636683624
0.00377301352693
0.00389630812751
0.00423674374137
0.00434826309367
0.00438465877639
0.00440022710996
0.00441163869316
0.00442336211165
0.00443659528299
0.00445213022928
0.00447233596109
0.00450526588777
0.00457524323165
0.00474656176932
0.0051771331763
0.0062710524253
0.0091233037228
0.0164091224043
0.0353851443136
0.109361792183
0.00378005547251
0.00390479619635
0.00424566718999
0.0043572054353
0.00439359530951
0.00440920131013
0.00442068977289
0.00443252327414
0.0044458752749
0.00446149714137
0.00448156226418
0.00451361210231
0.00458080572854
0.00474605644341
0.00516927651242
0.00626963924445
0.00917460027067
0.016609726319
0.0376050898227
0.142350697109
0.00378585812898
0.0039122612449
0.00425358718693
0.00436521048146
0.00440165442766
0.00441735870083
0.00442899585198
0.00444103418187
0.00445459937442
0.00447039222207
0.00449042390149
0.00452170182795
0.00458616833891
0.00474521966634
0.00515996816992
0.00626078581487
0.00919139426174
0.0167452907026
0.0401644425262
0.155337260469
0.00379034500337
0.00391855265774
0.00426038370007
0.0043721881691
0.00440876844634
0.0044246472736
0.00443651389887
0.00444882735478
0.00446270566487
0.00447877737549
0.00449889843585
0.00452951310871
0.0045913707436
0.00474414683454
0.00514943543551
0.00624489990724
0.00917889318162
0.01681896057
0.0438056944585
0.158336266269
)
;
    }
    atmosphere
    {
        type            inletOutlet;
        inletValue      uniform 0.1;
        value           nonuniform List<scalar> 9(0.0795067542133 0.1 0.0869971295502 0.104075074119 0.1 0.1 0.1 0.1 0.1);
    }
    floatingObject
    {
        lowReCorrection 0;
        blending        stepwise;
        n               2;
        type            epsilonWallFunction;
        value           nonuniform List<scalar> 0();
    }
    procBoundary0to1
    {
        type            processor;
        value           nonuniform List<scalar> 10(0.00441093577319 0.00445079769853 0.00453754550662 0.00474316644461 0.00520894152709 0.00615875825902 0.00794442284082 0.0116711624273 0.024580895694 0.0869987550258);
    }
    procBoundary0to2
    {
        type            processor;
        value           nonuniform List<scalar> 
14
(
0.00435633783278
0.00437070166516
0.00438779204529
0.00434434315064
0.00435642911193
0.00435642911193
0.00373335350397
0.00385292284204
0.00434082098893
0.00434082098893
0.00420433360555
0.00420433360555
0.00431612701797
0.00431612701797
)
;
    }
    procBoundary0to4
    {
        type            processor;
        value           nonuniform List<scalar> 8(0.00379353126875 0.00392353295954 0.00426593596339 0.00437804208032 0.00441486053387 0.00443099887611 0.00444317669251 0.00445585584138);
    }
    procBoundary0to5
    {
        type            processor;
        value           nonuniform List<scalar> 
12
(
0.00447014788303
0.00448662832001
0.00450696214983
0.00453708426768
0.0045965630431
0.00474333020019
0.00513942313523
0.00623138377453
0.00916938510999
0.0166481843547
0.0420849111629
0.14857814188
)
;
    }
}


// ************************************************************************* //
