/*--------------------------------*- C++ -*----------------------------------*\
| =========                 |                                                 |
| \\      /  F ield         | OpenFOAM: The Open Source CFD Toolbox           |
|  \\    /   O peration     | Version:  v2012                                 |
|   \\  /    A nd           | Website:  www.openfoam.com                      |
|    \\/     M anipulation  |                                                 |
\*---------------------------------------------------------------------------*/
FoamFile
{
    version     2.0;
    format      ascii;
    class       surfaceVectorField;
    location    "1.2";
    object      ddtCorrDdt0(Uf);
}
// * * * * * * * * * * * * * * * * * * * * * * * * * * * * * * * * * * * * * //

dimensions      [0 1 -2 0 0 0 0];


internalField   nonuniform List<vector> 
304
(
(0.157086966755 0.032810111702 5.09171635537e-24)
(0.151900434199 0.0293165310108 -4.20811928898e-23)
(0.159200761328 0.0416226190771 7.32605491677e-24)
(0.153608939203 0.0381633774032 1.29389719612e-23)
(0.161769517266 0.0508965502735 6.47836928309e-24)
(0.15573347165 0.0473986532381 3.91299456167e-23)
(0.164764496513 0.0607484371778 4.03040226267e-23)
(0.158238331564 0.0571405392059 1.3532033954e-24)
(0.168156079349 0.0713312014532 1.13999165778e-22)
(0.161094850427 0.0675188854391 -2.44430527334e-23)
(0.171899992841 0.0827827524607 8.47859829486e-23)
(0.164257253012 0.0786738427706 1.34749867995e-22)
(0.175938782792 0.0953161634688 -1.30232613412e-23)
(0.16767371562 0.0907676632145 4.42420640595e-24)
(0.171230312231 0.103948529036 -8.76435768417e-23)
(0.146167678461 0.0169966053862 -4.40068198165e-22)
(0.141754113171 0.0131314733029 6.51767220136e-23)
(0.146841442959 0.0256381144117 -4.93054362666e-22)
(0.141995611598 0.0215666133308 -9.07434155846e-22)
(0.148136946801 0.0345172091751 -3.4233937284e-23)
(0.14295583854 0.0306678328409 6.0581139662e-23)
(0.149849115883 0.0437271448341 4.47428626611e-23)
(0.144322838989 0.0398796349565 -1.57623090744e-23)
(0.151904233764 0.0533746141737 3.4004779729e-23)
(0.146003062734 0.0494504815109 1.48051160089e-23)
(0.154264872206 0.0635720935095 -6.33938719647e-23)
(0.147953797108 0.0594964026806 -9.17973221986e-24)
(0.156886995295 0.0744537397345 -3.69235051669e-24)
(0.15013303858 0.0701348632393 -6.65338865796e-23)
(0.1597136131 0.0861527991506 5.43880914522e-23)
(0.152482109997 0.0814935026129 7.31355074309e-23)
(0.162652786558 0.0988214237689 -7.01961090946e-23)
(0.154929996036 0.0937021117956 -8.32899484283e-24)
(0.165611000113 0.112612257232 -1.82141788817e-23)
(0.157347154161 0.106897295872 -8.58722034337e-23)
(0.159650038142 0.121228964455 5.33331799833e-23)
(0.137334416458 0.0176986858213 -4.02189235668e-22)
(0.132827105351 0.0136354428649 4.60401287344e-22)
(0.137847177782 0.0266822851169 -3.53798653518e-22)
(0.132964739993 0.0223588657443 -3.36899882643e-22)
(0.138868860316 0.0358803340202 7.90527678715e-23)
(0.133699980072 0.0317381587914 1.43520027756e-22)
(0.140201773857 0.0453870236989 -4.57000557267e-23)
(0.134747506438 0.0412150897258 -3.27312450448e-23)
(0.141776782529 0.0552986815367 -2.837939594e-23)
(0.136014899013 0.0510215818833 -1.21811214656e-23)
(0.143547689212 0.0657188749718 -1.23197468348e-23)
(0.137454869454 0.0612619814811 -1.45104030519e-23)
(0.145459282471 0.0767639917589 1.0293971368e-23)
(0.139015183074 0.0720396870866 -2.86968386221e-23)
(0.147437974086 0.0885558834333 1.04184211359e-23)
(0.140628489579 0.0834646701962 4.28538312237e-23)
(0.149384005676 0.101190153402 -2.4005089182e-23)
(0.142197962363 0.0956434333082 -1.73187427274e-23)
(0.151182179422 0.114849979525 -1.43248445688e-23)
(0.14362301327 0.10868530761 -2.90368186852e-23)
(0.128229999569 0.0182544546915 5.2569064037e-22)
(0.12365322048 0.0140279727867 1.64514030306e-21)
(0.128582588211 0.0274904536745 1.60418798631e-22)
(0.123685133166 0.0229645714789 1.43780064924e-22)
(0.129343891321 0.0369224771903 3.17360148397e-23)
(0.12421348164 0.0325417344038 -8.64322021833e-24)
(0.13032819129 0.0466345992309 7.87689216244e-25)
(0.124969746931 0.0422007570184 -2.83252677488e-23)
(0.131465134598 0.0567130915044 1.68787142247e-24)
(0.125864675244 0.0521542798555 1.1991129258e-23)
(0.132702367106 0.0672484464704 -3.08874948392e-23)
(0.126846298245 0.0624936379591 -1.90143545772e-23)
(0.133976589626 0.0783406486446 3.8630212336e-24)
(0.127857046833 0.0733069252108 -1.84938069397e-23)
(0.135202664124 0.0900836988902 1.51166673604e-23)
(0.128821427231 0.0846832539528 -1.47496188996e-24)
(0.136270468352 0.10257278995 -2.23504722306e-23)
(0.129638922921 0.0967075342157 4.45701906707e-24)
(0.130167455855 0.109464956906 5.34653834806e-24)
(0.119289896905 0.00932439538631 1.59440268979e-21)
(0.114988732684 0.00495701486127 5.61745936877e-22)
(0.118907993701 0.0186636182803 1.26322972761e-21)
(0.11428090211 0.0143203732135 1.62373074066e-21)
(0.119114709944 0.0280817356007 -2.52819539261e-23)
(0.114224216915 0.0233989907026 -5.29982348274e-22)
(0.119641818751 0.0376720931982 -6.87045028069e-23)
(0.114569355792 0.0331052506722 1.05491810468e-23)
(0.120314762501 0.0475102412514 -1.7121827707e-23)
(0.115068913767 0.0428739951563 -3.37917579694e-23)
(0.121063354035 0.0576702780966 -8.71109674165e-24)
(0.115637022777 0.0528982850179 -1.10280231882e-23)
(0.12183148388 0.0682300170168 -6.62066667779e-24)
(0.116220430806 0.0632559512681 -4.01390853252e-24)
(0.122551377403 0.0792704397183 -2.38317900633e-23)
(0.116757844133 0.0740196561501 1.43981016689e-23)
(0.123125679017 0.0908629001616 -1.21346101833e-23)
(0.117172540405 0.085249943233 -1.90846527385e-23)
(0.123442825563 0.103063740161 3.21540296457e-23)
(0.117327978356 0.0970217539821 2.64391081365e-23)
(0.11715822175 0.109394714566 4.76204494426e-23)
(0.109857808762 0.00947239331662 5.91073987749e-22)
(0.105489805939 0.00497392262915 -2.2318149347e-23)
(0.109428769515 0.0189448609729 -1.6948133522e-22)
(0.104773948662 0.0145212373145 -2.05027164669e-22)
(0.109510560859 0.0284807490837 -4.94151213301e-22)
(0.104644476437 0.0236841610838 -7.79086517458e-22)
(0.109834158194 0.0381640744619 4.54619258844e-23)
(0.104833283825 0.0334598808352 1.03669860728e-22)
(0.110237613336 0.0480596948345 -2.76979534505e-23)
(0.105113517301 0.0432768099419 -2.12107230905e-23)
(0.110652415646 0.0582303809801 -6.33083497906e-24)
(0.105404479568 0.0533082664305 -9.11410799951e-24)
(0.111021264601 0.0687399917163 1.70048598142e-23)
(0.105652301052 0.0636189752132 1.80565935414e-23)
(0.111267962181 0.0796525534153 1.91452389936e-23)
(0.105796296175 0.0742593841295 -2.81506526624e-23)
(0.111299771816 0.0909830295808 1.94890655812e-23)
(0.105730265956 0.0852744020443 1.00168166916e-23)
(0.111009291692 0.102860177456 4.19055279334e-23)
(0.105403472715 0.0967291830099 3.25925701919e-23)
(0.100310956054 0.00956545591785 -8.18419301765e-22)
(0.0958949721713 0.00496685093884 -1.12835860771e-22)
(0.0998510282506 0.0191162060965 -8.14632346908e-22)
(0.0951862974645 0.0146442047441 1.40466892704e-22)
(0.0998297754925 0.0287153175752 -1.8126544343e-22)
(0.0950008817104 0.0238432248252 3.3343261421e-22)
(0.0999826692543 0.0384361376283 3.69972117526e-23)
(0.0950611174109 0.0336389376712 6.45990789461e-23)
(0.100160831449 0.0483328641988 -2.62687763951e-24)
(0.0951611166277 0.0434535586309 -1.45019860957e-23)
(0.100298472003 0.0584564610078 1.5273320521e-23)
(0.0952254555482 0.0534410107127 -5.23820741852e-24)
(0.100336100569 0.0688584072653 -2.70989189351e-23)
(0.0952011941841 0.0636510320711 -1.67800729073e-25)
(0.100197105953 0.0795570974227 -3.72790749644e-23)
(0.095017719072 0.0741139489449 -5.31531052619e-23)
(0.0998011071414 0.0906245079175 2.31203213023e-23)
(0.094606587365 0.0848717288633 5.58148154981e-24)
(0.090699263363 0.00961253108535 8.46050333698e-22)
(0.086250378489 0.00494068923167 4.53402400871e-22)
(0.090224616872 0.0191965415214 1.28853185382e-21)
(0.0855637720651 0.0147029366789 1.30402756481e-21)
(0.090122611323 0.0288140588758 5.79297136586e-22)
(0.0853390379093 0.0238996033988 3.08977391597e-22)
(0.0901381981487 0.0385276440038 1.30998810977e-23)
(0.0852984717411 0.0336762601932 1.35715074836e-22)
(0.0901357965648 0.0483804903532 -1.71133158748e-23)
(0.0852571685437 0.0434490839172 -4.25432194256e-25)
(0.0900527245938 0.0584120422049 -2.06793286686e-23)
(0.0851452379772 0.0533530457605 -3.36046604103e-23)
(0.0898282834587 0.0686519212116 -2.62219870559e-23)
(0.0849103022176 0.0634213549857 -2.35252669343e-23)
(0.0893964177237 0.0791198508288 -1.02925487477e-23)
(0.0844856102378 0.0736761460977 -3.34346170466e-23)
(0.0838123851052 0.0841405529724 -2.05248874821e-23)
(0.0810643097212 0.00962238697486 9.11379631985e-22)
(0.0765943698349 0.00489969545772 -6.34048545778e-22)
(0.0805903301976 0.0192042607815 3.24473102588e-22)
(0.0759428815995 0.0147103109676 1.95859034995e-21)
(0.0804293771615 0.0288054389298 -1.34604670153e-22)
(0.0756945804045 0.0238761264751 -1.93208498324e-22)
(0.0803405527939 0.038477654801 1.22189761544e-22)
(0.0755800930699 0.033605128674 1.47558293119e-22)
(0.0802017945829 0.0482528725705 -1.69167767298e-23)
(0.0754355232827 0.0433076466034 3.06840011407e-24)
(0.0799539280077 0.0581585406229 -3.64505986761e-23)
(0.0751969099512 0.0531001996146 -2.99982566113e-23)
(0.0795411525878 0.0682065425241 -3.0737896925e-23)
(0.07481377245 0.06300336546 -2.06795359873e-23)
(0.0788991119193 0.0784227310738 -4.3666955781e-23)
(0.074232408064 0.0730282987432 -2.80131005882e-23)
(0.0733744282526 0.0831848523798 -3.54825282305e-23)
(0.0714399090307 0.00960285298515 4.13162172188e-22)
(0.0669573970478 0.00484704607905 -9.8268329384e-22)
(0.0709801114811 0.0191567081857 1.44090874904e-21)
(0.0663503865591 0.0146778561079 1.76231875072e-21)
(0.0707808786789 0.0287169355052 8.89544649478e-23)
(0.0660927167159 0.0237946212119 2.22171478164e-22)
(0.0706193207032 0.0383242602923 2.84369316884e-23)
(0.0659296999458 0.0334578086231 6.64157451439e-23)
(0.070387134213 0.04799947701 -1.00130797674e-23)
(0.0657182373822 0.0430724671046 -1.37312537115e-23)
(0.0700297083845 0.0577582856219 -1.42271939226e-23)
(0.0654006410827 0.0527379141011 -1.85088487864e-24)
(0.0694966617112 0.067606028797 -1.79547396505e-23)
(0.0649303750998 0.0624653744292 -4.80089765358e-25)
(0.0687264496627 0.077543005523 -1.98286730377e-23)
(0.0642564658544 0.0722527822448 -2.87899469015e-23)
(0.0676494739093 0.0875789505843 -2.02797286603e-23)
(0.0633157910559 0.0821024704753 -2.78194969759e-23)
(0.0620277449524 0.0920110124443 -4.54467662131e-23)
(0.0618509596867 0.00956037769349 3.6647328469e-22)
(0.0573630941162 0.00478434129989 2.87091814539e-23)
(0.0614153719453 0.0190699567782 5.43581479842e-22)
(0.0568030044382 0.0146153003958 3.37090543581e-21)
(0.0611967280481 0.0285748755827 1.9963275836e-22)
(0.0565479092813 0.0236758824608 1.00488080147e-21)
(0.060992122546 0.0381043557408 2.4247559744e-23)
(0.0563599698024 0.0332652789223 1.03258852316e-22)
(0.0607068909273 0.0476685944138 -5.56905882269e-24)
(0.0561153894309 0.0427850145718 5.58952491861e-23)
(0.0602918048092 0.0572729647558 1.18962192786e-23)
(0.0557627259268 0.0523192499507 -7.82592301606e-24)
(0.0597003139961 0.0669157907041 -1.13152970164e-23)
(0.0552601624291 0.061870470684 2.90713237762e-23)
(0.0588786488468 0.0765840749781 -3.67807708397e-23)
(0.0545607660303 0.0714276658632 -1.26980639689e-23)
(0.0577592427138 0.0862721325853 -5.29865345287e-23)
(0.0536105653702 0.0809799564056 -2.28240244095e-23)
(0.0523371046021 0.0905202827637 -6.29159974598e-23)
(0.0523085909031 0.00949966744406 3.03314133257e-21)
(0.0478300087587 0.00471060859772 -6.24112217682e-22)
(0.051900970654 0.0189585645024 3.83220475744e-21)
(0.0473072170241 0.0145295240421 3.2907996971e-21)
(0.0516791782227 0.0284042465254 9.08506895426e-22)
(0.0470638689008 0.0235396472729 7.213069602e-22)
(0.0514585738182 0.03785292189 1.34906541758e-22)
(0.0468732465741 0.0330569158278 1.56121021701e-22)
(0.0511567542686 0.0473056932012 5.36383849928e-23)
(0.0466267680844 0.0424840090567 1.65858602386e-22)
(0.0507299033954 0.0567592284275 9.34918148152e-24)
(0.0462780934657 0.0518927776689 6.99110294842e-23)
(0.0501364845136 0.0662045370857 2.76885568236e-23)
(0.045791037728 0.0612782531931 9.5294776729e-23)
(0.0493291817239 0.0756206181442 1.25868246126e-24)
(0.0451247810804 0.0706221435637 6.75299865945e-23)
(0.0482468167335 0.0849851650755 -3.27534873406e-23)
(0.0442320773565 0.0799003273138 -1.44904401703e-23)
(0.0430421330777 0.0891012837731 1.66378685893e-24)
(0.0428153739975 0.00942235737897 -3.66453853154e-22)
(0.0383747165474 0.00462313004037 -3.30776484404e-22)
(0.0424297656828 0.0188348499558 1.79901899864e-22)
(0.0378585476629 0.0144280130974 9.65590844527e-22)
(0.0422190020609 0.0282283952209 -3.10789135247e-23)
(0.0376330767867 0.0234091493459 -1.14218691795e-22)
(0.0420079605501 0.0376026424623 1.8707308233e-22)
(0.0374624607788 0.0328652511128 1.80724280114e-22)
(0.0417225869874 0.0469521504765 1.82131246878e-22)
(0.0372432917218 0.0422106191882 4.12596957975e-22)
(0.0413240647424 0.0562679138403 1.55856624732e-22)
(0.0369330347014 0.0515087090408 3.68067394746e-22)
(0.0407773179552 0.0655345909476 1.351362065e-22)
(0.036502172976 0.0607494684488 3.72346992348e-22)
(0.0400392841706 0.0747240004398 5.17808639629e-23)
(0.0359181793561 0.0699053220621 5.55212149419e-22)
(0.0390601332879 0.0837919985801 1.99268340293e-23)
(0.0351300859063 0.0789459066167 -1.12580396021e-22)
(0.0341081585079 0.0878516140414 6.48265969891e-22)
(0.0333862736527 0.00933410196912 1.00126821328e-21)
(0.0290078529334 0.00454197211734 6.89140334542e-22)
(0.033004096671 0.0187177556744 6.71470252867e-22)
(0.0284390115927 0.0143519397359 5.03776220176e-21)
(0.032819828181 0.0280789683083 9.75845018433e-23)
(0.0282351113967 0.0233366751716 3.08516641385e-22)
(0.032646738108 0.0373944180053 4.06248155759e-22)
(0.0281112034438 0.0327523024539 8.9256745488e-23)
(0.0324109019183 0.0466577228441 5.98533105842e-22)
(0.0279468531117 0.0420394226552 5.161195355e-22)
(0.032078733252 0.0558583236065 5.84557762362e-22)
(0.0277039706177 0.0512562462926 6.09079112064e-22)
(0.0316219281254 0.0649766654763 7.92422935268e-22)
(0.027362307652 0.0603882450367 2.12960363939e-22)
(0.03100686465 0.0739664024849 3.90850889436e-22)
(0.0268937812913 0.0694013582631 8.4732648189e-22)
(0.0301958142816 0.0828050553028 5.15758739841e-22)
(0.0262762067273 0.0782618235464 3.54035367475e-22)
(0.0240263542639 0.00929579590017 4.72563432302e-21)
(0.0196769826347 0.00457638951307 4.67216030214e-22)
(0.0236150924976 0.0186812880295 4.67480859027e-21)
(0.0190169182428 0.0144477715853 4.71227494035e-21)
(0.023473777657 0.0280389189079 3.0018888503e-22)
(0.0188406081455 0.0234479894617 3.26267391252e-22)
(0.0233692213743 0.0373240641812 1.99128125229e-22)
(0.0187902623161 0.032856652806 1.06265873013e-22)
(0.0232141986616 0.0465363670712 5.26665541721e-22)
(0.0187015460667 0.042136978023 6.13198026962e-22)
(0.0229825620243 0.0556651638789 2.37481713641e-22)
(0.0185468278293 0.0513357933949 -5.27262331021e-22)
(0.0226556630213 0.0646830309612 2.67863910562e-22)
(0.0183180659455 0.06043194733 -1.41093533883e-21)
(0.0222114404353 0.0735500315874 8.1051095993e-22)
(0.0180006086942 0.069387613274 8.35160697638e-22)
(0.0175708060388 0.078165869241 6.56572046774e-22)
(0.0149522940986 0.00949478971421 4.53856647547e-22)
(0.0101454792566 0.00494240157587 1.82718433146e-22)
(0.0145101142338 0.0189166684118 3.63733741332e-22)
(0.00955784174739 0.0149468264244 4.60240361305e-22)
(0.0144232832933 0.0282884358938 1.32344379236e-22)
(0.00943170933208 0.0239501727042 -1.01554671872e-22)
(0.0143995667459 0.0376014386471 5.20335774746e-22)
(0.00944157072971 0.0334053489545 2.50736923726e-22)
(0.0143270276102 0.0468416856096 -4.4072984578e-22)
(0.00942837425873 0.0427733026692 6.53550197302e-22)
(0.0141933233453 0.0559908888079 -2.17567938349e-21)
(0.00936934049726 0.0520810031337 -5.55505753982e-22)
(0.0139924812983 0.0650157829468 -8.43638551754e-22)
(0.00926601315581 0.0612913245133 -1.02086022776e-21)
(0.0137139652684 0.0738690216454 6.81221784482e-22)
(0.00910793153185 0.0703604568558 1.69362361706e-21)
(0.00889953347626 0.0792484920592 -7.97864231228e-23)
(0.00498401524094 0.0101268020234 1.89102146905e-22)
(0.00467427562543 0.0196658497463 -5.0480518997e-24)
(0.00466673061668 0.0290792369985 1.68378726177e-23)
(0.00469537212252 0.0385034705993 3.83951346281e-22)
(0.00468413107383 0.0479162593505 5.387742891e-22)
(0.00463261273175 0.057272768325 5.99313401751e-22)
(0.00454485081763 0.0665172110086 1.51640194106e-21)
(0.00442249416169 0.075611897425 9.32615409454e-22)
)
;

boundaryField
{
    back
    {
        type            calculated;
        value           uniform (0 0 0);
    }
    sides
    {
        type            calculated;
        value           uniform (0 0 0);
    }
    bottom
    {
        type            calculated;
        value           uniform (0 0 0);
    }
    front
    {
        type            calculated;
        value           uniform (0 0 0);
    }
    atmosphere
    {
        type            calculated;
        value           nonuniform List<vector> 0();
    }
    floatingObject
    {
        type            calculated;
        value           nonuniform List<vector> 0();
    }
    procBoundary10to9
    {
        type            processor;
        value           nonuniform List<vector> 
15
(
(0.16049900463 0.0276598243192 -1.60989183908e-23)
(0.162563203856 0.0360437774411 5.49635034105e-23)
(0.16515353846 0.0448326641441 1.06167517297e-23)
(0.168249850819 0.0541499900745 1.47714707506e-23)
(0.171822472809 0.0641330272979 1.17977032163e-22)
(0.175857849934 0.0749364733402 1.94622716132e-22)
(0.18029197791 0.086733980035 4.71953722493e-23)
(0.185125285637 0.0997057953092 -7.69353420176e-24)
(0.150383015327 0.0125046521402 1.06131934711e-22)
(0.155493896489 0.0243713630592 -1.06148426116e-22)
(0.15073017827 0.0205858299931 -5.57121595892e-22)
(0.146329936216 0.00849244206982 9.40151972323e-22)
(0.137584269342 0.00884822715574 3.72182603517e-23)
(0.12855314138 0.00911266109171 1.63175710348e-21)
(0.124337087884 0.00491108606595 1.58101949021e-21)
)
;
    }
    procBoundary10to11
    {
        type            processor;
        value           nonuniform List<vector> 
23
(
(0.180190512707 0.109027846494 1.73126368887e-23)
(0.174882169813 0.118401121991 8.67420348488e-23)
(0.168466149411 0.127698641283 4.63941566268e-23)
(0.152695949679 0.129636792202 8.73000104727e-23)
(0.14475843425 0.122707698134 4.81717718295e-23)
(0.137060277544 0.115924165841 3.34597977131e-23)
(0.123382794552 0.116014595156 7.10717142829e-23)
(0.11026581341 0.115285156685 7.83290749203e-23)
(0.10463871642 0.108641035871 9.08732497516e-23)
(0.0990297360086 0.102066656739 8.15602920102e-23)
(0.093870799289 0.095956748892 9.08745512252e-24)
(0.0886713578011 0.0898600125722 -8.45138462995e-24)
(0.0779494912307 0.0887933799496 -3.99537207611e-23)
(0.072183102319 0.093479911048 -2.47509211909e-23)
(0.0661802764747 0.0976667194653 -5.78211230631e-23)
(0.0562656171023 0.0959461913137 -5.48335191935e-23)
(0.0468187793421 0.0942622142098 -3.98503877559e-23)
(0.0377777445267 0.0927205024204 6.87495626515e-23)
(0.029134704081 0.0914206076312 1.04811564398e-21)
(0.0254608027085 0.086937321059 5.01239356618e-22)
(0.0216237239433 0.0822184566625 3.39515984252e-22)
(0.0133441135076 0.0825141957271 -9.87389485358e-23)
(0.00426451654764 0.0844912536565 -6.63397127539e-22)
)
;
    }
}


// ************************************************************************* //
