/*--------------------------------*- C++ -*----------------------------------*\
| =========                 |                                                 |
| \\      /  F ield         | OpenFOAM: The Open Source CFD Toolbox           |
|  \\    /   O peration     | Version:  v2012                                 |
|   \\  /    A nd           | Website:  www.openfoam.com                      |
|    \\/     M anipulation  |                                                 |
\*---------------------------------------------------------------------------*/
FoamFile
{
    version     2.0;
    format      ascii;
    class       volScalarField;
    location    "1.2";
    object      epsilon;
}
// * * * * * * * * * * * * * * * * * * * * * * * * * * * * * * * * * * * * * //

dimensions      [0 2 -3 0 0 0 0];


internalField   nonuniform List<scalar> 
167
(
0.0169616725202
0.0170338329779
0.0170689583561
0.0171017057077
0.0171382272899
0.017179456847
0.0172259727102
0.0172809091824
0.0155887396535
0.0166409231538
0.0169088218496
0.0169812261515
0.0170170938875
0.0170507395856
0.0170882026649
0.0171303678732
0.017177830977
0.0172339234008
0.0173150509325
0.0155404716235
0.0165882171615
0.0168550296887
0.0169278626536
0.0169646808782
0.0169994442826
0.0170380727262
0.0170813981098
0.0171300226597
0.0171874794872
0.0172711415624
0.0154908446445
0.016534464035
0.0168004196389
0.0168739016456
0.0169118932125
0.0169480029444
0.0169880263436
0.0170327397508
0.0170827421818
0.017141738924
0.0153021935033
0.0154399991833
0.0164798106133
0.0167451833174
0.0168195622142
0.0168589722392
0.0168966734891
0.0169383330131
0.0169846654413
0.017036252779
0.0170969305935
0.0152427302727
0.0153881065246
0.0164244381395
0.0166895313976
0.0167650858892
0.0168061859037
0.0168457443283
0.0168892962949
0.0169375008081
0.0169908895667
0.0170533907407
0.0151816003342
0.0153353149308
0.0163685345785
0.0166336914066
0.0167107384921
0.0167538316895
0.0167955341562
0.0168412491238
0.0168915529569
0.0169469074417
0.0151189804675
0.0152817778436
0.0163122951387
0.0165779097175
0.0166568142809
0.0167022394123
0.016746392456
0.0167945245926
0.0168471166945
0.0150550462039
0.0152276244178
0.0162558975939
0.0165224293737
0.0166036135215
0.0166517467053
0.0166986675739
0.0167494619033
0.0168045491493
0.014989899426
0.0151728455417
0.0161993673266
0.0164673491806
0.0165512972873
0.0166025481139
0.0166525614712
0.0167062731002
0.0167640309933
0.0168263255045
0.014923296876
0.0151168107176
0.0161419895091
0.0164119999487
0.0164992443906
0.0165540319882
0.0166074338359
0.0166642415676
0.0167247662447
0.0167895156
0.0148535044225
0.015056361
0.0160800060913
0.0163525042578
0.0164435510355
0.0165022373847
0.0165592267833
0.0166192023564
0.0166824733639
0.0167495916905
0.0147727610137
0.0149787910888
0.0159982821368
0.0162730089916
0.0163681008416
0.0164308247104
0.0164913445115
0.0165542755544
0.0166199773054
0.0166890683262
0.0146505448336
0.0148380476627
0.0158427047107
0.0161169371678
0.0162154526297
0.0162817860732
0.0163452359886
0.0164103654501
0.0164776289115
0.0165477426958
0.0143770936418
0.0144815102681
0.0154378217501
0.0157021857099
0.0158013800449
0.015869732662
0.0159345289342
0.016000159228
0.0160671890409
0.0135902704169
0.0134470143251
0.0142670456012
0.0144974237001
0.0145903086815
0.0146572404146
0.0147205456279
0.014783947309
0.0148480736946
0.0124594344784
0.0135171152144
0.0141343740164
0.0143185074866
0.0144146457842
0.0144968048523
0.0145779223547
0.0146599442827
0.0147432447277
)
;

boundaryField
{
    back
    {
        lowReCorrection 0;
        blending        stepwise;
        n               2;
        type            epsilonWallFunction;
        value           nonuniform List<scalar> 
167
(
0.0169616725202
0.0170338329779
0.0170689583561
0.0171017057077
0.0171382272899
0.017179456847
0.0172259727102
0.0172809091824
0.0155887396535
0.0166409231538
0.0169088218496
0.0169812261515
0.0170170938875
0.0170507395856
0.0170882026649
0.0171303678732
0.017177830977
0.0172339234008
0.0173150509325
0.0155404716235
0.0165882171615
0.0168550296887
0.0169278626536
0.0169646808782
0.0169994442826
0.0170380727262
0.0170813981098
0.0171300226597
0.0171874794872
0.0172711415624
0.0154908446445
0.016534464035
0.0168004196389
0.0168739016456
0.0169118932125
0.0169480029444
0.0169880263436
0.0170327397508
0.0170827421818
0.017141738924
0.0153021935033
0.0154399991833
0.0164798106133
0.0167451833174
0.0168195622142
0.0168589722392
0.0168966734891
0.0169383330131
0.0169846654413
0.017036252779
0.0170969305935
0.0152427302727
0.0153881065246
0.0164244381395
0.0166895313976
0.0167650858892
0.0168061859037
0.0168457443283
0.0168892962949
0.0169375008081
0.0169908895667
0.0170533907407
0.0151816003342
0.0153353149308
0.0163685345785
0.0166336914066
0.0167107384921
0.0167538316895
0.0167955341562
0.0168412491238
0.0168915529569
0.0169469074417
0.0151189804675
0.0152817778436
0.0163122951387
0.0165779097175
0.0166568142809
0.0167022394123
0.016746392456
0.0167945245926
0.0168471166945
0.0150550462039
0.0152276244178
0.0162558975939
0.0165224293737
0.0166036135215
0.0166517467053
0.0166986675739
0.0167494619033
0.0168045491493
0.014989899426
0.0151728455417
0.0161993673266
0.0164673491806
0.0165512972873
0.0166025481139
0.0166525614712
0.0167062731002
0.0167640309933
0.0168263255045
0.014923296876
0.0151168107176
0.0161419895091
0.0164119999487
0.0164992443906
0.0165540319882
0.0166074338359
0.0166642415676
0.0167247662447
0.0167895156
0.0148535044225
0.015056361
0.0160800060913
0.0163525042578
0.0164435510355
0.0165022373847
0.0165592267833
0.0166192023564
0.0166824733639
0.0167495916905
0.0147727610137
0.0149787910888
0.0159982821368
0.0162730089916
0.0163681008416
0.0164308247104
0.0164913445115
0.0165542755544
0.0166199773054
0.0166890683262
0.0146505448336
0.0148380476627
0.0158427047107
0.0161169371678
0.0162154526297
0.0162817860732
0.0163452359886
0.0164103654501
0.0164776289115
0.0165477426958
0.0143770936418
0.0144815102681
0.0154378217501
0.0157021857099
0.0158013800449
0.015869732662
0.0159345289342
0.016000159228
0.0160671890409
0.0135902704169
0.0134470143251
0.0142670456012
0.0144974237001
0.0145903086815
0.0146572404146
0.0147205456279
0.014783947309
0.0148480736946
0.0124594344784
0.0135171152144
0.0141343740164
0.0143185074866
0.0144146457842
0.0144968048523
0.0145779223547
0.0146599442827
0.0147432447277
)
;
    }
    sides
    {
        lowReCorrection 0;
        blending        stepwise;
        n               2;
        type            epsilonWallFunction;
        value           nonuniform List<scalar> 9(0.0124594344784 0.0135171152144 0.0141343740164 0.0143185074866 0.0144146457842 0.0144968048523 0.0145779223547 0.0146599442827 0.0147432447277);
    }
    bottom
    {
        lowReCorrection 0;
        blending        stepwise;
        n               2;
        type            epsilonWallFunction;
        value           nonuniform List<scalar> 
13
(
0.0153021935033
0.0152427302727
0.0151816003342
0.0151189804675
0.0150550462039
0.014989899426
0.014923296876
0.0148535044225
0.0147727610137
0.0146505448336
0.0143770936418
0.0135902704169
0.0124594344784
)
;
    }
    front
    {
        lowReCorrection 0;
        blending        stepwise;
        n               2;
        type            epsilonWallFunction;
        value           nonuniform List<scalar> 
167
(
0.0169616725202
0.0170338329779
0.0170689583561
0.0171017057077
0.0171382272899
0.017179456847
0.0172259727102
0.0172809091824
0.0155887396535
0.0166409231538
0.0169088218496
0.0169812261515
0.0170170938875
0.0170507395856
0.0170882026649
0.0171303678732
0.017177830977
0.0172339234008
0.0173150509325
0.0155404716235
0.0165882171615
0.0168550296887
0.0169278626536
0.0169646808782
0.0169994442826
0.0170380727262
0.0170813981098
0.0171300226597
0.0171874794872
0.0172711415624
0.0154908446445
0.016534464035
0.0168004196389
0.0168739016456
0.0169118932125
0.0169480029444
0.0169880263436
0.0170327397508
0.0170827421818
0.017141738924
0.0153021935033
0.0154399991833
0.0164798106133
0.0167451833174
0.0168195622142
0.0168589722392
0.0168966734891
0.0169383330131
0.0169846654413
0.017036252779
0.0170969305935
0.0152427302727
0.0153881065246
0.0164244381395
0.0166895313976
0.0167650858892
0.0168061859037
0.0168457443283
0.0168892962949
0.0169375008081
0.0169908895667
0.0170533907407
0.0151816003342
0.0153353149308
0.0163685345785
0.0166336914066
0.0167107384921
0.0167538316895
0.0167955341562
0.0168412491238
0.0168915529569
0.0169469074417
0.0151189804675
0.0152817778436
0.0163122951387
0.0165779097175
0.0166568142809
0.0167022394123
0.016746392456
0.0167945245926
0.0168471166945
0.0150550462039
0.0152276244178
0.0162558975939
0.0165224293737
0.0166036135215
0.0166517467053
0.0166986675739
0.0167494619033
0.0168045491493
0.014989899426
0.0151728455417
0.0161993673266
0.0164673491806
0.0165512972873
0.0166025481139
0.0166525614712
0.0167062731002
0.0167640309933
0.0168263255045
0.014923296876
0.0151168107176
0.0161419895091
0.0164119999487
0.0164992443906
0.0165540319882
0.0166074338359
0.0166642415676
0.0167247662447
0.0167895156
0.0148535044225
0.015056361
0.0160800060913
0.0163525042578
0.0164435510355
0.0165022373847
0.0165592267833
0.0166192023564
0.0166824733639
0.0167495916905
0.0147727610137
0.0149787910888
0.0159982821368
0.0162730089916
0.0163681008416
0.0164308247104
0.0164913445115
0.0165542755544
0.0166199773054
0.0166890683262
0.0146505448336
0.0148380476627
0.0158427047107
0.0161169371678
0.0162154526297
0.0162817860732
0.0163452359886
0.0164103654501
0.0164776289115
0.0165477426958
0.0143770936418
0.0144815102681
0.0154378217501
0.0157021857099
0.0158013800449
0.015869732662
0.0159345289342
0.016000159228
0.0160671890409
0.0135902704169
0.0134470143251
0.0142670456012
0.0144974237001
0.0145903086815
0.0146572404146
0.0147205456279
0.014783947309
0.0148480736946
0.0124594344784
0.0135171152144
0.0141343740164
0.0143185074866
0.0144146457842
0.0144968048523
0.0145779223547
0.0146599442827
0.0147432447277
)
;
    }
    atmosphere
    {
        type            inletOutlet;
        inletValue      nonuniform List<scalar> 0();
        value           nonuniform List<scalar> 0();
    }
    floatingObject
    {
        lowReCorrection 0;
        blending        stepwise;
        n               2;
        type            epsilonWallFunction;
        value           nonuniform List<scalar> 0();
    }
    procBoundary10to9
    {
        type            processor;
        value           nonuniform List<scalar> 
15
(
0.0170132009738
0.01708534293
0.0171199165246
0.0171519586166
0.0171877439406
0.0172282386702
0.0172740169392
0.0173279321486
0.015635366537
0.0166923403612
0.0166923403612
0.015468375366
0.0154152260443
0.0153597611205
0.0153597611205
)
;
    }
    procBoundary10to11
    {
        type            processor;
        value           nonuniform List<scalar> 
23
(
0.0173595161692
0.0173595161692
0.0174883537377
0.0174520727964
0.0172280777934
0.0172280777934
0.0171859556828
0.017145173293
0.0170114122338
0.0170114122338
0.0169046408509
0.0169046408509
0.0168643795924
0.0168643795924
0.0168975968824
0.0168631373269
0.0168253515057
0.0167665086421
0.0166258244433
0.0161364825502
0.0161364825502
0.0149138453616
0.0148284905557
)
;
    }
}


// ************************************************************************* //
