/*--------------------------------*- C++ -*----------------------------------*\
| =========                 |                                                 |
| \\      /  F ield         | OpenFOAM: The Open Source CFD Toolbox           |
|  \\    /   O peration     | Version:  v2012                                 |
|   \\  /    A nd           | Website:  www.openfoam.com                      |
|    \\/     M anipulation  |                                                 |
\*---------------------------------------------------------------------------*/
FoamFile
{
    version     2.0;
    format      ascii;
    class       volScalarField;
    location    "1.2";
    object      k_0;
}
// * * * * * * * * * * * * * * * * * * * * * * * * * * * * * * * * * * * * * //

dimensions      [0 2 -2 0 0 0 0];


internalField   nonuniform List<scalar> 
167
(
0.0164826524771
0.0165293677599
0.0165520833728
0.0165732470827
0.0165968340466
0.0166234414678
0.0166534348568
0.0166888230999
0.0155807606239
0.0162741980187
0.01644839594
0.0164953176518
0.0165185370828
0.016540303225
0.0165645220767
0.0165917595659
0.0166223926189
0.0166585587523
0.0167107971819
0.0155485817874
0.016239816866
0.0164134924807
0.0164607418398
0.0164846013515
0.0165071134294
0.0165321104369
0.0165601244352
0.0165915366589
0.0166286163893
0.016682533869
0.0155154622257
0.0162047151207
0.0163780203248
0.0164257419182
0.0164503876996
0.0164737956013
0.0164997210968
0.0165286605186
0.0165609931271
0.0165991011041
0.0127035359592
0.0154814927836
0.0161689864451
0.016342102252
0.0163904588229
0.0164160518948
0.0164405166219
0.0164675287617
0.0164975448275
0.0165309331479
0.0165701618999
0.0126706045859
0.0154467852469
0.0161327473996
0.0163058739684
0.0163550486801
0.016381767636
0.0164074638475
0.0164357309181
0.0164669893748
0.016501574993
0.0165420177068
0.0126367055006
0.0154114364149
0.0160961194426
0.0162694827589
0.0163196841032
0.0163477285631
0.0163748450703
0.0164045448833
0.0164371949248
0.0164730856934
0.0126019329785
0.0153755469558
0.0160592293186
0.0162330888638
0.0162845569875
0.0163141501744
0.0163428889311
0.0163741888794
0.0164083549427
0.0125663810124
0.015339201661
0.0160221928873
0.0161968510648
0.0162498639736
0.0162812539386
0.0163118241954
0.0163448858628
0.0163807040052
0.0125301029972
0.0153023927319
0.0159850262893
0.016160834485
0.0162157116184
0.0162491688272
0.0162817850261
0.01631677671
0.0163543626092
0.0163948523578
0.0124929599402
0.0152646940008
0.0159472582211
0.0161246015086
0.0161816954405
0.0162174977382
0.0162523564917
0.0162893974924
0.0163288158151
0.0163709329664
0.0124539785913
0.0152239727781
0.0159064082688
0.0160856087037
0.0161452606132
0.0161836523081
0.0162208903527
0.0162600335199
0.0163012764548
0.0163449702975
0.0124088045182
0.0151716388151
0.0158524680655
0.0160334345115
0.0160958350958
0.0161369292275
0.0161765298043
0.0162176568143
0.0162605389833
0.0163055723494
0.0123402704773
0.0150764523873
0.0157495278114
0.015930753871
0.0159956061864
0.0160391992358
0.0160808419232
0.0161235309067
0.0161675593783
0.016213389855
0.0121862353844
0.0148339641015
0.0154800372262
0.0156562612263
0.0157221281444
0.0157674353819
0.0158103252892
0.0158537080297
0.0158979546928
0.0117374627537
0.0141188252949
0.0146871439762
0.0148448292696
0.0149081689592
0.01495372743
0.0149967536635
0.0150397836882
0.015083243037
0.0102404576766
0.0116953037369
0.0120486913999
0.0121531072034
0.0122074459886
0.0122537878391
0.0122994563838
0.0123455480669
0.0123922703083
)
;

boundaryField
{
    back
    {
        type            kqRWallFunction;
        value           nonuniform List<scalar> 
167
(
0.0164826524771
0.0165293677599
0.0165520833728
0.0165732470827
0.0165968340466
0.0166234414678
0.0166534348568
0.0166888230999
0.0155807606239
0.0162741980187
0.01644839594
0.0164953176518
0.0165185370828
0.016540303225
0.0165645220767
0.0165917595659
0.0166223926189
0.0166585587523
0.0167107971819
0.0155485817874
0.016239816866
0.0164134924807
0.0164607418398
0.0164846013515
0.0165071134294
0.0165321104369
0.0165601244352
0.0165915366589
0.0166286163893
0.016682533869
0.0155154622257
0.0162047151207
0.0163780203248
0.0164257419182
0.0164503876996
0.0164737956013
0.0164997210968
0.0165286605186
0.0165609931271
0.0165991011041
0.0127035359592
0.0154814927836
0.0161689864451
0.016342102252
0.0163904588229
0.0164160518948
0.0164405166219
0.0164675287617
0.0164975448275
0.0165309331479
0.0165701618999
0.0126706045859
0.0154467852469
0.0161327473996
0.0163058739684
0.0163550486801
0.016381767636
0.0164074638475
0.0164357309181
0.0164669893748
0.016501574993
0.0165420177068
0.0126367055006
0.0154114364149
0.0160961194426
0.0162694827589
0.0163196841032
0.0163477285631
0.0163748450703
0.0164045448833
0.0164371949248
0.0164730856934
0.0126019329785
0.0153755469558
0.0160592293186
0.0162330888638
0.0162845569875
0.0163141501744
0.0163428889311
0.0163741888794
0.0164083549427
0.0125663810124
0.015339201661
0.0160221928873
0.0161968510648
0.0162498639736
0.0162812539386
0.0163118241954
0.0163448858628
0.0163807040052
0.0125301029972
0.0153023927319
0.0159850262893
0.016160834485
0.0162157116184
0.0162491688272
0.0162817850261
0.01631677671
0.0163543626092
0.0163948523578
0.0124929599402
0.0152646940008
0.0159472582211
0.0161246015086
0.0161816954405
0.0162174977382
0.0162523564917
0.0162893974924
0.0163288158151
0.0163709329664
0.0124539785913
0.0152239727781
0.0159064082688
0.0160856087037
0.0161452606132
0.0161836523081
0.0162208903527
0.0162600335199
0.0163012764548
0.0163449702975
0.0124088045182
0.0151716388151
0.0158524680655
0.0160334345115
0.0160958350958
0.0161369292275
0.0161765298043
0.0162176568143
0.0162605389833
0.0163055723494
0.0123402704773
0.0150764523873
0.0157495278114
0.015930753871
0.0159956061864
0.0160391992358
0.0160808419232
0.0161235309067
0.0161675593783
0.016213389855
0.0121862353844
0.0148339641015
0.0154800372262
0.0156562612263
0.0157221281444
0.0157674353819
0.0158103252892
0.0158537080297
0.0158979546928
0.0117374627537
0.0141188252949
0.0146871439762
0.0148448292696
0.0149081689592
0.01495372743
0.0149967536635
0.0150397836882
0.015083243037
0.0102404576766
0.0116953037369
0.0120486913999
0.0121531072034
0.0122074459886
0.0122537878391
0.0122994563838
0.0123455480669
0.0123922703083
)
;
    }
    sides
    {
        type            kqRWallFunction;
        value           nonuniform List<scalar> 9(0.0102404576766 0.0116953037369 0.0120486913999 0.0121531072034 0.0122074459886 0.0122537878391 0.0122994563838 0.0123455480669 0.0123922703083);
    }
    bottom
    {
        type            kqRWallFunction;
        value           nonuniform List<scalar> 
13
(
0.0127035359592
0.0126706045859
0.0126367055006
0.0126019329785
0.0125663810124
0.0125301029972
0.0124929599402
0.0124539785913
0.0124088045182
0.0123402704773
0.0121862353844
0.0117374627537
0.0102404576766
)
;
    }
    front
    {
        type            kqRWallFunction;
        value           nonuniform List<scalar> 
167
(
0.0164826524771
0.0165293677599
0.0165520833728
0.0165732470827
0.0165968340466
0.0166234414678
0.0166534348568
0.0166888230999
0.0155807606239
0.0162741980187
0.01644839594
0.0164953176518
0.0165185370828
0.016540303225
0.0165645220767
0.0165917595659
0.0166223926189
0.0166585587523
0.0167107971819
0.0155485817874
0.016239816866
0.0164134924807
0.0164607418398
0.0164846013515
0.0165071134294
0.0165321104369
0.0165601244352
0.0165915366589
0.0166286163893
0.016682533869
0.0155154622257
0.0162047151207
0.0163780203248
0.0164257419182
0.0164503876996
0.0164737956013
0.0164997210968
0.0165286605186
0.0165609931271
0.0165991011041
0.0127035359592
0.0154814927836
0.0161689864451
0.016342102252
0.0163904588229
0.0164160518948
0.0164405166219
0.0164675287617
0.0164975448275
0.0165309331479
0.0165701618999
0.0126706045859
0.0154467852469
0.0161327473996
0.0163058739684
0.0163550486801
0.016381767636
0.0164074638475
0.0164357309181
0.0164669893748
0.016501574993
0.0165420177068
0.0126367055006
0.0154114364149
0.0160961194426
0.0162694827589
0.0163196841032
0.0163477285631
0.0163748450703
0.0164045448833
0.0164371949248
0.0164730856934
0.0126019329785
0.0153755469558
0.0160592293186
0.0162330888638
0.0162845569875
0.0163141501744
0.0163428889311
0.0163741888794
0.0164083549427
0.0125663810124
0.015339201661
0.0160221928873
0.0161968510648
0.0162498639736
0.0162812539386
0.0163118241954
0.0163448858628
0.0163807040052
0.0125301029972
0.0153023927319
0.0159850262893
0.016160834485
0.0162157116184
0.0162491688272
0.0162817850261
0.01631677671
0.0163543626092
0.0163948523578
0.0124929599402
0.0152646940008
0.0159472582211
0.0161246015086
0.0161816954405
0.0162174977382
0.0162523564917
0.0162893974924
0.0163288158151
0.0163709329664
0.0124539785913
0.0152239727781
0.0159064082688
0.0160856087037
0.0161452606132
0.0161836523081
0.0162208903527
0.0162600335199
0.0163012764548
0.0163449702975
0.0124088045182
0.0151716388151
0.0158524680655
0.0160334345115
0.0160958350958
0.0161369292275
0.0161765298043
0.0162176568143
0.0162605389833
0.0163055723494
0.0123402704773
0.0150764523873
0.0157495278114
0.015930753871
0.0159956061864
0.0160391992358
0.0160808419232
0.0161235309067
0.0161675593783
0.016213389855
0.0121862353844
0.0148339641015
0.0154800372262
0.0156562612263
0.0157221281444
0.0157674353819
0.0158103252892
0.0158537080297
0.0158979546928
0.0117374627537
0.0141188252949
0.0146871439762
0.0148448292696
0.0149081689592
0.01495372743
0.0149967536635
0.0150397836882
0.015083243037
0.0102404576766
0.0116953037369
0.0120486913999
0.0121531072034
0.0122074459886
0.0122537878391
0.0122994563838
0.0123455480669
0.0123922703083
)
;
    }
    atmosphere
    {
        type            inletOutlet;
        inletValue      nonuniform List<scalar> 0();
        value           nonuniform List<scalar> 0();
    }
    floatingObject
    {
        type            kqRWallFunction;
        value           nonuniform List<scalar> 0();
    }
    procBoundary10to9
    {
        type            processor;
        value           nonuniform List<scalar> 
15
(
0.0165160177458
0.016562673961
0.016585010386
0.0166056979011
0.0166287869585
0.0166548952558
0.0166843854061
0.0167190839497
0.0156118138349
0.0163077035113
0.0163077035113
0.0127953439085
0.0127660172391
0.0127353769072
0.0127353769072
)
;
    }
    procBoundary10to11
    {
        type            processor;
        value           nonuniform List<scalar> 
23
(
0.0167393939555
0.0167393939555
0.0168221153042
0.0167988414001
0.0166547915737
0.0166547915737
0.016627633537
0.0166013181306
0.0165148600809
0.0165148600809
0.0164456843945
0.0164456843945
0.0164195619011
0.0164195619011
0.0164411155928
0.0164187555583
0.0163942196699
0.0163559739706
0.0162643525482
0.0159436309982
0.0159436309982
0.0151277524727
0.0124399926814
)
;
    }
}


// ************************************************************************* //
