/*--------------------------------*- C++ -*----------------------------------*\
| =========                 |                                                 |
| \\      /  F ield         | OpenFOAM: The Open Source CFD Toolbox           |
|  \\    /   O peration     | Version:  v2012                                 |
|   \\  /    A nd           | Website:  www.openfoam.com                      |
|    \\/     M anipulation  |                                                 |
\*---------------------------------------------------------------------------*/
FoamFile
{
    version     2.0;
    format      ascii;
    class       surfaceScalarField;
    location    "1.2";
    object      phi;
}
// * * * * * * * * * * * * * * * * * * * * * * * * * * * * * * * * * * * * * //

dimensions      [0 3 -1 0 0 0 0];
oriented        oriented;


internalField   nonuniform List<scalar> 
304
(
-7.62844635945e-05
-0.000506702414519
-9.6022712561e-05
-0.00051414396407
-0.000115968438406
-0.00052348131054
-0.000136158108788
-0.000534809036373
-0.000156627943915
-0.000548206345294
-0.000177413515995
-0.000563767386603
-0.000198552944587
-0.000581608124149
-0.000601875798371
-4.09684920012e-05
-0.000473686852404
-6.22290857578e-05
-0.000479559451913
-8.36834831917e-05
-0.0004852470781
-0.000105356469141
-0.000492470302896
-0.000127296638028
-0.000501540708265
-0.000149556832742
-0.000512548564941
-0.000172191738847
-0.000525571278209
-0.000195258623022
-0.000540700278722
-0.000218819165208
-0.000558047076649
-0.000242941973604
-0.000577751931242
-0.000599965866221
-4.45140989524e-05
-0.00045092711298
-6.75804882019e-05
-0.000456492116556
-9.08715231718e-05
-0.00046195533303
-0.000114426047448
-0.000468915290318
-0.000138307136926
-0.00047765933765
-0.000162583056853
-0.000488272519193
-0.000187325610836
-0.000500828699128
-0.000212611391622
-0.000515414478253
-0.000238523057371
-0.000532134890201
-0.00026515380531
-0.000551120709809
-4.79329751898e-05
-0.000426444383905
-7.27395413929e-05
-0.000431684810791
-9.78012947436e-05
-0.000436893032892
-0.000123170528322
-0.000443545711406
-0.000148923681932
-0.000451906043055
-0.00017514327682
-0.000462052937986
-0.000201916622356
-0.000474055475653
-0.00022933698303
-0.000487994188897
-0.000257506276239
-0.000503965546165
-0.000522089559297
-2.50725186756e-05
-0.000386421752749
-5.12025409068e-05
-0.000400313620887
-7.76733830802e-05
-0.000405213350631
-0.000104428339929
-0.000410137633167
-0.000131532547474
-0.000416441269372
-0.000159074867889
-0.000424363692932
-0.00018715075339
-0.000433977191594
-0.000215861038601
-0.0004453454328
-0.000245313665199
-0.000458541795546
-0.000275625350762
-0.000473654247363
-0.000490789598567
-2.6610865357e-05
-0.000359810196905
-5.43037265711e-05
-0.000372620090694
-8.23514314506e-05
-0.000377165089384
-0.000110710509423
-0.000381778182518
-0.000139457829376
-0.000387693791083
-0.000168693579669
-0.000395127996603
-0.000198524667453
-0.000404146325595
-0.000229063993328
-0.000414806427982
-0.00026043084545
-0.000427175693366
-0.000292755351876
-0.000441330385192
-2.80573978285e-05
-0.000331752135332
-5.7217341066e-05
-0.000343459510015
-8.67448294265e-05
-0.000347637088267
-0.00011660842177
-0.000351914267351
-0.000146895901644
-0.000357406206303
-0.000177717701113
-0.000364306300304
-0.000209190969127
-0.000372673321541
-0.000241438169799
-0.000382559902211
-0.00027458973243
-0.00039402489896
-2.94034975854e-05
-0.000302347997351
-5.99265111954e-05
-0.00031293589737
-9.08274034829e-05
-0.000316735728119
-0.000122086117895
-0.000320655272584
-0.000153800715851
-0.000325691537539
-0.000186090970705
-0.000332016166591
-0.000219082813152
-0.000339681835004
-0.000252907733356
-0.000348735603163
-0.00035922920929
-3.06433102561e-05
-0.000271704094324
-6.24173262131e-05
-0.000281161339387
-9.45762701601e-05
-0.000284576369618
-0.00012711147126
-0.000288119831878
-0.000160131011457
-0.000292671946861
-0.00019376322887
-0.000298384071978
-0.000228141815227
-0.000305303586091
-0.000263405866043
-0.00031347202218
-0.000322935544525
-3.17744153498e-05
-0.000239929156621
-6.46796857809e-05
-0.000248255600575
-9.79721294148e-05
-0.000251283574555
-0.000131656126283
-0.000254435638247
-0.000165850072498
-0.000258477970616
-0.000200690109669
-0.000263544150038
-0.000236316765799
-0.000269677169319
-0.000272874842199
-0.000276914284049
-0.00031051518404
-0.000285295530962
-0.000294865859129
-3.28000773748e-05
-0.000207128642427
-6.67081614024e-05
-0.000214347133724
-0.000100998700247
-0.000216992755791
-0.000135694277809
-0.000219739912721
-0.000170924217092
-0.000223248020478
-0.000206831074146
-0.000227637397905
-0.000243560194869
-0.0002329482281
-0.000281260995482
-0.000239213685189
-0.000320088523102
-0.000246468124747
-0.000254749480381
-3.37327510074e-05
-0.000173395549325
-6.8503087146e-05
-0.00017957650845
-0.000103641366481
-0.000181854275964
-0.00013920060944
-0.000184180579253
-0.000175320912436
-0.000187127738679
-0.000212148187398
-0.000190810234087
-0.000249830019492
-0.000195266552292
-0.000288518536848
-0.000200525304351
-0.00032837227429
-0.000206614449106
-0.000213564984065
-3.46067419915e-05
-0.000138788566113
-7.0075175153e-05
-0.000144107886393
-0.000105885147699
-0.000146044191755
-0.000142147134768
-0.000147918573593
-0.000179006194122
-0.000150268754997
-0.000216603548596
-0.000153213031439
-0.000255084325336
-0.000156785960798
-0.000294601057014
-0.000161008739669
-0.000335313928369
-0.000165902061861
-0.000171486249402
-3.54916452733e-05
-0.000103296783479
-7.14298954947e-05
-0.000108169551053
-0.000107687878722
-0.000109786194106
-0.000144477006868
-0.000111129515192
-0.000181918724112
-0.000112827195627
-0.000220131532068
-0.000115000454499
-0.000259251465978
-0.000117666288822
-0.000299428422222
-0.000120832377819
-0.00034082386124
-0.00012450702075
-3.63122738461e-05
-6.69844749669e-05
-7.23764601029e-05
-7.2105377491e-05
-0.000108830886161
-7.33318487842e-05
-0.000145966958664
-7.39936081692e-05
-0.000183818340926
-7.49760689057e-05
-0.000222464124792
-7.63550026478e-05
-0.000262029531751
-7.81013426402e-05
-0.000302663403947
-8.01991641074e-05
-8.26445367127e-05
-3.59680265143e-05
-3.10164849473e-05
-7.19411015554e-05
-3.61323843349e-05
-0.000108528155314
-3.674494765e-05
-0.000145817868906
-3.67041336015e-05
-0.000183794008453
-3.70002622654e-05
-0.000222544278595
-3.76051427441e-05
-0.000262205907594
-3.84402894333e-05
-0.000302934760595
-3.94713605109e-05
-4.06851088526e-05
-3.10165232239e-05
-6.71489764357e-05
-0.000103894032892
-0.000140598322971
-0.000177598787726
-0.000215204164584
-0.000253644988638
-0.000293116851287
)
;

boundaryField
{
    back
    {
        type            calculated;
        value           uniform 0;
    }
    sides
    {
        type            calculated;
        value           uniform 0;
    }
    bottom
    {
        type            calculated;
        value           uniform 0;
    }
    front
    {
        type            calculated;
        value           uniform 0;
    }
    atmosphere
    {
        type            calculated;
        value           nonuniform List<scalar> 0();
    }
    floatingObject
    {
        type            calculated;
        value           nonuniform List<scalar> 0();
    }
    procBoundary10to9
    {
        type            processor;
        value           nonuniform List<scalar> 
15
(
0.000526269816892
0.000533883728375
0.00054342803009
0.000554999477359
0.00056867663876
0.00058455362032
0.00060274804899
0.000623409489591
0.000494659579412
5.67199972836e-05
0.000500822243494
1.99996802041e-05
2.17569396754e-05
2.34512900103e-05
0.000411495213364
)
;
    }
    procBoundary10to11
    {
        type            processor;
        value           nonuniform List<scalar> 
23
(
-0.000220084774933
0.000624733836024
-0.000267707965565
-0.000292612399618
-0.0005725062532
-0.000286537071115
-0.000306925483615
-0.000326179680527
-0.000457365747749
-0.000308785469985
-0.000407135545251
-0.000287704244332
-0.000299700125439
0.000333744931003
-0.000349394802114
-0.000360204893836
-0.000369556830452
-0.000377392658326
-0.000383610596358
-0.000128700080357
-0.000344526816487
-0.000344895132439
-0.00033380256432
)
;
    }
}


// ************************************************************************* //
