/*--------------------------------*- C++ -*----------------------------------*\
| =========                 |                                                 |
| \\      /  F ield         | OpenFOAM: The Open Source CFD Toolbox           |
|  \\    /   O peration     | Version:  v2012                                 |
|   \\  /    A nd           | Website:  www.openfoam.com                      |
|    \\/     M anipulation  |                                                 |
\*---------------------------------------------------------------------------*/
FoamFile
{
    version     2.0;
    format      ascii;
    class       surfaceVectorField;
    location    "1.2";
    object      Uf;
}
// * * * * * * * * * * * * * * * * * * * * * * * * * * * * * * * * * * * * * //

dimensions      [0 1 -1 0 0 0 0];


internalField   nonuniform List<vector> 
304
(
(-0.104110188835 -0.0152568927189 -1.34909512992e-22)
(-0.101340482904 -0.0139336938842 -2.26371670092e-22)
(-0.10580626673 -0.0192045425122 -2.59729687468e-23)
(-0.102828792814 -0.0180480693925 -4.05231378976e-23)
(-0.107894380033 -0.0231936876812 -2.29916926484e-24)
(-0.104696262108 -0.02220450225 -7.84550341289e-24)
(-0.110391991541 -0.0272316217576 5.19078721411e-24)
(-0.106961807275 -0.0264158069018 4.9648359249e-24)
(-0.113316411008 -0.0313255887829 -6.16544408345e-24)
(-0.109641269059 -0.0306882541215 9.88922594518e-24)
(-0.116688734126 -0.035482703199 -2.65688859493e-24)
(-0.112753477321 -0.0350306297052 -1.88182559617e-23)
(-0.120535480367 -0.0397105889173 2.03425795182e-23)
(-0.11632162483 -0.0394510407074 1.03208441675e-23)
(-0.120375159674 -0.0439602377334 2.64924134078e-23)
(-0.0974923880005 -0.00819369840023 1.91217088347e-22)
(-0.0947373704808 -0.00596523919654 3.58352899734e-22)
(-0.0986721957237 -0.0124458171516 -3.91040779315e-22)
(-0.0959118903826 -0.010696324896 -4.01763886371e-22)
(-0.0999832177558 -0.0167366966383 -1.31985294997e-22)
(-0.09704941562 -0.01520605945 -2.37392863998e-22)
(-0.101636072293 -0.0210712938283 -2.23956725637e-23)
(-0.0984940605793 -0.0196982556371 -3.65949019965e-23)
(-0.103672311274 -0.0254593276057 -5.8149822315e-25)
(-0.100308141653 -0.0242424130564 -4.90224481258e-24)
(-0.106109004611 -0.0299113665484 9.66327465597e-24)
(-0.102509712988 -0.0288549301158 1.61050554552e-24)
(-0.108963258018 -0.0344383477693 -2.76358593311e-24)
(-0.105114255642 -0.0335455122136 3.39334070882e-24)
(-0.112255718703 -0.0390517246043 -5.84052319931e-24)
(-0.108140055744 -0.0383267547377 -1.64371781806e-23)
(-0.116012137352 -0.0437638330416 1.64706780571e-23)
(-0.11160941533 -0.0432107696677 3.24600962015e-24)
(-0.120262636397 -0.0485883947208 -7.95465455883e-24)
(-0.115550386248 -0.0482136525624 1.43329333727e-23)
(-0.119993173244 -0.053369170482 -2.60054205717e-23)
(-0.0930843014611 -0.00890281979048 -2.34628074984e-22)
(-0.090185422596 -0.00647942678369 5.0995502167e-22)
(-0.0942134244561 -0.0135160976404 -2.48115971054e-22)
(-0.0912984233111 -0.0115639648341 -3.17338958943e-23)
(-0.0954795402968 -0.0181743046344 -1.42002470997e-22)
(-0.0923910666061 -0.0164374860583 -2.00406227102e-22)
(-0.0970786660626 -0.0228852094895 -1.91014742454e-23)
(-0.0937830580637 -0.0212955024868 -3.2537181976e-23)
(-0.0990495199885 -0.0276614273851 -2.7102410439e-24)
(-0.09553186753 -0.0262152856726 -1.07632403611e-23)
(-0.101408426751 -0.0325166113705 -4.65942840163e-24)
(-0.0976545038386 -0.0312165740325 -3.32507718607e-24)
(-0.104171839325 -0.0374651221672 -1.02802515387e-23)
(-0.100165739826 -0.0363122567175 -6.02800637657e-24)
(-0.107359463712 -0.0425222783244 -7.35064536113e-24)
(-0.103082895651 -0.0415183529557 -1.68578334328e-23)
(-0.110995667614 -0.0477046114742 1.10826493577e-24)
(-0.10642697804 -0.0468504942727 -4.81868834866e-24)
(-0.115108306906 -0.0530307610619 -3.71783264009e-24)
(-0.110224141962 -0.052329385749 -5.65968373171e-24)
(-0.0883237468568 -0.00958659503796 7.12849200759e-22)
(-0.085288876781 -0.00697404290741 1.2767547625e-21)
(-0.0893973287516 -0.0145479082786 1.5975848058e-23)
(-0.0863369621583 -0.0123975125793 1.24812028364e-22)
(-0.0906109631445 -0.0195602589487 -9.09409380802e-23)
(-0.0873786065784 -0.0176200099088 -1.12559451021e-22)
(-0.0921460722002 -0.0246341056643 -2.41989480917e-23)
(-0.0887091422812 -0.02282930699 -2.5286253455e-23)
(-0.0940383866489 -0.0297847363863 -1.13780765032e-23)
(-0.090381208611 -0.0281098133211 -1.48311340699e-23)
(-0.0963032385425 -0.0350286553639 -4.69365516101e-24)
(-0.0924105875972 -0.03348432836 -8.7560820573e-24)
(-0.0989561144366 -0.0403833244712 -1.26055882707e-23)
(-0.0948110951306 -0.0389686267484 -1.43872663208e-23)
(-0.102015429317 -0.0458673966061 -1.43258764203e-23)
(-0.0975988377795 -0.0445817281728 -1.10115080295e-23)
(-0.105503779924 -0.0515012552479 -1.15866370161e-23)
(-0.100793109233 -0.0503422335106 -1.1376039766e-23)
(-0.104417911859 -0.0562748023036 -4.47209129921e-24)
(-0.0812794706166 -0.00501450373512 1.20187414004e-21)
(-0.0772843505498 -0.0034689064833 6.77685963202e-22)
(-0.0832246733045 -0.0102405081814 6.88717590104e-22)
(-0.0800627241775 -0.00744587143562 1.29121709679e-21)
(-0.0842380770613 -0.015534676616 -3.72327071461e-24)
(-0.0810426701263 -0.0131916926544 -7.11952349679e-23)
(-0.0853919695517 -0.0208856679858 -4.69047663958e-23)
(-0.0820275266333 -0.0187461313628 -1.55809261291e-22)
(-0.0868532042122 -0.0263065094947 -1.59184394332e-23)
(-0.0832882538745 -0.0242897527619 -3.14937714925e-23)
(-0.0886544760455 -0.0318149735778 -1.22091396239e-23)
(-0.0848727385865 -0.0299134766229 -1.25620714222e-23)
(-0.0908099630883 -0.0374301506781 -1.8449693217e-23)
(-0.0867954383188 -0.0356428768436 -1.56030365814e-23)
(-0.0933339851626 -0.0431722077202 -1.27931860796e-23)
(-0.08906908656 -0.0414962774183 -1.60977950087e-23)
(-0.096243436036 -0.0490627330399 -8.06167137521e-24)
(-0.0917083591092 -0.0474952843514 -1.81232991831e-23)
(-0.099558839375 -0.0551250701524 -4.26149404905e-24)
(-0.0947308494726 -0.0536609072633 -1.20354051854e-23)
(-0.0981579197135 -0.0600211518259 1.3325584217e-23)
(-0.075999223198 -0.00532217307141 7.67028919951e-22)
(-0.0719620393809 -0.0036419346073 -3.83009021367e-22)
(-0.0778032476647 -0.0108607453142 5.31304271715e-22)
(-0.0745240181387 -0.00789195987735 1.47888634686e-21)
(-0.078752143638 -0.0164702862901 -2.23281225544e-22)
(-0.0754330178769 -0.0139415936229 -2.02927500577e-22)
(-0.0798394440941 -0.0221421018847 -1.40398266388e-22)
(-0.0763556365035 -0.0198088031056 -1.64223056849e-22)
(-0.0812175470443 -0.0278915658752 -2.81374034815e-23)
(-0.0775387582167 -0.0256675232641 -3.38901661138e-23)
(-0.0829161171702 -0.0337387159339 -1.59559683798e-23)
(-0.0790255993206 -0.0316145704258 -1.84429550503e-23)
(-0.084948095775 -0.0397049334906 -1.32511383731e-23)
(-0.080829265119 -0.0376779840496 -1.69095556098e-23)
(-0.0873265689101 -0.0458127986656 -2.14279081121e-23)
(-0.0829612855965 -0.0438783193091 6.82981963449e-24)
(-0.0900667451325 -0.0520861690901 -2.20970329933e-23)
(-0.0854351386732 -0.0502394262643 -3.03966279154e-23)
(-0.0931869118287 -0.0585510703752 5.55167308065e-24)
(-0.0882660770384 -0.0567842153637 -9.82997261561e-24)
(-0.0704185585801 -0.0056114795657 3.28848405545e-22)
(-0.0663504270664 -0.00380310998407 -5.06280638826e-22)
(-0.0720777151707 -0.0114434682132 7.44654574571e-22)
(-0.068691902003 -0.00830953396019 1.47866977175e-21)
(-0.0729581533116 -0.0173489658853 -1.43869331881e-22)
(-0.0695274176533 -0.0146426388724 1.16047872917e-22)
(-0.073972535081 -0.023321684354 -5.77149565751e-23)
(-0.0703828534702 -0.0208015045393 -3.48526525338e-23)
(-0.0752589738163 -0.0293791803288 -2.41957176826e-23)
(-0.0714812412606 -0.0269540203692 -1.69926072026e-23)
(-0.0768441535746 -0.0355435402226 -1.93965422804e-23)
(-0.0728612600608 -0.0332023303154 -1.4701821849e-23)
(-0.0787397869505 -0.0418381938254 3.17140239772e-24)
(-0.0745346643083 -0.0395766613632 -1.14861770596e-23)
(-0.0809576748661 -0.0482876339598 -2.13890016879e-24)
(-0.0765119804421 -0.0460995464759 6.45780453996e-24)
(-0.0835112671116 -0.0549179464861 -1.81295675377e-23)
(-0.078804979792 -0.0527966950515 -1.95461291755e-23)
(-0.0645570743213 -0.00588069951707 6.43540727381e-22)
(-0.0604695994701 -0.00395186842337 4.99394742409e-22)
(-0.0660682503848 -0.0119853022391 8.50063070099e-22)
(-0.062587179474 -0.00869628035466 1.6791228395e-21)
(-0.0668767469971 -0.0181654806966 2.25064552265e-22)
(-0.0633471456238 -0.0152908217889 2.91004815805e-22)
(-0.0678125123724 -0.0244172235789 5.86969683863e-24)
(-0.0641310545168 -0.0217183702572 -2.02696465322e-23)
(-0.0689995582894 -0.0307601431701 -7.49871136904e-24)
(-0.0651383075078 -0.0281414574467 -2.12706910883e-23)
(-0.0704616995114 -0.0372181941409 -6.79145662824e-24)
(-0.0664032333182 -0.0346670446255 -3.78919417444e-24)
(-0.0722094674158 -0.0438165626304 -8.19977491741e-24)
(-0.0679363670008 -0.0413273158977 -1.69852097616e-23)
(-0.0742533509308 -0.0505815466712 -1.09494244668e-23)
(-0.0697471206326 -0.0481465184648 -1.61052233086e-23)
(-0.071845841858 -0.055151888734 -1.43889612677e-23)
(-0.0584359424014 -0.00612866205122 1.53497685453e-21)
(-0.0543408188649 -0.00408810633053 4.75519953206e-22)
(-0.0597967609871 -0.0124834652426 1.1200645852e-21)
(-0.0562322678773 -0.00905062854553 2.63461531443e-21)
(-0.0605304236976 -0.018915254032 4.56706170086e-23)
(-0.0569152739236 -0.0158828072591 4.05798829247e-22)
(-0.0613825545179 -0.025422294252 -4.74100344592e-23)
(-0.0576239663757 -0.0225542422999 -7.06018033485e-24)
(-0.0624632867418 -0.0320262022913 -1.75611738937e-23)
(-0.0585343893723 -0.0292228821284 -1.82444513844e-23)
(-0.0637937431006 -0.038752645774 -1.39829473078e-23)
(-0.0596768143957 -0.0360000695936 -2.99341029527e-24)
(-0.0653833262773 -0.0456283630455 -2.48906581528e-23)
(-0.0610607172183 -0.0429197131796 -1.68385165442e-23)
(-0.0672413413861 -0.0526811732086 -1.95447601096e-23)
(-0.062694404436 -0.050007501151 -2.00518452637e-23)
(-0.064587108905 -0.0572919609348 -4.5003104046e-24)
(-0.0520771682454 -0.00635488306996 1.57515841311e-21)
(-0.0479858313242 -0.00421243991637 -2.46510344792e-23)
(-0.0532864009524 -0.0129359371562 1.92034955847e-21)
(-0.0496511201149 -0.00937205124622 1.90997974605e-21)
(-0.0539430295448 -0.019594425883 3.53068031904e-22)
(-0.0502567149111 -0.0164159837157 4.42704505502e-22)
(-0.0547071492179 -0.0263312252566 2.210540274e-23)
(-0.0508871276494 -0.0233045769674 -6.42488831631e-24)
(-0.055675360636 -0.0331700144996 -3.6766877859e-24)
(-0.0516955941231 -0.0301920246257 -1.33026143027e-23)
(-0.056866363268 -0.0401380219338 -5.84897953166e-24)
(-0.0527088300076 -0.037193614471 3.33587554161e-24)
(-0.0582885871357 -0.0472633531599 -1.19997036551e-23)
(-0.0539354338639 -0.0443446606753 -1.1567937121e-23)
(-0.0599502744608 -0.0545749684398 -5.00739555877e-24)
(-0.0553828568098 -0.0516719859484 -1.83225857342e-24)
(-0.0618605066249 -0.0621030368079 -3.77527354775e-24)
(-0.0570591061923 -0.0592051415578 -3.73828947123e-24)
(-0.0589731718258 -0.0669711746936 -1.60106573986e-23)
(-0.0455032236422 -0.00656001547496 3.10170298466e-22)
(-0.0414257284854 -0.00432676075502 -2.44721099865e-22)
(-0.0465617701819 -0.0133416322805 4.32334693085e-22)
(-0.0428694267448 -0.00966161778026 1.27554915726e-21)
(-0.0471399852995 -0.0201997400495 8.32115852822e-23)
(-0.0433985511582 -0.0168883687589 4.1775119036e-22)
(-0.0478122202875 -0.0271388555618 -4.1832905359e-23)
(-0.0439479825441 -0.0239651401585 1.01505791966e-23)
(-0.04866224716 -0.0341848434184 -6.29005097522e-24)
(-0.0446496040955 -0.031042953161 8.64839298548e-24)
(-0.0497067988149 -0.0413662148292 -2.38308204774e-24)
(-0.045527479581 -0.0382404188135 5.9203480868e-24)
(-0.0509535389247 -0.0487120389738 -1.40049203929e-24)
(-0.0465896456201 -0.0455937541404 6.00219346905e-25)
(-0.0524097254735 -0.0562521990964 -5.63152485875e-25)
(-0.0478427370377 -0.0531305239132 1.06787676268e-23)
(-0.0540832441038 -0.0640177046203 -1.5973673322e-23)
(-0.0492936249495 -0.0608810164553 -1.58889804804e-23)
(-0.0509498960761 -0.0688728918773 -1.03625744691e-23)
(-0.0387401061334 -0.00674655020149 7.20657758929e-22)
(-0.034679109865 -0.00443553470508 -6.97508102752e-22)
(-0.0396535411284 -0.0137006174292 1.26096565453e-21)
(-0.03591530169 -0.00992359565621 1.647907786e-21)
(-0.0401531092832 -0.0207282732962 3.44690184274e-22)
(-0.0363708551929 -0.0172984919037 5.58133055128e-22)
(-0.0407297840652 -0.027840121888 6.06318775411e-23)
(-0.0368361158506 -0.024531488597 8.64348762693e-23)
(-0.0414562492808 -0.0350641824871 2.08587920475e-23)
(-0.0374255477357 -0.0317695894301 7.24078776621e-23)
(-0.0423480550486 -0.0424296374796 8.90364948144e-24)
(-0.0381620468174 -0.0391333659516 3.21880061678e-23)
(-0.0434122737711 -0.0499660038983 1.2679479013e-23)
(-0.0390533104583 -0.0466590304738 4.74822884582e-23)
(-0.0446551743004 -0.0577037073695 -4.64706036776e-24)
(-0.0401050608703 -0.0543743468633 3.06728230024e-23)
(-0.0460833751695 -0.065674454858 -1.02778816275e-23)
(-0.0413228898212 -0.0623100113536 -5.03738387374e-24)
(-0.0427129968131 -0.070494170985 2.16237400373e-23)
(-0.0318184437937 -0.00692134839831 2.29741924317e-22)
(-0.0277577132227 -0.00454752793913 -3.08015480324e-22)
(-0.0326016806863 -0.0140150350306 9.45075186592e-22)
(-0.0288215772786 -0.0101669287539 1.58775147404e-21)
(-0.0330231979645 -0.0211770295397 2.99877747123e-22)
(-0.029208838351 -0.0176433038004 3.5521462195e-22)
(-0.0334994387764 -0.0284294269537 9.82108763903e-23)
(-0.0295837147187 -0.0249960970093 1.0791197738e-22)
(-0.0340963620286 -0.0358012388244 8.37370917823e-23)
(-0.0300537509994 -0.0323628669445 2.55596255761e-22)
(-0.034829386237 -0.0433207097192 7.07666451445e-23)
(-0.0306426062879 -0.0398625584294 1.69825186233e-22)
(-0.0357048940097 -0.0510168650673 6.54756324476e-23)
(-0.0313571921596 -0.0475296761013 1.89240434762e-22)
(-0.0367279366092 -0.0589202114029 3.02824994964e-23)
(-0.0322017479337 -0.0553914755349 1.58099431551e-22)
(-0.0379035749247 -0.0670627856738 2.68642377911e-23)
(-0.0331804123721 -0.0634787379186 -2.78141413903e-23)
(-0.0342972498805 -0.0718200158221 1.42735856297e-22)
(-0.0247378711295 -0.00709832905466 1.0499940694e-21)
(-0.0206593566958 -0.00466081835776 3.3607719808e-22)
(-0.0254175887315 -0.0142859790989 9.978909094e-22)
(-0.0216339102107 -0.0103835474103 2.78202787824e-21)
(-0.0257571942311 -0.0215375757444 1.63248852207e-22)
(-0.0219572388212 -0.0179006240146 3.3779150027e-22)
(-0.0261220048606 -0.0288954013736 2.65297356751e-22)
(-0.0222259030385 -0.0253322509922 4.95933495232e-23)
(-0.0265800339938 -0.0363837448223 3.41684350212e-22)
(-0.0225654391253 -0.0327940068552 3.13210998932e-22)
(-0.0271466094208 -0.0440263064137 2.88298975851e-22)
(-0.0230000908998 -0.0403964091094 3.86578345389e-22)
(-0.0278263670151 -0.0518502931956 2.81864233866e-22)
(-0.0235332577643 -0.0481704053554 7.47893819988e-23)
(-0.0286224107684 -0.0598856844444 1.00002790664e-22)
(-0.0241664755638 -0.0561424086088 4.84054303026e-22)
(-0.0295377318177 -0.0681647722481 8.80574771158e-23)
(-0.0249014041499 -0.064343119427 1.16273220531e-22)
(-0.0174056714958 -0.00726245476921 2.06811100692e-21)
(-0.0133968949934 -0.00466674266399 2.36415390909e-22)
(-0.0180200929065 -0.0144752920206 2.12192846911e-21)
(-0.0144210754982 -0.0104425517395 2.12754736455e-21)
(-0.0182580344898 -0.0217661772322 2.24135997586e-22)
(-0.0146663697568 -0.0179692141202 2.59010613486e-22)
(-0.0184890052954 -0.0291933917328 9.75069917046e-23)
(-0.0147987216338 -0.0254419924552 -3.32088649016e-22)
(-0.0187953431756 -0.0367636681852 3.58104994109e-22)
(-0.0149952137811 -0.0329562294901 3.40322914946e-22)
(-0.0191873529532 -0.0444928249585 1.73068751537e-22)
(-0.0152710005296 -0.0406123942064 1.17813067386e-21)
(-0.0196646102013 -0.0524059063503 2.7697945116e-22)
(-0.015620268528 -0.0484403961625 -1.05456067439e-21)
(-0.0202270452932 -0.0605326807895 5.00324732893e-22)
(-0.0160398328215 -0.0564672186658 1.055362069e-21)
(-0.0165289073425 -0.0647239251635 5.84202727024e-22)
(-0.00995094825662 -0.00719360530287 2.95851748544e-22)
(-0.00620329698946 -0.00412996754262 8.38784594407e-23)
(-0.0105959079223 -0.0143882203111 2.64629508931e-22)
(-0.00722647686698 -0.00988568854014 3.16872190473e-22)
(-0.0107145242377 -0.0217056310628 -2.97214033115e-22)
(-0.00734898953 -0.0174983630519 2.53533752284e-22)
(-0.0108029782143 -0.0291635737813 -8.92727257743e-23)
(-0.00734082672031 -0.0249394100674 -7.35517282531e-23)
(-0.01096918133 -0.0367588016907 1.1603485947e-21)
(-0.00740005245308 -0.032387180474 3.67197792873e-22)
(-0.0112056700597 -0.0445088557191 -4.94987520626e-23)
(-0.00752102854882 -0.0399493520539 1.36693702093e-21)
(-0.0115012055647 -0.0524411815189 -2.76178056544e-22)
(-0.00768805788666 -0.0476701322935 -8.56474965997e-22)
(-0.0118511262962 -0.0605869521189 1.13924006313e-21)
(-0.00789427210218 -0.0555840076524 1.62769196965e-21)
(-0.00813702177052 -0.0637251096412 8.81285255214e-22)
(-0.00414850119249 -0.00620330464477 1.0489890137e-22)
(-0.00467760334347 -0.0134297952871 3.05776433826e-22)
(-0.00470483694126 -0.0207788065784 4.77196057146e-22)
(-0.00468742527894 -0.0281196645942 3.82918790394e-22)
(-0.00471338401202 -0.0355197575452 5.73786219101e-22)
(-0.00477509753938 -0.0430408329167 5.59960806993e-22)
(-0.00486359838362 -0.0507289977276 1.04739506019e-21)
(-0.00497477705187 -0.0586233702574 1.36973716173e-21)
)
;

boundaryField
{
    back
    {
        type            calculated;
        value           uniform (0 0 0);
    }
    sides
    {
        type            calculated;
        value           uniform (0 0 0);
    }
    bottom
    {
        type            calculated;
        value           uniform (0 0 0);
    }
    front
    {
        type            calculated;
        value           uniform (0 0 0);
    }
    atmosphere
    {
        type            calculated;
        value           nonuniform List<vector> 0();
    }
    floatingObject
    {
        type            calculated;
        value           nonuniform List<vector> 0();
    }
    procBoundary10to9
    {
        type            processor;
        value           nonuniform List<vector> 
15
(
(-0.105253963378 -0.0126281994816 -1.97465282768e-22)
(-0.106776745675 -0.0163554557872 -4.19994117094e-23)
(-0.108685606018 -0.020115010296 -1.03922602813e-23)
(-0.110999895472 -0.0239159709218 -5.08007304752e-24)
(-0.113735327752 -0.0277610082185 -1.25137433856e-23)
(-0.116910724064 -0.0316547958077 -2.91949318608e-23)
(-0.120549609798 -0.0356009033704 3.67620821686e-24)
(-0.124681897918 -0.039604178309 9.59822757645e-24)
(-0.0989319158825 -0.00543480269081 9.78164675797e-22)
(-0.102761871471 -0.0113439994567 -1.82626164744e-22)
(-0.100164448699 -0.00980017399217 -3.47295273967e-22)
(-0.0951501100868 -0.00399993604083 2.04743305039e-22)
(-0.0908696560568 -0.00435138793508 4.84315686838e-23)
(-0.0862415563941 -0.00469025800205 3.4805662772e-22)
(-0.0822990426729 -0.00328476981861 2.7317600526e-22)
)
;
    }
    procBoundary10to11
    {
        type            processor;
        value           nonuniform List<vector> 
23
(
(-0.124888277706 -0.0440169549867 5.97109758453e-24)
(-0.124946767205 -0.0485839539183 -2.84759703821e-23)
(-0.125035265324 -0.0535415931129 7.98595678262e-24)
(-0.119721184018 -0.0585224799235 1.55303459104e-23)
(-0.11450125064 -0.0579959353618 -3.20614557778e-23)
(-0.109446309446 -0.0573074142229 -3.40033068695e-23)
(-0.103302511752 -0.0613850967229 6.655207214e-24)
(-0.0967065972004 -0.0652359361054 3.42082353583e-23)
(-0.0914731495498 -0.0635434001749 2.8405211269e-23)
(-0.0864167369984 -0.0617570939971 1.30235655727e-23)
(-0.0814271090502 -0.0596924788522 -2.64339732504e-24)
(-0.0766051855704 -0.0575408488664 -4.05995896281e-24)
(-0.0693781721102 -0.0599400250878 -2.02328014057e-23)
(-0.0667489862006 -0.0647994479092 -1.95077645489e-23)
(-0.0640299568246 -0.0698789604228 -2.13661970007e-23)
(-0.0559834175236 -0.0720409787672 -1.11326151848e-23)
(-0.0477047870566 -0.0739113660904 -2.53408960069e-24)
(-0.0392379221676 -0.0754785316652 3.83465387878e-23)
(-0.0305761256193 -0.0767221192715 2.135548957e-22)
(-0.0257400160714 -0.0728012446536 1.44466449512e-24)
(-0.0208752193732 -0.0689053632973 2.96604079101e-23)
(-0.0122538749338 -0.0689790264879 -2.19640792458e-22)
(-0.0051064526134 -0.0667605128641 7.67437617583e-22)
)
;
    }
}


// ************************************************************************* //
