/*--------------------------------*- C++ -*----------------------------------*\
| =========                 |                                                 |
| \\      /  F ield         | OpenFOAM: The Open Source CFD Toolbox           |
|  \\    /   O peration     | Version:  v2012                                 |
|   \\  /    A nd           | Website:  www.openfoam.com                      |
|    \\/     M anipulation  |                                                 |
\*---------------------------------------------------------------------------*/
FoamFile
{
    version     2.0;
    format      ascii;
    class       volScalarField;
    location    "1.5";
    object      nut;
}
// * * * * * * * * * * * * * * * * * * * * * * * * * * * * * * * * * * * * * //

dimensions      [0 2 -1 0 0 0 0];


internalField   nonuniform List<scalar> 
167
(
0.001239828741
0.00124698254552
0.00126604709658
0.00131328839891
0.00141207280412
0.001579765088
0.00181409496202
0.00210624771418
0.00241845883304
0.00124690242927
0.00126774594532
0.00131871460684
0.00142327121533
0.00159737232319
0.00184054020125
0.00214788031333
0.00252427872248
0.00124687528219
0.00126954612425
0.00132425940212
0.00143464043596
0.00161695241953
0.00188058850328
0.0022796815559
0.00304777959651
0.0012375849851
0.00124689932739
0.00127143636967
0.0013299173471
0.00144612649965
0.00163596597728
0.00191009624356
0.00232294144942
0.00308259045648
0.00123688631565
0.00124697115136
0.00127339465546
0.00133561980275
0.00145750591532
0.00165418225425
0.00193488418759
0.00234886469824
0.00308818861316
0.00123621865233
0.00124708485452
0.00127539188871
0.00134128282109
0.00146857545602
0.00167137422605
0.00195681795364
0.00237024601241
0.00309223388833
0.00123090578544
0.00123558457187
0.00124723222312
0.00127739136247
0.00134681326851
0.00147917416524
0.00168744840674
0.00197666633236
0.00238935888122
0.00309650871655
0.00122741746463
0.00123000593199
0.00123498706849
0.00124740414265
0.00127935635429
0.0013521252766
0.00148917556176
0.00170240567037
0.00199509203183
0.00240732205558
0.00310115516642
0.00122641869744
0.00122914645213
0.00123442491212
0.00124758904616
0.00128125497474
0.00135715681985
0.00149846764185
0.00171598028712
0.0020113957186
0.00242294743521
0.00310541844662
0.00122831696758
0.00123388297053
0.00124775994322
0.00128303563086
0.00136181664962
0.00150691784955
0.00172803071112
0.00202548677108
0.00243615936608
0.00310914356165
0.00122746378941
0.00123330166338
0.00124784751277
0.00128461759194
0.00136601714265
0.00151443848762
0.00173851980204
0.00203753290817
0.00244736107732
0.00311250011118
0.00122639621821
0.00123247963107
0.00124763803491
0.00128577859297
0.00136954771189
0.00152085274264
0.00174727812382
0.00204730526826
0.00245644044009
0.00311544721365
0.0012245057585
0.00123079219919
0.00124648765691
0.00128586254049
0.00137177111675
0.00152557019809
0.00175368286476
0.00205383006764
0.00246216319336
0.00311735944308
0.0012199958998
0.0012264165926
0.00124254083441
0.00128299806844
0.00137087392705
0.00152690248569
0.0017560324446
0.00205494345056
0.0024621570715
0.0031178073382
0.00120460124407
0.00120781693601
0.00121426411209
0.00123064502628
0.00127200321653
0.00136181790692
0.0015200271804
0.00174899266056
0.00204296994226
0.00243824607068
0.00310296034507
0.00117074474534
0.00117388477078
0.00118017177498
0.0011963592221
0.0012378825176
0.0013289680007
0.00148908943649
0.00171753995252
0.00200301793615
0.00238604140101
0.00307866407136
0.000793483266577
0.000795892457013
0.0008000608608
0.000810026378964
0.000835770027332
0.000895399402675
0.00101145079962
0.00120311076531
0.00148302745984
0.00185385445113
0.00233495517721
)
;

boundaryField
{
    back
    {
        type            nutkWallFunction;
        blending        stepwise;
        Cmu             0.09;
        kappa           0.41;
        E               9.8;
        value           nonuniform List<scalar> 
167
(
0.000121206175147
0.000121823694299
0.000123477255076
0.000127611920543
0.000136328664981
0.000151217361069
0.000172310131155
0.000249946495403
0.000287701800619
0.000121811851145
0.000123619800638
0.000128082539293
0.00013731478802
0.00015277147482
0.000174553019995
0.000254004581629
0.000296110790312
0.000121804098612
0.000123769915783
0.000128560108705
0.000138303188111
0.000154436959037
0.000177789270395
0.000266789537558
0.000345025245056
0.000120998566103
0.000121800212467
0.000123926169509
0.00012904250302
0.000139288652829
0.000156051010027
0.000180306858198
0.000271360085547
0.000348414960306
0.00012093324364
0.000121799911746
0.000124086637443
0.000129524297491
0.000140255790117
0.000157590888962
0.000182464481984
0.00027420645103
0.000349098802052
0.000120870496303
0.000121802752911
0.000124248998712
0.000129999130028
0.000141189950673
0.000159036963874
0.000184380576304
0.000276517330985
0.000349589673723
0.000120408888588
0.000120810604778
0.000121808137252
0.000124410364847
0.000130459737939
0.000142078789698
0.000160381750321
0.000186116786601
0.000278548866652
0.000350075646664
0.000120101877295
0.000120327086097
0.000120753908813
0.000121815410982
0.000124567873702
0.000130899422684
0.000142912707801
0.000161627280133
0.000187733798184
0.000280457718794
0.000350601420399
0.000120012005856
0.000120248955802
0.000120700383853
0.000121823732896
0.00012471912067
0.000131313628008
0.000143683706388
0.000162753023682
0.000189170697884
0.000282101858113
0.00035107476279
0.000120173667874
0.00012064883066
0.000121830965584
0.000124860048196
0.000131695275308
0.000144381736262
0.000163748566517
0.000190419316787
0.000283477924037
0.000351480114045
0.000120096662882
0.000120594223878
0.000121831327369
0.000124984074024
0.000132037547922
0.000145000499937
0.000164612274842
0.000191493854328
0.000284636770986
0.000351839703525
0.000120001467949
0.000120519210779
0.000121806501829
0.000125072320861
0.000132322812891
0.000145525716259
0.000165331646811
0.000192377849927
0.000285575531524
0.000352155345218
0.000119834885628
0.000120369273758
0.000121700488979
0.000125068054992
0.000132496477701
0.000145907741448
0.000165855699283
0.000192989078965
0.00028616884291
0.000352365962577
0.000119438391929
0.000119983763773
0.000121350159385
0.00012480749181
0.000132401145789
0.000146002365236
0.000166040929688
0.000193137531293
0.000286153152596
0.000352407124409
0.000118084592239
0.000118362834137
0.000118910503924
0.000120298621916
0.00012383278188
0.000131594799061
0.000145395620042
0.000165447908394
0.000192199268334
0.000283745013448
0.000350946623092
0.000115074033101
0.000115346609145
0.000115882214101
0.000117257370699
0.000120813780979
0.000128703987986
0.000142714565441
0.000162770482147
0.000188808166136
0.000278027457798
0.000348222108828
0.000104993654345
0.000105278858599
0.000105762729242
0.00010691068428
0.000109893091596
0.000116863811008
0.000130482420034
0.000152889836932
0.000186537373086
0.000287160418456
0.000352111375805
)
;
    }
    sides
    {
        type            nutkWallFunction;
        blending        stepwise;
        Cmu             0.09;
        kappa           0.41;
        E               9.8;
        value           nonuniform List<scalar> 
11
(
5.5879068684e-05
5.60308912033e-05
5.62884639612e-05
5.68995121148e-05
5.84868431414e-05
6.21958901363e-05
6.94385193239e-05
8.13461608716e-05
9.92262572889e-05
0.000149925608546
0.000184886362374
)
;
    }
    bottom
    {
        type            nutkWallFunction;
        blending        stepwise;
        Cmu             0.09;
        kappa           0.41;
        E               9.8;
        value           nonuniform List<scalar> 0();
    }
    front
    {
        type            nutkWallFunction;
        blending        stepwise;
        Cmu             0.09;
        kappa           0.41;
        E               9.8;
        value           nonuniform List<scalar> 
167
(
0.000121206175147
0.000121823694299
0.000123477255076
0.000127611920543
0.000136328664981
0.000151217361069
0.000172310131155
0.000249946495403
0.000287701800619
0.000121811851145
0.000123619800638
0.000128082539293
0.00013731478802
0.00015277147482
0.000174553019995
0.000254004581629
0.000296110790312
0.000121804098612
0.000123769915783
0.000128560108705
0.000138303188111
0.000154436959037
0.000177789270395
0.000266789537558
0.000345025245056
0.000120998566103
0.000121800212467
0.000123926169509
0.00012904250302
0.000139288652829
0.000156051010027
0.000180306858198
0.000271360085547
0.000348414960306
0.00012093324364
0.000121799911746
0.000124086637443
0.000129524297491
0.000140255790117
0.000157590888962
0.000182464481984
0.00027420645103
0.000349098802052
0.000120870496303
0.000121802752911
0.000124248998712
0.000129999130028
0.000141189950673
0.000159036963874
0.000184380576304
0.000276517330985
0.000349589673723
0.000120408888588
0.000120810604778
0.000121808137252
0.000124410364847
0.000130459737939
0.000142078789698
0.000160381750321
0.000186116786601
0.000278548866652
0.000350075646664
0.000120101877295
0.000120327086097
0.000120753908813
0.000121815410982
0.000124567873702
0.000130899422684
0.000142912707801
0.000161627280133
0.000187733798184
0.000280457718794
0.000350601420399
0.000120012005856
0.000120248955802
0.000120700383853
0.000121823732896
0.00012471912067
0.000131313628008
0.000143683706388
0.000162753023682
0.000189170697884
0.000282101858113
0.00035107476279
0.000120173667874
0.00012064883066
0.000121830965584
0.000124860048196
0.000131695275308
0.000144381736262
0.000163748566517
0.000190419316787
0.000283477924037
0.000351480114045
0.000120096662882
0.000120594223878
0.000121831327369
0.000124984074024
0.000132037547922
0.000145000499937
0.000164612274842
0.000191493854328
0.000284636770986
0.000351839703525
0.000120001467949
0.000120519210779
0.000121806501829
0.000125072320861
0.000132322812891
0.000145525716259
0.000165331646811
0.000192377849927
0.000285575531524
0.000352155345218
0.000119834885628
0.000120369273758
0.000121700488979
0.000125068054992
0.000132496477701
0.000145907741448
0.000165855699283
0.000192989078965
0.00028616884291
0.000352365962577
0.000119438391929
0.000119983763773
0.000121350159385
0.00012480749181
0.000132401145789
0.000146002365236
0.000166040929688
0.000193137531293
0.000286153152596
0.000352407124409
0.000118084592239
0.000118362834137
0.000118910503924
0.000120298621916
0.00012383278188
0.000131594799061
0.000145395620042
0.000165447908394
0.000192199268334
0.000283745013448
0.000350946623092
0.000115074033101
0.000115346609145
0.000115882214101
0.000117257370699
0.000120813780979
0.000128703987986
0.000142714565441
0.000162770482147
0.000188808166136
0.000278027457798
0.000348222108828
0.000104993654345
0.000105278858599
0.000105762729242
0.00010691068428
0.000109893091596
0.000116863811008
0.000130482420034
0.000152889836932
0.000186537373086
0.000287160418456
0.000352111375805
)
;
    }
    atmosphere
    {
        type            calculated;
        value           nonuniform List<scalar> 
17
(
0.00241845883304
0.00252427872248
0.009
0.009
0.009
0.009
0.009
0.009
0.009
0.009
0.009
0.009
0.009
0.009
0.009
0.009
0.009
)
;
    }
    floatingObject
    {
        type            nutkWallFunction;
        blending        stepwise;
        Cmu             0.09;
        kappa           0.41;
        E               9.8;
        value           nonuniform List<scalar> 0();
    }
    procBoundary11to9
    {
        type            processor;
        value           nonuniform List<scalar> 9(0.00124061312284 0.0012471147197 0.00126445616693 0.00130794897912 0.00140061771905 0.00156229063856 0.00179834584736 0.00214722771995 0.00251282185084);
    }
    procBoundary11to10
    {
        type            processor;
        value           nonuniform List<scalar> 
23
(
0.00123681209277
0.00123905911348
0.00123905911348
0.001238310014
0.001238310014
0.0012337880779
0.0012328032368
0.00123184017361
0.00123184017361
0.00122845371692
0.00122845371692
0.00122554264177
0.00122444866384
0.00122545212186
0.00122545212186
0.00122446844233
0.00122328526594
0.00122130704114
0.00121675608641
0.00121675608641
0.0012022866743
0.00116845559624
0.000791543421135
)
;
    }
}


// ************************************************************************* //
