/*--------------------------------*- C++ -*----------------------------------*\
| =========                 |                                                 |
| \\      /  F ield         | OpenFOAM: The Open Source CFD Toolbox           |
|  \\    /   O peration     | Version:  v2012                                 |
|   \\  /    A nd           | Website:  www.openfoam.com                      |
|    \\/     M anipulation  |                                                 |
\*---------------------------------------------------------------------------*/
FoamFile
{
    version     2.0;
    format      ascii;
    class       volScalarField;
    location    "2.1";
    object      k_0;
}
// * * * * * * * * * * * * * * * * * * * * * * * * * * * * * * * * * * * * * //

dimensions      [0 2 -2 0 0 0 0];


internalField   nonuniform List<scalar> 
164
(
0.00802116748036
0.00803878620602
0.00806046247088
0.0080931744594
0.00816061670831
0.00833278462111
0.00879731870849
0.0100356224351
0.0131777036905
0.0200761453784
0.0330650917535
0.0597598501254
0.00802940233483
0.00804757279722
0.00806958592384
0.00810170283992
0.00816569900805
0.00832762739011
0.00877016245873
0.00997095274636
0.013025448035
0.0194526210763
0.029643323324
0.0418211565448
0.00807850581162
0.0081103935886
0.00817162471534
0.00832516608399
0.00875139932509
0.00993848223744
0.0130210224363
0.0196195023531
0.0301988950916
0.0406960087161
0.00808715007808
0.00811918908376
0.00817821458527
0.00832380208903
0.00873249736141
0.00990034756113
0.0130660957847
0.0204433477569
0.0338255234098
0.0496559433415
0.00809541757748
0.00812798652579
0.00818533107927
0.0083233937756
0.00871337124643
0.00985687736242
0.0131483645451
0.0218813244884
0.0409393436139
0.0752457277668
0.0081031834226
0.00813666732157
0.00819297727815
0.00832463974091
0.0086986426123
0.00983296938504
0.0133200194037
0.02315516416
0.0440940734196
0.0778969341032
0.00811022060086
0.0081450264285
0.00820110139499
0.00832862131589
0.00869705872484
0.00987005400202
0.0136736819521
0.0243879991419
0.0456569298516
0.0785998970703
0.00811636823186
0.00815298807042
0.00821024789415
0.00834046356409
0.00873922263501
0.0100794914544
0.0142958549906
0.0250086642377
0.0446252550923
0.0772376684923
0.00812143479781
0.00816032531611
0.00822072755185
0.00836589886201
0.00885656755813
0.0105392990132
0.0150995973371
0.0238696529435
0.037443921266
0.0567688164646
0.00812505037452
0.00816663268231
0.0082330229112
0.00840808295935
0.00904070184377
0.0111170589426
0.0160956562104
0.0249643577108
0.041515134437
0.0520801617475
0.00812710381003
0.0081725963504
0.00825317563964
0.00850323971749
0.00942600763938
0.012103271142
0.0175311417638
0.0273188726918
0.0527534069065
0.0803885583426
0.0081263510589
0.00817182854766
0.00824070121687
0.00841552530623
0.00905189254075
0.0112101752872
0.0170271242474
0.0294987608377
0.048429093998
0.0775934686722
0.00812409071853
0.00817072271681
0.00823335621764
0.00836197971132
0.00880981608099
0.0106193802687
0.0169595896805
0.0317823442253
0.0522050495232
0.0791710986079
0.00812018281981
0.00816899869713
0.00823210822949
0.0083595643071
0.00884566393035
0.0109723617877
0.0181061721994
0.0337372124133
0.0556670443946
0.0817150353265
0.00811455313528
0.0081664427729
0.00823735780452
0.00842596116925
0.00935709161231
0.0132701573661
0.0230142848313
0.0379997281894
0.0550986369804
0.0795603924435
0.00810668635803
0.00815963848171
0.00822268208458
0.00833167594458
0.00871963965527
0.0104018647374
0.0161578751124
0.0299600973108
0.0530639821033
0.0816181563514
)
;

boundaryField
{
    back
    {
        type            kqRWallFunction;
        value           nonuniform List<scalar> 
164
(
0.00802116748036
0.00803878620602
0.00806046247088
0.0080931744594
0.00816061670831
0.00833278462111
0.00879731870849
0.0100356224351
0.0131777036905
0.0200761453784
0.0330650917535
0.0597598501254
0.00802940233483
0.00804757279722
0.00806958592384
0.00810170283992
0.00816569900805
0.00832762739011
0.00877016245873
0.00997095274636
0.013025448035
0.0194526210763
0.029643323324
0.0418211565448
0.00807850581162
0.0081103935886
0.00817162471534
0.00832516608399
0.00875139932509
0.00993848223744
0.0130210224363
0.0196195023531
0.0301988950916
0.0406960087161
0.00808715007808
0.00811918908376
0.00817821458527
0.00832380208903
0.00873249736141
0.00990034756113
0.0130660957847
0.0204433477569
0.0338255234098
0.0496559433415
0.00809541757748
0.00812798652579
0.00818533107927
0.0083233937756
0.00871337124643
0.00985687736242
0.0131483645451
0.0218813244884
0.0409393436139
0.0752457277668
0.0081031834226
0.00813666732157
0.00819297727815
0.00832463974091
0.0086986426123
0.00983296938504
0.0133200194037
0.02315516416
0.0440940734196
0.0778969341032
0.00811022060086
0.0081450264285
0.00820110139499
0.00832862131589
0.00869705872484
0.00987005400202
0.0136736819521
0.0243879991419
0.0456569298516
0.0785998970703
0.00811636823186
0.00815298807042
0.00821024789415
0.00834046356409
0.00873922263501
0.0100794914544
0.0142958549906
0.0250086642377
0.0446252550923
0.0772376684923
0.00812143479781
0.00816032531611
0.00822072755185
0.00836589886201
0.00885656755813
0.0105392990132
0.0150995973371
0.0238696529435
0.037443921266
0.0567688164646
0.00812505037452
0.00816663268231
0.0082330229112
0.00840808295935
0.00904070184377
0.0111170589426
0.0160956562104
0.0249643577108
0.041515134437
0.0520801617475
0.00812710381003
0.0081725963504
0.00825317563964
0.00850323971749
0.00942600763938
0.012103271142
0.0175311417638
0.0273188726918
0.0527534069065
0.0803885583426
0.0081263510589
0.00817182854766
0.00824070121687
0.00841552530623
0.00905189254075
0.0112101752872
0.0170271242474
0.0294987608377
0.048429093998
0.0775934686722
0.00812409071853
0.00817072271681
0.00823335621764
0.00836197971132
0.00880981608099
0.0106193802687
0.0169595896805
0.0317823442253
0.0522050495232
0.0791710986079
0.00812018281981
0.00816899869713
0.00823210822949
0.0083595643071
0.00884566393035
0.0109723617877
0.0181061721994
0.0337372124133
0.0556670443946
0.0817150353265
0.00811455313528
0.0081664427729
0.00823735780452
0.00842596116925
0.00935709161231
0.0132701573661
0.0230142848313
0.0379997281894
0.0550986369804
0.0795603924435
0.00810668635803
0.00815963848171
0.00822268208458
0.00833167594458
0.00871963965527
0.0104018647374
0.0161578751124
0.0299600973108
0.0530639821033
0.0816181563514
)
;
    }
    sides
    {
        type            kqRWallFunction;
        value           nonuniform List<scalar> 0();
    }
    bottom
    {
        type            kqRWallFunction;
        value           nonuniform List<scalar> 0();
    }
    front
    {
        type            kqRWallFunction;
        value           nonuniform List<scalar> 
164
(
0.00802116748036
0.00803878620602
0.00806046247088
0.0080931744594
0.00816061670831
0.00833278462111
0.00879731870849
0.0100356224351
0.0131777036905
0.0200761453784
0.0330650917535
0.0597598501254
0.00802940233483
0.00804757279722
0.00806958592384
0.00810170283992
0.00816569900805
0.00832762739011
0.00877016245873
0.00997095274636
0.013025448035
0.0194526210763
0.029643323324
0.0418211565448
0.00807850581162
0.0081103935886
0.00817162471534
0.00832516608399
0.00875139932509
0.00993848223744
0.0130210224363
0.0196195023531
0.0301988950916
0.0406960087161
0.00808715007808
0.00811918908376
0.00817821458527
0.00832380208903
0.00873249736141
0.00990034756113
0.0130660957847
0.0204433477569
0.0338255234098
0.0496559433415
0.00809541757748
0.00812798652579
0.00818533107927
0.0083233937756
0.00871337124643
0.00985687736242
0.0131483645451
0.0218813244884
0.0409393436139
0.0752457277668
0.0081031834226
0.00813666732157
0.00819297727815
0.00832463974091
0.0086986426123
0.00983296938504
0.0133200194037
0.02315516416
0.0440940734196
0.0778969341032
0.00811022060086
0.0081450264285
0.00820110139499
0.00832862131589
0.00869705872484
0.00987005400202
0.0136736819521
0.0243879991419
0.0456569298516
0.0785998970703
0.00811636823186
0.00815298807042
0.00821024789415
0.00834046356409
0.00873922263501
0.0100794914544
0.0142958549906
0.0250086642377
0.0446252550923
0.0772376684923
0.00812143479781
0.00816032531611
0.00822072755185
0.00836589886201
0.00885656755813
0.0105392990132
0.0150995973371
0.0238696529435
0.037443921266
0.0567688164646
0.00812505037452
0.00816663268231
0.0082330229112
0.00840808295935
0.00904070184377
0.0111170589426
0.0160956562104
0.0249643577108
0.041515134437
0.0520801617475
0.00812710381003
0.0081725963504
0.00825317563964
0.00850323971749
0.00942600763938
0.012103271142
0.0175311417638
0.0273188726918
0.0527534069065
0.0803885583426
0.0081263510589
0.00817182854766
0.00824070121687
0.00841552530623
0.00905189254075
0.0112101752872
0.0170271242474
0.0294987608377
0.048429093998
0.0775934686722
0.00812409071853
0.00817072271681
0.00823335621764
0.00836197971132
0.00880981608099
0.0106193802687
0.0169595896805
0.0317823442253
0.0522050495232
0.0791710986079
0.00812018281981
0.00816899869713
0.00823210822949
0.0083595643071
0.00884566393035
0.0109723617877
0.0181061721994
0.0337372124133
0.0556670443946
0.0817150353265
0.00811455313528
0.0081664427729
0.00823735780452
0.00842596116925
0.00935709161231
0.0132701573661
0.0230142848313
0.0379997281894
0.0550986369804
0.0795603924435
0.00810668635803
0.00815963848171
0.00822268208458
0.00833167594458
0.00871963965527
0.0104018647374
0.0161578751124
0.0299600973108
0.0530639821033
0.0816181563514
)
;
    }
    atmosphere
    {
        type            inletOutlet;
        inletValue      uniform 0.1;
        value           nonuniform List<scalar> 
16
(
0.1
0.0418211565448
0.0406960087161
0.0496559433415
0.1
0.1
0.1
0.1
0.0567688164646
0.0520801617475
0.1
0.1
0.1
0.1
0.0795603924435
0.1
)
;
    }
    floatingObject
    {
        type            kqRWallFunction;
        value           nonuniform List<scalar> 0();
    }
    procBoundary5to0
    {
        type            processor;
        value           nonuniform List<scalar> 
12
(
0.00801237378286
0.00802962700913
0.00805120490294
0.00808488308466
0.0081564303328
0.00834000602433
0.00882804033426
0.0101061217483
0.0133466294984
0.020641338193
0.0346506259235
0.0583577496703
)
;
    }
    procBoundary5to3
    {
        type            processor;
        value           nonuniform List<scalar> 10(0.00809771727204 0.00815310852278 0.00821500172116 0.0082993653226 0.00852132806912 0.00949068373936 0.0136586061826 0.0265900598076 0.0519619909019 0.0818913553532);
    }
    procBoundary5to4
    {
        type            processor;
        value           nonuniform List<scalar> 
18
(
0.00800578192588
0.0080134775668
0.00803699656596
0.0080559102989
0.0080559102989
0.00806371325813
0.0080708733807
0.00807725700172
0.00808268601683
0.0080869684193
0.00808991040621
0.00809130425842
0.0080909068341
0.00808837350423
0.00808396534223
0.00807759112149
0.00806921195191
0.0080587291661
)
;
    }
}


// ************************************************************************* //
