/*--------------------------------*- C++ -*----------------------------------*\
| =========                 |                                                 |
| \\      /  F ield         | OpenFOAM: The Open Source CFD Toolbox           |
|  \\    /   O peration     | Version:  v2012                                 |
|   \\  /    A nd           | Website:  www.openfoam.com                      |
|    \\/     M anipulation  |                                                 |
\*---------------------------------------------------------------------------*/
FoamFile
{
    version     2.0;
    format      ascii;
    class       volScalarField;
    location    "2.1";
    object      rAU;
}
// * * * * * * * * * * * * * * * * * * * * * * * * * * * * * * * * * * * * * //

dimensions      [-1 3 1 0 0 0 0];


internalField   nonuniform List<scalar> 
164
(
9.39735968556e-06
9.39705697543e-06
9.39679438381e-06
9.39630309006e-06
9.3947381269e-06
9.39196579591e-06
9.38837667936e-06
9.3730003455e-06
9.37509127184e-06
1.74803675139e-05
0.00210238149089
0.00821801456042
9.39801786822e-06
9.3976448791e-06
9.39715345685e-06
9.39622956275e-06
9.39451675298e-06
9.39121925687e-06
9.38539917524e-06
9.36668603865e-06
9.37096910364e-06
1.67070689225e-05
0.00296996936841
0.00923004822434
9.39759833334e-06
9.39672318526e-06
9.39497406653e-06
9.39112247067e-06
9.38118320541e-06
9.35795300348e-06
9.34341685826e-06
1.60909245077e-05
0.00348056484949
0.00924647480168
9.39822168163e-06
9.39743469605e-06
9.39577327072e-06
9.39189999906e-06
9.38153038733e-06
9.36544763909e-06
9.3583271665e-06
1.57256153836e-05
0.00337307860973
0.00894511977787
9.39904042973e-06
9.39848193101e-06
9.39747377724e-06
9.39348977311e-06
9.37901677016e-06
9.36482442676e-06
9.38237784865e-06
1.55653358089e-05
0.00325736120371
0.00815164964669
9.39976062132e-06
9.40008850171e-06
9.40034329611e-06
9.39698864549e-06
9.378721322e-06
9.37894833629e-06
9.36144479729e-06
1.55038679768e-05
0.0031862057203
0.00806568345698
9.39982145033e-06
9.40042609447e-06
9.40065385085e-06
9.39339075028e-06
9.37642938503e-06
9.40095706444e-06
9.3487315475e-06
1.56179544453e-05
0.00316423354433
0.00802724666876
9.40024063012e-06
9.39976419986e-06
9.39776578282e-06
9.37804901887e-06
9.33846672154e-06
9.34911876949e-06
9.29669232217e-06
1.58694958114e-05
0.00319228412337
0.00809149364118
9.40160321799e-06
9.40334513562e-06
9.40401702102e-06
9.39482008724e-06
9.38514181938e-06
9.31912083221e-06
9.20574498266e-06
1.56463902371e-05
0.00320972408872
0.00911377363606
9.39922133224e-06
9.39924436203e-06
9.39703637275e-06
9.38862804109e-06
9.38686344285e-06
9.31051320573e-06
9.21558454795e-06
1.45999254829e-05
0.00208138667129
0.00886217153025
9.39795568919e-06
9.39583893561e-06
9.38573098791e-06
9.3415394686e-06
9.32520881765e-06
9.37832037288e-06
9.22961830884e-06
1.42914819715e-05
0.000378269777804
0.00683042242747
9.39837880798e-06
9.39832647909e-06
9.40095267732e-06
9.39249293811e-06
9.39800396399e-06
9.35031124679e-06
9.19015268896e-06
1.40694188553e-05
0.00275572340526
0.009107331648
9.40009261327e-06
9.40254871712e-06
9.4093505545e-06
9.41801363734e-06
9.43678342296e-06
9.36627784286e-06
9.20548262175e-06
1.46066708445e-05
0.00278417811975
0.00795867228199
9.39866169019e-06
9.39840236893e-06
9.40236731762e-06
9.40942886315e-06
9.39784835901e-06
9.33532829379e-06
9.2594052209e-06
1.58995382986e-05
0.00304500348867
0.00803004610569
9.3991866777e-06
9.39734595033e-06
9.39436339204e-06
9.379331931e-06
9.35706893518e-06
9.29564720105e-06
9.21013115718e-06
1.86452513731e-05
0.00318845935437
0.00889853675446
9.39424436568e-06
9.39016834449e-06
9.39607174407e-06
9.39068994839e-06
9.36029813533e-06
9.34015390856e-06
9.37327676433e-06
1.34124796874e-05
0.00191724488196
0.0080064700621
)
;

boundaryField
{
    back
    {
        type            calculated;
        value           nonuniform List<scalar> 
164
(
9.39735968556e-06
9.39705697543e-06
9.39679438381e-06
9.39630309006e-06
9.3947381269e-06
9.39196579591e-06
9.38837667936e-06
9.3730003455e-06
9.37509127184e-06
1.74803675139e-05
0.00210238149089
0.00821801456042
9.39801786822e-06
9.3976448791e-06
9.39715345685e-06
9.39622956275e-06
9.39451675298e-06
9.39121925687e-06
9.38539917524e-06
9.36668603865e-06
9.37096910364e-06
1.67070689225e-05
0.00296996936841
0.00923004822434
9.39759833334e-06
9.39672318526e-06
9.39497406653e-06
9.39112247067e-06
9.38118320541e-06
9.35795300348e-06
9.34341685826e-06
1.60909245077e-05
0.00348056484949
0.00924647480168
9.39822168163e-06
9.39743469605e-06
9.39577327072e-06
9.39189999906e-06
9.38153038733e-06
9.36544763909e-06
9.3583271665e-06
1.57256153836e-05
0.00337307860973
0.00894511977787
9.39904042973e-06
9.39848193101e-06
9.39747377724e-06
9.39348977311e-06
9.37901677016e-06
9.36482442676e-06
9.38237784865e-06
1.55653358089e-05
0.00325736120371
0.00815164964669
9.39976062132e-06
9.40008850171e-06
9.40034329611e-06
9.39698864549e-06
9.378721322e-06
9.37894833629e-06
9.36144479729e-06
1.55038679768e-05
0.0031862057203
0.00806568345698
9.39982145033e-06
9.40042609447e-06
9.40065385085e-06
9.39339075028e-06
9.37642938503e-06
9.40095706444e-06
9.3487315475e-06
1.56179544453e-05
0.00316423354433
0.00802724666876
9.40024063012e-06
9.39976419986e-06
9.39776578282e-06
9.37804901887e-06
9.33846672154e-06
9.34911876949e-06
9.29669232217e-06
1.58694958114e-05
0.00319228412337
0.00809149364118
9.40160321799e-06
9.40334513562e-06
9.40401702102e-06
9.39482008724e-06
9.38514181938e-06
9.31912083221e-06
9.20574498266e-06
1.56463902371e-05
0.00320972408872
0.00911377363606
9.39922133224e-06
9.39924436203e-06
9.39703637275e-06
9.38862804109e-06
9.38686344285e-06
9.31051320573e-06
9.21558454795e-06
1.45999254829e-05
0.00208138667129
0.00886217153025
9.39795568919e-06
9.39583893561e-06
9.38573098791e-06
9.3415394686e-06
9.32520881765e-06
9.37832037288e-06
9.22961830884e-06
1.42914819715e-05
0.000378269777804
0.00683042242747
9.39837880798e-06
9.39832647909e-06
9.40095267732e-06
9.39249293811e-06
9.39800396399e-06
9.35031124679e-06
9.19015268896e-06
1.40694188553e-05
0.00275572340526
0.009107331648
9.40009261327e-06
9.40254871712e-06
9.4093505545e-06
9.41801363734e-06
9.43678342296e-06
9.36627784286e-06
9.20548262175e-06
1.46066708445e-05
0.00278417811975
0.00795867228199
9.39866169019e-06
9.39840236893e-06
9.40236731762e-06
9.40942886315e-06
9.39784835901e-06
9.33532829379e-06
9.2594052209e-06
1.58995382986e-05
0.00304500348867
0.00803004610569
9.3991866777e-06
9.39734595033e-06
9.39436339204e-06
9.379331931e-06
9.35706893518e-06
9.29564720105e-06
9.21013115718e-06
1.86452513731e-05
0.00318845935437
0.00889853675446
9.39424436568e-06
9.39016834449e-06
9.39607174407e-06
9.39068994839e-06
9.36029813533e-06
9.34015390856e-06
9.37327676433e-06
1.34124796874e-05
0.00191724488196
0.0080064700621
)
;
    }
    sides
    {
        type            calculated;
        value           nonuniform List<scalar> 0();
    }
    bottom
    {
        type            calculated;
        value           nonuniform List<scalar> 0();
    }
    front
    {
        type            calculated;
        value           nonuniform List<scalar> 
164
(
9.39735968556e-06
9.39705697543e-06
9.39679438381e-06
9.39630309006e-06
9.3947381269e-06
9.39196579591e-06
9.38837667936e-06
9.3730003455e-06
9.37509127184e-06
1.74803675139e-05
0.00210238149089
0.00821801456042
9.39801786822e-06
9.3976448791e-06
9.39715345685e-06
9.39622956275e-06
9.39451675298e-06
9.39121925687e-06
9.38539917524e-06
9.36668603865e-06
9.37096910364e-06
1.67070689225e-05
0.00296996936841
0.00923004822434
9.39759833334e-06
9.39672318526e-06
9.39497406653e-06
9.39112247067e-06
9.38118320541e-06
9.35795300348e-06
9.34341685826e-06
1.60909245077e-05
0.00348056484949
0.00924647480168
9.39822168163e-06
9.39743469605e-06
9.39577327072e-06
9.39189999906e-06
9.38153038733e-06
9.36544763909e-06
9.3583271665e-06
1.57256153836e-05
0.00337307860973
0.00894511977787
9.39904042973e-06
9.39848193101e-06
9.39747377724e-06
9.39348977311e-06
9.37901677016e-06
9.36482442676e-06
9.38237784865e-06
1.55653358089e-05
0.00325736120371
0.00815164964669
9.39976062132e-06
9.40008850171e-06
9.40034329611e-06
9.39698864549e-06
9.378721322e-06
9.37894833629e-06
9.36144479729e-06
1.55038679768e-05
0.0031862057203
0.00806568345698
9.39982145033e-06
9.40042609447e-06
9.40065385085e-06
9.39339075028e-06
9.37642938503e-06
9.40095706444e-06
9.3487315475e-06
1.56179544453e-05
0.00316423354433
0.00802724666876
9.40024063012e-06
9.39976419986e-06
9.39776578282e-06
9.37804901887e-06
9.33846672154e-06
9.34911876949e-06
9.29669232217e-06
1.58694958114e-05
0.00319228412337
0.00809149364118
9.40160321799e-06
9.40334513562e-06
9.40401702102e-06
9.39482008724e-06
9.38514181938e-06
9.31912083221e-06
9.20574498266e-06
1.56463902371e-05
0.00320972408872
0.00911377363606
9.39922133224e-06
9.39924436203e-06
9.39703637275e-06
9.38862804109e-06
9.38686344285e-06
9.31051320573e-06
9.21558454795e-06
1.45999254829e-05
0.00208138667129
0.00886217153025
9.39795568919e-06
9.39583893561e-06
9.38573098791e-06
9.3415394686e-06
9.32520881765e-06
9.37832037288e-06
9.22961830884e-06
1.42914819715e-05
0.000378269777804
0.00683042242747
9.39837880798e-06
9.39832647909e-06
9.40095267732e-06
9.39249293811e-06
9.39800396399e-06
9.35031124679e-06
9.19015268896e-06
1.40694188553e-05
0.00275572340526
0.009107331648
9.40009261327e-06
9.40254871712e-06
9.4093505545e-06
9.41801363734e-06
9.43678342296e-06
9.36627784286e-06
9.20548262175e-06
1.46066708445e-05
0.00278417811975
0.00795867228199
9.39866169019e-06
9.39840236893e-06
9.40236731762e-06
9.40942886315e-06
9.39784835901e-06
9.33532829379e-06
9.2594052209e-06
1.58995382986e-05
0.00304500348867
0.00803004610569
9.3991866777e-06
9.39734595033e-06
9.39436339204e-06
9.379331931e-06
9.35706893518e-06
9.29564720105e-06
9.21013115718e-06
1.86452513731e-05
0.00318845935437
0.00889853675446
9.39424436568e-06
9.39016834449e-06
9.39607174407e-06
9.39068994839e-06
9.36029813533e-06
9.34015390856e-06
9.37327676433e-06
1.34124796874e-05
0.00191724488196
0.0080064700621
)
;
    }
    atmosphere
    {
        type            calculated;
        value           nonuniform List<scalar> 
16
(
0.00821801456042
0.00923004822434
0.00924647480168
0.00894511977787
0.00815164964669
0.00806568345698
0.00802724666876
0.00809149364118
0.00911377363606
0.00886217153025
0.00683042242747
0.009107331648
0.00795867228199
0.00803004610569
0.00889853675446
0.0080064700621
)
;
    }
    floatingObject
    {
        type            calculated;
        value           nonuniform List<scalar> 0();
    }
    procBoundary5to0
    {
        type            processor;
        value           nonuniform List<scalar> 
12
(
9.39697003052e-06
9.39690564662e-06
9.39663439702e-06
9.39658664472e-06
9.39566538144e-06
9.39329854581e-06
9.38809931728e-06
9.37777115098e-06
9.37883838917e-06
1.8346652612e-05
0.00210881418908
0.00887308677373
)
;
    }
    procBoundary5to3
    {
        type            processor;
        value           nonuniform List<scalar> 10(9.39435216872e-06 9.39179123022e-06 9.39656012961e-06 9.39193912454e-06 9.3918671227e-06 9.32444102619e-06 9.26402474131e-06 1.13925565224e-05 0.000374255763556 0.00729674659319);
    }
    procBoundary5to4
    {
        type            processor;
        value           nonuniform List<scalar> 
18
(
9.39752368612e-06
9.3984210253e-06
9.39872570437e-06
9.39818996956e-06
9.39818996956e-06
9.39874750434e-06
9.39949382047e-06
9.39970447846e-06
9.39962811193e-06
9.40033838487e-06
9.40057396525e-06
9.39901858753e-06
9.39849420737e-06
9.39811261089e-06
9.39862254499e-06
9.39797337154e-06
9.3977760097e-06
9.39506217305e-06
)
;
    }
}


// ************************************************************************* //
