/*--------------------------------*- C++ -*----------------------------------*\
| =========                 |                                                 |
| \\      /  F ield         | OpenFOAM: The Open Source CFD Toolbox           |
|  \\    /   O peration     | Version:  v2012                                 |
|   \\  /    A nd           | Website:  www.openfoam.com                      |
|    \\/     M anipulation  |                                                 |
\*---------------------------------------------------------------------------*/
FoamFile
{
    version     2.0;
    format      ascii;
    class       volVectorField;
    location    "5.8";
    object      ddtCorrDdt0(U);
}
// * * * * * * * * * * * * * * * * * * * * * * * * * * * * * * * * * * * * * //

dimensions      [0 1 -2 0 0 0 0];


internalField   nonuniform List<vector> 
164
(
(0.114898145103 -0.00310573963116 1.49867680905e-23)
(0.115813301548 -0.00910431397737 -1.41047563686e-22)
(0.11715598302 -0.0151335860586 6.47773902743e-24)
(0.119085974318 -0.0211931338892 6.26154021854e-25)
(0.121635120948 -0.0272152847968 -1.10223016818e-23)
(0.124855504124 -0.0331837937066 -1.10103578669e-23)
(0.128778375487 -0.0390648545485 -8.63143055227e-24)
(0.133425047282 -0.0448144213763 -3.02988454032e-24)
(0.120525195389 -0.00277841699899 -4.14981917133e-24)
(0.1214412549 -0.00813821172196 -4.27273619929e-23)
(0.12277189088 -0.013546970599 8.40433412857e-24)
(0.124692275527 -0.0189590344881 7.70557403999e-25)
(0.127217809939 -0.0243225361536 -7.78594831648e-24)
(0.13038953288 -0.0296206708648 -5.08803226257e-24)
(0.134226422649 -0.0348192638819 -2.60630979655e-24)
(0.138732842809 -0.0398759886562 7.30635070705e-24)
(0.143915552064 -0.0447296104179 1.1306170272e-23)
(0.149814513341 -0.0492849435576 -1.26676874276e-23)
(0.156460290225 -0.0534124613123 -1.06262834411e-22)
(0.125570267496 -0.00246688293689 -2.71051513021e-23)
(0.126477774556 -0.00719172920698 -1.20875626545e-23)
(0.127791185307 -0.011974908304 -3.49118981048e-24)
(0.129683073772 -0.0167586812212 5.5322639006e-24)
(0.132160103902 -0.0214885571859 -4.92792947891e-24)
(0.13525667948 -0.0261497804588 3.72361746232e-24)
(0.138979135061 -0.0307115397837 6.70519641262e-25)
(0.143322680927 -0.035128765331 -1.13747965099e-24)
(0.148279640504 -0.0393371551225 -3.20719852772e-24)
(0.153842677375 -0.0432482908763 -2.16012902758e-23)
(0.159997880254 -0.0467354616777 -9.42430782528e-23)
(0.166707931196 -0.0496091925636 -1.53933630108e-22)
(0.173864659184 -0.0515348429709 -1.1922598393e-21)
(0.130014946127 -0.00215964317074 2.68316944907e-24)
(0.130916487324 -0.00626154872796 -4.12464876517e-23)
(0.132207941977 -0.010435197927 -1.44358145077e-23)
(0.134066425807 -0.0146048506931 -2.84293707412e-24)
(0.136493399523 -0.0187236493134 -3.57946510649e-24)
(0.139512642107 -0.0227796692716 -2.38605531199e-24)
(0.143122149638 -0.0267454423112 1.3949708143e-24)
(0.147307689958 -0.030580119213 -1.23506691218e-23)
(0.152041781175 -0.0342290842905 -3.31309295153e-24)
(0.157287314735 -0.0376187745491 -2.90062065477e-23)
(0.162982385115 -0.0406476748422 -6.52532434296e-23)
(0.169012785539 -0.0431658219182 -1.36818312741e-22)
(0.175168364751 -0.0448768541201 -7.58090231858e-24)
(0.180901940957 -0.0458615243195 -4.64559454587e-22)
(0.133862903933 -0.00186200836125 3.96864990693e-23)
(0.134764907284 -0.0053538908703 -1.53761382103e-24)
(0.136034692804 -0.00892044356298 1.07489703661e-23)
(0.137861683797 -0.0124918001187 -2.52345745218e-24)
(0.140242638452 -0.0160199752552 -1.36152127867e-23)
(0.143194042875 -0.0194999879588 -3.63718210185e-24)
(0.146708839862 -0.0229070070423 -4.9619646122e-25)
(0.150760130014 -0.0262101058162 -4.00690595418e-25)
(0.155309690575 -0.0293668087451 2.70463139459e-24)
(0.160300578383 -0.0323266253635 -3.05831063967e-23)
(0.165644623042 -0.0350274283968 -6.14310863047e-23)
(0.171183636595 -0.0373860577699 -1.88679228637e-22)
(0.176648091221 -0.0392579335694 -6.52539263197e-22)
(0.181444412073 -0.0408558180244 -1.08362716586e-21)
(0.137120086057 -0.00156192419677 1.2422709557e-23)
(0.138032238481 -0.00445400977998 -2.82374519979e-23)
(0.139280914646 -0.00743333878777 6.23796708907e-24)
(0.141083638005 -0.0104163484304 3.34400443656e-25)
(0.14342815884 -0.0133687322661 3.4464524628e-24)
(0.146330203913 -0.0162904246897 -5.43576449634e-24)
(0.149776790755 -0.0191656091757 -8.44912750917e-24)
(0.15373434025 -0.0219742319279 -6.38720919872e-24)
(0.158158709712 -0.0246897991762 -1.04193803705e-23)
(0.162980241887 -0.0272836004807 -3.89292394219e-23)
(0.16810657426 -0.0297305867974 -5.87177564997e-23)
(0.173382989444 -0.0320122094603 -1.30361084219e-22)
(0.178559657426 -0.0340666658076 -2.40486148564e-22)
(0.183061581499 -0.0362547253773 -1.00278214976e-21)
(0.139799248641 -0.00126743193618 1.58850816941e-24)
(0.140711559909 -0.00356634585181 1.06382248972e-23)
(0.141951684349 -0.00596162799369 1.6532114245e-23)
(0.143740058663 -0.00836303922466 -1.91074026059e-23)
(0.146065446917 -0.0107500719223 -7.49876483996e-24)
(0.148941441021 -0.0131263678145 -2.72775083437e-24)
(0.152352479969 -0.0154853898992 -8.78332063829e-24)
(0.156264291475 -0.0178181067684 9.3520009811e-24)
(0.160629149443 -0.0201171416086 -4.69708812389e-24)
(0.16537854475 -0.0223754799198 -1.66220502228e-23)
(0.170422304381 -0.0245935195053 -2.16918271975e-23)
(0.175632047113 -0.0267877799829 -1.28047503088e-22)
(0.18079818117 -0.0289458280559 -1.93930738284e-22)
(0.185448420132 -0.0314233637163 -5.74837943105e-22)
(0.141890280031 -0.000973827047491 1.7421101466e-23)
(0.142808502481 -0.00268298559357 1.22542358144e-23)
(0.144047360456 -0.00449442134236 -5.16573997993e-25)
(0.14583343497 -0.00631999047209 -1.00215582577e-23)
(0.148157704941 -0.00814362688603 6.01518832544e-24)
(0.151033785009 -0.00997731955426 1.35654455251e-23)
(0.154446210104 -0.0118231417088 3.86128669726e-24)
(0.158362333279 -0.0136842765458 5.96520112487e-24)
(0.162735015461 -0.0155687600227 -7.20157089859e-24)
(0.1675030357 -0.0174893430796 6.33213538462e-25)
(0.172585103668 -0.0194685009792 -6.89962712664e-24)
(0.1778746186 -0.0215479707134 -8.06790125679e-23)
(0.183217279208 -0.0237362019175 -1.76537236274e-22)
(0.188240039158 -0.0263465411329 -3.05071768001e-22)
(0.14338940848 -0.000678872240985 8.19364240304e-24)
(0.144319816794 -0.00179816693079 -3.71288861576e-23)
(0.145561648851 -0.00302355407889 -7.79878538703e-24)
(0.147358004397 -0.00426985536175 -1.86570371902e-23)
(0.149699174401 -0.00552655906897 -8.75363130445e-27)
(0.152601039083 -0.00681188901577 -1.86053966819e-23)
(0.15605036327 -0.0081362866201 1.54079679224e-24)
(0.160017769736 -0.00951395546478 1.15526722118e-23)
(0.164461807334 -0.010967392909 -2.27655486789e-23)
(0.1693312596 -0.0125250146862 2.09718684803e-24)
(0.174555475337 -0.0142284109861 -1.01466675922e-23)
(0.180048812562 -0.0161305278948 -9.7467106976e-23)
(0.185691907537 -0.0182745498431 -1.96768285023e-22)
(0.191203157048 -0.0208878444447 -6.80038570918e-22)
(0.14429333666 -0.000382659641512 4.3814640868e-24)
(0.14523674795 -0.000907289595411 -9.56184064594e-24)
(0.146486438824 -0.00154030364265 4.33202328519e-24)
(0.148302392011 -0.0021993027793 -3.53759672908e-24)
(0.150675150038 -0.00287839894302 3.75950231959e-25)
(0.153624027699 -0.00360093473436 -5.56667813518e-24)
(0.15713970121 -0.00438521651855 1.39544337488e-24)
(0.161199566823 -0.00525500959611 2.06190141263e-24)
(0.165771354136 -0.00624142879846 2.91416742949e-23)
(0.170812913927 -0.00738899426932 6.57594845803e-24)
(0.176265798265 -0.00875653209012 -7.06196655767e-24)
(0.182066256782 -0.0104085526288 -1.11271608557e-22)
(0.188105339324 -0.0124261160555 -2.2790918929e-22)
(0.194199484366 -0.0149442162164 -7.10488507677e-22)
(0.200368104978 -0.0177069441325 -7.73932447116e-22)
(0.206252005031 -0.0240244363073 3.15406979112e-22)
(0.144590676282 -8.13071797408e-05 2.90145622384e-23)
(0.145547908627 -5.61093580127e-06 1.33020484601e-23)
(0.146809524071 -3.77666726818e-05 7.98421046961e-24)
(0.148650587338 -9.73379361019e-05 -3.28573009287e-23)
(0.151064959891 -0.000183752874142 -8.93528252259e-24)
(0.154074605011 -0.000323009009901 -5.22637639103e-25)
(0.157677519685 -0.000539041029837 1.45878239582e-24)
(0.161860404068 -0.000861749114562 7.42409742511e-25)
(0.166602063018 -0.0013312103141 -2.91264626175e-23)
(0.171869750956 -0.00200436388145 5.13220928725e-24)
(0.177622046901 -0.00294769461912 -1.73992674383e-24)
(0.183813145847 -0.00424497587726 -9.89097012874e-23)
(0.190337651215 -0.00600741955741 -1.73390453125e-22)
(0.197088027839 -0.00833961338237 -5.92288193702e-22)
(0.204053942321 -0.0112097079085 7.11906655895e-22)
(0.211225706219 -0.0172379565432 1.4950730742e-21)
(0.144273838629 0.00022623289756 2.25673752203e-23)
(0.145244066059 0.000909309018309 2.02524331388e-23)
(0.146520104696 0.00148794353288 1.57232951231e-24)
(0.148387469913 0.00204064722647 -6.3651540418e-23)
(0.150846273699 0.00256493273443 -3.26435712288e-23)
(0.15392229784 0.00303377954769 -2.74183432673e-23)
(0.157622568043 0.00342079550279 -2.56155421944e-23)
(0.161943282768 0.00369279417488 6.56149052791e-24)
(0.166876026571 0.00380496878288 -3.71022464182e-23)
(0.172405852249 0.00369153568227 -2.79226284833e-23)
(0.178508207314 0.00328595571478 4.17521424149e-24)
(0.185155206246 0.00246236891006 -5.02606584187e-23)
(0.192266765183 0.00108845990455 -1.15742729821e-22)
(0.199757646266 -0.000933780843921 -2.83003955004e-22)
(0.207596448013 -0.00368761801226 8.7451514239e-22)
(0.216139081843 -0.00895263243612 2.86580754815e-21)
)
;

boundaryField
{
    back
    {
        type            calculated;
        value           uniform (0 0 0);
    }
    sides
    {
        type            calculated;
        value           nonuniform List<vector> 0();
    }
    bottom
    {
        type            calculated;
        value           uniform (0 0 0);
    }
    front
    {
        type            calculated;
        value           uniform (0 0 0);
    }
    atmosphere
    {
        type            calculated;
        value           nonuniform List<vector> 0();
    }
    floatingObject
    {
        type            calculated;
        value           nonuniform List<vector> 0();
    }
    procBoundary7to6
    {
        type            processor;
        value           nonuniform List<vector> 
11
(
(0.18628029398 -0.0444416837471 -1.79423909937e-21)
(0.185644605675 -0.040924585207 -7.74607978961e-22)
(0.187125246577 -0.037623657878 -1.78207536835e-21)
(0.189898604697 -0.0335210696471 -3.03737201404e-22)
(0.193142741913 -0.0287351077653 -9.546145438e-22)
(0.196692659083 -0.0234216591442 -8.06268158879e-22)
(0.196692659083 -0.0234216591442 -8.06268158879e-22)
(0.201730855444 -0.0299025826754 7.63195171952e-22)
(0.212187406566 -0.0285498379179 2.65199556598e-20)
(0.219079751565 -0.0237418234537 2.27707408645e-20)
(0.226297584158 -0.017636737291 2.55847293102e-20)
)
;
    }
    procBoundary7to8
    {
        type            processor;
        value           nonuniform List<vector> 
17
(
(0.108615509658 -0.00343104230341 2.52033521486e-23)
(0.109588170452 -0.0100780083177 8.88424943302e-23)
(0.110910611621 -0.0167299003827 4.30194832116e-23)
(0.11281903888 -0.0234260443932 -2.79958532338e-24)
(0.11536019699 -0.0301166260061 -1.95030241484e-23)
(0.118594075593 -0.0367810221342 -1.88972565383e-23)
(0.122564719739 -0.0433894520649 -8.87789453545e-24)
(0.127310027932 -0.049907920102 -9.44258309442e-24)
(0.138820990539 -0.0503955324858 -1.16002345958e-23)
(0.138820990539 -0.0503955324858 -1.16002345958e-23)
(0.145012523026 -0.0557376609043 -4.27219339242e-23)
(0.152066754141 -0.0607625147049 -1.50526355584e-22)
(0.163886574102 -0.056985784685 -3.12540373739e-22)
(0.163886574102 -0.056985784685 -3.12540373739e-22)
(0.172104445094 -0.0596916259006 -8.2067886728e-22)
(0.181113208836 -0.0523592362343 -1.58002835632e-21)
(0.181113208836 -0.0523592362343 -1.58002835632e-21)
)
;
    }
    procBoundary7to9
    {
        type            processor;
        value           nonuniform List<vector> 
16
(
(0.143334734276 0.000538455858501 3.58187542715e-24)
(0.144315789539 0.00183711306212 1.69896689098e-24)
(0.145602467202 0.00303786283459 2.48469922516e-24)
(0.147492370266 0.00421598771502 -2.48797489468e-23)
(0.149991450303 0.00537021171907 -4.26494259984e-24)
(0.153132234285 0.00647416604365 1.24358419073e-23)
(0.15692944046 0.00750067441703 -6.32901061437e-25)
(0.161389941088 0.00841383284133 1.42571958339e-24)
(0.166521328907 0.00916684387128 -1.67945158184e-23)
(0.172329819415 0.00969164424802 -5.44302432093e-24)
(0.178819696567 0.00990751901243 2.04359579676e-23)
(0.185974355114 0.00965806182518 -3.21834864396e-23)
(0.19375569129 0.00881072652419 -9.33192905401e-23)
(0.202068169091 0.00726357212437 -1.32213478352e-23)
(0.210795603549 0.00500396213353 3.39461544768e-22)
(0.220334066592 0.000770994301473 -1.70631251648e-21)
)
;
    }
}


// ************************************************************************* //
