/*--------------------------------*- C++ -*----------------------------------*\
| =========                 |                                                 |
| \\      /  F ield         | OpenFOAM: The Open Source CFD Toolbox           |
|  \\    /   O peration     | Version:  v2012                                 |
|   \\  /    A nd           | Website:  www.openfoam.com                      |
|    \\/     M anipulation  |                                                 |
\*---------------------------------------------------------------------------*/
FoamFile
{
    version     2.0;
    format      ascii;
    class       volScalarField;
    location    "3.7";
    object      nut;
}
// * * * * * * * * * * * * * * * * * * * * * * * * * * * * * * * * * * * * * //

dimensions      [0 2 -1 0 0 0 0];


internalField   nonuniform List<scalar> 
166
(
0.000627118114704
0.000627960054643
0.000629053312301
0.000630735797458
0.000633896184347
0.000640652111583
0.000656246195668
0.000695605719155
0.000798602893612
0.00102663058344
0.00140788546379
0.00198950884959
0.00300889307387
0.000626319694054
0.000627047732409
0.000627766275085
0.000628593603208
0.000629657525363
0.000631279746541
0.000634307588375
0.000640818594804
0.000656015135363
0.000694657474216
0.000796196582338
0.00102180920825
0.00139863629831
0.00193944898756
0.00249270539162
0.000402007269548
0.000598669569154
0.000625905311781
0.000626952915409
0.000627676029982
0.000628386456465
0.000629200934647
0.000630238980077
0.000631800118642
0.00063468549069
0.000640895953755
0.000655503488969
0.0006929349306
0.000792510046098
0.00101750490256
0.00139378414925
0.00190871555504
0.00241693197917
0.000402379395708
0.000599185898786
0.000617675832978
0.000624148740789
0.000626500009875
0.000627549987564
0.000628270062168
0.000628974963375
0.000629779786818
0.000630796136272
0.000632298286485
0.000635032582429
0.000640895223422
0.000654756135192
0.000690587818901
0.000787644659874
0.00101227487633
0.0013907051772
0.001904214845
0.00252721603132
0.000402713694458
0.000599651469328
0.000618188764995
0.000624689108656
0.000627053134048
0.000628106894507
0.000628827142022
0.000629529978725
0.000630328761438
0.00063132706074
0.000632775737577
0.000635363877174
0.000640876690234
0.000653975090687
0.000688219245293
0.000782892458705
0.00100691473171
0.00138716732625
0.00189790476386
0.00251660187377
0.000402999170857
0.000600065506447
0.000618652449228
0.00062518246595
0.000627561406603
0.000628622309019
0.000629345802313
0.000630050207831
0.0006308470835
0.00063183207925
0.000633233865538
0.000635688075146
0.000640875317396
0.000653267162021
0.000686081784418
0.000778523886144
0.00100101495918
0.0013811328461
0.00188303668034
0.00235488112572
0.000403240913835
0.000600423104058
0.000619063590051
0.000625625934245
0.00062802252591
0.000629093691567
0.000629824030487
0.000630533948742
0.000631333342738
0.000632310372457
0.000633672936911
0.000636007736602
0.000640901624378
0.000652665034132
0.000684191664054
0.000774227710893
0.000993851959677
0.00136935027462
0.00185113434447
0.0022858845429
0.000403433583014
0.000600722457486
0.000619420805943
0.00062601810354
0.000628434701834
0.000629518444987
0.000630259303863
0.000630978556166
0.000631784915973
0.000632759952769
0.000634091911893
0.000636321481576
0.000640948120449
0.000652121400511
0.000682327283014
0.000769345814975
0.000983790743209
0.00135251662617
0.0018158869779
0.00221655635651
0.00040358878546
0.000600967911168
0.000619723398373
0.000626357800486
0.000628796925012
0.000629895994143
0.000630649992133
0.000631381947909
0.000632199586752
0.000633178491818
0.000634487455135
0.000636625026687
0.0006410014812
0.000651580049271
0.000680260806345
0.000763126419725
0.000970386679482
0.00133305464356
0.00178776172487
0.00217739499978
)
;

boundaryField
{
    back
    {
        type            nutkWallFunction;
        blending        stepwise;
        Cmu             0.09;
        kappa           0.41;
        E               9.8;
        value           nonuniform List<scalar> 
166
(
6.55559154537e-05
6.56348963895e-05
6.57371761214e-05
6.58948319039e-05
6.61920409417e-05
6.68290826496e-05
6.82920097172e-05
7.19404440892e-05
8.14179068069e-05
0.0001024074608
0.000137415155167
0.00023675701324
0.000341997673746
6.54839446996e-05
6.55519884489e-05
6.56192379736e-05
6.56966118034e-05
6.5796018903e-05
6.59479281912e-05
6.62330593488e-05
6.68489467249e-05
6.82823488162e-05
7.18909398542e-05
8.1299297465e-05
0.000102225618914
0.000137222650532
0.000234963896327
0.000320943165949
5.68756474074e-05
6.28750631635e-05
6.54489050624e-05
6.55463290094e-05
6.56136621776e-05
6.56799720693e-05
6.57559958876e-05
6.5852846611e-05
6.59989236959e-05
6.62707410242e-05
6.68590996695e-05
6.82406515129e-05
7.17477514082e-05
8.10099722126e-05
0.00010199395588
0.000137309717134
0.000233811762133
0.000310301856956
5.69265083235e-05
6.29284838874e-05
6.46808015493e-05
6.52890117821e-05
6.55080116297e-05
6.56052896933e-05
6.56721494357e-05
6.57377871027e-05
6.58127586741e-05
6.59074486785e-05
6.60478788855e-05
6.63055162363e-05
6.6861839693e-05
6.81767080887e-05
7.15470802202e-05
8.06160538067e-05
0.000101695522573
0.000137474595741
0.000234029501895
0.00031301456787
5.69727184477e-05
6.29769800981e-05
6.47332265872e-05
6.53434189791e-05
6.55631453379e-05
6.56605070405e-05
6.57271896552e-05
6.57924736651e-05
6.58667272664e-05
6.5959581154e-05
6.60948890836e-05
6.63388223405e-05
6.68629697063e-05
6.81100039036e-05
7.13461248546e-05
8.02384533327e-05
0.000101391222178
0.000137599895106
0.000234028926808
0.000312429105343
5.70126936102e-05
6.30204745729e-05
6.47809006833e-05
6.53933353231e-05
6.56140578903e-05
6.5711811216e-05
6.57785942562e-05
6.58438580682e-05
6.59177763397e-05
6.60092323014e-05
6.61400134862e-05
6.63713596832e-05
6.68655253257e-05
6.80497644966e-05
7.11666264023e-05
7.98975711258e-05
0.000101053667052
0.000137531071613
0.00023283854488
0.000306601957392
5.7047202178e-05
6.30585061784e-05
6.48235075989e-05
6.54384794436e-05
6.56604709191e-05
6.57589196084e-05
6.58261371786e-05
6.5891733706e-05
6.59657170206e-05
6.60562585691e-05
6.61831869318e-05
6.64032123505e-05
6.68701994733e-05
6.79984703624e-05
7.10077774571e-05
7.95619519093e-05
0.000100594313952
0.00013694828894
0.000227193674309
0.000297592869723
5.70753094463e-05
6.30907342287e-05
6.48608041365e-05
6.54786215353e-05
6.57021326011e-05
6.58014920246e-05
6.58694825437e-05
6.5935767501e-05
6.60102324307e-05
6.61004010725e-05
6.62242550545e-05
6.64341934335e-05
6.68761458155e-05
6.79512135535e-05
7.08489411534e-05
7.91663935484e-05
9.98256248384e-05
0.000135831592889
0.000218213313557
0.000290224256563
5.70969542772e-05
6.31171708411e-05
6.48925005557e-05
6.5513476667e-05
6.57388007432e-05
6.58393591784e-05
6.5908393395e-05
6.59757020245e-05
6.60510641027e-05
6.61414173671e-05
6.62630226163e-05
6.64641115862e-05
6.68823916447e-05
6.79030942478e-05
7.06674211463e-05
7.86188621273e-05
9.86770966147e-05
0.000134338382865
0.00020749816243
0.000286765073643
)
;
    }
    sides
    {
        type            nutkWallFunction;
        blending        stepwise;
        Cmu             0.09;
        kappa           0.41;
        E               9.8;
        value           nonuniform List<scalar> 0();
    }
    bottom
    {
        type            nutkWallFunction;
        blending        stepwise;
        Cmu             0.09;
        kappa           0.41;
        E               9.8;
        value           nonuniform List<scalar> 7(3.02201473461e-05 3.02473282939e-05 3.02720236366e-05 3.02933868186e-05 3.03118285089e-05 3.03268492314e-05 3.03384163477e-05);
    }
    front
    {
        type            nutkWallFunction;
        blending        stepwise;
        Cmu             0.09;
        kappa           0.41;
        E               9.8;
        value           nonuniform List<scalar> 
166
(
6.55559154537e-05
6.56348963895e-05
6.57371761214e-05
6.58948319039e-05
6.61920409417e-05
6.68290826496e-05
6.82920097172e-05
7.19404440892e-05
8.14179068069e-05
0.0001024074608
0.000137415155167
0.00023675701324
0.000341997673746
6.54839446996e-05
6.55519884489e-05
6.56192379736e-05
6.56966118034e-05
6.5796018903e-05
6.59479281912e-05
6.62330593488e-05
6.68489467249e-05
6.82823488162e-05
7.18909398542e-05
8.1299297465e-05
0.000102225618914
0.000137222650532
0.000234963896327
0.000320943165949
5.68756474074e-05
6.28750631635e-05
6.54489050624e-05
6.55463290094e-05
6.56136621776e-05
6.56799720693e-05
6.57559958876e-05
6.5852846611e-05
6.59989236959e-05
6.62707410242e-05
6.68590996695e-05
6.82406515129e-05
7.17477514082e-05
8.10099722126e-05
0.00010199395588
0.000137309717134
0.000233811762133
0.000310301856956
5.69265083235e-05
6.29284838874e-05
6.46808015493e-05
6.52890117821e-05
6.55080116297e-05
6.56052896933e-05
6.56721494357e-05
6.57377871027e-05
6.58127586741e-05
6.59074486785e-05
6.60478788855e-05
6.63055162363e-05
6.6861839693e-05
6.81767080887e-05
7.15470802202e-05
8.06160538067e-05
0.000101695522573
0.000137474595741
0.000234029501895
0.00031301456787
5.69727184477e-05
6.29769800981e-05
6.47332265872e-05
6.53434189791e-05
6.55631453379e-05
6.56605070405e-05
6.57271896552e-05
6.57924736651e-05
6.58667272664e-05
6.5959581154e-05
6.60948890836e-05
6.63388223405e-05
6.68629697063e-05
6.81100039036e-05
7.13461248546e-05
8.02384533327e-05
0.000101391222178
0.000137599895106
0.000234028926808
0.000312429105343
5.70126936102e-05
6.30204745729e-05
6.47809006833e-05
6.53933353231e-05
6.56140578903e-05
6.5711811216e-05
6.57785942562e-05
6.58438580682e-05
6.59177763397e-05
6.60092323014e-05
6.61400134862e-05
6.63713596832e-05
6.68655253257e-05
6.80497644966e-05
7.11666264023e-05
7.98975711258e-05
0.000101053667052
0.000137531071613
0.00023283854488
0.000306601957392
5.7047202178e-05
6.30585061784e-05
6.48235075989e-05
6.54384794436e-05
6.56604709191e-05
6.57589196084e-05
6.58261371786e-05
6.5891733706e-05
6.59657170206e-05
6.60562585691e-05
6.61831869318e-05
6.64032123505e-05
6.68701994733e-05
6.79984703624e-05
7.10077774571e-05
7.95619519093e-05
0.000100594313952
0.00013694828894
0.000227193674309
0.000297592869723
5.70753094463e-05
6.30907342287e-05
6.48608041365e-05
6.54786215353e-05
6.57021326011e-05
6.58014920246e-05
6.58694825437e-05
6.5935767501e-05
6.60102324307e-05
6.61004010725e-05
6.62242550545e-05
6.64341934335e-05
6.68761458155e-05
6.79512135535e-05
7.08489411534e-05
7.91663935484e-05
9.98256248384e-05
0.000135831592889
0.000218213313557
0.000290224256563
5.70969542772e-05
6.31171708411e-05
6.48925005557e-05
6.5513476667e-05
6.57388007432e-05
6.58393591784e-05
6.5908393395e-05
6.59757020245e-05
6.60510641027e-05
6.61414173671e-05
6.62630226163e-05
6.64641115862e-05
6.68823916447e-05
6.79030942478e-05
7.06674211463e-05
7.86188621273e-05
9.86770966147e-05
0.000134338382865
0.00020749816243
0.000286765073643
)
;
    }
    atmosphere
    {
        type            calculated;
        value           nonuniform List<scalar> 9(0.009 0.00249270539162 0.00241693197917 0.009 0.009 0.00235488112572 0.0022858845429 0.00221655635651 0.00217739499978);
    }
    floatingObject
    {
        type            nutkWallFunction;
        blending        stepwise;
        Cmu             0.09;
        kappa           0.41;
        E               9.8;
        value           nonuniform List<scalar> 0();
    }
    procBoundary0to1
    {
        type            processor;
        value           nonuniform List<scalar> 10(0.0006301850059 0.000633487291107 0.000640508671797 0.000656561494645 0.000696811577096 0.00080188742617 0.00103387237343 0.00142347449248 0.00202037429527 0.00303632851144);
    }
    procBoundary0to2
    {
        type            processor;
        value           nonuniform List<scalar> 
14
(
0.000626444345421
0.000627308986851
0.000628433974939
0.000625650024305
0.000626387463764
0.000626387463764
0.00040159393012
0.000598101867688
0.000625267792325
0.000625267792325
0.000617112722913
0.000617112722913
0.000623561233231
0.000623561233231
)
;
    }
    procBoundary0to4
    {
        type            processor;
        value           nonuniform List<scalar> 8(0.000403716476416 0.000601159987364 0.00061996946438 0.000626642318138 0.000629106286252 0.000630223236866 0.000630993474854 0.00063174119218);
    }
    procBoundary0to5
    {
        type            processor;
        value           nonuniform List<scalar> 
12
(
0.000632574196803
0.000633561589375
0.000634856578814
0.000636915331552
0.000641056996146
0.000651013207618
0.000677803342483
0.000754979784465
0.000953167629328
0.00131009945214
0.00175515227343
0.00214253124568
)
;
    }
}


// ************************************************************************* //
