/*--------------------------------*- C++ -*----------------------------------*\
| =========                 |                                                 |
| \\      /  F ield         | OpenFOAM: The Open Source CFD Toolbox           |
|  \\    /   O peration     | Version:  v2012                                 |
|   \\  /    A nd           | Website:  www.openfoam.com                      |
|    \\/     M anipulation  |                                                 |
\*---------------------------------------------------------------------------*/
FoamFile
{
    version     2.0;
    format      ascii;
    class       volScalarField;
    location    "3.7";
    object      p;
}
// * * * * * * * * * * * * * * * * * * * * * * * * * * * * * * * * * * * * * //

dimensions      [1 -1 -2 0 0 0 0];


internalField   nonuniform List<scalar> 
166
(
4887.62023528
4395.24936538
3902.50223813
3409.37331115
2915.86048512
2421.96864882
1927.72575675
1433.21840205
938.719677991
446.226889664
95.2551272282
-9.07183756232
-9.56420491978
5877.69170096
5386.05153597
4894.03584177
4401.6264807
3908.80382696
3415.54567981
2921.82783777
2427.62455635
1932.91129563
1437.66882013
942.46416037
447.954856792
95.7151942667
-9.06946696793
-9.56581710106
8337.39751898
7847.46927286
6375.73575216
5884.47828182
5392.8542843
4900.84101711
4408.41134622
3915.53291567
3422.16656573
2928.26550864
2433.77325953
1938.62331847
1442.73832593
946.132756685
450.392688628
96.3955087401
-9.06741871211
-9.57045694428
8344.40540153
7854.49062506
7364.26453156
6873.72029166
6382.84785758
5891.62966468
5400.04266571
4908.05769325
4415.63864091
3922.74104258
3429.3099521
2935.27732397
2440.5583883
1945.0491298
1448.62131144
951.133411195
453.945611075
97.4390342954
-9.07637813635
-9.58760355091
8351.71686551
7861.81925008
7371.62357007
6881.12240563
6390.30359439
5899.14668106
5407.62460548
4915.70259987
4423.33691411
3930.47288104
3437.04187537
2942.95745856
2448.10995191
1952.36214917
1455.54108752
957.444927791
458.71576428
98.9369028886
-9.100953654
-9.63476297605
8359.31524558
7869.43895304
7379.28283671
6888.83891887
6398.0936937
5907.02441736
5415.60077183
4923.78397074
4431.52473728
3938.76094837
3445.41380063
2951.38268484
2456.53824664
1960.71614039
1463.70527469
965.28439431
465.150723442
101.133194141
-9.12753804268
-9.71888846206
8367.1794823
7877.32926514
7387.22269671
6896.85194997
6406.20255731
5915.25021172
5423.96287834
4932.29939553
4440.20772349
3947.62170126
3454.45687971
2960.60432244
2465.92247372
1970.22809313
1473.27953428
974.817192879
473.952229117
104.862989339
-9.07445430264
-9.7484162749
8375.2831359
7885.46408986
7395.4175231
6905.13662442
6414.60642026
5923.80222067
5432.69162884
4941.23351268
4449.37587022
3957.05243264
3464.17847756
2970.64369143
2476.30382895
1980.97087589
1484.3947018
986.295232042
485.658675939
110.726465403
-8.83032409164
-9.62002179764
8383.59445795
7893.81126109
7403.83522184
6913.66079333
6423.27324981
5932.6488079
5441.75648752
4950.5573386
4459.00236158
3967.02940333
3474.55932162
2981.4868393
2487.67523643
1992.94701744
1497.06556902
999.798194424
500.155842618
118.53134677
-8.3497404798
-9.57428917737
)
;

boundaryField
{
    back
    {
        type            calculated;
        value           nonuniform List<scalar> 
166
(
4887.62023528
4395.24936538
3902.50223813
3409.37331115
2915.86048512
2421.96864882
1927.72575675
1433.21840205
938.719677991
446.226889664
95.2551272282
-9.07183756232
-9.56420491978
5877.69170096
5386.05153597
4894.03584177
4401.6264807
3908.80382696
3415.54567981
2921.82783777
2427.62455635
1932.91129563
1437.66882013
942.46416037
447.954856792
95.7151942667
-9.06946696793
-9.56581710106
8337.39751898
7847.46927286
6375.73575216
5884.47828182
5392.8542843
4900.84101711
4408.41134622
3915.53291567
3422.16656573
2928.26550864
2433.77325953
1938.62331847
1442.73832593
946.132756685
450.392688628
96.3955087401
-9.06741871211
-9.57045694428
8344.40540153
7854.49062506
7364.26453156
6873.72029166
6382.84785758
5891.62966468
5400.04266571
4908.05769325
4415.63864091
3922.74104258
3429.3099521
2935.27732397
2440.5583883
1945.0491298
1448.62131144
951.133411195
453.945611075
97.4390342954
-9.07637813635
-9.58760355091
8351.71686551
7861.81925008
7371.62357007
6881.12240563
6390.30359439
5899.14668106
5407.62460548
4915.70259987
4423.33691411
3930.47288104
3437.04187537
2942.95745856
2448.10995191
1952.36214917
1455.54108752
957.444927791
458.71576428
98.9369028886
-9.100953654
-9.63476297605
8359.31524558
7869.43895304
7379.28283671
6888.83891887
6398.0936937
5907.02441736
5415.60077183
4923.78397074
4431.52473728
3938.76094837
3445.41380063
2951.38268484
2456.53824664
1960.71614039
1463.70527469
965.28439431
465.150723442
101.133194141
-9.12753804268
-9.71888846206
8367.1794823
7877.32926514
7387.22269671
6896.85194997
6406.20255731
5915.25021172
5423.96287834
4932.29939553
4440.20772349
3947.62170126
3454.45687971
2960.60432244
2465.92247372
1970.22809313
1473.27953428
974.817192879
473.952229117
104.862989339
-9.07445430264
-9.7484162749
8375.2831359
7885.46408986
7395.4175231
6905.13662442
6414.60642026
5923.80222067
5432.69162884
4941.23351268
4449.37587022
3957.05243264
3464.17847756
2970.64369143
2476.30382895
1980.97087589
1484.3947018
986.295232042
485.658675939
110.726465403
-8.83032409164
-9.62002179764
8383.59445795
7893.81126109
7403.83522184
6913.66079333
6423.27324981
5932.6488079
5441.75648752
4950.5573386
4459.00236158
3967.02940333
3474.55932162
2981.4868393
2487.67523643
1992.94701744
1497.06556902
999.798194424
500.155842618
118.53134677
-8.3497404798
-9.57428917737
)
;
    }
    sides
    {
        type            calculated;
        value           nonuniform List<scalar> 0();
    }
    bottom
    {
        type            calculated;
        value           nonuniform List<scalar> 7(8582.20626163 8589.2141554 8596.52559951 8604.12396405 8611.9882085 8620.09189463 8628.40326163);
    }
    front
    {
        type            calculated;
        value           nonuniform List<scalar> 
166
(
4887.62023528
4395.24936538
3902.50223813
3409.37331115
2915.86048512
2421.96864882
1927.72575675
1433.21840205
938.719677991
446.226889664
95.2551272282
-9.07183756232
-9.56420491978
5877.69170096
5386.05153597
4894.03584177
4401.6264807
3908.80382696
3415.54567981
2921.82783777
2427.62455635
1932.91129563
1437.66882013
942.46416037
447.954856792
95.7151942667
-9.06946696793
-9.56581710106
8337.39751898
7847.46927286
6375.73575216
5884.47828182
5392.8542843
4900.84101711
4408.41134622
3915.53291567
3422.16656573
2928.26550864
2433.77325953
1938.62331847
1442.73832593
946.132756685
450.392688628
96.3955087401
-9.06741871211
-9.57045694428
8344.40540153
7854.49062506
7364.26453156
6873.72029166
6382.84785758
5891.62966468
5400.04266571
4908.05769325
4415.63864091
3922.74104258
3429.3099521
2935.27732397
2440.5583883
1945.0491298
1448.62131144
951.133411195
453.945611075
97.4390342954
-9.07637813635
-9.58760355091
8351.71686551
7861.81925008
7371.62357007
6881.12240563
6390.30359439
5899.14668106
5407.62460548
4915.70259987
4423.33691411
3930.47288104
3437.04187537
2942.95745856
2448.10995191
1952.36214917
1455.54108752
957.444927791
458.71576428
98.9369028886
-9.100953654
-9.63476297605
8359.31524558
7869.43895304
7379.28283671
6888.83891887
6398.0936937
5907.02441736
5415.60077183
4923.78397074
4431.52473728
3938.76094837
3445.41380063
2951.38268484
2456.53824664
1960.71614039
1463.70527469
965.28439431
465.150723442
101.133194141
-9.12753804268
-9.71888846206
8367.1794823
7877.32926514
7387.22269671
6896.85194997
6406.20255731
5915.25021172
5423.96287834
4932.29939553
4440.20772349
3947.62170126
3454.45687971
2960.60432244
2465.92247372
1970.22809313
1473.27953428
974.817192879
473.952229117
104.862989339
-9.07445430264
-9.7484162749
8375.2831359
7885.46408986
7395.4175231
6905.13662442
6414.60642026
5923.80222067
5432.69162884
4941.23351268
4449.37587022
3957.05243264
3464.17847756
2970.64369143
2476.30382895
1980.97087589
1484.3947018
986.295232042
485.658675939
110.726465403
-8.83032409164
-9.62002179764
8383.59445795
7893.81126109
7403.83522184
6913.66079333
6423.27324981
5932.6488079
5441.75648752
4950.5573386
4459.00236158
3967.02940333
3474.55932162
2981.4868393
2487.67523643
1992.94701744
1497.06556902
999.798194424
500.155842618
118.53134677
-8.3497404798
-9.57428917737
)
;
    }
    atmosphere
    {
        type            calculated;
        value           nonuniform List<scalar> 9(-9.81000065515 -9.81197393749 -9.81224580879 -9.81859353689 -9.86215685964 -10.0027178477 -10.1063031347 -9.80999999998 -9.81000183576);
    }
    floatingObject
    {
        type            calculated;
        value           nonuniform List<scalar> 0();
    }
    procBoundary0to1
    {
        type            processor;
        value           nonuniform List<scalar> 10(3403.57721372 2910.2605891 2416.65588556 1922.81913438 1428.84616175 934.850104189 443.363748295 94.5725743074 -9.07250334858 -9.5628869879);
    }
    procBoundary0to2
    {
        type            processor;
        value           nonuniform List<scalar> 
14
(
4881.57304065
4389.24625284
3896.57829543
5871.26720071
5379.62380754
5379.62380754
8330.70719903
7840.76730202
6368.97322529
6368.97322529
7357.22118515
7357.22118515
6866.64597504
6866.64597504
)
;
    }
    procBoundary0to4
    {
        type            processor;
        value           nonuniform List<scalar> 8(8392.0769612 7902.33408144 7412.43876361 6922.38660783 6432.16430222 5941.75019299 5451.11626341 4960.22803043);
    }
    procBoundary0to5
    {
        type            processor;
        value           nonuniform List<scalar> 
12
(
4469.0422039
3977.50491183
3485.54655631
2993.0741861
2499.96736338
2006.07362157
1511.19724856
1015.18011344
517.238243097
128.532098317
-7.55135914104
-9.5388285169
)
;
    }
}


// ************************************************************************* //
