/*--------------------------------*- C++ -*----------------------------------*\
| =========                 |                                                 |
| \\      /  F ield         | OpenFOAM: The Open Source CFD Toolbox           |
|  \\    /   O peration     | Version:  v2012                                 |
|   \\  /    A nd           | Website:  www.openfoam.com                      |
|    \\/     M anipulation  |                                                 |
\*---------------------------------------------------------------------------*/
FoamFile
{
    version     2.0;
    format      ascii;
    class       surfaceVectorField;
    location    "3.7";
    object      Uf_0;
}
// * * * * * * * * * * * * * * * * * * * * * * * * * * * * * * * * * * * * * //

dimensions      [0 1 -1 0 0 0 0];


internalField   nonuniform List<vector> 
302
(
(0.0196580647096 0.000491807417286 8.85453487182e-24)
(0.0189076220182 0.00126396841022 9.21725688587e-24)
(0.0213365914168 0.000371652734752 1.04136460802e-23)
(0.0204839304662 0.00131041304928 1.37713775676e-23)
(0.0232920090413 0.00017806147897 -1.43743967244e-24)
(0.02233554385 0.00130762056286 1.34541767282e-23)
(0.02554042787 -0.00011511468605 -4.1757058662e-23)
(0.0244862553199 0.00123488233572 -1.28729067333e-23)
(0.0280681008361 -0.000535954747101 -8.42057219982e-23)
(0.0269541084189 0.00105571011102 -6.71908645179e-23)
(0.0307676357669 -0.00111862025214 -1.41910319714e-22)
(0.0297061040813 0.000716122475735 -9.94391571735e-23)
(0.0333726421811 -0.00186971889677 -3.26776112049e-22)
(0.0325578300095 0.000259393159618 -2.51813533128e-22)
(0.0357336211268 -0.00265631981001 1.72942368256e-22)
(0.0350809765438 -0.000237016843316 -1.28800724107e-21)
(0.0386711784193 -0.00303513887502 -5.07121301504e-22)
(0.0371191686116 -0.000460107962388 -2.11741059305e-21)
(0.0428255088508 -0.00339096981154 -2.02321539454e-21)
(0.0406157553015 -0.00369209178815 -5.62953255301e-21)
(0.0425033276072 -0.0039948053201 -2.31446918891e-21)
(0.0453256545093 -0.00375854320308 -6.80008701431e-21)
(0.0220344436882 -0.00477301387389 -1.3160872096e-21)
(0.0400279004983 -0.000433546453991 -6.75628417478e-21)
(0.00376606161259 -0.000702574692687 -8.24761390359e-22)
(0.0169356202716 0.00167401170222 -7.46308467912e-24)
(0.0162543733531 0.00206556659953 -1.1743992041e-23)
(0.0181571686186 0.00188623560111 5.86927289751e-24)
(0.0173692975304 0.00240250549449 -3.36576662468e-25)
(0.0196203952664 0.00207804535495 1.41340995816e-23)
(0.0187169009505 0.00273436985006 5.80644367113e-24)
(0.0213517895228 0.00224304718262 1.68119082156e-23)
(0.0203206903003 0.00305911684774 1.31469478701e-23)
(0.0233805033359 0.00236342799233 2.01870966743e-24)
(0.0222175039811 0.0033683376199 1.16352793172e-23)
(0.0257338266503 0.00240839117235 -3.83067125891e-23)
(0.0244441068935 0.00364299533249 -3.12766848728e-24)
(0.0284099377555 0.00234652427631 -8.24242996933e-23)
(0.0270189537814 0.00384945883046 -6.37917639718e-23)
(0.031302283318 0.00211413916116 -2.09342370587e-22)
(0.0299413629688 0.00392329824313 -1.99438532929e-22)
(0.0340679330014 0.00165595030506 -1.21304466214e-21)
(0.0330184333459 0.00387999613457 -7.48418759847e-22)
(0.0362458493987 0.0010160313231 -3.57836020238e-21)
(0.0357226808733 0.00364398707453 -3.01082019563e-21)
(0.0389572301862 0.000829690236367 -7.23982184457e-21)
(0.037306507125 0.00412493201047 -5.82117002397e-21)
(0.0430147221668 0.00031010121391 -1.04064041728e-20)
(0.041135610691 0.000824077349563 -9.39778153811e-21)
(0.0425958664734 0.00026430310287 -1.12419020002e-20)
(0.0453700199111 0.00125473557247 -1.14790484685e-20)
(0.0216431480346 0.000348403345049 -6.26495835553e-21)
(0.0399405351123 0.00436385119108 -1.14388420242e-20)
(0.00272047258999 0.00339168395585 -6.19811485761e-22)
(0.0115627993729 0.000536863806673 9.51689616629e-23)
(0.0105364836227 0.000266415140872 -4.29827165781e-25)
(0.0120646242356 0.000941749542834 3.107638866e-22)
(0.0155846114662 0.0023369648653 -3.55148301604e-24)
(0.0148914248113 0.00250588346969 3.17083490655e-24)
(0.0166016161259 0.00277931559949 -4.61748402438e-24)
(0.0158123937312 0.00305211503604 -5.72486573562e-24)
(0.0178291997334 0.00323191848581 -3.9940588885e-25)
(0.0169175029674 0.00361973411535 -4.06988342881e-24)
(0.0193042706023 0.00369663967856 4.81929195961e-24)
(0.0182535091685 0.00421196083298 1.72399715608e-24)
(0.0210591507155 0.00416202327194 7.97031897168e-24)
(0.0198572337022 0.00482882591723 -1.53482191776e-23)
(0.0231289352212 0.00463113239407 6.48890116245e-24)
(0.0217508637967 0.00546682909054 -1.54671281675e-23)
(0.0255522482684 0.00506187549918 -2.861271987e-23)
(0.0240162182498 0.0061180329656 -1.11166994762e-23)
(0.0283457769905 0.00543040758227 -1.80805997208e-22)
(0.0266533915106 0.0067623079488 -7.12882973634e-23)
(0.0314235960808 0.00570364991417 -7.38514922189e-22)
(0.0296709101614 0.00734405302325 -3.68875510749e-22)
(0.0344199131385 0.00578825969231 -2.54619429334e-21)
(0.032936164931 0.00788362522783 -1.34743518499e-21)
(0.0365811263538 0.00560884536769 -5.25363001722e-21)
(0.0359038055938 0.0080596345963 -3.45858669825e-21)
(0.0392413049228 0.0054201563373 -7.97912971751e-21)
(0.0374961452359 0.00949958986303 -2.05335621135e-21)
(0.043191760873 0.00506374571761 -1.04704258338e-20)
(0.0414922912773 0.00577042867297 -7.33770299104e-21)
(0.0425780959424 0.0048815569631 -1.16759884925e-20)
(0.0455507359319 0.0061226624251 -1.77712766191e-20)
(0.0213281723149 0.00480479068952 -5.79369515446e-21)
(0.040015695165 0.0100676715605 -1.74936858585e-20)
(0.00328513124411 0.00637298460695 4.98431959568e-22)
(0.0109769051206 0.000698884202325 2.15165097771e-22)
(0.00983728630209 0.000350934756543 -1.4225138965e-22)
(0.0123239224744 0.0013378926115 2.60689852154e-22)
(0.0114252881409 0.00117510279619 1.4480566327e-22)
(0.0133342939782 0.0019559226144 1.31582906188e-22)
(0.0125648061935 0.00184659903143 5.84265700446e-23)
(0.0141861231341 0.00257558228736 5.70369368161e-23)
(0.0134571244806 0.002550760362 7.47592643049e-23)
(0.0150432108875 0.00320311035344 9.97452186975e-25)
(0.0142640523517 0.00326186646977 9.04687264632e-25)
(0.0160385225758 0.00386577390513 -5.17726514004e-24)
(0.0151502444823 0.00401430526414 -8.79121017294e-24)
(0.0172405833786 0.00456728193758 -1.94648038387e-24)
(0.0162169802343 0.00481318107934 -6.85452757801e-24)
(0.0186912728461 0.00531039358154 -1.84435139811e-23)
(0.0175119217854 0.0056663624503 -2.81501622898e-24)
(0.0204296990102 0.00609688772502 -3.87856663168e-23)
(0.0190728399097 0.00657921995977 -3.33052021675e-23)
(0.0224948448088 0.0069126111754 -3.30727288062e-23)
(0.0209377310658 0.00755358553258 -3.79333921651e-23)
(0.0249298841816 0.00777334830573 -5.37922769697e-23)
(0.0231583951262 0.00859432388213 -2.18948531428e-23)
(0.0277621725702 0.00864778925475 -2.59357810904e-22)
(0.0257819073873 0.00969956757522 -7.58617186349e-23)
(0.030927904931 0.00951210010121 -9.77795773546e-22)
(0.0288093236989 0.0108342900223 -3.99165622855e-22)
(0.0340779011033 0.0103320019603 -2.2598275899e-21)
(0.032118508028 0.0120266496206 -1.40088830046e-21)
(0.0365014747178 0.0110669799107 -2.58312892378e-22)
(0.0351704374316 0.0128246860772 -2.79779911762e-21)
(0.0394274719776 0.0111224437134 -1.41192948488e-21)
(0.037441551881 0.015263022805 1.35041399258e-21)
(0.0434863565515 0.0109430696755 -1.46385537763e-20)
(0.0416719007178 0.0109063916622 -5.75995096058e-21)
(0.0430392364624 0.0105308970695 -2.35889739851e-20)
(0.0459619941769 0.0110605501509 -2.09679521773e-20)
(0.02284123216 0.00947664436957 -1.12015587445e-20)
(0.0410679277436 0.0166542763705 -2.05769702594e-20)
(0.00732307651539 0.0092747726998 -9.00246328793e-22)
(0.0102303311055 0.000849597657565 -2.12610824151e-22)
(0.00898742947597 0.000432043503916 -5.09472195499e-22)
(0.0116147655931 0.00164747770684 -5.74576188392e-23)
(0.0106271636775 0.00139528106909 -1.70672405072e-22)
(0.0126338102467 0.00242615261834 1.60292816125e-24)
(0.0117859655854 0.00222010391283 -6.49395118037e-23)
(0.013471627031 0.00321497604231 1.86270147534e-23)
(0.0126682939717 0.0030916271774 4.32068339121e-23)
(0.0142957411997 0.00404149305124 -8.88397509529e-24)
(0.0134377834803 0.00398301441312 1.65314814508e-24)
(0.0152438932797 0.00492255343402 -1.04684726109e-23)
(0.014269795749 0.00493401489491 -1.88896696379e-24)
(0.0163911343329 0.00586492762811 -7.72306342312e-24)
(0.0152756843485 0.00595624210709 -3.29758630047e-24)
(0.0177805780557 0.00688234093338 -1.76767044154e-23)
(0.0164961181422 0.00706042655207 -1.80700684673e-25)
(0.019453872588 0.00798055572444 -3.24529280158e-23)
(0.0179767714309 0.00826263711678 -1.23999337392e-23)
(0.0214563760983 0.00916874456937 -2.67555165016e-23)
(0.0197521314829 0.00957379663034 -2.00456764998e-23)
(0.0238343082821 0.0104510746868 -4.3964294808e-23)
(0.0218789095524 0.0110069229867 -1.20674067198e-23)
(0.0266158211099 0.0118330305529 -2.15669530586e-22)
(0.0244027865835 0.0125727798812 -9.92124471205e-23)
(0.0297553928363 0.0133042167304 -8.2225814977e-22)
(0.0273406928195 0.0142618105957 -3.36595089665e-22)
(0.0329453927517 0.0148220406349 -1.93885982818e-21)
(0.0306027419573 0.0160838374991 -1.16592956145e-21)
(0.0357798369152 0.0162683220601 -1.18907223266e-21)
(0.0337255842302 0.0177042815869 -2.62105141041e-21)
(0.0392665157932 0.0169176805963 -2.99760748311e-21)
(0.0367929261925 0.0211346747365 -2.8855345561e-22)
(0.0436282686067 0.0171115248378 -1.20893493616e-20)
(0.0414782383964 0.016158901305 -6.77937360656e-21)
(0.0438684147913 0.0171024352446 -1.79559484516e-20)
(0.0459699039221 0.0161388950517 -1.65973792148e-20)
(0.0272823774074 0.0154968216247 -1.02756578437e-20)
(0.0426710754654 0.0239325637856 -1.66560076135e-20)
(0.0184421108875 0.0147607430688 -1.69665620014e-21)
(0.00933565169918 0.000983517444595 -4.6753377642e-22)
(0.0080036961903 0.000506361578282 -6.61599046421e-22)
(0.0107497547531 0.00193103936001 -1.78154298037e-22)
(0.00967946038622 0.00159542494247 -2.50136933934e-22)
(0.0117695870137 0.00286584749673 -2.33356060529e-23)
(0.0108510579406 0.00256405790571 -3.76974923285e-23)
(0.0125785961904 0.00382226980629 2.62329673037e-23)
(0.0117119242013 0.00359034189144 5.17458462279e-23)
(0.0133507453636 0.00483012861935 8.64815627657e-24)
(0.0124302178264 0.00464964311237 4.28784071696e-24)
(0.0142287411122 0.00591874923593 5.28191934665e-24)
(0.0131818078709 0.00578387967744 2.71322293872e-24)
(0.015290686488 0.00708887503665 4.24477643797e-24)
(0.0141066212138 0.00701339190068 8.84398628433e-25)
(0.0165827021338 0.00836911969338 5.09606999148e-24)
(0.0152174214245 0.00835585397887 6.35006589722e-24)
(0.0181448691558 0.00977550554542 7.31777678209e-27)
(0.0165724095884 0.00983382223906 1.08693791379e-23)
(0.0200237334205 0.0113214712846 -5.35756671791e-24)
(0.0182085689028 0.0114686042661 4.66259130723e-24)
(0.0222695202941 0.013027959422 -6.73155590322e-23)
(0.0201750160716 0.0132843475233 -5.25415288052e-24)
(0.0249119669456 0.0149077322962 -2.201380062e-22)
(0.0225255530343 0.0152983191392 -1.12729609452e-22)
(0.027918480603 0.0169793565062 -6.80266501349e-22)
(0.0252713020897 0.0175209848232 -2.60107779246e-22)
(0.0311142378423 0.0192471226762 -1.84812114368e-21)
(0.0283367088075 0.0199817751892 -8.35892591202e-22)
(0.0343070422159 0.0213092094801 -1.72053263336e-21)
(0.0316646245062 0.0224372671806 -1.88046480926e-21)
(0.0384723728786 0.0230713374089 -4.07031957906e-21)
(0.0350313094375 0.0268747277466 -7.0709820802e-22)
(0.0434308818737 0.0237780153907 -1.12874034598e-20)
(0.0407716522086 0.0216005280911 -5.10135088174e-21)
(0.0441881116788 0.0238387298114 -1.52974383767e-20)
(0.0459073580996 0.0214472406471 -1.08412066181e-20)
(0.034343977399 0.0244792741912 -8.07700596996e-21)
(0.0420273622181 0.0330930492668 -1.08623800339e-20)
(0.0340591666705 0.0357426081435 -8.03088862081e-22)
(0.00830566316478 0.00110977056201 -4.44202203936e-22)
(0.00689378625821 0.000569251630963 -5.90926151584e-22)
(0.00974074975353 0.0021882290785 -1.09680128226e-22)
(0.00860089922998 0.00176826581057 -1.92723576416e-22)
(0.0107512266294 0.00326411227042 3.73839599524e-23)
(0.00977513951969 0.00286803298652 3.13274407939e-23)
(0.011516815879 0.00437331809144 2.98007196412e-23)
(0.0106028042939 0.00403140349537 8.45671591689e-23)
(0.0122192533037 0.00555128165805 -1.64709262089e-24)
(0.0112525347535 0.00524171546192 1.41239363905e-23)
(0.0130052777208 0.00681395526459 -1.6842977795e-24)
(0.0119196947882 0.00654020228868 1.38783295564e-24)
(0.0139539215714 0.00820257192696 2.98968808768e-24)
(0.01271892483 0.00795684709287 6.86948713907e-25)
(0.0151120084389 0.00972950038774 1.21233750436e-23)
(0.0136918206415 0.00951749344939 1.59509630987e-24)
(0.0165176491712 0.0114225034722 1.55246526683e-23)
(0.0148811420577 0.0112488155255 3.80009498853e-24)
(0.0182159228904 0.0133066133794 4.76600514462e-24)
(0.0163265359607 0.0131830501871 1.01858119985e-23)
(0.020255941259 0.0154116920307 -5.06682033004e-23)
(0.0180721837959 0.0153552397396 -5.0792339933e-24)
(0.022673251723 0.0177738909048 -1.52699382498e-22)
(0.020165524046 0.0177926720744 -8.05973275004e-23)
(0.0254573948231 0.0204040905614 -4.15733869098e-22)
(0.0226429364785 0.0205227697708 -1.260995731e-22)
(0.0285703884565 0.0232631619022 -8.68236256776e-22)
(0.0254789258146 0.0236260521834 -3.96701021424e-22)
(0.0320007694493 0.0262454614429 -8.67030383912e-22)
(0.0286829744817 0.0268165015378 -9.41606399452e-22)
(0.0368061463486 0.0287558819633 -1.7381295107e-21)
(0.0325209957759 0.0322698515594 9.7380635992e-22)
(0.0423579348114 0.030622439328 -4.65515404005e-21)
(0.0389049980218 0.0272245492256 -1.68166869177e-21)
(0.0415249722103 0.0324717673398 -6.4061482753e-21)
(0.0440565137296 0.0271068043744 -1.36065773758e-21)
(0.0328521565486 0.0408513426318 -3.588462926e-21)
(0.033636393242 0.0438165060395 -1.44637451889e-21)
(0.0219437487046 0.0677777315981 -1.1411752644e-20)
(0.0071549420573 0.00122312223839 -3.39447524065e-22)
(0.00567062464457 0.000621327002469 -4.36999362821e-22)
(0.00860601703143 0.00241077560188 -5.17160073959e-23)
(0.00741322718274 0.00191183616855 -9.18049498623e-23)
(0.00959550066235 0.00360752520168 7.85106400104e-23)
(0.0085784030778 0.00312303457823 3.82593703122e-23)
(0.0103037764958 0.00484922182791 6.88903759181e-23)
(0.00936118708859 0.00440179267843 1.0313158557e-22)
(0.0109162882574 0.00617163313268 1.7158861967e-23)
(0.00993032773556 0.00573996862025 3.05330182274e-23)
(0.0115869067067 0.00760374566017 3.75907944905e-24)
(0.0104879850697 0.00718193316529 4.88146666709e-24)
(0.0123955111464 0.0091807542685 -7.07643063908e-25)
(0.011142588384 0.00876215093712 -3.77486817931e-24)
(0.0133850114062 0.0109273972213 -6.72818374524e-24)
(0.011946198439 0.0105117055218 -2.89934741616e-24)
(0.0145913926022 0.0128794929657 -1.53874568132e-24)
(0.0129304496512 0.0124654662431 -1.0509389974e-23)
(0.0160558038828 0.0150734834622 3.40572860563e-25)
(0.0141342780687 0.0146649123033 -2.65710064028e-24)
(0.017822105546 0.0175540741543 -3.50083581932e-23)
(0.0155934731877 0.0171526786088 7.64843084817e-24)
(0.0199311902627 0.0203554514427 -5.39975181017e-23)
(0.01736590012 0.0199725053452 -3.4480315622e-23)
(0.0223968300805 0.0235255583136 -1.07066725426e-22)
(0.0194741424742 0.0231724737389 1.49725576574e-23)
(0.0252455700375 0.0270787767447 -4.70071164101e-22)
(0.0219263448301 0.0268440990856 7.3926778096e-24)
(0.028783020491 0.0309456336164 8.9923034438e-22)
(0.0248160675165 0.0307183613581 -6.23036326886e-22)
(0.0340158103309 0.0344602293638 1.03026717885e-21)
(0.0290060089663 0.037158138105 1.81964108592e-21)
(0.0396464358311 0.0378101637852 1.6128276107e-21)
(0.035554833337 0.0328506897446 -1.94174563035e-21)
(0.0329710282339 0.0417214938799 3.59911601883e-21)
(0.0401403002272 0.0329738833619 -4.34792238684e-21)
(0.0159014557093 0.0602722646236 -9.26966423684e-21)
(0.0150666586456 0.0527561662818 -5.48146091357e-21)
(-0.00476955731079 0.0642815717959 -4.04612822547e-20)
(0.00590656790428 0.00130780682389 -1.89356788619e-22)
(0.00736585454741 0.00259031621495 -1.8295721542e-24)
(0.00832460860272 0.00388646141037 6.28803158717e-23)
(0.00896438612603 0.00523685690141 6.47742278791e-23)
(0.00947267401671 0.00668051661736 1.82556229275e-23)
(0.0100070266599 0.00825290670808 -2.65248096127e-24)
(0.0106466281103 0.00998787549893 -5.96657253156e-24)
(0.0114321562531 0.0119226928319 -6.68055364495e-24)
(0.0123971676681 0.01409811391 -1.1627744933e-23)
(0.0135765957979 0.0165592487527 4.65075734733e-24)
(0.0150097612064 0.0193564036313 8.17647341943e-24)
(0.0167356082984 0.0225463810344 3.44897601372e-23)
(0.0187732159299 0.0262014041344 1.29431960893e-22)
(0.0212301627157 0.0303343210378 -1.45572484976e-22)
(0.024642781643 0.0348038749105 2.97374414657e-22)
(0.0298726236817 0.0395271735995 -1.15237172327e-21)
(0.0350293196319 0.0445965091833 -7.90249562789e-21)
(0.0203542200154 0.0505810568717 -1.34284993192e-20)
(0.0140228197959 0.0694230984716 -3.66730789314e-20)
)
;

boundaryField
{
    back
    {
        type            calculated;
        value           uniform (0 0 0);
    }
    sides
    {
        type            calculated;
        value           nonuniform List<vector> 0();
    }
    bottom
    {
        type            calculated;
        value           uniform (0 0 0);
    }
    front
    {
        type            calculated;
        value           uniform (0 0 0);
    }
    atmosphere
    {
        type            calculated;
        value           nonuniform List<vector> 9((0 -0.00379611469267 0) (0.00334444534453 0.00139186903981 -1.42913548593e-21) (0.00273636134174 0.00423819965857 1.89512514408e-22) (0.00514636700572 0.00543619808164 8.07351404728e-22) (0.0126223752803 0.00437457389347 -2.60784406231e-21) (0.026117879826 0.00885803282643 -7.8546833797e-22) (0.0275545088373 0.0529513937459 -8.20709386191e-22) (0.00791439597414 0.0869639863897 -2.20027959017e-20) (0.0243460300689 0.00741649327993 -5.89197686077e-20));
    }
    floatingObject
    {
        type            calculated;
        value           nonuniform List<vector> 0();
    }
    procBoundary0to1
    {
        type            processor;
        value           nonuniform List<vector> 10((0.0241882822814 -0.00104368544356 -1.98455513654e-23) (0.0265283857682 -0.00155167501381 -6.41650153627e-23) (0.0291185376235 -0.00222144190199 -1.59891354463e-22) (0.0318026562646 -0.00296845780924 -2.20516335016e-22) (0.0342911941036 -0.00365355649842 -1.47959126456e-22) (0.0367385733086 -0.00429216603297 1.81580169733e-21) (0.0402593667911 -0.00761709530918 -4.54423759312e-22) (0.0447245778921 -0.0086427664782 -1.76001622199e-21) (0.0392609987376 -0.00556563999351 -1.64467137585e-21) (0.00475157262897 -0.0078253357744 6.9135572262e-23));
    }
    procBoundary0to2
    {
        type            processor;
        value           nonuniform List<vector> 
14
(
(0.0188443753947 -0.000172923596043 5.46432841092e-24)
(0.0203609773109 -0.000382218104042 1.09715994802e-23)
(0.0221383611319 -0.000665369946514 1.73501122702e-23)
(0.0164845892675 0.0010673082399 -1.23803895595e-23)
(0.0182353052088 0.000553681460041 1.04930588391e-23)
(0.0175807807994 0.00118032988626 7.14507485077e-24)
(0.0110739671661 0.000176821738734 -3.42872407188e-22)
(0.012544787332 0.000699576301736 2.53757596758e-23)
(0.0159223082205 0.0014436603687 -2.97041843348e-23)
(0.0153314089768 0.00172712767219 -2.15116753098e-23)
(0.012867844983 0.00101639388876 1.99800642588e-22)
(0.0131833101779 0.00145048763481 1.49726608141e-22)
(0.0147147098721 0.00189726051013 4.75477329315e-23)
(0.014077050138 0.00198123099129 1.01413834841e-22)
)
;
    }
    procBoundary0to4
    {
        type            processor;
        value           nonuniform List<vector> 8((0.004362853577 0.000666476547022 -3.09046424271e-22) (0.00613076579739 0.00202439782016 -5.14244217423e-23) (0.00728230363954 0.00332289303521 -1.23031679241e-25) (0.00801084940721 0.00469275022004 8.33473985418e-23) (0.00848677668664 0.00613175860518 2.93098879345e-23) (0.00891581440848 0.0076886595335 3.19029906388e-24) (0.0094080425394 0.00940075955114 -8.21031712297e-24) (0.0100119945149 0.0113041491091 -5.36025512863e-24));
    }
    procBoundary0to5
    {
        type            processor;
        value           nonuniform List<vector> 
12
(
(0.0107559161906 0.0134420869943 -8.56642595025e-24)
(0.0116742771305 0.0158620682207 -1.08889453616e-23)
(0.0127976604958 0.0186158840978 1.87033730724e-23)
(0.0141771030893 0.0217630305532 8.11989606155e-24)
(0.0158198006768 0.0253639096008 8.54082258748e-23)
(0.0177934067192 0.0295250260674 1.31668720272e-22)
(0.0203459038652 0.0340100366874 -5.84037619442e-22)
(0.0242820034923 0.0413664815132 5.26513476324e-22)
(0.030485040245 0.0383798569869 -3.16237542653e-21)
(0.0341498694253 0.0386723056599 -1.26689310752e-20)
(-0.00379807511986 0.0585910605547 -1.4169698837e-20)
(0.057218975317 0.0517406950581 -3.22846827591e-20)
)
;
    }
}


// ************************************************************************* //
