/*--------------------------------*- C++ -*----------------------------------*\
| =========                 |                                                 |
| \\      /  F ield         | OpenFOAM: The Open Source CFD Toolbox           |
|  \\    /   O peration     | Version:  v2012                                 |
|   \\  /    A nd           | Website:  www.openfoam.com                      |
|    \\/     M anipulation  |                                                 |
\*---------------------------------------------------------------------------*/
FoamFile
{
    version     2.0;
    format      ascii;
    class       volScalarField;
    location    "5";
    object      alpha.water;
}
// * * * * * * * * * * * * * * * * * * * * * * * * * * * * * * * * * * * * * //

dimensions      [0 0 0 0 0 0 0];


internalField   nonuniform List<scalar> 
166
(
0.999998198435
1.00000596543
1.00001315994
1.00002183622
1.00002753089
1.00003173669
1.00002980602
1.00002397306
1
1
0.714323103
0.0439848859494
-1.76726166131e-10
0.999987618155
0.999988814528
0.99999839001
1.00000370893
1.00000950094
1.00001616171
1.00002155411
1.00002493895
1.000023122
1.00001814021
1.00000060651
1
0.710042025806
0.0417447242523
-3.54962321609e-10
0.999998542717
0.99999730716
0.999987618163
0.999988750445
0.999993399744
0.999998866202
1.0000024216
1.00000724274
1.00001274248
1.00001762098
1.00002064954
1.00001937087
1.00001480813
1.00000163665
1.00000013093
0.705719258747
0.04020178396
1.71450878859e-06
0.999999626292
0.999998853653
0.999995992139
0.999993485136
0.999995079719
0.999996177625
0.999995014104
0.999998307057
1.00000144694
1.00000561622
1.00001035713
1.00001472385
1.00001757775
1.00001678169
1.00001202875
1.00000220849
1.00000063334
0.700543082679
0.0385926062069
-5.72774207623e-12
0.999999857321
0.999999244011
0.999998242436
0.999997482631
0.999997594879
0.999997554503
0.999996080871
0.999997037105
1.00000078572
1.00000412388
1.00000821592
1.00001208777
1.00001474505
1.00001426449
1.00000817979
1.00000238435
1.0000008637
0.694304674186
0.0364759553088
-8.05000456641e-13
1.00000009805
0.999999670128
0.999998950418
0.999998547681
0.999997601022
0.999996710142
0.999997884601
0.999997646594
1.00000017242
1.00000265897
1.00000590711
1.00000923583
1.00001168018
1.00001127516
1.00000407916
1.00000225823
1.00000090152
0.685584450359
0.0339216928713
-2.93525479486e-14
1.00000053447
1.00000017198
0.999999622173
0.999998612179
0.999997175707
0.999996710142
0.999999015298
0.999999278563
0.99999978008
1.00000140957
1.0000032681
1.00000587493
1.00000824623
1.00000820117
1.00000316423
1.00000247221
1.00000109179
0.674347048321
0.0306035250307
1.89845612924e-06
1.00000109119
1.00000071385
1.0000001128
0.999999329988
0.999998372235
0.999998015493
0.99999650114
0.999996518453
0.999997395135
0.999999408614
1.00000129968
1.00000269517
1.00000483534
1.00000550078
1.00000326478
1.00000282571
1.00000119389
0.663350019437
0.0265863631628
7.75947063224e-05
1.00000161054
1.00000132117
1.00000067891
0.999999992079
0.99999929159
0.999997536286
0.999993893427
0.999990790598
0.999990814106
0.999995164158
0.999997969997
1.00000062127
1.0000023523
1.00000330022
1.00000293823
1.00000273426
1.00000119102
0.650220830554
0.0213982623985
0.00025267140528
)
;

boundaryField
{
    back
    {
        type            zeroGradient;
    }
    sides
    {
        type            zeroGradient;
    }
    bottom
    {
        type            zeroGradient;
    }
    front
    {
        type            zeroGradient;
    }
    atmosphere
    {
        type            inletOutlet;
        inletValue      uniform 0;
        value           nonuniform List<scalar> 9(-1.76726166131e-10 -3.54962321609e-10 1.71450878859e-06 0 0 0 1.89845612924e-06 7.75947063224e-05 0.00025267140528);
    }
    floatingObject
    {
        type            zeroGradient;
    }
    procBoundary0to1
    {
        type            processor;
        value           nonuniform List<scalar> 10(1.00002188407 1.00002591584 1.0000290838 1.00002786498 1.0000213163 1 1 0.720951355111 0.0474860088779 -5.55950731752e-13);
    }
    procBoundary0to2
    {
        type            processor;
        value           nonuniform List<scalar> 
14
(
1.00000012939
1.0000059422
1.00001372055
0.999987618596
0.999992004254
0.999992004254
0.999998615129
0.999997553078
0.999987618164
0.999987618164
0.999994824428
0.999994824428
0.999992491706
0.999992491706
)
;
    }
    procBoundary0to4
    {
        type            processor;
        value           nonuniform List<scalar> 8(1.00000198675 1.00000185283 1.00000130311 1.00000059634 0.999999997434 0.999998719325 0.999996795742 0.999993317031);
    }
    procBoundary0to5
    {
        type            processor;
        value           nonuniform List<scalar> 
12
(
0.999989662695
0.999992330582
0.999995105813
0.999997563778
1.00000039478
1.00000246218
1.00000356083
1.00000372935
1.00000179689
0.634308773628
0.0176666367007
0.000383329875799
)
;
    }
}


// ************************************************************************* //
