/*--------------------------------*- C++ -*----------------------------------*\
| =========                 |                                                 |
| \\      /  F ield         | OpenFOAM: The Open Source CFD Toolbox           |
|  \\    /   O peration     | Version:  v2012                                 |
|   \\  /    A nd           | Website:  www.openfoam.com                      |
|    \\/     M anipulation  |                                                 |
\*---------------------------------------------------------------------------*/
FoamFile
{
    version     2.0;
    format      ascii;
    class       volScalarField;
    location    "5";
    object      epsilon_0;
}
// * * * * * * * * * * * * * * * * * * * * * * * * * * * * * * * * * * * * * //

dimensions      [0 2 -3 0 0 0 0];


internalField   nonuniform List<scalar> 
166
(
0.000732590863487
0.000736141989261
0.000740641237195
0.000747220578925
0.000758723163253
0.000782718679852
0.000841216732617
0.00100312178008
0.00148158221838
0.00309260250858
0.010835498173
0.0466234147908
0.161183633489
0.000728648686227
0.000731818211789
0.00073487760889
0.000738362704394
0.000742764017767
0.000749146997062
0.000760252190388
0.000783436725003
0.000840278735792
0.000999358956933
0.00147594380916
0.00309418764112
0.0107616122194
0.045894019685
0.148616267523
0.000604542000009
0.000630630190557
0.000726320476135
0.000730847269622
0.000733978951764
0.000737002264782
0.000740439684219
0.000744760577552
0.000750971563288
0.000761725625249
0.000784247116635
0.000840192584797
0.000999685383335
0.00149031640479
0.00319043832063
0.0108271092387
0.0437922589364
0.142829214576
0.000606380509801
0.000632570430939
0.000694920971115
0.000718886518603
0.000728349443722
0.000732845990189
0.000735954286933
0.000738957480671
0.000742366682401
0.000746629241617
0.000752710892251
0.000763188590656
0.000785270029114
0.000841054651139
0.00100410410132
0.00152274552573
0.00335784031708
0.0110013275525
0.0392840298877
0.0981599632093
0.000608086407177
0.000634293040896
0.000696739796027
0.000720708023207
0.000730155127163
0.000734636855988
0.000737736570018
0.000740731350464
0.000744124736826
0.000748348006362
0.000754331503421
0.000764602620409
0.000786451013317
0.000842893606997
0.00101260776661
0.00157156381127
0.00357893347561
0.0113372708429
0.0374323611156
0.090718259818
0.000609600149578
0.000635783670875
0.000698315105909
0.000722293750716
0.000731735944327
0.000736216690173
0.000739317789094
0.000742314300066
0.00074570478009
0.000749904489764
0.000755813939167
0.000765939090848
0.000787724143386
0.000845383331123
0.00102402074576
0.00163075664051
0.00379901414546
0.0113272153406
0.0336338177072
0.076395784321
0.000610900693922
0.000637053087118
0.000699656343306
0.000723648003354
0.000733092755115
0.000737580153453
0.000740690813938
0.000743698419802
0.00074709673031
0.000751286069973
0.000757141856038
0.000767160033803
0.000788985854975
0.00084800622895
0.00103496216524
0.00168329407839
0.0039780964224
0.0111239403162
0.028296901407
0.053681837159
0.00061194016711
0.000638087533909
0.000700758730546
0.000724766193769
0.000734221775502
0.000738721463609
0.000741849310389
0.000744876323801
0.000748290566193
0.000752481875994
0.000758299723896
0.000768242150086
0.000790112011295
0.000850263415054
0.00104385980981
0.0017238871288
0.00410671825814
0.0110548981407
0.0256192465762
0.0465710733032
0.000612737653864
0.000638895491785
0.000701618456361
0.000725642764959
0.000735114053975
0.000739633330221
0.000742786709676
0.000745842712937
0.000749282873219
0.000753488105512
0.000759284166302
0.000769159763114
0.000791030199779
0.000852045477126
0.00105128002614
0.0017586736732
0.00422791050979
0.0114419799088
0.0284376935025
0.0750458638057
)
;

boundaryField
{
    back
    {
        lowReCorrection 0;
        blending        stepwise;
        n               2;
        type            epsilonWallFunction;
        value           nonuniform List<scalar> 
166
(
0.000732590863487
0.000736141989261
0.000740641237195
0.000747220578925
0.000758723163253
0.000782718679852
0.000841216732617
0.00100312178008
0.00148158221838
0.00309260250858
0.010835498173
0.0466234147908
0.161183633489
0.000728648686227
0.000731818211789
0.00073487760889
0.000738362704394
0.000742764017767
0.000749146997062
0.000760252190388
0.000783436725003
0.000840278735792
0.000999358956933
0.00147594380916
0.00309418764112
0.0107616122194
0.045894019685
0.148616267523
0.000604542000009
0.000630630190557
0.000726320476135
0.000730847269622
0.000733978951764
0.000737002264782
0.000740439684219
0.000744760577552
0.000750971563288
0.000761725625249
0.000784247116635
0.000840192584797
0.000999685383335
0.00149031640479
0.00319043832063
0.0108271092387
0.0437922589364
0.142829214576
0.000606380509801
0.000632570430939
0.000694920971115
0.000718886518603
0.000728349443722
0.000732845990189
0.000735954286933
0.000738957480671
0.000742366682401
0.000746629241617
0.000752710892251
0.000763188590656
0.000785270029114
0.000841054651139
0.00100410410132
0.00152274552573
0.00335784031708
0.0110013275525
0.0392840298877
0.0981599632093
0.000608086407177
0.000634293040896
0.000696739796027
0.000720708023207
0.000730155127163
0.000734636855988
0.000737736570018
0.000740731350464
0.000744124736826
0.000748348006362
0.000754331503421
0.000764602620409
0.000786451013317
0.000842893606997
0.00101260776661
0.00157156381127
0.00357893347561
0.0113372708429
0.0374323611156
0.090718259818
0.000609600149578
0.000635783670875
0.000698315105909
0.000722293750716
0.000731735944327
0.000736216690173
0.000739317789094
0.000742314300066
0.00074570478009
0.000749904489764
0.000755813939167
0.000765939090848
0.000787724143386
0.000845383331123
0.00102402074576
0.00163075664051
0.00379901414546
0.0113272153406
0.0336338177072
0.076395784321
0.000610900693922
0.000637053087118
0.000699656343306
0.000723648003354
0.000733092755115
0.000737580153453
0.000740690813938
0.000743698419802
0.00074709673031
0.000751286069973
0.000757141856038
0.000767160033803
0.000788985854975
0.00084800622895
0.00103496216524
0.00168329407839
0.0039780964224
0.0111239403162
0.028296901407
0.053681837159
0.00061194016711
0.000638087533909
0.000700758730546
0.000724766193769
0.000734221775502
0.000738721463609
0.000741849310389
0.000744876323801
0.000748290566193
0.000752481875994
0.000758299723896
0.000768242150086
0.000790112011295
0.000850263415054
0.00104385980981
0.0017238871288
0.00410671825814
0.0110548981407
0.0256192465762
0.0465710733032
0.000612737653864
0.000638895491785
0.000701618456361
0.000725642764959
0.000735114053975
0.000739633330221
0.000742786709676
0.000745842712937
0.000749282873219
0.000753488105512
0.000759284166302
0.000769159763114
0.000791030199779
0.000852045477126
0.00105128002614
0.0017586736732
0.00422791050979
0.0114419799088
0.0284376935025
0.0750458638057
)
;
    }
    sides
    {
        lowReCorrection 0;
        blending        stepwise;
        n               2;
        type            epsilonWallFunction;
        value           nonuniform List<scalar> 0();
    }
    bottom
    {
        lowReCorrection 0;
        blending        stepwise;
        n               2;
        type            epsilonWallFunction;
        value           nonuniform List<scalar> 7(0.000604542000009 0.000606380509801 0.000608086407177 0.000609600149578 0.000610900693922 0.00061194016711 0.000612737653864);
    }
    front
    {
        lowReCorrection 0;
        blending        stepwise;
        n               2;
        type            epsilonWallFunction;
        value           nonuniform List<scalar> 
166
(
0.000732590863487
0.000736141989261
0.000740641237195
0.000747220578925
0.000758723163253
0.000782718679852
0.000841216732617
0.00100312178008
0.00148158221838
0.00309260250858
0.010835498173
0.0466234147908
0.161183633489
0.000728648686227
0.000731818211789
0.00073487760889
0.000738362704394
0.000742764017767
0.000749146997062
0.000760252190388
0.000783436725003
0.000840278735792
0.000999358956933
0.00147594380916
0.00309418764112
0.0107616122194
0.045894019685
0.148616267523
0.000604542000009
0.000630630190557
0.000726320476135
0.000730847269622
0.000733978951764
0.000737002264782
0.000740439684219
0.000744760577552
0.000750971563288
0.000761725625249
0.000784247116635
0.000840192584797
0.000999685383335
0.00149031640479
0.00319043832063
0.0108271092387
0.0437922589364
0.142829214576
0.000606380509801
0.000632570430939
0.000694920971115
0.000718886518603
0.000728349443722
0.000732845990189
0.000735954286933
0.000738957480671
0.000742366682401
0.000746629241617
0.000752710892251
0.000763188590656
0.000785270029114
0.000841054651139
0.00100410410132
0.00152274552573
0.00335784031708
0.0110013275525
0.0392840298877
0.0981599632093
0.000608086407177
0.000634293040896
0.000696739796027
0.000720708023207
0.000730155127163
0.000734636855988
0.000737736570018
0.000740731350464
0.000744124736826
0.000748348006362
0.000754331503421
0.000764602620409
0.000786451013317
0.000842893606997
0.00101260776661
0.00157156381127
0.00357893347561
0.0113372708429
0.0374323611156
0.090718259818
0.000609600149578
0.000635783670875
0.000698315105909
0.000722293750716
0.000731735944327
0.000736216690173
0.000739317789094
0.000742314300066
0.00074570478009
0.000749904489764
0.000755813939167
0.000765939090848
0.000787724143386
0.000845383331123
0.00102402074576
0.00163075664051
0.00379901414546
0.0113272153406
0.0336338177072
0.076395784321
0.000610900693922
0.000637053087118
0.000699656343306
0.000723648003354
0.000733092755115
0.000737580153453
0.000740690813938
0.000743698419802
0.00074709673031
0.000751286069973
0.000757141856038
0.000767160033803
0.000788985854975
0.00084800622895
0.00103496216524
0.00168329407839
0.0039780964224
0.0111239403162
0.028296901407
0.053681837159
0.00061194016711
0.000638087533909
0.000700758730546
0.000724766193769
0.000734221775502
0.000738721463609
0.000741849310389
0.000744876323801
0.000748290566193
0.000752481875994
0.000758299723896
0.000768242150086
0.000790112011295
0.000850263415054
0.00104385980981
0.0017238871288
0.00410671825814
0.0110548981407
0.0256192465762
0.0465710733032
0.000612737653864
0.000638895491785
0.000701618456361
0.000725642764959
0.000735114053975
0.000739633330221
0.000742786709676
0.000745842712937
0.000749282873219
0.000753488105512
0.000759284166302
0.000769159763114
0.000791030199779
0.000852045477126
0.00105128002614
0.0017586736732
0.00422791050979
0.0114419799088
0.0284376935025
0.0750458638057
)
;
    }
    atmosphere
    {
        type            inletOutlet;
        inletValue      uniform 0.1;
        value           nonuniform List<scalar> 9(0.1 0.148616267523 0.142829214576 0.1 0.1 0.1 0.053681837159 0.0465710733032 0.1);
    }
    floatingObject
    {
        lowReCorrection 0;
        blending        stepwise;
        n               2;
        type            epsilonWallFunction;
        value           nonuniform List<scalar> 0();
    }
    procBoundary0to1
    {
        type            processor;
        value           nonuniform List<scalar> 10(0.000745150995258 0.000757035152184 0.000781790948566 0.000841911966434 0.00100789487368 0.00149905997232 0.00315968574205 0.0109117656264 0.0466021978877 0.161789303987);
    }
    procBoundary0to2
    {
        type            processor;
        value           nonuniform List<scalar> 
14
(
0.000730155666483
0.000733767033167
0.000738374854528
0.000726276794217
0.000729487765269
0.000729487765269
0.000602630433925
0.000628457604834
0.000724088808075
0.000724088808075
0.00069286626314
0.00069286626314
0.000716834615732
0.000716834615732
)
;
    }
    procBoundary0to4
    {
        type            processor;
        value           nonuniform List<scalar> 8(0.00061326196449 0.000639463073386 0.000702227566998 0.000726269654672 0.000735762428452 0.000740310953974 0.000743499791743 0.000746594352331);
    }
    procBoundary0to5
    {
        type            processor;
        value           nonuniform List<scalar> 
12
(
0.000750071335877
0.000754305752486
0.000760094916053
0.000769899728455
0.000791705621091
0.000853259539065
0.00105717414576
0.0017894259337
0.00434637425461
0.0119805162282
0.0323211801713
0.0941667731247
)
;
    }
}


// ************************************************************************* //
