/*--------------------------------*- C++ -*----------------------------------*\
| =========                 |                                                 |
| \\      /  F ield         | OpenFOAM: The Open Source CFD Toolbox           |
|  \\    /   O peration     | Version:  v2012                                 |
|   \\  /    A nd           | Website:  www.openfoam.com                      |
|    \\/     M anipulation  |                                                 |
\*---------------------------------------------------------------------------*/
FoamFile
{
    version     2.0;
    format      ascii;
    class       volScalarField;
    location    "5";
    object      nut;
}
// * * * * * * * * * * * * * * * * * * * * * * * * * * * * * * * * * * * * * //

dimensions      [0 2 -1 0 0 0 0];


internalField   nonuniform List<scalar> 
166
(
0.000491998361655
0.000492826899959
0.000493874124857
0.000495398113177
0.00049803751168
0.00050345570055
0.000516200374611
0.000548373305163
0.000626581145106
0.000811868701758
0.00123701175923
0.00193933204654
0.00270073204619
0.000491053239361
0.000491789302048
0.000492500208228
0.000493307949223
0.000494323724617
0.000495786733613
0.000498300870142
0.000503449797411
0.000515603744568
0.000546780169249
0.000624174283613
0.000808173591886
0.00122508312802
0.00188588327767
0.00249417512005
0.000314342834572
0.000467811638481
0.000490496051701
0.000491539110347
0.000492263130307
0.000492961115844
0.00049375190964
0.000494740814524
0.000496151145689
0.000498562864853
0.000503518940129
0.000515392320812
0.000546400664279
0.00062484859616
0.000810976108845
0.0012170203424
0.00185210190578
0.00240395935646
0.000314641613843
0.000468256865711
0.000483224039001
0.000488769143128
0.000490941554888
0.00049197613565
0.000492692034666
0.000493381632288
0.000494161016929
0.000495130688541
0.000496502396393
0.000498835281955
0.00050365896052
0.000515414546744
0.000546835235144
0.000628266433223
0.000819573734279
0.00120825511903
0.00180987812084
0.00301327162687
0.000314924630743
0.000468642537683
0.000483618069829
0.000489162766929
0.000491332257786
0.000492362515874
0.000493074271596
0.000493758731003
0.000494530205901
0.000495485074135
0.000496826557423
0.000499099419962
0.000503841894374
0.000515650517063
0.00054805843654
0.000633986534482
0.000832614535721
0.00120744430891
0.00175910210812
0.00307382831474
0.000315172102606
0.00046896887167
0.000483952465126
0.000489499298878
0.000491668768236
0.000492698313128
0.000493408482965
0.000494090439001
0.000494857458823
0.000495801914797
0.000497119657255
0.000499348642242
0.000504051611157
0.000516043471191
0.000549854011028
0.000640975455962
0.00084533024633
0.00120204869381
0.00171715450107
0.00327307277599
0.000315379826519
0.000469239187182
0.000484230290968
0.00048978065274
0.000491951997376
0.000492983099552
0.000493693908654
0.000494375643588
0.000495140925401
0.000496078315085
0.00049737772826
0.000499572392905
0.00050426183075
0.000516477658009
0.00055163215656
0.000647163369649
0.000854632075764
0.00118632484105
0.00161499983985
0.00224033991342
0.000315541117442
0.000469450493475
0.000484451181232
0.00049000648925
0.000492181940302
0.000493215943421
0.00049392921105
0.00049461276934
0.00049537794229
0.000496310890256
0.000497595547292
0.000499763551687
0.00050444402342
0.00051684384612
0.0005530343406
0.000651676877061
0.000860550057966
0.00117415020264
0.00155399655713
0.00251585591894
0.000315657697587
0.000469605292778
0.00048461433753
0.000490175547628
0.00049235632554
0.000493394772169
0.000494112598058
0.000494800426562
0.000495568392868
0.000496500040226
0.000497775117412
0.000499921751443
0.000504586972356
0.0005171175249
0.000554118827583
0.000655184934235
0.000866486832314
0.00118270503185
0.00160910323495
0.00228931662384
)
;

boundaryField
{
    back
    {
        type            nutkWallFunction;
        blending        stepwise;
        Cmu             0.09;
        kappa           0.41;
        E               9.8;
        value           nonuniform List<scalar> 
166
(
5.22750729826e-05
5.2353171796e-05
5.2451802156e-05
5.2595292009e-05
5.28438967829e-05
5.3354046673e-05
5.45529694663e-05
5.7582898467e-05
6.48917498808e-05
8.15288981913e-05
0.000119507877193
0.000187828285847
0.000333875404372
5.2187202644e-05
5.22569417654e-05
5.23241537049e-05
5.24005011094e-05
5.24965361126e-05
5.26349925792e-05
5.28734770049e-05
5.33627711168e-05
5.45189093494e-05
5.748317362e-05
6.47559952437e-05
8.14001581172e-05
0.000118933874988
0.00018568476552
0.000314183393312
4.51812233577e-05
4.99418787524e-05
5.21352197629e-05
5.22346226869e-05
5.23033282521e-05
5.2369498947e-05
5.24444877783e-05
5.25383499069e-05
5.26724449735e-05
5.29023157169e-05
5.3375644803e-05
5.45101750233e-05
5.7472078283e-05
6.48963560012e-05
8.19562459802e-05
0.000118763409306
0.000183107975111
0.00030737376414
4.52219433382e-05
4.99871212624e-05
5.14366348709e-05
5.19707971074e-05
5.21789328121e-05
5.22775092506e-05
5.23455229211e-05
5.24110391689e-05
5.24851466025e-05
5.25774197627e-05
5.27082306394e-05
5.2931365164e-05
5.33937742271e-05
5.45212926629e-05
5.7535010019e-05
6.52810551818e-05
8.30404979954e-05
0.000118761815024
0.000177751946722
0.000305165807212
4.52599264039e-05
5.00268873721e-05
5.14763950339e-05
5.20099849979e-05
5.22175795377e-05
5.23156928354e-05
5.23833668463e-05
5.24485125317e-05
5.25220406186e-05
5.26131526612e-05
5.2741426932e-05
5.29594451723e-05
5.34154939591e-05
5.45521372796e-05
5.76704289225e-05
6.58744185734e-05
8.44939752425e-05
0.000119381255536
0.000174452130634
0.000300069116772
4.52933974776e-05
5.00609777991e-05
5.15105364768e-05
5.20438329365e-05
5.22511660844e-05
5.2349148193e-05
5.24167176779e-05
5.24817324694e-05
5.25549891936e-05
5.26453221642e-05
5.27716321463e-05
5.29859460996e-05
5.34393680379e-05
5.45966612564e-05
5.78572617116e-05
6.65848216459e-05
8.58877067403e-05
0.000119162315161
0.000169808485554
0.000296914021519
4.53218695748e-05
5.00896899838e-05
5.15393134572e-05
5.2072479249e-05
5.22797480301e-05
5.23777965607e-05
5.24454608157e-05
5.25105618064e-05
5.25838006097e-05
5.26736678607e-05
5.27985063089e-05
5.301001046e-05
5.34631402043e-05
5.46443262607e-05
5.80377656216e-05
6.72055302136e-05
8.69564905133e-05
0.000118199048037
0.000161594892557
0.000247922698256
4.53443604397e-05
5.01127218119e-05
5.15626585806e-05
5.20958608691e-05
5.23032869554e-05
5.24015390005e-05
5.2469477062e-05
5.25348602511e-05
5.26082625448e-05
5.26979436781e-05
5.28216754101e-05
5.30310970747e-05
5.34842000756e-05
5.46850931408e-05
5.81823810116e-05
6.76693515525e-05
8.76825895357e-05
0.000117620835604
0.000157014880591
0.000243850506223
4.53612331421e-05
5.01303102377e-05
5.15805074405e-05
5.21138763182e-05
5.2321600013e-05
5.24202234552e-05
5.24886299962e-05
5.25545179821e-05
5.26283255513e-05
5.27181016737e-05
5.28411285919e-05
5.3048791303e-05
5.35011136017e-05
5.4716637293e-05
5.82994030396e-05
6.80497901205e-05
8.83725361771e-05
0.000118688656252
0.000163160124769
0.000276700486832
)
;
    }
    sides
    {
        type            nutkWallFunction;
        blending        stepwise;
        Cmu             0.09;
        kappa           0.41;
        E               9.8;
        value           nonuniform List<scalar> 0();
    }
    bottom
    {
        type            nutkWallFunction;
        blending        stepwise;
        Cmu             0.09;
        kappa           0.41;
        E               9.8;
        value           nonuniform List<scalar> 7(2.39656900705e-05 2.39874860983e-05 2.40078170212e-05 2.40257327428e-05 2.40409726392e-05 2.40530109901e-05 2.4062042163e-05);
    }
    front
    {
        type            nutkWallFunction;
        blending        stepwise;
        Cmu             0.09;
        kappa           0.41;
        E               9.8;
        value           nonuniform List<scalar> 
166
(
5.22750729826e-05
5.2353171796e-05
5.2451802156e-05
5.2595292009e-05
5.28438967829e-05
5.3354046673e-05
5.45529694663e-05
5.7582898467e-05
6.48917498808e-05
8.15288981913e-05
0.000119507877193
0.000187828285847
0.000333875404372
5.2187202644e-05
5.22569417654e-05
5.23241537049e-05
5.24005011094e-05
5.24965361126e-05
5.26349925792e-05
5.28734770049e-05
5.33627711168e-05
5.45189093494e-05
5.748317362e-05
6.47559952437e-05
8.14001581172e-05
0.000118933874988
0.00018568476552
0.000314183393312
4.51812233577e-05
4.99418787524e-05
5.21352197629e-05
5.22346226869e-05
5.23033282521e-05
5.2369498947e-05
5.24444877783e-05
5.25383499069e-05
5.26724449735e-05
5.29023157169e-05
5.3375644803e-05
5.45101750233e-05
5.7472078283e-05
6.48963560012e-05
8.19562459802e-05
0.000118763409306
0.000183107975111
0.00030737376414
4.52219433382e-05
4.99871212624e-05
5.14366348709e-05
5.19707971074e-05
5.21789328121e-05
5.22775092506e-05
5.23455229211e-05
5.24110391689e-05
5.24851466025e-05
5.25774197627e-05
5.27082306394e-05
5.2931365164e-05
5.33937742271e-05
5.45212926629e-05
5.7535010019e-05
6.52810551818e-05
8.30404979954e-05
0.000118761815024
0.000177751946722
0.000305165807212
4.52599264039e-05
5.00268873721e-05
5.14763950339e-05
5.20099849979e-05
5.22175795377e-05
5.23156928354e-05
5.23833668463e-05
5.24485125317e-05
5.25220406186e-05
5.26131526612e-05
5.2741426932e-05
5.29594451723e-05
5.34154939591e-05
5.45521372796e-05
5.76704289225e-05
6.58744185734e-05
8.44939752425e-05
0.000119381255536
0.000174452130634
0.000300069116772
4.52933974776e-05
5.00609777991e-05
5.15105364768e-05
5.20438329365e-05
5.22511660844e-05
5.2349148193e-05
5.24167176779e-05
5.24817324694e-05
5.25549891936e-05
5.26453221642e-05
5.27716321463e-05
5.29859460996e-05
5.34393680379e-05
5.45966612564e-05
5.78572617116e-05
6.65848216459e-05
8.58877067403e-05
0.000119162315161
0.000169808485554
0.000296914021519
4.53218695748e-05
5.00896899838e-05
5.15393134572e-05
5.2072479249e-05
5.22797480301e-05
5.23777965607e-05
5.24454608157e-05
5.25105618064e-05
5.25838006097e-05
5.26736678607e-05
5.27985063089e-05
5.301001046e-05
5.34631402043e-05
5.46443262607e-05
5.80377656216e-05
6.72055302136e-05
8.69564905133e-05
0.000118199048037
0.000161594892557
0.000247922698256
4.53443604397e-05
5.01127218119e-05
5.15626585806e-05
5.20958608691e-05
5.23032869554e-05
5.24015390005e-05
5.2469477062e-05
5.25348602511e-05
5.26082625448e-05
5.26979436781e-05
5.28216754101e-05
5.30310970747e-05
5.34842000756e-05
5.46850931408e-05
5.81823810116e-05
6.76693515525e-05
8.76825895357e-05
0.000117620835604
0.000157014880591
0.000243850506223
4.53612331421e-05
5.01303102377e-05
5.15805074405e-05
5.21138763182e-05
5.2321600013e-05
5.24202234552e-05
5.24886299962e-05
5.25545179821e-05
5.26283255513e-05
5.27181016737e-05
5.28411285919e-05
5.3048791303e-05
5.35011136017e-05
5.4716637293e-05
5.82994030396e-05
6.80497901205e-05
8.83725361771e-05
0.000118688656252
0.000163160124769
0.000276700486832
)
;
    }
    atmosphere
    {
        type            calculated;
        value           nonuniform List<scalar> 9(0.00270073204619 0.00249417512005 0.00240395935646 0.009 0.009 0.009 0.00224033991342 0.009 0.00228931662384);
    }
    floatingObject
    {
        type            nutkWallFunction;
        blending        stepwise;
        Cmu             0.09;
        kappa           0.41;
        E               9.8;
        value           nonuniform List<scalar> 0();
    }
    procBoundary0to1
    {
        type            processor;
        value           nonuniform List<scalar> 10(0.000494980385229 0.000497749053133 0.000503445352221 0.000516839958912 0.000550528793252 0.000632190481849 0.000823361864442 0.00125087120699 0.00197117614533 0.00303709567146);
    }
    procBoundary0to2
    {
        type            processor;
        value           nonuniform List<scalar> 
14
(
0.000491461190312
0.000492310529059
0.000493393260787
0.000490525778265
0.000491273905236
0.000491273905236
0.000314038986564
0.000467302391353
0.000490001185259
0.000490001185259
0.000482769076347
0.000482769076347
0.000488317879774
0.000488317879774
)
;
    }
    procBoundary0to4
    {
        type            processor;
        value           nonuniform List<scalar> 8(0.000315726100774 0.000469700844978 0.000484719022628 0.00049028718475 0.000492474745103 0.000493520020778 0.000494244521099 0.000494938807188);
    }
    procBoundary0to5
    {
        type            processor;
        value           nonuniform List<scalar> 
12
(
0.000495712095325
0.00049664469045
0.00049791265345
0.000500036330557
0.000504672492223
0.000517270129733
0.00055490840888
0.000658108717621
0.000872643671624
0.00119868080313
0.00165497946916
0.00239145844189
)
;
    }
}


// ************************************************************************* //
