/*--------------------------------*- C++ -*----------------------------------*\
| =========                 |                                                 |
| \\      /  F ield         | OpenFOAM: The Open Source CFD Toolbox           |
|  \\    /   O peration     | Version:  v2012                                 |
|   \\  /    A nd           | Website:  www.openfoam.com                      |
|    \\/     M anipulation  |                                                 |
\*---------------------------------------------------------------------------*/
FoamFile
{
    version     2.0;
    format      ascii;
    class       volScalarField;
    location    "2.9";
    object      ddt0(k);
}
// * * * * * * * * * * * * * * * * * * * * * * * * * * * * * * * * * * * * * //

dimensions      [0 2 -3 0 0 0 0];


internalField   nonuniform List<scalar> 
166
(
-0.00274141159634
-0.00274491209658
-0.00274786578044
-0.00274931894663
-0.00274726287045
-0.00274063899527
-0.00273543496026
-0.00274617991116
-0.00263985497075
-0.000598357823098
0.0130014427666
0.0367384943127
0.00914136588748
-0.00273972436414
-0.0027432001958
-0.0027466022396
-0.00274998423549
-0.00275304872328
-0.00275492072886
-0.00275436949968
-0.00275134557643
-0.00275203787807
-0.00277067741177
-0.00273751392419
-0.00131949978483
0.0104087112381
0.0349021634524
0.0124977430618
-0.00208031362451
-0.00254372813241
-0.00273990332235
-0.0027449284917
-0.00274839574691
-0.002751796169
-0.00275528092698
-0.00275860105907
-0.00276117416338
-0.00276240764924
-0.00276388795789
-0.00277396273341
-0.00281166371876
-0.00287671616069
-0.00218460546461
0.00708719066374
0.0372283327586
0.0183325184982
-0.00208663671501
-0.00255017602087
-0.00268961908441
-0.00273229210549
-0.00274500170497
-0.0027499871761
-0.00275353691744
-0.00275709062236
-0.00276081984154
-0.00276449841322
-0.00276787559876
-0.00277114187082
-0.00277752865909
-0.00279912487638
-0.0028649901104
-0.00302640931828
-0.00291783804104
0.00367197894613
0.0343989925376
0.019286366628
-0.00209229811554
-0.00255662724923
-0.00269527189111
-0.00273744344484
-0.00274997556111
-0.002754990004
-0.00275868615005
-0.00276246988761
-0.00276652973321
-0.0027707185514
-0.0027749662245
-0.00278017313466
-0.0027913023913
-0.00282490679365
-0.00292372257268
-0.00318538087846
-0.00356224210002
0.000112331617474
0.0254605496429
0.00972550733407
-0.00209814819127
-0.00256282651572
-0.00270074538462
-0.00274240567967
-0.00275479878256
-0.00275988969445
-0.00276381143972
-0.002767886888
-0.00277234309217
-0.00277710804137
-0.00278230780127
-0.00278935511597
-0.00280471857354
-0.00284941094475
-0.00298092458684
-0.00334757539519
-0.00400616277138
-0.00255363778071
0.0119105638241
-0.00124649795285
-0.00210330333072
-0.00256860866397
-0.00270593541967
-0.00274716653051
-0.00275948396793
-0.00276469469929
-0.00276887708878
-0.0027733184373
-0.0027782418764
-0.00278365435494
-0.00278981571271
-0.00279855113785
-0.00281743398503
-0.00287054802429
-0.00301725535481
-0.00339905523196
-0.00414512591348
-0.00353876003868
0.00387853225674
-0.0184959540146
-0.00210812906659
-0.00257414512965
-0.00271085888143
-0.00275168772379
-0.00276397726537
-0.00276939256848
-0.00277387673356
-0.0027787593243
-0.00278420795935
-0.00279027459774
-0.00279736777093
-0.00280741581375
-0.00282725992202
-0.0028801530229
-0.0030290945352
-0.00342909383473
-0.00421614282071
-0.00392365011429
0.000926110258424
-0.032505104918
-0.00211258992936
-0.00257920904604
-0.00271536393794
-0.0027558789152
-0.00276818788882
-0.00277384022155
-0.00277870906314
-0.00278408550418
-0.00279010593028
-0.00279681246705
-0.00280461940592
-0.00281526125305
-0.00283572062675
-0.00288882301193
-0.00304035314808
-0.00345483394881
-0.0043182918208
-0.00489477444962
-0.00531940165334
-0.102732101577
)
;

boundaryField
{
    back
    {
        type            calculated;
        value           nonuniform List<scalar> 
166
(
-0.00274141159634
-0.00274491209658
-0.00274786578044
-0.00274931894663
-0.00274726287045
-0.00274063899527
-0.00273543496026
-0.00274617991116
-0.00263985497075
-0.000598357823098
0.0130014427666
0.0367384943127
0.00914136588748
-0.00273972436414
-0.0027432001958
-0.0027466022396
-0.00274998423549
-0.00275304872328
-0.00275492072886
-0.00275436949968
-0.00275134557643
-0.00275203787807
-0.00277067741177
-0.00273751392419
-0.00131949978483
0.0104087112381
0.0349021634524
0.0124977430618
-0.00208031362451
-0.00254372813241
-0.00273990332235
-0.0027449284917
-0.00274839574691
-0.002751796169
-0.00275528092698
-0.00275860105907
-0.00276117416338
-0.00276240764924
-0.00276388795789
-0.00277396273341
-0.00281166371876
-0.00287671616069
-0.00218460546461
0.00708719066374
0.0372283327586
0.0183325184982
-0.00208663671501
-0.00255017602087
-0.00268961908441
-0.00273229210549
-0.00274500170497
-0.0027499871761
-0.00275353691744
-0.00275709062236
-0.00276081984154
-0.00276449841322
-0.00276787559876
-0.00277114187082
-0.00277752865909
-0.00279912487638
-0.0028649901104
-0.00302640931828
-0.00291783804104
0.00367197894613
0.0343989925376
0.019286366628
-0.00209229811554
-0.00255662724923
-0.00269527189111
-0.00273744344484
-0.00274997556111
-0.002754990004
-0.00275868615005
-0.00276246988761
-0.00276652973321
-0.0027707185514
-0.0027749662245
-0.00278017313466
-0.0027913023913
-0.00282490679365
-0.00292372257268
-0.00318538087846
-0.00356224210002
0.000112331617474
0.0254605496429
0.00972550733407
-0.00209814819127
-0.00256282651572
-0.00270074538462
-0.00274240567967
-0.00275479878256
-0.00275988969444
-0.00276381143972
-0.002767886888
-0.00277234309217
-0.00277710804137
-0.00278230780127
-0.00278935511597
-0.00280471857354
-0.00284941094475
-0.00298092458684
-0.00334757539519
-0.00400616277138
-0.00255363778071
0.0119105638241
-0.00124649795285
-0.00210330333072
-0.00256860866397
-0.00270593541967
-0.00274716653051
-0.00275948396793
-0.00276469469929
-0.00276887708878
-0.0027733184373
-0.0027782418764
-0.00278365435494
-0.00278981571271
-0.00279855113785
-0.00281743398503
-0.00287054802429
-0.00301725535481
-0.00339905523196
-0.00414512591348
-0.00353876003868
0.00387853225674
-0.0184959540146
-0.00210812906659
-0.00257414512965
-0.00271085888143
-0.00275168772379
-0.00276397726537
-0.00276939256848
-0.00277387673356
-0.0027787593243
-0.00278420795935
-0.00279027459774
-0.00279736777093
-0.00280741581375
-0.00282725992202
-0.0028801530229
-0.0030290945352
-0.00342909383473
-0.00421614282071
-0.00392365011429
0.000926110258424
-0.032505104918
-0.00211258992936
-0.00257920904604
-0.00271536393794
-0.0027558789152
-0.00276818788882
-0.00277384022155
-0.00277870906314
-0.00278408550418
-0.00279010593028
-0.00279681246705
-0.00280461940592
-0.00281526125305
-0.00283572062675
-0.00288882301193
-0.00304035314808
-0.00345483394881
-0.0043182918208
-0.00489477444962
-0.00531940165334
-0.102732101577
)
;
    }
    sides
    {
        type            calculated;
        value           nonuniform List<scalar> 0();
    }
    bottom
    {
        type            calculated;
        value           nonuniform List<scalar> 7(-0.00208031362451 -0.00208663671501 -0.00209229811554 -0.00209814819127 -0.00210330333072 -0.00210812906659 -0.00211258992936);
    }
    front
    {
        type            calculated;
        value           nonuniform List<scalar> 
166
(
-0.00274141159634
-0.00274491209658
-0.00274786578044
-0.00274931894663
-0.00274726287045
-0.00274063899527
-0.00273543496026
-0.00274617991116
-0.00263985497075
-0.000598357823098
0.0130014427666
0.0367384943127
0.00914136588748
-0.00273972436414
-0.0027432001958
-0.0027466022396
-0.00274998423549
-0.00275304872328
-0.00275492072886
-0.00275436949968
-0.00275134557643
-0.00275203787807
-0.00277067741177
-0.00273751392419
-0.00131949978483
0.0104087112381
0.0349021634524
0.0124977430618
-0.00208031362451
-0.00254372813241
-0.00273990332235
-0.0027449284917
-0.00274839574691
-0.002751796169
-0.00275528092698
-0.00275860105907
-0.00276117416338
-0.00276240764924
-0.00276388795789
-0.00277396273341
-0.00281166371876
-0.00287671616069
-0.00218460546461
0.00708719066374
0.0372283327586
0.0183325184982
-0.00208663671501
-0.00255017602087
-0.00268961908441
-0.00273229210549
-0.00274500170497
-0.0027499871761
-0.00275353691744
-0.00275709062236
-0.00276081984154
-0.00276449841322
-0.00276787559876
-0.00277114187082
-0.00277752865909
-0.00279912487638
-0.0028649901104
-0.00302640931828
-0.00291783804104
0.00367197894613
0.0343989925376
0.019286366628
-0.00209229811554
-0.00255662724923
-0.00269527189111
-0.00273744344484
-0.00274997556111
-0.002754990004
-0.00275868615005
-0.00276246988761
-0.00276652973321
-0.0027707185514
-0.0027749662245
-0.00278017313466
-0.0027913023913
-0.00282490679365
-0.00292372257268
-0.00318538087846
-0.00356224210002
0.000112331617474
0.0254605496429
0.00972550733407
-0.00209814819127
-0.00256282651572
-0.00270074538462
-0.00274240567967
-0.00275479878256
-0.00275988969444
-0.00276381143972
-0.002767886888
-0.00277234309217
-0.00277710804137
-0.00278230780127
-0.00278935511597
-0.00280471857354
-0.00284941094475
-0.00298092458684
-0.00334757539519
-0.00400616277138
-0.00255363778071
0.0119105638241
-0.00124649795285
-0.00210330333072
-0.00256860866397
-0.00270593541967
-0.00274716653051
-0.00275948396793
-0.00276469469929
-0.00276887708878
-0.0027733184373
-0.0027782418764
-0.00278365435494
-0.00278981571271
-0.00279855113785
-0.00281743398503
-0.00287054802429
-0.00301725535481
-0.00339905523196
-0.00414512591348
-0.00353876003868
0.00387853225674
-0.0184959540146
-0.00210812906659
-0.00257414512965
-0.00271085888143
-0.00275168772379
-0.00276397726537
-0.00276939256848
-0.00277387673356
-0.0027787593243
-0.00278420795935
-0.00279027459774
-0.00279736777093
-0.00280741581375
-0.00282725992202
-0.0028801530229
-0.0030290945352
-0.00342909383473
-0.00421614282071
-0.00392365011429
0.000926110258424
-0.032505104918
-0.00211258992936
-0.00257920904604
-0.00271536393794
-0.0027558789152
-0.00276818788882
-0.00277384022155
-0.00277870906314
-0.00278408550418
-0.00279010593028
-0.00279681246705
-0.00280461940592
-0.00281526125305
-0.00283572062675
-0.00288882301193
-0.00304035314808
-0.00345483394881
-0.0043182918208
-0.00489477444962
-0.00531940165334
-0.102732101577
)
;
    }
    atmosphere
    {
        type            calculated;
        value           nonuniform List<scalar> 9(0.000391401317621 0.00804295456278 0.00660093339346 -0.0217586043531 0.00247513585646 5.50998962373e-05 2.63336457625e-06 -8.41666819731e-09 -2.20703026564);
    }
    floatingObject
    {
        type            calculated;
        value           nonuniform List<scalar> 0();
    }
    procBoundary0to1
    {
        type            processor;
        value           nonuniform List<scalar> 10(-0.00274401165702 -0.00274083096345 -0.00273147976568 -0.00272162733181 -0.00272607931423 -0.00259155117661 -0.000405972954399 0.01471391863 0.0530984833618 0.017342552546);
    }
    procBoundary0to2
    {
        type            processor;
        value           nonuniform List<scalar> 
14
(
-0.00273645133005
-0.00273991288929
-0.00274290182974
-0.00273453388848
-0.00273807620458
-0.00273807620458
-0.00207394379991
-0.00253715240574
-0.00273468650559
-0.00273468650559
-0.00268382562502
-0.00268382562502
-0.0027269793906
-0.0027269793906
)
;
    }
    procBoundary0to4
    {
        type            processor;
        value           nonuniform List<scalar> 8(-0.00211529550486 -0.00258439672772 -0.00271971335621 -0.00275978511569 -0.00277208459572 -0.00277798969494 -0.00278327137144 -0.00278917514786);
    }
    procBoundary0to5
    {
        type            processor;
        value           nonuniform List<scalar> 
12
(
-0.00279588188279
-0.00280337104434
-0.00281202802714
-0.00282346172353
-0.00284433664655
-0.00289722529166
-0.00305140643603
-0.00349154214788
-0.00446952822306
-0.00539115016835
-0.00561873139318
-0.0521522821486
)
;
    }
}


// ************************************************************************* //
