/*--------------------------------*- C++ -*----------------------------------*\
| =========                 |                                                 |
| \\      /  F ield         | OpenFOAM: The Open Source CFD Toolbox           |
|  \\    /   O peration     | Version:  v2012                                 |
|   \\  /    A nd           | Website:  www.openfoam.com                      |
|    \\/     M anipulation  |                                                 |
\*---------------------------------------------------------------------------*/
FoamFile
{
    version     2.0;
    format      ascii;
    class       volScalarField;
    location    "2.9";
    object      epsilon_0;
}
// * * * * * * * * * * * * * * * * * * * * * * * * * * * * * * * * * * * * * //

dimensions      [0 2 -3 0 0 0 0];


internalField   nonuniform List<scalar> 
166
(
0.00290040511674
0.00290986804466
0.00292118804509
0.00293656603003
0.00296252121724
0.00301662067536
0.00313908146142
0.00340801828049
0.00396322420623
0.00516618012528
0.00930150577004
0.0362636254681
0.161187634387
0.00289201709472
0.00290041677346
0.00290868393103
0.00291794521538
0.00292901716835
0.00294397815185
0.00296909219741
0.00302137810946
0.00314073772061
0.00340951042855
0.00399273547926
0.00530886635303
0.00954760960455
0.0358440146126
0.15871833374
0.00244867206953
0.00254456799825
0.00288800045444
0.00290016107135
0.00290845866839
0.00291661249866
0.00292574779892
0.00293664210911
0.00295124506504
0.00297551576957
0.00302578585545
0.00314118004691
0.00340674413646
0.00400952123909
0.00542127630385
0.00964396768394
0.0337479952294
0.155699799395
0.00245599088971
0.00255193237907
0.00278593033362
0.00286746131598
0.00289575521962
0.00290784486185
0.0029160847155
0.00292418078465
0.0029332463062
0.00294402237547
0.00295833266128
0.00298182255036
0.00303009059042
0.003141351215
0.00340228452732
0.00401540047948
0.00549486200918
0.00975034580079
0.0320477346419
0.154289719988
0.00246273070166
0.00255880475856
0.00279320000024
0.00287475878847
0.00290300851929
0.00291506241294
0.00292328693421
0.00293137239333
0.00294041834385
0.00295112372906
0.00296521198134
0.00298799950075
0.00303443338977
0.00314200131521
0.00339898920128
0.0040196159021
0.00555671925577
0.00999433397912
0.0314873744719
0.156408057942
0.00246876088055
0.00256514763002
0.00279993002743
0.00288151301228
0.00290974431236
0.00292180302916
0.00293004782447
0.00293816234864
0.00294723678168
0.00295793293281
0.00297185648492
0.0029940248651
0.00303879074921
0.00314310113976
0.00339698312685
0.00402473101419
0.00561509310067
0.0103441140268
0.032408623118
0.159298960651
0.00247408544958
0.00257089319368
0.00280607451659
0.00288769539321
0.00291593585875
0.00292802983032
0.00293633518723
0.00294452963342
0.00295368408811
0.00296442824066
0.00297824935414
0.00299986285761
0.00304303821027
0.00314417451461
0.00339471681414
0.00402602441758
0.00565198028994
0.0106019880293
0.033838090945
0.165657090396
0.00247865166921
0.00257604252849
0.00281160614069
0.00289327966028
0.00292155228977
0.0029337101676
0.00294212055209
0.00295044792417
0.00295973866283
0.00297058635113
0.00298437164046
0.00300550394787
0.00304714356859
0.00314507918986
0.00339169850512
0.00402371865198
0.0056730490893
0.0107691828659
0.0344931092807
0.166136420952
0.00248248585546
0.00258051564832
0.00281644903178
0.00289820958604
0.00292655119206
0.00293881599705
0.0029473716204
0.00295587652871
0.0029653669069
0.0029763895928
0.00299021557835
0.00301095139712
0.00305116243789
0.00314596303655
0.00338858190868
0.00401985292802
0.00567826647693
0.0107172191326
0.0319683766174
0.12338996292
)
;

boundaryField
{
    back
    {
        lowReCorrection 0;
        blending        stepwise;
        n               2;
        type            epsilonWallFunction;
        value           nonuniform List<scalar> 
166
(
0.00290040511674
0.00290986804466
0.00292118804509
0.00293656603003
0.00296252121724
0.00301662067536
0.00313908146142
0.00340801828049
0.00396322420623
0.00516618012528
0.00930150577004
0.0362636254681
0.161187634387
0.00289201709472
0.00290041677346
0.00290868393103
0.00291794521538
0.00292901716835
0.00294397815185
0.00296909219741
0.00302137810946
0.00314073772061
0.00340951042855
0.00399273547926
0.00530886635303
0.00954760960455
0.0358440146126
0.15871833374
0.00244867206953
0.00254456799825
0.00288800045444
0.00290016107135
0.00290845866839
0.00291661249866
0.00292574779892
0.00293664210911
0.00295124506504
0.00297551576957
0.00302578585545
0.00314118004691
0.00340674413646
0.00400952123909
0.00542127630385
0.00964396768394
0.0337479952294
0.155699799395
0.00245599088971
0.00255193237907
0.00278593033362
0.00286746131598
0.00289575521962
0.00290784486185
0.0029160847155
0.00292418078465
0.0029332463062
0.00294402237547
0.00295833266128
0.00298182255036
0.00303009059042
0.003141351215
0.00340228452732
0.00401540047948
0.00549486200918
0.00975034580079
0.0320477346419
0.154289719988
0.00246273070166
0.00255880475856
0.00279320000024
0.00287475878847
0.00290300851929
0.00291506241294
0.00292328693421
0.00293137239333
0.00294041834385
0.00295112372906
0.00296521198134
0.00298799950075
0.00303443338977
0.00314200131521
0.00339898920128
0.0040196159021
0.00555671925577
0.00999433397912
0.0314873744719
0.156408057942
0.00246876088055
0.00256514763002
0.00279993002743
0.00288151301228
0.00290974431236
0.00292180302916
0.00293004782447
0.00293816234864
0.00294723678168
0.00295793293281
0.00297185648492
0.0029940248651
0.00303879074921
0.00314310113976
0.00339698312685
0.00402473101419
0.00561509310067
0.0103441140268
0.032408623118
0.159298960651
0.00247408544958
0.00257089319368
0.00280607451659
0.00288769539321
0.00291593585875
0.00292802983032
0.00293633518723
0.00294452963342
0.00295368408811
0.00296442824066
0.00297824935414
0.00299986285761
0.00304303821027
0.00314417451461
0.00339471681414
0.00402602441758
0.00565198028994
0.0106019880293
0.033838090945
0.165657090396
0.00247865166921
0.00257604252849
0.00281160614069
0.00289327966028
0.00292155228977
0.0029337101676
0.00294212055209
0.00295044792417
0.00295973866283
0.00297058635113
0.00298437164046
0.00300550394787
0.00304714356859
0.00314507918986
0.00339169850512
0.00402371865198
0.0056730490893
0.0107691828659
0.0344931092807
0.166136420952
0.00248248585546
0.00258051564832
0.00281644903178
0.00289820958604
0.00292655119206
0.00293881599705
0.0029473716204
0.00295587652871
0.0029653669069
0.0029763895928
0.00299021557835
0.00301095139712
0.00305116243789
0.00314596303655
0.00338858190868
0.00401985292802
0.00567826647693
0.0107172191326
0.0319683766174
0.12338996292
)
;
    }
    sides
    {
        lowReCorrection 0;
        blending        stepwise;
        n               2;
        type            epsilonWallFunction;
        value           nonuniform List<scalar> 0();
    }
    bottom
    {
        lowReCorrection 0;
        blending        stepwise;
        n               2;
        type            epsilonWallFunction;
        value           nonuniform List<scalar> 7(0.00244867206953 0.00245599088971 0.00246273070166 0.00246876088055 0.00247408544958 0.00247865166921 0.00248248585546);
    }
    front
    {
        lowReCorrection 0;
        blending        stepwise;
        n               2;
        type            epsilonWallFunction;
        value           nonuniform List<scalar> 
166
(
0.00290040511674
0.00290986804466
0.00292118804509
0.00293656603003
0.00296252121724
0.00301662067536
0.00313908146142
0.00340801828049
0.00396322420623
0.00516618012528
0.00930150577004
0.0362636254681
0.161187634387
0.00289201709472
0.00290041677346
0.00290868393103
0.00291794521538
0.00292901716835
0.00294397815185
0.00296909219741
0.00302137810946
0.00314073772061
0.00340951042855
0.00399273547926
0.00530886635303
0.00954760960455
0.0358440146126
0.15871833374
0.00244867206953
0.00254456799825
0.00288800045444
0.00290016107135
0.00290845866839
0.00291661249866
0.00292574779892
0.00293664210911
0.00295124506504
0.00297551576957
0.00302578585545
0.00314118004691
0.00340674413646
0.00400952123909
0.00542127630385
0.00964396768394
0.0337479952294
0.155699799395
0.00245599088971
0.00255193237907
0.00278593033362
0.00286746131598
0.00289575521962
0.00290784486185
0.0029160847155
0.00292418078465
0.0029332463062
0.00294402237547
0.00295833266128
0.00298182255036
0.00303009059042
0.003141351215
0.00340228452732
0.00401540047948
0.00549486200918
0.00975034580079
0.0320477346419
0.154289719988
0.00246273070166
0.00255880475856
0.00279320000024
0.00287475878847
0.00290300851929
0.00291506241294
0.00292328693421
0.00293137239333
0.00294041834385
0.00295112372906
0.00296521198134
0.00298799950075
0.00303443338977
0.00314200131521
0.00339898920128
0.0040196159021
0.00555671925577
0.00999433397912
0.0314873744719
0.156408057942
0.00246876088055
0.00256514763002
0.00279993002743
0.00288151301228
0.00290974431236
0.00292180302916
0.00293004782447
0.00293816234864
0.00294723678168
0.00295793293281
0.00297185648492
0.0029940248651
0.00303879074921
0.00314310113976
0.00339698312685
0.00402473101419
0.00561509310067
0.0103441140268
0.032408623118
0.159298960651
0.00247408544958
0.00257089319368
0.00280607451659
0.00288769539321
0.00291593585875
0.00292802983032
0.00293633518723
0.00294452963342
0.00295368408811
0.00296442824066
0.00297824935414
0.00299986285761
0.00304303821027
0.00314417451461
0.00339471681414
0.00402602441758
0.00565198028994
0.0106019880293
0.033838090945
0.165657090396
0.00247865166921
0.00257604252849
0.00281160614069
0.00289327966028
0.00292155228977
0.0029337101676
0.00294212055209
0.00295044792417
0.00295973866283
0.00297058635113
0.00298437164046
0.00300550394787
0.00304714356859
0.00314507918986
0.00339169850512
0.00402371865198
0.0056730490893
0.0107691828659
0.0344931092807
0.166136420952
0.00248248585546
0.00258051564832
0.00281644903178
0.00289820958604
0.00292655119206
0.00293881599705
0.0029473716204
0.00295587652871
0.0029653669069
0.0029763895928
0.00299021557835
0.00301095139712
0.00305116243789
0.00314596303655
0.00338858190868
0.00401985292802
0.00567826647693
0.0107172191326
0.0319683766174
0.12338996292
)
;
    }
    atmosphere
    {
        type            inletOutlet;
        inletValue      uniform 0.1;
        value           nonuniform List<scalar> 9(0.1 0.1 0.1 0.1 0.1 0.1 0.1 0.1 0.12338996292);
    }
    floatingObject
    {
        lowReCorrection 0;
        blending        stepwise;
        n               2;
        type            epsilonWallFunction;
        value           nonuniform List<scalar> 0();
    }
    procBoundary0to1
    {
        type            processor;
        value           nonuniform List<scalar> 10(0.00292888215608 0.00295564778025 0.00301135026454 0.003136035823 0.00340399213816 0.00393861718435 0.00505926742704 0.00886808834891 0.0336705452285 0.159402550141);
    }
    procBoundary0to2
    {
        type            processor;
        value           nonuniform List<scalar> 
14
(
0.0028918843364
0.00290151116852
0.0029130865193
0.00288352052105
0.00289203416472
0.00289203416472
0.00244077672371
0.00253675997576
0.00287979594082
0.00287979594082
0.0027781452652
0.0027781452652
0.00285965528323
0.00285965528323
)
;
    }
    procBoundary0to4
    {
        type            processor;
        value           nonuniform List<scalar> 8(0.00248555671146 0.00258424668473 0.00282053175702 0.00290241858643 0.00293087696349 0.0029432968896 0.00295204994313 0.00296078973357);
    }
    procBoundary0to5
    {
        type            processor;
        value           nonuniform List<scalar> 
12
(
0.00297054361381
0.00298182348781
0.00299578971071
0.00301627383278
0.00305525698838
0.00314731770667
0.00338695792007
0.00401972034269
0.00565596231454
0.0101920780508
0.0267378620346
0.0823132110057
)
;
    }
}


// ************************************************************************* //
