/*--------------------------------*- C++ -*----------------------------------*\
| =========                 |                                                 |
| \\      /  F ield         | OpenFOAM: The Open Source CFD Toolbox           |
|  \\    /   O peration     | Version:  v2012                                 |
|   \\  /    A nd           | Website:  www.openfoam.com                      |
|    \\/     M anipulation  |                                                 |
\*---------------------------------------------------------------------------*/
FoamFile
{
    version     2.0;
    format      ascii;
    class       volScalarField;
    location    "5.2";
    object      rAU;
}
// * * * * * * * * * * * * * * * * * * * * * * * * * * * * * * * * * * * * * //

dimensions      [-1 3 1 0 0 0 0];


internalField   nonuniform List<scalar> 
164
(
2.18631577433e-05
2.18620808786e-05
2.18590738367e-05
2.18534935323e-05
2.1847141787e-05
2.18290336732e-05
2.17881002049e-05
2.17108229737e-05
2.16098980516e-05
3.06028144242e-05
0.000456862608119
0.0148613253806
2.18588560834e-05
2.18580753182e-05
2.18564755825e-05
2.18517909279e-05
2.18421853327e-05
2.18215064076e-05
2.17794953434e-05
2.16999308499e-05
2.15956490799e-05
3.04424015737e-05
0.000440186797258
0.0132291664481
2.18566614757e-05
2.18522592379e-05
2.18413459533e-05
2.18189648203e-05
2.17773774279e-05
2.17137758688e-05
2.16324988489e-05
3.04949888618e-05
0.000463704780949
0.0151040027555
2.18575332515e-05
2.18525492574e-05
2.18425642422e-05
2.18216116428e-05
2.17832309933e-05
2.17425800528e-05
2.16549727009e-05
3.05812116799e-05
0.000464378895215
0.0131020811763
2.18582593987e-05
2.18539777488e-05
2.18434414315e-05
2.18235227827e-05
2.17851667577e-05
2.17670638388e-05
2.16447487672e-05
3.0605364414e-05
0.000469489549306
0.0131017903654
2.18631184375e-05
2.1859167579e-05
2.18485618876e-05
2.18279813548e-05
2.17880115768e-05
2.17918222076e-05
2.16429995109e-05
3.05578343946e-05
0.0004685145002
0.0126336439163
2.18693996705e-05
2.18675109111e-05
2.1858792561e-05
2.18349878612e-05
2.17828312068e-05
2.17903803709e-05
2.16422782274e-05
3.04941479041e-05
0.000443258983888
0.0129411543363
2.18755036983e-05
2.18774082651e-05
2.18713341804e-05
2.18389808547e-05
2.17654551185e-05
2.17602270757e-05
2.16455993681e-05
3.06769946905e-05
0.000414303059435
0.0107117458486
2.18794163056e-05
2.18846327433e-05
2.18787336612e-05
2.18365914384e-05
2.1745723091e-05
2.17229971634e-05
2.16430967875e-05
3.13368792455e-05
0.000457182649558
0.0123766919103
2.18797258478e-05
2.18834046302e-05
2.18717020505e-05
2.18249723882e-05
2.1724482016e-05
2.17032617683e-05
2.15455686635e-05
3.17088180274e-05
0.000541090932331
0.0154747042166
2.18742538395e-05
2.18712488078e-05
2.18533961185e-05
2.18122703998e-05
2.1717394799e-05
2.17222771437e-05
2.15646163848e-05
3.21313067508e-05
0.000606778164895
0.0135965298942
2.18675743566e-05
2.18598372047e-05
2.18430930996e-05
2.18161601669e-05
2.17305565749e-05
2.17662247169e-05
2.16149016735e-05
3.25966652199e-05
0.000653955387635
0.0140367861244
2.18660320901e-05
2.18590045583e-05
2.18469245827e-05
2.18289597197e-05
2.17468354331e-05
2.17836536023e-05
2.15967654699e-05
3.30801163542e-05
0.000719191866134
0.0140502379202
2.18665426427e-05
2.18609754152e-05
2.18510483263e-05
2.18346214796e-05
2.17569710942e-05
2.14862770549e-05
2.1270051039e-05
3.36106049334e-05
0.000807059987354
0.0140771403097
2.18659169486e-05
2.18586994024e-05
2.18500000576e-05
2.18400781161e-05
2.17689618677e-05
2.14933409783e-05
2.12859867156e-05
3.41598338671e-05
0.000867643799326
0.0172202601105
2.18658328701e-05
2.18553835977e-05
2.18490900086e-05
2.18531919189e-05
2.18012689676e-05
2.15176286093e-05
2.14023613891e-05
3.49860704172e-05
0.000931738572054
0.0148222691541
)
;

boundaryField
{
    back
    {
        type            calculated;
        value           nonuniform List<scalar> 
164
(
2.18631577433e-05
2.18620808786e-05
2.18590738367e-05
2.18534935323e-05
2.1847141787e-05
2.18290336732e-05
2.17881002049e-05
2.17108229737e-05
2.16098980516e-05
3.06028144242e-05
0.000456862608119
0.0148613253806
2.18588560834e-05
2.18580753182e-05
2.18564755825e-05
2.18517909279e-05
2.18421853327e-05
2.18215064076e-05
2.17794953434e-05
2.16999308499e-05
2.15956490799e-05
3.04424015737e-05
0.000440186797258
0.0132291664481
2.18566614757e-05
2.18522592379e-05
2.18413459533e-05
2.18189648203e-05
2.17773774279e-05
2.17137758688e-05
2.16324988489e-05
3.04949888618e-05
0.000463704780949
0.0151040027555
2.18575332515e-05
2.18525492574e-05
2.18425642422e-05
2.18216116428e-05
2.17832309933e-05
2.17425800528e-05
2.16549727009e-05
3.05812116799e-05
0.000464378895215
0.0131020811763
2.18582593987e-05
2.18539777488e-05
2.18434414315e-05
2.18235227827e-05
2.17851667577e-05
2.17670638388e-05
2.16447487672e-05
3.0605364414e-05
0.000469489549306
0.0131017903654
2.18631184375e-05
2.1859167579e-05
2.18485618876e-05
2.18279813548e-05
2.17880115768e-05
2.17918222076e-05
2.16429995109e-05
3.05578343946e-05
0.0004685145002
0.0126336439163
2.18693996705e-05
2.18675109111e-05
2.1858792561e-05
2.18349878612e-05
2.17828312068e-05
2.17903803709e-05
2.16422782274e-05
3.04941479041e-05
0.000443258983888
0.0129411543363
2.18755036983e-05
2.18774082651e-05
2.18713341804e-05
2.18389808547e-05
2.17654551185e-05
2.17602270757e-05
2.16455993681e-05
3.06769946905e-05
0.000414303059435
0.0107117458486
2.18794163056e-05
2.18846327433e-05
2.18787336612e-05
2.18365914384e-05
2.1745723091e-05
2.17229971634e-05
2.16430967875e-05
3.13368792455e-05
0.000457182649558
0.0123766919103
2.18797258478e-05
2.18834046302e-05
2.18717020505e-05
2.18249723882e-05
2.1724482016e-05
2.17032617683e-05
2.15455686635e-05
3.17088180274e-05
0.000541090932331
0.0154747042166
2.18742538395e-05
2.18712488078e-05
2.18533961185e-05
2.18122703998e-05
2.1717394799e-05
2.17222771437e-05
2.15646163848e-05
3.21313067508e-05
0.000606778164895
0.0135965298942
2.18675743566e-05
2.18598372047e-05
2.18430930996e-05
2.18161601669e-05
2.17305565749e-05
2.17662247169e-05
2.16149016735e-05
3.25966652199e-05
0.000653955387635
0.0140367861244
2.18660320901e-05
2.18590045583e-05
2.18469245827e-05
2.18289597197e-05
2.17468354331e-05
2.17836536023e-05
2.15967654699e-05
3.30801163542e-05
0.000719191866134
0.0140502379202
2.18665426427e-05
2.18609754152e-05
2.18510483263e-05
2.18346214796e-05
2.17569710942e-05
2.14862770549e-05
2.1270051039e-05
3.36106049334e-05
0.000807059987354
0.0140771403097
2.18659169486e-05
2.18586994024e-05
2.18500000576e-05
2.18400781161e-05
2.17689618677e-05
2.14933409783e-05
2.12859867156e-05
3.41598338671e-05
0.000867643799326
0.0172202601105
2.18658328701e-05
2.18553835977e-05
2.18490900086e-05
2.18531919189e-05
2.18012689676e-05
2.15176286093e-05
2.14023613891e-05
3.49860704172e-05
0.000931738572054
0.0148222691541
)
;
    }
    sides
    {
        type            calculated;
        value           nonuniform List<scalar> 0();
    }
    bottom
    {
        type            calculated;
        value           nonuniform List<scalar> 0();
    }
    front
    {
        type            calculated;
        value           nonuniform List<scalar> 
164
(
2.18631577433e-05
2.18620808786e-05
2.18590738367e-05
2.18534935323e-05
2.1847141787e-05
2.18290336732e-05
2.17881002049e-05
2.17108229737e-05
2.16098980516e-05
3.06028144242e-05
0.000456862608119
0.0148613253806
2.18588560834e-05
2.18580753182e-05
2.18564755825e-05
2.18517909279e-05
2.18421853327e-05
2.18215064076e-05
2.17794953434e-05
2.16999308499e-05
2.15956490799e-05
3.04424015737e-05
0.000440186797258
0.0132291664481
2.18566614757e-05
2.18522592379e-05
2.18413459533e-05
2.18189648203e-05
2.17773774279e-05
2.17137758688e-05
2.16324988489e-05
3.04949888618e-05
0.000463704780949
0.0151040027555
2.18575332515e-05
2.18525492574e-05
2.18425642422e-05
2.18216116428e-05
2.17832309933e-05
2.17425800528e-05
2.16549727009e-05
3.05812116799e-05
0.000464378895215
0.0131020811763
2.18582593987e-05
2.18539777488e-05
2.18434414315e-05
2.18235227827e-05
2.17851667577e-05
2.17670638388e-05
2.16447487672e-05
3.0605364414e-05
0.000469489549306
0.0131017903654
2.18631184375e-05
2.1859167579e-05
2.18485618876e-05
2.18279813548e-05
2.17880115768e-05
2.17918222076e-05
2.16429995109e-05
3.05578343946e-05
0.0004685145002
0.0126336439163
2.18693996705e-05
2.18675109111e-05
2.1858792561e-05
2.18349878612e-05
2.17828312068e-05
2.17903803709e-05
2.16422782274e-05
3.04941479041e-05
0.000443258983888
0.0129411543363
2.18755036983e-05
2.18774082651e-05
2.18713341804e-05
2.18389808547e-05
2.17654551185e-05
2.17602270757e-05
2.16455993681e-05
3.06769946905e-05
0.000414303059435
0.0107117458486
2.18794163056e-05
2.18846327433e-05
2.18787336612e-05
2.18365914384e-05
2.1745723091e-05
2.17229971634e-05
2.16430967875e-05
3.13368792455e-05
0.000457182649558
0.0123766919103
2.18797258478e-05
2.18834046302e-05
2.18717020505e-05
2.18249723882e-05
2.1724482016e-05
2.17032617683e-05
2.15455686635e-05
3.17088180274e-05
0.000541090932331
0.0154747042166
2.18742538395e-05
2.18712488078e-05
2.18533961185e-05
2.18122703998e-05
2.1717394799e-05
2.17222771437e-05
2.15646163848e-05
3.21313067508e-05
0.000606778164895
0.0135965298942
2.18675743566e-05
2.18598372047e-05
2.18430930996e-05
2.18161601669e-05
2.17305565749e-05
2.17662247169e-05
2.16149016735e-05
3.25966652199e-05
0.000653955387635
0.0140367861244
2.18660320901e-05
2.18590045583e-05
2.18469245827e-05
2.18289597197e-05
2.17468354331e-05
2.17836536023e-05
2.15967654699e-05
3.30801163542e-05
0.000719191866134
0.0140502379202
2.18665426427e-05
2.18609754152e-05
2.18510483263e-05
2.18346214796e-05
2.17569710942e-05
2.14862770549e-05
2.1270051039e-05
3.36106049334e-05
0.000807059987354
0.0140771403097
2.18659169486e-05
2.18586994024e-05
2.18500000576e-05
2.18400781161e-05
2.17689618677e-05
2.14933409783e-05
2.12859867156e-05
3.41598338671e-05
0.000867643799326
0.0172202601105
2.18658328701e-05
2.18553835977e-05
2.18490900086e-05
2.18531919189e-05
2.18012689676e-05
2.15176286093e-05
2.14023613891e-05
3.49860704172e-05
0.000931738572054
0.0148222691541
)
;
    }
    atmosphere
    {
        type            calculated;
        value           nonuniform List<scalar> 
16
(
0.0148613253806
0.0132291664481
0.0151040027555
0.0131020811763
0.0131017903654
0.0126336439163
0.0129411543363
0.0107117458486
0.0123766919103
0.0154747042166
0.0135965298942
0.0140367861244
0.0140502379202
0.0140771403097
0.0172202601105
0.0148222691541
)
;
    }
    floatingObject
    {
        type            calculated;
        value           nonuniform List<scalar> 0();
    }
    procBoundary5to0
    {
        type            processor;
        value           nonuniform List<scalar> 
12
(
2.18640636214e-05
2.18632907132e-05
2.1859824039e-05
2.18569160244e-05
2.18520982304e-05
2.18339862239e-05
2.17928758628e-05
2.17129363391e-05
2.16290489982e-05
3.06376956503e-05
0.000467450917194
0.0160695946515
)
;
    }
    procBoundary5to3
    {
        type            processor;
        value           nonuniform List<scalar> 10(2.18679266407e-05 2.18502476313e-05 2.18454232206e-05 2.18685482489e-05 2.18465518295e-05 2.15525573564e-05 2.1503768933e-05 3.5984104726e-05 0.0011068294548 0.0140316373763);
    }
    procBoundary5to4
    {
        type            processor;
        value           nonuniform List<scalar> 
18
(
2.1862871504e-05
2.18587870407e-05
2.18584116961e-05
2.18581579767e-05
2.18581579767e-05
2.18596247318e-05
2.18604449584e-05
2.18643396938e-05
2.18688722271e-05
2.18729709524e-05
2.1875425298e-05
2.1875450242e-05
2.18734387474e-05
2.18707048756e-05
2.18696279833e-05
2.18698513558e-05
2.18704960224e-05
2.18730992872e-05
)
;
    }
}


// ************************************************************************* //
