/*--------------------------------*- C++ -*----------------------------------*\
| =========                 |                                                 |
| \\      /  F ield         | OpenFOAM: The Open Source CFD Toolbox           |
|  \\    /   O peration     | Version:  v2012                                 |
|   \\  /    A nd           | Website:  www.openfoam.com                      |
|    \\/     M anipulation  |                                                 |
\*---------------------------------------------------------------------------*/
FoamFile
{
    version     2.0;
    format      ascii;
    class       volVectorField;
    location    "5.2";
    object      U;
}
// * * * * * * * * * * * * * * * * * * * * * * * * * * * * * * * * * * * * * //

dimensions      [0 1 -1 0 0 0 0];


internalField   nonuniform List<vector> 
164
(
(0.0548222467505 0.00812942847612 6.15996678715e-25)
(0.0565127478639 0.00928407212279 4.92248970153e-24)
(0.0584217455402 0.0104952779783 2.32571535017e-23)
(0.0605916352752 0.0117516961634 5.14936193158e-23)
(0.0630143616731 0.0130468623528 3.56381177799e-23)
(0.0657542534777 0.0143188399396 -1.49653105564e-22)
(0.0691292095864 0.0153894773001 -7.1147431698e-22)
(0.0735401868212 0.0163847895029 1.51296085728e-21)
(0.0778129941544 0.0165953918072 -2.63332361836e-21)
(0.080679346855 0.0166443061199 -8.16251975091e-21)
(0.112738772414 0.0147065367359 -8.29241213399e-21)
(0.337122634154 0.07065960679 -9.29719900117e-21)
(0.0535834286033 0.00970193983773 9.5172775789e-24)
(0.0552098218031 0.0110892257246 2.29676239503e-23)
(0.0570436506542 0.0125585546663 2.86165178558e-23)
(0.0591433575473 0.014114256646 6.26508274516e-23)
(0.0615551223921 0.0157264976793 8.59829423281e-23)
(0.0643585533332 0.017374348677 -6.16747126012e-23)
(0.0679537671631 0.0189228046156 -3.06407798805e-22)
(0.0727455027151 0.0205537606223 1.83312104274e-21)
(0.0773264600966 0.0211072290077 -6.97070905784e-21)
(0.0799024199225 0.0212211019522 -9.68409770683e-21)
(0.0951906298935 0.0192630887108 5.59056795723e-20)
(0.0339000512411 0.302475343182 1.07830669558e-19)
(0.055406605333 0.0145755131152 4.35828963045e-23)
(0.057398439742 0.0164174118858 9.24874669904e-23)
(0.0597169394918 0.0183825344602 8.49505329734e-23)
(0.0625052317636 0.0204808040133 -2.27171847596e-22)
(0.0662473772441 0.022555539353 -1.21135710904e-21)
(0.0713245939418 0.0250016252651 -1.32724003537e-21)
(0.0759068016177 0.026050420694 -1.04095340142e-20)
(0.0784294215271 0.0269550442219 -1.18806071821e-20)
(0.0835884365373 0.0308993300562 -4.05607579194e-20)
(-0.170861400778 -0.0484658228514 -2.33301279328e-20)
(0.0534890893808 0.0164295246867 4.33808309599e-23)
(0.0553355504882 0.0185703076004 7.92446969429e-23)
(0.0574906860216 0.0208995050027 -2.72836145289e-23)
(0.060164293356 0.0234737835738 -5.89793550553e-22)
(0.0639818708439 0.0260514742511 -2.69099249072e-21)
(0.0692069542012 0.0292233298092 -3.7500931095e-21)
(0.0734582554844 0.0303169379603 -8.75545997265e-21)
(0.0764013719228 0.0319419550723 -5.59974021785e-21)
(0.0857329436691 0.0395536543274 -2.55776516748e-20)
(0.00672053738519 -0.0363931955658 -7.40302443591e-20)
(0.0513112831373 0.0181240187024 4.27195603814e-23)
(0.0529546381805 0.0205272532909 5.30957028876e-23)
(0.0548742781452 0.0231786056031 -1.85917583997e-22)
(0.0573506949981 0.0261862442006 -9.03007166854e-22)
(0.0611974531553 0.0291761459098 -2.39197157285e-21)
(0.0665644505403 0.0330336288917 2.09411664917e-21)
(0.0703072006485 0.034135396556 -1.25798824168e-20)
(0.0742513241313 0.0363598719265 -2.39216743459e-20)
(0.094701863428 0.0448591398681 -4.88134469612e-20)
(0.110809943938 -0.0340868813034 -9.98695059504e-20)
(0.0489158432696 0.0195952314187 5.37685606855e-23)
(0.0503015694864 0.0221885808791 4.76528095647e-23)
(0.0519112657251 0.0250782373851 -2.26567967091e-22)
(0.0541155626383 0.0283847766904 -7.37379411821e-22)
(0.0579565001332 0.0316602731089 -2.21819374377e-21)
(0.0634546723378 0.0360767608073 -1.44796735841e-21)
(0.0667384141003 0.0370816529851 -9.52017188776e-21)
(0.0719477315497 0.0399338995085 -1.12174896587e-20)
(0.106171228893 0.0463182469015 -3.00258391379e-20)
(0.219713622242 -0.039253810274 -6.70730617695e-21)
(0.0463849944943 0.0207820327347 6.48479996983e-23)
(0.0474913027527 0.0234578222065 8.98683887732e-23)
(0.0487621023019 0.0264200783431 3.63321367754e-22)
(0.0506892357633 0.0297792482594 5.9271925123e-22)
(0.0545211659706 0.0329685744965 3.32742654471e-21)
(0.0600516636446 0.0376901779824 -2.50262520592e-21)
(0.0630657163945 0.0387309451518 1.70580103932e-22)
(0.0688634168601 0.0413076946505 1.49380949555e-20)
(0.115825714758 0.0434848469669 1.26235601807e-20)
(0.494074361594 -0.103437848386 -8.07575367577e-20)
(0.0438240121922 0.021689816063 1.2661993986e-23)
(0.0446934396683 0.0243197276318 1.76663174499e-22)
(0.0456977102322 0.0271375691944 1.10554601031e-21)
(0.0474493859379 0.0301989597764 4.41269588232e-21)
(0.0512395387878 0.0329577149143 1.23644396314e-20)
(0.0566370308013 0.0377688957211 2.11889440636e-20)
(0.0595119089825 0.0390039440019 2.71070856136e-20)
(0.0639639641973 0.0406948013427 3.85937990667e-20)
(0.0916165430915 0.0436360470926 6.55361907415e-20)
(0.231776499676 0.451254441214 2.85622353207e-20)
(0.0413203801785 0.0224024458967 1.4047878797e-22)
(0.0420558152856 0.0249144384774 6.54119927741e-22)
(0.0429503167821 0.0274782769863 3.47389784127e-21)
(0.0446220042673 0.0301184639506 1.25782559211e-20)
(0.0481236918843 0.0325503223962 3.25026925793e-20)
(0.0529492896532 0.0376176912101 4.56394128778e-20)
(0.0556853422307 0.0392394926732 6.35385570696e-20)
(0.0570009425244 0.0414986879133 5.94419063956e-20)
(0.0428918358882 0.0406882739964 1.17331519011e-19)
(-0.357239719129 0.275863150711 -5.68594242578e-21)
(0.038910078993 0.0230487936109 2.58451538095e-22)
(0.0396334506645 0.0254372905035 1.3495459814e-21)
(0.0405440508552 0.0277726224698 6.34094830724e-21)
(0.0420953717855 0.0301108504678 2.16589079386e-20)
(0.0449549633297 0.0324760669489 5.21541598258e-20)
(0.0486671357116 0.0378338795228 8.5548438978e-20)
(0.0510434125015 0.0396681318558 9.58357083931e-20)
(0.050783950189 0.0435765276343 1.00988259043e-19)
(0.0394257651904 0.0491526773963 9.68115967162e-20)
(-0.418490691113 -0.116183459801 7.01674793983e-20)
(0.0365555215003 0.0237081314232 3.91667186939e-22)
(0.0373452775394 0.0260744746456 1.65212596424e-21)
(0.038309400811 0.0283602328606 7.11587751218e-21)
(0.0396706270952 0.0306573587196 2.38157065741e-20)
(0.0416444128394 0.0331778335011 5.72676576186e-20)
(0.0439484932553 0.0387594517678 9.38684550342e-20)
(0.0456258859725 0.0405190260605 1.0647101594e-19)
(0.0460336459854 0.045392684419 1.1300329295e-19)
(0.0550613894846 0.0572846435715 7.6290854847e-20)
(-0.128785945846 -0.036996724972 9.36472598596e-20)
(0.0341637720299 0.0244449764025 4.65637116369e-22)
(0.0350050995196 0.0269067306359 1.1812068703e-21)
(0.0359966884207 0.0293358178987 4.7920063052e-21)
(0.0371403408549 0.0318119473155 1.58745155712e-20)
(0.0382211254636 0.0344901226423 4.14430689745e-20)
(0.0392093538856 0.0400063341629 6.04111128144e-20)
(0.0401859476916 0.041185345552 8.40701222153e-20)
(0.041931947989 0.0450885190518 9.93997328006e-20)
(0.0644823482575 0.0541776871502 8.54057012449e-20)
(-0.0345388125684 -0.00963763030702 1.57648394692e-19)
(0.0316575621855 0.0252158878899 2.26886372789e-22)
(0.0324836340147 0.0278065392173 4.86170783517e-22)
(0.0334328758645 0.0304198448023 2.04067717149e-21)
(0.0343325797643 0.0331354888859 7.13540523591e-21)
(0.0347572878736 0.0359754173882 1.88199631664e-20)
(0.0348543007759 0.0412540143222 3.60785303525e-20)
(0.035563023869 0.0416390449678 3.75785875457e-20)
(0.0382026862884 0.0441765011483 3.92664667206e-20)
(0.0709861370335 0.0527068519103 2.99388181001e-20)
(0.0349793717612 -0.00106206541832 -3.99881455403e-20)
(0.0290403841521 0.025982588366 3.66059322592e-22)
(0.0298239015252 0.0286953865889 4.65855186442e-22)
(0.030678981679 0.0314610481506 1.32620288372e-21)
(0.0313406503469 0.0343715528876 3.60888049859e-21)
(0.0313240838042 0.0373644104142 9.38351524202e-21)
(0.0309685941965 0.0423320930083 1.59707847005e-20)
(0.0316530814668 0.0419944706795 1.55248218348e-20)
(0.0347338944559 0.0434822878446 2.41469814883e-20)
(0.079955254703 0.0533307200106 1.37978404e-20)
(0.130004830437 -0.011754071694 9.31685321363e-20)
(0.0263040645676 0.0267727447732 6.5695750516e-22)
(0.0270201445925 0.0296457922935 8.50020810205e-22)
(0.0277816301759 0.0326270785301 1.40729882602e-21)
(0.0282723699956 0.0357510628419 2.57017935535e-21)
(0.0279347571485 0.0387341893928 4.52894409839e-21)
(0.0275060448193 0.0433256346071 9.01288030343e-21)
(0.0282825533195 0.0423345293888 2.28843644175e-21)
(0.0313605830636 0.0427226210067 5.34251976582e-21)
(0.0851330361172 0.0482170557169 5.8189934758e-21)
(0.226737575336 0.090764239262 4.1362416842e-20)
(0.0234061107555 0.0274933795553 2.95598892321e-21)
(0.0239754816751 0.0305635313719 3.4730075243e-21)
(0.0246249104055 0.0338578381032 3.95542668344e-21)
(0.0250982295566 0.0372583688862 4.00969258716e-21)
(0.0247841511066 0.040216661739 3.81689201683e-21)
(0.0247543169359 0.0440669831976 1.77911792909e-21)
(0.0255420923025 0.0421779807962 3.88961878254e-21)
(0.0271273278945 0.041537613714 1.288575801e-20)
(0.0490373663628 0.0421351898419 -7.45147611564e-21)
(-0.0432647441103 0.280746861564 -3.04497093833e-20)
)
;

boundaryField
{
    back
    {
        type            noSlip;
    }
    sides
    {
        type            noSlip;
    }
    bottom
    {
        type            noSlip;
    }
    front
    {
        type            noSlip;
    }
    atmosphere
    {
        type            pressureInletOutletVelocity;
        value           nonuniform List<vector> 
16
(
(0.337122634154 0.07065960679 -9.29719900117e-21)
(0.0339000512411 0.302475343182 1.07830669558e-19)
(0 -0.0484658228514 0)
(0 -0.0363931955658 0)
(0 -0.0340868813034 0)
(0 -0.039253810274 0)
(0 -0.103437848386 0)
(0.231776499676 0.451254441214 2.85622353207e-20)
(-0.357239719129 0.275863150711 -5.68594242578e-21)
(0 -0.116183459801 0)
(0 -0.036996724972 0)
(0 -0.00963763030702 0)
(0 -0.00106206541832 0)
(0 -0.011754071694 0)
(0.226737575336 0.090764239262 4.1362416842e-20)
(-0.0432647441103 0.280746861564 -3.04497093833e-20)
)
;
    }
    floatingObject
    {
        type            movingWallVelocity;
        value           nonuniform List<vector> 0();
    }
    procBoundary5to0
    {
        type            processor;
        value           nonuniform List<vector> 
12
(
(0.0558365978396 0.0064825733512 -2.83635171824e-24)
(0.0575794614665 0.00740805684507 -4.5927621949e-24)
(0.0595411821732 0.00836157161357 2.27533937086e-23)
(0.0617393734181 0.00935778754834 2.39689879081e-23)
(0.0641393415605 0.0103796673312 -3.75770999977e-23)
(0.0667843736098 0.0113318093096 -4.25057652037e-22)
(0.069879901221 0.0119730136052 -8.60928767662e-22)
(0.0737853064013 0.0124896665153 9.28820267121e-22)
(0.0777044750745 0.0126151692652 -4.19215926023e-21)
(0.0814678924375 0.0127261284861 -6.78341274623e-21)
(0.121640451031 0.0154702260585 -1.84955057346e-20)
(0.267893812041 -0.0579478074292 -3.3794403074e-20)
)
;
    }
    procBoundary5to3
    {
        type            processor;
        value           nonuniform List<vector> 10((0.020393065027 0.0279633597722 1.60448835904e-20) (0.0206885299122 0.0311342611016 1.90352192057e-20) (0.0211274349509 0.0347510584953 1.96606433524e-20) (0.0217869454246 0.0384585069409 1.68877708365e-20) (0.0220517744093 0.0413884118911 9.25814100447e-21) (0.0228176687163 0.0442792611021 2.36145818747e-21) (0.0236230771345 0.0414317968356 3.00393311826e-21) (0.0235461761017 0.040196675535 1.12160667911e-20) (0.0191549113537 0.0481145236685 1.01927212674e-20) (-0.257970281781 0.0359186719938 -2.40060018487e-20));
    }
    procBoundary5to4
    {
        type            processor;
        value           nonuniform List<vector> 
18
(
(0.0533279474849 0.00703255546375 -4.41616464285e-24)
(0.0521496485578 0.00838503052115 -8.90747040389e-26)
(0.0521180251452 0.011217610834 2.80576230774e-23)
(0.053662989039 0.012847985676 3.05333277909e-23)
(0.053662989039 0.012847985676 3.05333277909e-23)
(0.0518647765822 0.0144496427815 3.09846922773e-23)
(0.0498573219008 0.015924806871 5.1938494189e-23)
(0.0476688950466 0.0172349236413 4.0642091641e-23)
(0.0453475890569 0.0183289284042 4.90479242955e-23)
(0.042966159408 0.0192209263353 9.98118499935e-23)
(0.0405848445975 0.0199694784588 1.14923303369e-22)
(0.0382205212006 0.020652983746 1.25004113745e-22)
(0.0358490866735 0.0213080407199 1.20312019214e-22)
(0.0334348749278 0.0219710811263 1.84915087516e-22)
(0.0309426718779 0.0226464083492 2.42908237073e-22)
(0.0283558056801 0.0233178548094 2.53662585334e-22)
(0.0256633091991 0.0239914508914 5.90035079722e-22)
(0.022860430803 0.0246166510268 2.65365002219e-21)
)
;
    }
}


// ************************************************************************* //
