/*--------------------------------*- C++ -*----------------------------------*\
| =========                 |                                                 |
| \\      /  F ield         | OpenFOAM: The Open Source CFD Toolbox           |
|  \\    /   O peration     | Version:  v2012                                 |
|   \\  /    A nd           | Website:  www.openfoam.com                      |
|    \\/     M anipulation  |                                                 |
\*---------------------------------------------------------------------------*/
FoamFile
{
    version     2.0;
    format      ascii;
    class       volScalarField;
    location    "4.2";
    object      nut;
}
// * * * * * * * * * * * * * * * * * * * * * * * * * * * * * * * * * * * * * //

dimensions      [0 2 -1 0 0 0 0];


internalField   nonuniform List<scalar> 
164
(
0.000568253579158
0.000570220793082
0.000572430054117
0.000575128069872
0.000579230546074
0.000587710891567
0.000608870886481
0.000663559481607
0.000799827525211
0.00109332644375
0.00157831952818
0.00219887786217
0.0030789602053
0.000358741943561
0.000533858815997
0.000551052112035
0.000557991964209
0.000563556196307
0.000565468345918
0.000567426150428
0.000569555535716
0.000571941858621
0.000574797943212
0.000578962981907
0.000587377330569
0.000608893110787
0.000667120686945
0.000814629724132
0.00112128225621
0.00160858666801
0.00221335909609
0.00307881746432
0.000357627726854
0.000532393294241
0.000549612373113
0.000556614665855
0.000560062378396
0.000562342022564
0.000564338686764
0.000566390021949
0.000568662142469
0.000571261594495
0.000574368228803
0.000578827429596
0.000587757158277
0.000610582308557
0.000672420808852
0.000828680952273
0.00114703915542
0.0016326684487
0.0022034811553
0.00306719790572
0.000356471137972
0.000530915784569
0.000548157125697
0.000555192741864
0.000558661420666
0.000560916612393
0.000562820293256
0.00056474864524
0.000567049189755
0.000569884687604
0.000573286932852
0.000578176243101
0.000588307229811
0.000613851904361
0.000679379528456
0.000841403631312
0.00116921565436
0.00166074538939
0.00226768784816
0.0030906846328
0.000355319238698
0.00052947610291
0.000546730009325
0.000553739675122
0.00055708622099
0.000559014876984
0.00056029217494
0.000561412530704
0.000563270655547
0.00056631853327
0.000569906076843
0.000575223514426
0.000588040892112
0.000619284548013
0.000690480568593
0.000856893755296
0.00118724762662
0.00167191716907
0.00227007638292
0.00309029941475
0.000354195880827
0.000528133079816
0.000545377505429
0.000552259122722
0.000555195855005
0.000556063979437
0.00055517627526
0.00055302530364
0.000551999876145
0.000555261393861
0.000559181372311
0.000566478635844
0.000587372428006
0.000628748644059
0.000707536335596
0.000876512365759
0.00120207237899
0.00167774615452
0.00227605139697
0.00309351607641
0.00035315535704
0.000526939868064
0.000544142111693
0.000550758483301
0.000552877446624
0.000551338318301
0.000543933301006
0.000528444468444
0.000381549318392
0.000382038871519
0.000388689007818
0.000409402040813
0.000589732722276
0.000647634088926
0.000733431672061
0.000902035952415
0.00121388062088
0.00166793123643
0.00224678618086
0.00307783584494
0.000352231550035
0.000525948426674
0.000543113760721
0.000549424558444
0.000550738697906
0.000547479695977
0.000535736845728
0.000372013662353
0.000351606019741
0.0005253807809
0.000542565138901
0.000548727577212
0.000549591258014
0.00054522336711
0.000530590543232
0.000360565672157
0.000351600319692
0.00052537587508
0.000542562543709
0.000548726861214
0.000549592560489
0.000545229907505
0.000530609113782
0.000360602047886
0.00035222340177
0.000525941332945
0.000543110850848
0.000549425865258
0.000550745030641
0.000547494067949
0.00053576514948
0.000372083696821
)
;

boundaryField
{
    back
    {
        type            nutkWallFunction;
        blending        stepwise;
        Cmu             0.09;
        kappa           0.41;
        E               9.8;
        value           nonuniform List<scalar> 
164
(
5.97755180414e-05
5.99603663977e-05
6.01667090588e-05
6.0414191675e-05
6.07779083104e-05
6.1506899068e-05
6.32964983055e-05
6.78220750739e-05
7.87721565188e-05
0.000102524476489
0.000144072800818
0.000244081870273
0.000347930419216
5.10930158622e-05
5.64713103386e-05
5.81306299199e-05
5.87995363226e-05
5.93316180278e-05
5.95123249335e-05
5.9696821638e-05
5.98970214842e-05
6.01198360191e-05
6.03817204698e-05
6.07502777542e-05
6.14673821089e-05
6.3261993186e-05
6.80240155916e-05
7.98653537483e-05
0.000104841293211
0.000146710977282
0.000256468612549
0.000348413431578
5.09502292535e-05
5.63308830686e-05
5.79928867528e-05
5.86678721142e-05
5.89987802411e-05
5.92159361645e-05
5.94050487092e-05
5.95987698539e-05
5.98123440319e-05
6.00543787115e-05
6.03381668627e-05
6.07312462899e-05
6.14897284359e-05
6.33883027098e-05
6.84307963319e-05
8.09571551963e-05
0.000106975104504
0.00014935176048
0.000257558642433
0.000348306857343
5.08018091435e-05
5.61893386908e-05
5.78536220661e-05
5.85319282729e-05
5.88651942922e-05
5.90807051098e-05
5.92618645639e-05
5.9444169424e-05
5.9659544326e-05
5.99219263427e-05
6.02311492866e-05
6.06595355276e-05
6.15191344673e-05
6.36609588601e-05
6.90319099552e-05
8.20086203217e-05
0.000108854490368
0.000152023151397
0.000261307223733
0.000349191596402
5.06539094332e-05
5.60516402368e-05
5.77172278307e-05
5.83933029643e-05
5.87157635109e-05
5.89017161003e-05
5.90244824961e-05
5.91282928124e-05
5.92998660307e-05
5.9579330458e-05
5.99045806597e-05
6.03609419233e-05
6.14375952514e-05
6.41031097806e-05
7.00183321371e-05
8.34149007607e-05
0.000110667215634
0.0001539589536
0.00026212183981
0.000349056036519
5.05098189182e-05
5.59237045542e-05
5.7588398603e-05
5.82526833172e-05
5.85377545114e-05
5.86258140226e-05
5.85432091004e-05
5.83308514472e-05
5.822263626e-05
5.85222235626e-05
5.88678817947e-05
5.94597231229e-05
6.12163507459e-05
6.48458598824e-05
7.15340017809e-05
8.52926837271e-05
0.00011236194614
0.000155207193788
0.000263258570663
0.000349163712708
5.03768645214e-05
5.5810918581e-05
5.74715091816e-05
5.81110577977e-05
5.83208848071e-05
5.8189328288e-05
5.75035268954e-05
5.60106229699e-05
5.41063666515e-05
5.41323585718e-05
5.48945180911e-05
5.72704412715e-05
6.12276377669e-05
6.64550245869e-05
7.38836081951e-05
8.77889170589e-05
0.000113989601184
0.000155326048371
0.000261351990744
0.000348143654547
5.02594001599e-05
5.57176891986e-05
5.73748506864e-05
5.79859827915e-05
5.8119403307e-05
5.78173993972e-05
5.6698712747e-05
5.28399083729e-05
5.0179859145e-05
5.56643944748e-05
5.73230656757e-05
5.79198328016e-05
5.80102287618e-05
5.76023655615e-05
5.62080223638e-05
5.13836550313e-05
5.01791010406e-05
5.56639258959e-05
5.73228172028e-05
5.79197582295e-05
5.80103272576e-05
5.76029683756e-05
5.62098110747e-05
5.13889979553e-05
5.02583963649e-05
5.57170218166e-05
5.73745693911e-05
5.79860938603e-05
5.81199755425e-05
5.78187650027e-05
5.6701563821e-05
5.28512164659e-05
)
;
    }
    sides
    {
        type            nutkWallFunction;
        blending        stepwise;
        Cmu             0.09;
        kappa           0.41;
        E               9.8;
        value           nonuniform List<scalar> 0();
    }
    bottom
    {
        type            nutkWallFunction;
        blending        stepwise;
        Cmu             0.09;
        kappa           0.41;
        E               9.8;
        value           nonuniform List<scalar> 10(2.71286945924e-05 2.7052330213e-05 2.69729513914e-05 2.68938493025e-05 2.68167829766e-05 2.67456714196e-05 2.66828437336e-05 2.66402993771e-05 2.66398938837e-05 2.66823068291e-05);
    }
    front
    {
        type            nutkWallFunction;
        blending        stepwise;
        Cmu             0.09;
        kappa           0.41;
        E               9.8;
        value           nonuniform List<scalar> 
164
(
5.97755180414e-05
5.99603663977e-05
6.01667090588e-05
6.0414191675e-05
6.07779083104e-05
6.1506899068e-05
6.32964983055e-05
6.78220750739e-05
7.87721565188e-05
0.000102524476489
0.000144072800818
0.000244081870273
0.000347930419216
5.10930158622e-05
5.64713103386e-05
5.81306299199e-05
5.87995363226e-05
5.93316180278e-05
5.95123249335e-05
5.9696821638e-05
5.98970214842e-05
6.01198360191e-05
6.03817204698e-05
6.07502777542e-05
6.14673821089e-05
6.3261993186e-05
6.80240155916e-05
7.98653537483e-05
0.000104841293211
0.000146710977282
0.000256468612549
0.000348413431578
5.09502292535e-05
5.63308830686e-05
5.79928867528e-05
5.86678721142e-05
5.89987802411e-05
5.92159361645e-05
5.94050487092e-05
5.95987698539e-05
5.98123440319e-05
6.00543787115e-05
6.03381668627e-05
6.07312462899e-05
6.14897284359e-05
6.33883027098e-05
6.84307963319e-05
8.09571551963e-05
0.000106975104504
0.00014935176048
0.000257558642433
0.000348306857343
5.08018091435e-05
5.61893386908e-05
5.78536220661e-05
5.85319282729e-05
5.88651942922e-05
5.90807051098e-05
5.92618645639e-05
5.9444169424e-05
5.9659544326e-05
5.99219263427e-05
6.02311492866e-05
6.06595355276e-05
6.15191344673e-05
6.36609588601e-05
6.90319099552e-05
8.20086203217e-05
0.000108854490368
0.000152023151397
0.000261307223733
0.000349191596402
5.06539094332e-05
5.60516402368e-05
5.77172278307e-05
5.83933029643e-05
5.87157635109e-05
5.89017161003e-05
5.90244824961e-05
5.91282928124e-05
5.92998660307e-05
5.9579330458e-05
5.99045806597e-05
6.03609419233e-05
6.14375952514e-05
6.41031097806e-05
7.00183321371e-05
8.34149007607e-05
0.000110667215634
0.0001539589536
0.00026212183981
0.000349056036519
5.05098189182e-05
5.59237045542e-05
5.7588398603e-05
5.82526833172e-05
5.85377545114e-05
5.86258140226e-05
5.85432091004e-05
5.83308514472e-05
5.822263626e-05
5.85222235626e-05
5.88678817947e-05
5.94597231229e-05
6.12163507459e-05
6.48458598824e-05
7.15340017809e-05
8.52926837271e-05
0.00011236194614
0.000155207193788
0.000263258570663
0.000349163712708
5.03768645214e-05
5.5810918581e-05
5.74715091816e-05
5.81110577977e-05
5.83208848071e-05
5.8189328288e-05
5.75035268954e-05
5.60106229699e-05
5.41063666515e-05
5.41323585718e-05
5.48945180911e-05
5.72704412715e-05
6.12276377669e-05
6.64550245869e-05
7.38836081951e-05
8.77889170589e-05
0.000113989601184
0.000155326048371
0.000261351990744
0.000348143654547
5.02594001599e-05
5.57176891986e-05
5.73748506864e-05
5.79859827915e-05
5.8119403307e-05
5.78173993972e-05
5.6698712747e-05
5.28399083729e-05
5.0179859145e-05
5.56643944748e-05
5.73230656757e-05
5.79198328016e-05
5.80102287618e-05
5.76023655615e-05
5.62080223638e-05
5.13836550313e-05
5.01791010406e-05
5.56639258959e-05
5.73228172028e-05
5.79197582295e-05
5.80103272576e-05
5.76029683756e-05
5.62098110747e-05
5.13889979553e-05
5.02583963649e-05
5.57170218166e-05
5.73745693911e-05
5.79860938603e-05
5.81199755425e-05
5.78187650027e-05
5.6701563821e-05
5.28512164659e-05
)
;
    }
    atmosphere
    {
        type            calculated;
        value           uniform 0.009;
    }
    floatingObject
    {
        type            nutkWallFunction;
        blending        stepwise;
        Cmu             0.09;
        kappa           0.41;
        E               9.8;
        value           nonuniform List<scalar> 8(2.87399436332e-05 2.87538388835e-05 2.91612683806e-05 3.04311276813e-05 2.80628409137e-05 2.72841281626e-05 2.72869854969e-05 2.80688871902e-05);
    }
    procBoundary3to4
    {
        type            processor;
        value           nonuniform List<scalar> 
13
(
0.000568993995548
0.000570811001088
0.000572875118974
0.000359783840514
0.000535272636497
0.000552442300659
0.000559309784334
0.000564658619595
0.000566440545935
0.000566440545935
0.000561362090141
0.000561362090141
0.000561362090141
)
;
    }
    procBoundary3to5
    {
        type            processor;
        value           nonuniform List<scalar> 10(0.000575488397465 0.000579701272974 0.000588650647001 0.000610188411834 0.000662085411381 0.000786850750957 0.00106571934771 0.00155008876731 0.00222291897492 0.00309047018426);
    }
    procBoundary3to6
    {
        type            processor;
        value           nonuniform List<scalar> 8(0.000443840778565 0.000678793115183 0.000772240121078 0.000932889012253 0.00122249843498 0.00165475658946 0.00221852587504 0.00306385557649);
    }
    procBoundary3to8
    {
        type            processor;
        value           nonuniform List<scalar> 8(0.000353146495463 0.000526933877019 0.000544140711176 0.000550762443825 0.000552885373265 0.00055134055288 0.00054392607733 0.000528451757586);
    }
}


// ************************************************************************* //
