/*--------------------------------*- C++ -*----------------------------------*\
| =========                 |                                                 |
| \\      /  F ield         | OpenFOAM: The Open Source CFD Toolbox           |
|  \\    /   O peration     | Version:  v2012                                 |
|   \\  /    A nd           | Website:  www.openfoam.com                      |
|    \\/     M anipulation  |                                                 |
\*---------------------------------------------------------------------------*/
FoamFile
{
    version     2.0;
    format      ascii;
    class       surfaceVectorField;
    location    "4.2";
    object      Uf;
}
// * * * * * * * * * * * * * * * * * * * * * * * * * * * * * * * * * * * * * //

dimensions      [0 1 -1 0 0 0 0];


internalField   nonuniform List<vector> 
296
(
(-0.0232522169753 -0.0226172967809 5.50047479324e-21)
(-0.0214579986814 -0.0215198972426 1.46861894475e-20)
(-0.0240874779651 -0.0254478776241 7.04689011654e-21)
(-0.0222188721442 -0.0244385040089 2.24452666653e-20)
(-0.025140561676 -0.0282002145171 7.51879977126e-21)
(-0.0231559792018 -0.0274329886072 2.53713467878e-20)
(-0.0264403473211 -0.030644715721 7.98958160823e-21)
(-0.0245227987503 -0.0303037816901 2.62451615522e-20)
(-0.0276908678129 -0.0323970273136 8.51571788798e-21)
(-0.0263260569263 -0.0324190486941 3.09197643542e-20)
(-0.0286006990949 -0.0337541785172 7.99326139779e-21)
(-0.0277155204583 -0.033519070645 3.10686178334e-20)
(-0.0296085005748 -0.0353878813658 5.722771821e-21)
(-0.0282359174585 -0.034478274404 2.74413596521e-20)
(-0.0310190718012 -0.038203839046 3.36271831722e-21)
(-0.0287958679154 -0.0362699389985 1.17898871979e-20)
(-0.0309149680231 -0.0428255373045 5.69628429722e-21)
(-0.0291857497183 -0.0410443619917 6.16292869661e-21)
(-0.0269297389124 -0.0483376561223 5.83123871705e-21)
(-0.0271272061711 -0.0484379040523 8.10575091258e-21)
(0.00728294096871 -0.0532551644933 1.45679441419e-21)
(-0.0214427363895 -0.047418439209 2.34946257038e-21)
(0.0133696389929 -0.0353579103984 -4.66648160332e-22)
(0.025969391541 -0.0504495701633 4.33605583988e-22)
(-0.00739444167783 -0.0338519007669 -2.02673390936e-21)
(-0.0202203756531 -0.00292558839211 9.4817985335e-22)
(-0.0192340187877 -0.00158295398045 1.64768620864e-21)
(-0.0193508714058 -0.00576998781506 2.99971811613e-22)
(-0.0183179083553 -0.00438581044704 5.70018777311e-22)
(-0.0187679952276 -0.00860185366182 2.97081247521e-22)
(-0.0175314494127 -0.00720374976421 3.90431551343e-22)
(-0.0171501206038 -0.0100792697493 1.04073579532e-21)
(-0.0190672316367 -0.0173448661305 8.0600892845e-21)
(-0.0173339737675 -0.0160148020869 1.28666115627e-20)
(-0.0196302396555 -0.0203567561772 1.84090607774e-20)
(-0.017775642953 -0.0191238396613 3.64997589145e-20)
(-0.0203405392889 -0.0233725901886 3.16309813195e-20)
(-0.0184421464833 -0.0222353078708 7.77695588542e-20)
(-0.0211938226037 -0.0264625241589 4.07697233366e-20)
(-0.0191288991177 -0.0254217242384 1.18542696964e-19)
(-0.0224572081197 -0.0295920238674 4.40977085688e-20)
(-0.0200264210044 -0.0289106746194 1.33424532267e-19)
(-0.0243559517109 -0.03226418387 4.91753442982e-20)
(-0.0218505703023 -0.0323998382924 1.42908021987e-19)
(-0.026331266437 -0.0336600491668 5.34726642996e-20)
(-0.024930119786 -0.0346091567715 1.78447345151e-19)
(-0.0273487894963 -0.0342696017826 5.05167160877e-20)
(-0.0271059037015 -0.034778592976 1.7660064483e-19)
(-0.027332659213 -0.0354587932146 3.35084750291e-20)
(-0.0270466757966 -0.0346662506456 1.49358793628e-19)
(-0.0267818933543 -0.0387191197968 1.45900975773e-20)
(-0.0255355104057 -0.036251800198 5.71191990257e-20)
(-0.0252256140833 -0.0446364206667 8.57239531197e-21)
(-0.0232684352358 -0.0421497356202 2.07767431564e-20)
(-0.0215244758621 -0.0509883082335 4.62397476591e-21)
(-0.020775298948 -0.0505571991773 1.89265779987e-20)
(0.0034660027284 -0.0558829985106 1.32627374018e-21)
(-0.0165492416439 -0.0506362971011 1.13682770579e-20)
(0.0115266106683 -0.0352535243571 -1.12648016504e-21)
(0.00534139998199 -0.0504803722566 1.27137980465e-20)
(0.00122613269166 -0.033952322555 3.10110569348e-21)
(-0.0173339901061 -0.00293569780816 1.26952513261e-21)
(-0.0162983209851 -0.00158506531221 1.95953198531e-21)
(-0.0165000979643 -0.00580529415309 6.60478517042e-22)
(-0.0154483236383 -0.00438857307442 9.24792879184e-22)
(-0.0159066079715 -0.00867308039657 1.13408609914e-21)
(-0.0146636932862 -0.00721591765487 1.20478587754e-21)
(-0.0156599152764 -0.0115898323975 3.94990998133e-21)
(-0.0142334252149 -0.0101240524713 4.06455124908e-21)
(-0.0157000115729 -0.0146076492673 1.38379875928e-20)
(-0.0140962509233 -0.013118753704 1.6108983367e-20)
(-0.0159796592689 -0.0177470756831 4.13062811927e-20)
(-0.0141945748742 -0.0162995791631 5.70279987011e-20)
(-0.0165065272551 -0.0209961147839 9.58602569912e-20)
(-0.0145266078403 -0.0197083312049 1.64618933037e-19)
(-0.0171386101359 -0.0243042940745 1.64681274498e-19)
(-0.0151339475619 -0.0231512686147 3.49425913652e-19)
(-0.017854726793 -0.0278771355623 2.11197505894e-19)
(-0.0155560187374 -0.0267892611554 5.26425550013e-19)
(-0.0193210018875 -0.0317748540667 2.32234845685e-19)
(-0.0161286490827 -0.0311306280084 5.89903161736e-19)
(-0.0223221046849 -0.0350138227108 2.72180022839e-19)
(-0.0186115414341 -0.0358469097338 6.36413867703e-19)
(-0.0257375148072 -0.0359243533229 3.01575325682e-19)
(-0.0240195301427 -0.0384957801466 8.23106924319e-19)
(-0.0269066525527 -0.0351308689607 2.7544272237e-19)
(-0.0278993384887 -0.0369548198107 7.93045371247e-19)
(-0.0252459491161 -0.0355026096317 1.72969517624e-19)
(-0.0266749008029 -0.0349194600811 6.31612681766e-19)
(-0.0219455746366 -0.0389662634653 6.33058446048e-20)
(-0.0220718392069 -0.0361739065829 2.42458569318e-19)
(-0.0186622766352 -0.0455654481548 3.11309258431e-20)
(-0.0166692464618 -0.0424892003421 8.98357802113e-20)
(-0.0158262124975 -0.052643185931 2.56708802907e-20)
(-0.0136975542565 -0.0514861091235 6.80796065018e-20)
(-0.0169861437881 -0.0576408193142 2.27558013642e-20)
(-0.0115521531119 -0.0529485065664 5.06553973443e-20)
(-0.00975655428273 -0.034717700821 1.6941383905e-20)
(-0.0175812501309 -0.0533345665571 5.22194104207e-20)
(7.94295103599e-05 -0.0511833498801 1.52805239207e-20)
(-0.0144389440024 -0.00291038683176 1.61479973189e-21)
(-0.0133879466153 -0.00156923036529 2.04486726712e-21)
(-0.0136324735538 -0.00578692293077 1.46910023968e-21)
(-0.0125718076004 -0.00434434201171 1.44982987466e-21)
(-0.0130088631218 -0.00864966637745 4.13525102747e-21)
(-0.0118009782514 -0.00714433682785 3.61873621006e-21)
(-0.0126619136719 -0.0116089568018 1.62236246347e-20)
(-0.011274169752 -0.0100434653162 1.48882017842e-20)
(-0.0125357324751 -0.0147467110223 5.92989944753e-20)
(-0.0109585250874 -0.0130778328553 6.04367392674e-20)
(-0.012589617631 -0.018174740529 1.80340650545e-19)
(-0.010766557785 -0.0164559311306 2.17978953347e-19)
(-0.0129190951851 -0.0218511404627 4.18184589698e-19)
(-0.010850201165 -0.0204177120486 6.2927766223e-19)
(-0.0133085613354 -0.0256378900465 7.11170189167e-19)
(-0.0113471722255 -0.0246334903403 1.32599936863e-18)
(-0.0135873419957 -0.0300037197268 9.05131205854e-19)
(-0.0111901487448 -0.0290756359075 1.97522793542e-18)
(-0.0151465196243 -0.0352173754624 9.94082183754e-19)
(-0.0109149442497 -0.0343891058598 2.09597174382e-18)
(-0.0200165999439 -0.0396176244947 1.18734076918e-18)
(-0.014211241906 -0.040846380407 2.1245800914e-18)
(-0.0261409892135 -0.0399724006467 1.31457696988e-18)
(-0.023664709705 -0.0445243292793 2.74381898659e-18)
(-0.0277615073829 -0.0363818371065 1.14921533064e-18)
(-0.0314898708535 -0.0403396460857 2.57615756936e-18)
(-0.0235579784732 -0.0355588697923 7.0110173346e-19)
(-0.0274978540167 -0.0350969065994 1.94358801876e-18)
(-0.0168676119556 -0.0387999114047 2.68988504924e-19)
(-0.0188307990695 -0.0365079422987 7.85944954893e-19)
(-0.0116811838302 -0.0453049010826 1.2678446087e-19)
(-0.0101642658551 -0.0425587470848 3.13925328572e-19)
(-0.00940391065669 -0.052697478847 9.30641235554e-20)
(-0.00630499212716 -0.051615134443 2.08776878077e-19)
(-0.0114945456909 -0.0587159571772 8.01190064008e-20)
(-0.0055327941717 -0.054152689254 1.70779497561e-19)
(-0.00687438816207 -0.0640644986467 5.05585504364e-20)
(-0.0122336309494 -0.0549625399688 1.67981937531e-19)
(-0.00146182375033 -0.0678879521044 4.63713184795e-20)
(-0.011567831901 -0.00287636929335 1.87989740989e-21)
(-0.010511592639 -0.00154694551678 1.90877912736e-21)
(-0.0107856668259 -0.00569857266016 3.59946584504e-21)
(-0.00974962247582 -0.00425573041292 2.60662864784e-21)
(-0.0101177613194 -0.00853395617011 1.43716869667e-20)
(-0.00896561499417 -0.0069884314087 1.02081229498e-20)
(-0.00963548815195 -0.0114748570441 5.91013164169e-20)
(-0.00833328744177 -0.00984337225417 4.53105675693e-20)
(-0.00927163043994 -0.0147091076055 2.19116698139e-19)
(-0.00772428437473 -0.0128861787496 1.84878676148e-19)
(-0.00898131648614 -0.0185524448876 6.66915965032e-19)
(-0.00692321638778 -0.0164490748265 6.71439518161e-19)
(-0.009017562667 -0.0231058290064 1.53709244116e-18)
(-0.00629679786784 -0.0213881255831 1.94875138679e-18)
(-0.00914852481287 -0.0282105821859 2.59005711488e-18)
(-0.00624238667557 -0.0272581936581 3.99732342609e-18)
(-0.00866177242914 -0.0334256046862 3.16606847339e-18)
(-0.00597508430819 -0.0323292798867 5.80236889743e-18)
(-0.00994568448685 -0.0397500134759 3.22646965147e-18)
(-0.00459049167003 -0.0373629038881 5.90568937156e-18)
(-0.0172677084694 -0.04585912607 3.68105830881e-18)
(-0.00810209054 -0.0444889701864 5.07397890757e-18)
(-0.0281273593356 -0.0462582198104 4.00539958607e-18)
(-0.0232655891216 -0.0504031380336 6.28964896971e-18)
(-0.0308174919728 -0.037803098784 3.37053025748e-18)
(-0.0399449905006 -0.0440675947151 5.60240932083e-18)
(-0.0228112989934 -0.0362344990996 2.0284312402e-18)
(-0.0290664751001 -0.0351712298543 3.89172517156e-18)
(-0.0122728865795 -0.0393400466687 8.30881778541e-19)
(-0.0157252877701 -0.0381376516125 1.75846104983e-18)
(-0.00503467628258 -0.0452485437673 3.95917745779e-19)
(-0.0042558047151 -0.0435356364515 7.65621076684e-19)
(-0.00293340612194 -0.0517226671761 2.86492252083e-19)
(0.000169112775399 -0.0516486745395 5.00962619632e-19)
(-0.00467390391903 -0.0567100450117 2.58642428692e-19)
(-0.000545239074437 -0.0543826112578 4.06764839843e-19)
(-0.00385648791219 -0.0633965220494 1.63794705574e-19)
(-0.00554740523378 -0.0525897825639 3.99318080731e-19)
(-0.00297073549753 -0.0646007761378 1.09028235433e-19)
(-0.00876448518676 -0.0028009173603 2.63551036531e-21)
(-0.00771068521077 -0.00151827242098 1.87929855582e-21)
(-0.00799530993982 -0.00553920533284 9.21528575256e-21)
(-0.00701134308498 -0.00411118837104 5.33071814054e-21)
(-0.0072226357518 -0.00829983612888 4.11470035524e-20)
(-0.00620499046685 -0.0066998879269 2.46423264918e-20)
(-0.00645891139847 -0.0112468621591 1.71087927301e-19)
(-0.00538626211729 -0.00942025000065 1.08580051288e-19)
(-0.00567836710022 -0.0146225553833 6.37201496171e-19)
(-0.00434858232742 -0.0124220476822 4.29805585876e-19)
(-0.00505658109792 -0.0189420970515 1.95327493992e-18)
(-0.0026036547487 -0.0160700445781 1.5105309335e-18)
(-0.00461206271473 -0.025089331977 4.40898237172e-18)
(-0.000149532662082 -0.0215293037753 4.40017669214e-18)
(-0.00385502010586 -0.0322232777433 7.20963520864e-18)
(0.000891600603463 -0.0291271936005 9.3211801043e-18)
(-0.00194736459825 -0.036012334008 8.5419897956e-18)
(-0.00218598637115 -0.0344733861204 1.40954760603e-17)
(-0.00170749238237 -0.0414100713942 7.75319862766e-18)
(0.000807282743277 -0.0362735736158 1.441632486e-17)
(-0.0105130077152 -0.0478862535666 7.68256956847e-18)
(-0.0016258812139 -0.0372483403379 9.78020033813e-18)
(-0.0323986216649 -0.0507976826692 7.88665870447e-18)
(-0.0203541669649 -0.0534043303286 1.07911457873e-17)
(-0.0390193826818 -0.0395609254293 6.1236042349e-18)
(-0.0511817906552 -0.0457442921786 7.33299807129e-18)
(-0.0232542043772 -0.0379241682529 3.62175498119e-18)
(-0.0307033042862 -0.0368651701148 5.15177920955e-18)
(-0.00859954798233 -0.0413548201204 1.69320034798e-18)
(-0.0122947179316 -0.0413001060246 2.5770963572e-18)
(0.000249093589453 -0.0459534381734 8.70665950537e-19)
(0.000342750433246 -0.0459454444048 1.26797064166e-18)
(0.00197728759578 -0.0504032958228 6.21235207392e-19)
(0.0046189541019 -0.0521010692495 8.86709849155e-19)
(5.30644367205e-06 -0.0532264182727 5.47440491883e-19)
(0.00227736710009 -0.0541944384407 7.26328245694e-19)
(-0.0011083893829 -0.0599955500854 3.4455161059e-19)
(0.00122205143429 -0.0497947463452 7.14385326506e-19)
(0.000530608978776 -0.0541233485135 1.88118420568e-19)
(-0.00604896058856 -0.00269991494249 4.57450633105e-21)
(-0.00501076948497 -0.0014738565694 2.36411883695e-21)
(-0.00531020379381 -0.00526440160449 2.07577588798e-20)
(-0.00444685136225 -0.00388606089876 1.03715809233e-20)
(-0.00436493822397 -0.00778505290515 9.20753742276e-20)
(-0.00368432930379 -0.00616821280484 4.85795728298e-20)
(-0.00295249986943 -0.0105382061369 3.67297709863e-19)
(-0.00263309215495 -0.00833667182328 2.02525520233e-19)
(-0.000594446462031 -0.0139091893075 1.3031350232e-18)
(-0.000977574249704 -0.0103504620985 7.45414695338e-19)
(0.0028541345299 -0.018512494809 3.95743268572e-18)
(0.00199968340227 -0.0121395800449 2.41325447826e-18)
(0.00561647731967 -0.0248917497756 9.31237442472e-18)
(0.00622976462726 -0.0137973164073 6.32630875302e-18)
(0.00255876244133 -0.0326753686537 1.6207020956e-17)
(0.0086752629046 -0.0173808101726 1.23913114515e-17)
(0.000307413370498 -0.034861336454 1.99698111247e-17)
(-1.76435005596e-05 -0.0340540393221 1.64433265704e-17)
(-0.0165774683396 -0.0356799235403 1.2888776557e-17)
(-0.047287807453 -0.0560341155474 1.02374851542e-17)
(-0.0483224975014 -0.040370620226 6.36117304594e-18)
(-0.0217741223976 -0.0405610657478 4.10712058556e-18)
(-0.00382196095366 -0.0446121983 2.15186665089e-18)
(0.00452947662113 -0.0478429502549 1.28401454028e-18)
(0.00478251512805 -0.0498813645671 9.91802887456e-19)
(0.00294024884328 -0.0493853907059 8.93273080317e-19)
(0.00133742480195 -0.0511939107513 5.57952136484e-19)
(-0.00351838599014 -0.00254466050079 8.1611934292e-21)
(-0.00246609599818 -0.00143726280662 3.83029243862e-21)
(-0.00297378236973 -0.00483176101318 3.81933948733e-20)
(-0.00215973203157 -0.00368670798106 1.70510083609e-20)
(-0.00221716440251 -0.00676180099907 1.59029718835e-19)
(-0.00175426476353 -0.00569279135269 7.88384093072e-20)
(-0.00100870907123 -0.00816119755438 5.80642505708e-19)
(-0.00123366484193 -0.00735297448536 3.20934461304e-19)
(0.0011652644524 -0.00878457720989 1.85553415039e-18)
(-0.00035415786131 -0.00830286798934 1.0855803372e-18)
(0.00450308211808 -0.00801986489717 4.78213054556e-18)
(0.00123501329568 -0.00810773084818 3.44191348035e-18)
(0.0078701202033 -0.00496651476355 9.40524577981e-18)
(0.00317646013036 -0.00613591061941 8.75810899104e-18)
(0.00370877190228 -0.0036907373248 1.8476572742e-17)
(-0.00116016565368 -0.00247260333473 1.27201073703e-20)
(6.53978924855e-06 -0.00142847610352 5.21172024211e-21)
(-0.000971393717592 -0.00463554424514 5.76960227947e-20)
(3.24614144068e-06 -0.00362050618959 2.08536885252e-20)
(-0.000721028330643 -0.00639251842681 2.40743151775e-19)
(2.75171544376e-06 -0.00555350991056 9.48620290946e-20)
(-0.00040608745484 -0.00763091442418 8.25872292795e-19)
(4.77810634387e-06 -0.00714946268759 3.86266796025e-19)
(5.70468970949e-05 -0.00799370486246 2.67195966716e-18)
(8.68260977754e-06 -0.00797691793915 1.26593211254e-18)
(0.000605736310786 -0.00677478702636 7.41789192582e-18)
(1.61471895112e-05 -0.0076537479321 4.07852764345e-18)
(0.00033594229893 -0.00363228974082 1.78294359532e-17)
(3.40152595076e-05 -0.00575930029332 1.07545705923e-17)
(7.65109562688e-05 -0.00194176067988 2.4891274845e-17)
(0.0011673580761 -0.00247031724265 1.33453013971e-20)
(0.00247690967741 -0.00143434087048 5.03831371782e-21)
(0.000975034527511 -0.00462780659435 5.80196948251e-20)
(0.00216079368012 -0.00367862499465 1.78045468814e-20)
(0.000727178458449 -0.00638320833905 2.40385673344e-19)
(0.00175821594013 -0.00568270861795 7.9045507974e-20)
(0.000419555761756 -0.00762223655419 8.26326615769e-19)
(0.00124387153327 -0.00734309662978 3.20324073329e-19)
(-3.09292343967e-05 -0.0079759184991 2.67250008883e-18)
(0.000362429006861 -0.00829591444093 1.08607325076e-18)
(-0.000553918532216 -0.00676026379091 7.41520630997e-18)
(-0.00119944393462 -0.00809842125143 3.44125510474e-18)
(-0.000217612691349 -0.00362063021734 1.78164094841e-17)
(-0.00310555635461 -0.00610747556054 8.7552981709e-18)
(-0.00354408346944 -0.00371444858021 1.84640602371e-17)
(0.00352453468179 -0.0025371358977 9.4975592021e-21)
(0.0029781043206 -0.00482034709934 3.88303600302e-20)
(0.00222119984963 -0.00675204222093 1.58983907959e-19)
(0.00101652681062 -0.00815153499854 5.8007070832e-19)
(-0.0011496399199 -0.00878702694921 1.85482826666e-18)
(-0.00446122144772 -0.00800758107946 4.78134696567e-18)
(-0.00775351730219 -0.00495766663276 9.40294892389e-18)
)
;

boundaryField
{
    back
    {
        type            calculated;
        value           uniform (0 0 0);
    }
    sides
    {
        type            calculated;
        value           nonuniform List<vector> 0();
    }
    bottom
    {
        type            calculated;
        value           uniform (0 0 0);
    }
    front
    {
        type            calculated;
        value           uniform (0 0 0);
    }
    atmosphere
    {
        type            calculated;
        value           nonuniform List<vector> 7((0 -0.0425949785465 0) (0 -0.0438741420959 0) (0 -0.0335709942163 0) (0 -0.0625232954369 0) (0 -0.0618877189701 0) (0 -0.0634970306367 0) (0 -0.0467949468595 0));
    }
    floatingObject
    {
        type            calculated;
        value           nonuniform List<vector> 8((0 -1.66533453694e-15 2.08166817117e-16) (0 0 2.08166817117e-16) (0 0 0) (0 -3.33066907388e-15 2.08166817117e-16) (4.16333634234e-16 0 0) (0 0 2.08166817117e-16) (0 0 2.08166817117e-16) (0 0 0));
    }
    procBoundary3to4
    {
        type            processor;
        value           nonuniform List<vector> 
13
(
(-0.0242992283217 -0.0208762690752 2.60160087289e-21)
(-0.0250495233397 -0.023628964764 3.87942608104e-21)
(-0.0259084333998 -0.0263647165989 4.37050827838e-21)
(-0.0221596513013 -0.00155655622258 1.53272747774e-21)
(-0.0211623267043 -0.00433778222205 3.96609617861e-22)
(-0.0203632784942 -0.00712129214354 1.17324299338e-22)
(-0.0200042367337 -0.00993832045825 2.66534719273e-22)
(-0.020305514698 -0.0156776800607 2.57342714785e-21)
(-0.0225523088499 -0.0197761123017 3.2617705863e-21)
(-0.0207875248731 -0.0186068676522 6.98464191623e-21)
(-0.0185826953491 -0.0114560037922 8.92774645539e-22)
(-0.0187103467259 -0.0143732526658 2.83057280143e-21)
(-0.0171140050846 -0.0130000644369 3.80194883155e-21)
)
;
    }
    procBoundary3to5
    {
        type            processor;
        value           nonuniform List<vector> 10((-0.026967418486 -0.0289655251579 4.49064242393e-21) (-0.0280784974347 -0.0311419897989 5.01324338106e-21) (-0.0290727869987 -0.0328017163526 5.41409375167e-21) (-0.0298697196744 -0.0343796287405 4.91996655065e-21) (-0.031611887044 -0.0363039806232 3.50164995203e-21) (-0.0338074805075 -0.0396773475526 2.80114963173e-21) (-0.032639340619 -0.0455859714439 8.83961811314e-21) (-0.0263601042768 -0.0438876984343 2.90191980414e-21) (0.0438687387677 -0.0516394238176 7.23716881316e-22) (-0.0146328140181 -0.0483839172335 -1.9072385064e-21));
    }
    procBoundary3to6
    {
        type            processor;
        value           nonuniform List<vector> 8((-0.0668453713655 -0.0356090676627 6.35359256195e-18) (-0.0305129664088 -0.0385741025557 4.67960208042e-18) (-0.00824369172348 -0.0461615430591 2.7208520971e-18) (0.00357342780986 -0.0497515078457 1.62990485301e-18) (0.006657349356 -0.0532418870765 1.26310760577e-18) (0.00178070170631 -0.0538979699396 1.0779312257e-18) (0.00303100926189 -0.048471371857 1.06578624707e-18) (-0.00386850335584 -0.0383458573452 3.02686596818e-19));
    }
    procBoundary3to8
    {
        type            processor;
        value           nonuniform List<vector> 8((0.00501410894189 -0.0014669632084 3.65815219022e-21) (0.00444407497986 -0.0038725867828 1.10951638979e-20) (0.00368998485156 -0.00615454977624 4.87060822651e-20) (0.00264343794495 -0.00832341290935 2.01873710373e-19) (0.000997992875922 -0.0103417325589 7.44863021383e-19) (-0.00197882186021 -0.0121268156118 2.41471144331e-18) (-0.00615540044773 -0.0137652031376 6.33414482711e-18) (-0.00850172138185 -0.0173809755491 1.24006559592e-17));
    }
}


// ************************************************************************* //
