/*--------------------------------*- C++ -*----------------------------------*\
| =========                 |                                                 |
| \\      /  F ield         | OpenFOAM: The Open Source CFD Toolbox           |
|  \\    /   O peration     | Version:  v2012                                 |
|   \\  /    A nd           | Website:  www.openfoam.com                      |
|    \\/     M anipulation  |                                                 |
\*---------------------------------------------------------------------------*/
FoamFile
{
    version     2.0;
    format      ascii;
    class       volScalarField;
    location    "2";
    object      ddt0(k);
}
// * * * * * * * * * * * * * * * * * * * * * * * * * * * * * * * * * * * * * //

dimensions      [0 2 -3 0 0 0 0];


internalField   nonuniform List<scalar> 
167
(
-0.00595492952214
-0.00595985534794
-0.00596303429521
-0.0059685424874
-0.00597580005314
-0.00598437416866
-0.00599454282431
-0.00600863377861
-0.00568320199336
-0.00590534920983
-0.00594414718902
-0.00594802703668
-0.0059508229774
-0.00595617216535
-0.00596327227756
-0.0059715881122
-0.00598139873769
-0.00599541750529
-0.00602543526927
-0.00567754784126
-0.00589711215717
-0.0059337946082
-0.00593670837345
-0.00593916744715
-0.00594440338167
-0.00595137881448
-0.00595948245945
-0.00596905798763
-0.00598323905016
-0.00601583193454
-0.0056723183999
-0.00588939737842
-0.00592402300808
-0.00592601860428
-0.00592819315933
-0.00593336094627
-0.00594026724818
-0.00594822807184
-0.00595766175856
-0.00597225509064
-0.00459317929499
-0.00566759356656
-0.00588227611912
-0.00591494829334
-0.00591606828943
-0.00591800798799
-0.00592316702752
-0.00593009320526
-0.00593799391606
-0.00594740269233
-0.00596256439528
-0.00458771483882
-0.00566348283029
-0.00587584433328
-0.00590663396811
-0.00590694174637
-0.00590871129023
-0.00591393833836
-0.00592095252502
-0.0059289428472
-0.00593839530676
-0.00595437771467
-0.00458265463223
-0.00565986873036
-0.00587010347401
-0.0058991199701
-0.00589870472975
-0.0059003957945
-0.0059057801939
-0.0059129937172
-0.00592110021936
-0.00593079054826
-0.00457800932048
-0.00565674850649
-0.00586500234989
-0.005892415126
-0.00589140660744
-0.00589311872467
-0.00589875667596
-0.00590623788417
-0.00591457156801
-0.00457376470668
-0.00565400808202
-0.00586050758463
-0.00588651466993
-0.00588504144925
-0.00588687577073
-0.00589284675841
-0.00590065751195
-0.00590930796834
-0.00456985024253
-0.00565147769356
-0.00585641311961
-0.00588121419709
-0.00587945997826
-0.00588151170738
-0.00588785862975
-0.00589605937971
-0.00590504502715
-0.00591601479951
-0.00456603036797
-0.0056485452004
-0.0058520423632
-0.00587593399949
-0.00587403328077
-0.0058763681604
-0.00588309938253
-0.00589166133957
-0.00590096027679
-0.00591234781151
-0.00456151154502
-0.00564341938395
-0.00584547365509
-0.00586862272598
-0.00586668567256
-0.00586928293547
-0.00587632323842
-0.00588510978919
-0.00589455454401
-0.00590620088167
-0.00455357179885
-0.00563081330379
-0.00583055751012
-0.00585295881595
-0.00585097441067
-0.00585369211877
-0.00586077055761
-0.00586943270348
-0.00587862201178
-0.00589005583123
-0.00453345742918
-0.00559491491927
-0.00578933637611
-0.00581046129179
-0.00580825437818
-0.00581073800789
-0.00581730259313
-0.00582517422193
-0.00583334771619
-0.00584366003109
-0.00447418442567
-0.00549138986509
-0.00567234447836
-0.00569074162629
-0.00568808067294
-0.00568988509178
-0.00569519633636
-0.00570133789702
-0.00570739025932
-0.00429600507753
-0.00520008729308
-0.00535131572935
-0.00536456892747
-0.00536184981794
-0.00536316768379
-0.00536702626681
-0.0053710280614
-0.00537441878449
-0.0037304024029
-0.00426981100832
-0.00435446338854
-0.00435624931963
-0.00435323200913
-0.00435446088052
-0.00435725047486
-0.00435973094874
-0.00436127153695
)
;

boundaryField
{
    back
    {
        type            calculated;
        value           nonuniform List<scalar> 
167
(
-0.00595492952214
-0.00595985534794
-0.00596303429521
-0.0059685424874
-0.00597580005314
-0.00598437416866
-0.00599454282431
-0.00600863377861
-0.00568320199336
-0.00590534920983
-0.00594414718902
-0.00594802703668
-0.0059508229774
-0.00595617216535
-0.00596327227756
-0.0059715881122
-0.00598139873769
-0.00599541750529
-0.00602543526927
-0.00567754784126
-0.00589711215717
-0.0059337946082
-0.00593670837345
-0.00593916744715
-0.00594440338167
-0.00595137881448
-0.00595948245945
-0.00596905798763
-0.00598323905016
-0.00601583193454
-0.0056723183999
-0.00588939737842
-0.00592402300808
-0.00592601860428
-0.00592819315933
-0.00593336094627
-0.00594026724818
-0.00594822807184
-0.00595766175856
-0.00597225509064
-0.00459317929499
-0.00566759356656
-0.00588227611912
-0.00591494829334
-0.00591606828943
-0.00591800798799
-0.00592316702752
-0.00593009320526
-0.00593799391606
-0.00594740269233
-0.00596256439528
-0.00458771483882
-0.00566348283029
-0.00587584433328
-0.00590663396811
-0.00590694174637
-0.00590871129023
-0.00591393833836
-0.00592095252502
-0.0059289428472
-0.00593839530676
-0.00595437771467
-0.00458265463223
-0.00565986873036
-0.00587010347401
-0.0058991199701
-0.00589870472975
-0.0059003957945
-0.0059057801939
-0.0059129937172
-0.00592110021936
-0.00593079054826
-0.00457800932048
-0.00565674850649
-0.00586500234989
-0.005892415126
-0.00589140660744
-0.00589311872467
-0.00589875667596
-0.00590623788417
-0.00591457156801
-0.00457376470668
-0.00565400808202
-0.00586050758463
-0.00588651466993
-0.00588504144925
-0.00588687577073
-0.00589284675841
-0.00590065751195
-0.00590930796834
-0.00456985024253
-0.00565147769356
-0.00585641311961
-0.00588121419709
-0.00587945997826
-0.00588151170738
-0.00588785862975
-0.00589605937971
-0.00590504502715
-0.00591601479951
-0.00456603036797
-0.0056485452004
-0.0058520423632
-0.00587593399949
-0.00587403328077
-0.0058763681604
-0.00588309938253
-0.00589166133957
-0.00590096027679
-0.00591234781151
-0.00456151154502
-0.00564341938395
-0.00584547365509
-0.00586862272598
-0.00586668567256
-0.00586928293547
-0.00587632323842
-0.00588510978919
-0.00589455454401
-0.00590620088167
-0.00455357179885
-0.00563081330379
-0.00583055751012
-0.00585295881595
-0.00585097441067
-0.00585369211877
-0.00586077055761
-0.00586943270348
-0.00587862201178
-0.00589005583123
-0.00453345742918
-0.00559491491927
-0.00578933637611
-0.00581046129179
-0.00580825437818
-0.00581073800789
-0.00581730259313
-0.00582517422193
-0.00583334771619
-0.00584366003109
-0.00447418442567
-0.00549138986509
-0.00567234447836
-0.00569074162629
-0.00568808067294
-0.00568988509178
-0.00569519633636
-0.00570133789702
-0.00570739025932
-0.00429600507753
-0.00520008729308
-0.00535131572935
-0.00536456892747
-0.00536184981794
-0.00536316768379
-0.00536702626681
-0.0053710280614
-0.00537441878449
-0.0037304024029
-0.00426981100832
-0.00435446338854
-0.00435624931963
-0.00435323200913
-0.00435446088052
-0.00435725047486
-0.00435973094874
-0.00436127153695
)
;
    }
    sides
    {
        type            calculated;
        value           nonuniform List<scalar> 9(-0.0037304024029 -0.00426981100832 -0.00435446338854 -0.00435624931963 -0.00435323200913 -0.00435446088052 -0.00435725047486 -0.00435973094874 -0.00436127153695);
    }
    bottom
    {
        type            calculated;
        value           nonuniform List<scalar> 
13
(
-0.00459317929499
-0.00458771483882
-0.00458265463223
-0.00457800932048
-0.00457376470668
-0.00456985024253
-0.00456603036797
-0.00456151154502
-0.00455357179885
-0.00453345742918
-0.00447418442567
-0.00429600507753
-0.0037304024029
)
;
    }
    front
    {
        type            calculated;
        value           nonuniform List<scalar> 
167
(
-0.00595492952214
-0.00595985534794
-0.00596303429521
-0.0059685424874
-0.00597580005314
-0.00598437416866
-0.00599454282431
-0.00600863377861
-0.00568320199336
-0.00590534920983
-0.00594414718902
-0.00594802703668
-0.0059508229774
-0.00595617216535
-0.00596327227756
-0.0059715881122
-0.00598139873769
-0.00599541750529
-0.00602543526927
-0.00567754784126
-0.00589711215717
-0.0059337946082
-0.00593670837345
-0.00593916744715
-0.00594440338167
-0.00595137881448
-0.00595948245945
-0.00596905798763
-0.00598323905016
-0.00601583193454
-0.0056723183999
-0.00588939737842
-0.00592402300808
-0.00592601860428
-0.00592819315933
-0.00593336094627
-0.00594026724818
-0.00594822807184
-0.00595766175856
-0.00597225509064
-0.00459317929499
-0.00566759356656
-0.00588227611912
-0.00591494829334
-0.00591606828943
-0.00591800798799
-0.00592316702752
-0.00593009320526
-0.00593799391606
-0.00594740269233
-0.00596256439528
-0.00458771483882
-0.00566348283029
-0.00587584433328
-0.00590663396811
-0.00590694174637
-0.00590871129023
-0.00591393833836
-0.00592095252502
-0.0059289428472
-0.00593839530676
-0.00595437771467
-0.00458265463223
-0.00565986873036
-0.00587010347401
-0.0058991199701
-0.00589870472975
-0.0059003957945
-0.0059057801939
-0.0059129937172
-0.00592110021936
-0.00593079054826
-0.00457800932048
-0.00565674850649
-0.00586500234989
-0.005892415126
-0.00589140660744
-0.00589311872467
-0.00589875667596
-0.00590623788417
-0.00591457156801
-0.00457376470668
-0.00565400808202
-0.00586050758463
-0.00588651466993
-0.00588504144925
-0.00588687577073
-0.00589284675841
-0.00590065751195
-0.00590930796834
-0.00456985024253
-0.00565147769356
-0.00585641311961
-0.00588121419709
-0.00587945997826
-0.00588151170738
-0.00588785862975
-0.00589605937971
-0.00590504502715
-0.00591601479951
-0.00456603036797
-0.0056485452004
-0.0058520423632
-0.00587593399949
-0.00587403328077
-0.0058763681604
-0.00588309938253
-0.00589166133957
-0.00590096027679
-0.00591234781151
-0.00456151154502
-0.00564341938395
-0.00584547365509
-0.00586862272598
-0.00586668567256
-0.00586928293547
-0.00587632323842
-0.00588510978919
-0.00589455454401
-0.00590620088167
-0.00455357179885
-0.00563081330379
-0.00583055751012
-0.00585295881595
-0.00585097441067
-0.00585369211877
-0.00586077055761
-0.00586943270348
-0.00587862201178
-0.00589005583123
-0.00453345742918
-0.00559491491927
-0.00578933637611
-0.00581046129179
-0.00580825437818
-0.00581073800789
-0.00581730259313
-0.00582517422193
-0.00583334771619
-0.00584366003109
-0.00447418442567
-0.00549138986509
-0.00567234447836
-0.00569074162629
-0.00568808067294
-0.00568988509178
-0.00569519633636
-0.00570133789702
-0.00570739025932
-0.00429600507753
-0.00520008729308
-0.00535131572935
-0.00536456892747
-0.00536184981794
-0.00536316768379
-0.00536702626681
-0.0053710280614
-0.00537441878449
-0.0037304024029
-0.00426981100832
-0.00435446338854
-0.00435624931963
-0.00435323200913
-0.00435446088052
-0.00435725047486
-0.00435973094874
-0.00436127153695
)
;
    }
    atmosphere
    {
        type            calculated;
        value           nonuniform List<scalar> 0();
    }
    floatingObject
    {
        type            calculated;
        value           nonuniform List<scalar> 0();
    }
    procBoundary10to9
    {
        type            processor;
        value           nonuniform List<scalar> 
15
(
-0.00596625302617
-0.00597215979279
-0.00597569358845
-0.00598136968804
-0.00598876682852
-0.0059975861902
-0.00600806353877
-0.0060224153554
-0.00568922603066
-0.00591406116636
-0.00591406116636
-0.00461204207031
-0.00460536788423
-0.0045990403585
-0.0045990403585
)
;
    }
    procBoundary10to11
    {
        type            processor;
        value           nonuniform List<scalar> 
23
(
-0.00603739277555
-0.00603739277555
-0.00611291231743
-0.0061141992712
-0.00600811253637
-0.00600811253637
-0.00600207154905
-0.00599793224644
-0.00594781411754
-0.00594781411754
-0.0059246251457
-0.0059246251457
-0.00591977240077
-0.00591977240077
-0.00593704734976
-0.00593479574551
-0.0059297533365
-0.00591409431574
-0.00586698784452
-0.00571523547628
-0.00571523547628
-0.00537896520659
-0.00436277091307
)
;
    }
}


// ************************************************************************* //
