/*--------------------------------*- C++ -*----------------------------------*\
| =========                 |                                                 |
| \\      /  F ield         | OpenFOAM: The Open Source CFD Toolbox           |
|  \\    /   O peration     | Version:  v2012                                 |
|   \\  /    A nd           | Website:  www.openfoam.com                      |
|    \\/     M anipulation  |                                                 |
\*---------------------------------------------------------------------------*/
FoamFile
{
    version     2.0;
    format      ascii;
    class       volScalarField;
    location    "2";
    object      epsilon;
}
// * * * * * * * * * * * * * * * * * * * * * * * * * * * * * * * * * * * * * //

dimensions      [0 2 -3 0 0 0 0];


internalField   nonuniform List<scalar> 
167
(
0.00615800659906
0.00620158170434
0.00622100423214
0.0062366653316
0.00625345418506
0.00627262498276
0.0062955454158
0.00632692343028
0.0055406229201
0.00599905398643
0.00614000441433
0.00618399092837
0.00620390102274
0.00622009137077
0.00623746627403
0.00625730268968
0.00628102152719
0.00631361903088
0.00637229798465
0.00552207043627
0.00597988293163
0.0061210963418
0.00616560202373
0.00618608451691
0.00620288961244
0.00622092913078
0.00624150048991
0.00626610209089
0.00630005975827
0.00636144803645
0.00550244592955
0.00595976226269
0.0061013255913
0.0061464482466
0.00616759980506
0.00618510859987
0.00620388780208
0.00622525396917
0.00625082480409
0.00628628089825
0.0053144004284
0.00548189480195
0.00593870136561
0.00608074875174
0.00612659404907
0.0061485157716
0.00616681888394
0.00618642916181
0.0062086622711
0.00623526815228
0.00627232991936
0.00529364723927
0.00546052287599
0.00591682893509
0.0060594556366
0.00610613012233
0.00612892107599
0.00614811178082
0.00616863121443
0.00619182797272
0.00621954097617
0.00625826717949
0.00527180161281
0.00543838320417
0.00589426173016
0.00603755684228
0.00608516237268
0.0061089309854
0.0061291085711
0.00615062667679
0.00617486720223
0.00620375481144
0.00524890387014
0.0054155849741
0.00587108027238
0.00601514778919
0.00606381227105
0.00608868606961
0.0061099707919
0.00613258830958
0.00615793467801
0.00522499360416
0.00539217943689
0.00584736869355
0.00599233121061
0.00604218424661
0.0060683026075
0.00609082382107
0.00611464271157
0.00614117628679
0.00520007451367
0.00536817327413
0.00582310044125
0.0059690453053
0.00602026064556
0.006047782887
0.00607166530684
0.00609678265352
0.0061245671938
0.00615731154171
0.0051739308588
0.005343177332
0.00579772314234
0.00594476962755
0.00599750559107
0.00602658316488
0.00605193116279
0.00607841547815
0.00610748048033
0.00614153024916
0.00514547362079
0.00531538127902
0.00576908017524
0.00591717783446
0.00597154471449
0.00600228168237
0.00602916612365
0.00605702749101
0.0060873335905
0.00612260813956
0.00511067412827
0.00527881603937
0.00572975224392
0.00587834374009
0.00593424967797
0.00596665140756
0.00599503630931
0.0060241690454
0.00605555104369
0.00609182345556
0.00505598144433
0.0052142800832
0.00565679465223
0.0058039675794
0.00586084798466
0.00589467243324
0.00592431362587
0.00595441913235
0.00598651780756
0.00602334546486
0.00493837864044
0.00506430623115
0.005483799848
0.00562454912181
0.00568079946359
0.00571535932224
0.00574574271467
0.00577630585408
0.0058085583849
0.0046306573166
0.00466893517441
0.00503062917029
0.00515320534486
0.00520492919751
0.00523862614847
0.00526878038369
0.00529901873663
0.00533066205955
0.00416835679287
0.00460046585237
0.00488084436074
0.00498007974253
0.00502947597385
0.00506750804984
0.00510399472915
0.0051412887745
0.00518029786456
)
;

boundaryField
{
    back
    {
        lowReCorrection 0;
        blending        stepwise;
        n               2;
        type            epsilonWallFunction;
        value           nonuniform List<scalar> 
167
(
0.00615800659906
0.00620158170434
0.00622100423214
0.0062366653316
0.00625345418506
0.00627262498276
0.0062955454158
0.00632692343028
0.0055406229201
0.00599905398643
0.00614000441433
0.00618399092837
0.00620390102274
0.00622009137077
0.00623746627403
0.00625730268968
0.00628102152719
0.00631361903088
0.00637229798465
0.00552207043627
0.00597988293163
0.0061210963418
0.00616560202373
0.00618608451691
0.00620288961244
0.00622092913078
0.00624150048991
0.00626610209089
0.00630005975827
0.00636144803645
0.00550244592955
0.00595976226269
0.0061013255913
0.0061464482466
0.00616759980506
0.00618510859987
0.00620388780208
0.00622525396917
0.00625082480409
0.00628628089825
0.0053144004284
0.00548189480195
0.00593870136561
0.00608074875174
0.00612659404907
0.0061485157716
0.00616681888394
0.00618642916181
0.0062086622711
0.00623526815228
0.00627232991936
0.00529364723927
0.00546052287599
0.00591682893509
0.0060594556366
0.00610613012233
0.00612892107599
0.00614811178082
0.00616863121443
0.00619182797272
0.00621954097617
0.00625826717949
0.00527180161281
0.00543838320417
0.00589426173016
0.00603755684228
0.00608516237268
0.0061089309854
0.0061291085711
0.00615062667679
0.00617486720223
0.00620375481144
0.00524890387014
0.0054155849741
0.00587108027238
0.00601514778919
0.00606381227105
0.00608868606961
0.0061099707919
0.00613258830958
0.00615793467801
0.00522499360416
0.00539217943689
0.00584736869355
0.00599233121061
0.00604218424661
0.0060683026075
0.00609082382107
0.00611464271157
0.00614117628679
0.00520007451367
0.00536817327413
0.00582310044125
0.0059690453053
0.00602026064556
0.006047782887
0.00607166530684
0.00609678265352
0.0061245671938
0.00615731154171
0.0051739308588
0.005343177332
0.00579772314234
0.00594476962755
0.00599750559107
0.00602658316488
0.00605193116279
0.00607841547815
0.00610748048033
0.00614153024916
0.00514547362079
0.00531538127902
0.00576908017524
0.00591717783446
0.00597154471449
0.00600228168237
0.00602916612365
0.00605702749101
0.0060873335905
0.00612260813956
0.00511067412827
0.00527881603937
0.00572975224392
0.00587834374009
0.00593424967797
0.00596665140756
0.00599503630931
0.0060241690454
0.00605555104369
0.00609182345556
0.00505598144433
0.0052142800832
0.00565679465223
0.0058039675794
0.00586084798466
0.00589467243324
0.00592431362587
0.00595441913235
0.00598651780756
0.00602334546486
0.00493837864044
0.00506430623115
0.005483799848
0.00562454912181
0.00568079946359
0.00571535932224
0.00574574271467
0.00577630585408
0.0058085583849
0.0046306573166
0.00466893517441
0.00503062917029
0.00515320534486
0.00520492919751
0.00523862614847
0.00526878038369
0.00529901873663
0.00533066205955
0.00416835679287
0.00460046585237
0.00488084436074
0.00498007974253
0.00502947597385
0.00506750804984
0.00510399472915
0.0051412887745
0.00518029786456
)
;
    }
    sides
    {
        lowReCorrection 0;
        blending        stepwise;
        n               2;
        type            epsilonWallFunction;
        value           nonuniform List<scalar> 9(0.00416835679287 0.00460046585237 0.00488084436074 0.00498007974253 0.00502947597385 0.00506750804984 0.00510399472915 0.0051412887745 0.00518029786456);
    }
    bottom
    {
        lowReCorrection 0;
        blending        stepwise;
        n               2;
        type            epsilonWallFunction;
        value           nonuniform List<scalar> 
13
(
0.0053144004284
0.00529364723927
0.00527180161281
0.00524890387014
0.00522499360416
0.00520007451367
0.0051739308588
0.00514547362079
0.00511067412827
0.00505598144433
0.00493837864044
0.0046306573166
0.00416835679287
)
;
    }
    front
    {
        lowReCorrection 0;
        blending        stepwise;
        n               2;
        type            epsilonWallFunction;
        value           nonuniform List<scalar> 
167
(
0.00615800659906
0.00620158170434
0.00622100423214
0.0062366653316
0.00625345418506
0.00627262498276
0.0062955454158
0.00632692343028
0.0055406229201
0.00599905398643
0.00614000441433
0.00618399092837
0.00620390102274
0.00622009137077
0.00623746627403
0.00625730268968
0.00628102152719
0.00631361903088
0.00637229798465
0.00552207043627
0.00597988293163
0.0061210963418
0.00616560202373
0.00618608451691
0.00620288961244
0.00622092913078
0.00624150048991
0.00626610209089
0.00630005975827
0.00636144803645
0.00550244592955
0.00595976226269
0.0061013255913
0.0061464482466
0.00616759980506
0.00618510859987
0.00620388780208
0.00622525396917
0.00625082480409
0.00628628089825
0.0053144004284
0.00548189480195
0.00593870136561
0.00608074875174
0.00612659404907
0.0061485157716
0.00616681888394
0.00618642916181
0.0062086622711
0.00623526815228
0.00627232991936
0.00529364723927
0.00546052287599
0.00591682893509
0.0060594556366
0.00610613012233
0.00612892107599
0.00614811178082
0.00616863121443
0.00619182797272
0.00621954097617
0.00625826717949
0.00527180161281
0.00543838320417
0.00589426173016
0.00603755684228
0.00608516237268
0.0061089309854
0.0061291085711
0.00615062667679
0.00617486720223
0.00620375481144
0.00524890387014
0.0054155849741
0.00587108027238
0.00601514778919
0.00606381227105
0.00608868606961
0.0061099707919
0.00613258830958
0.00615793467801
0.00522499360416
0.00539217943689
0.00584736869355
0.00599233121061
0.00604218424661
0.0060683026075
0.00609082382107
0.00611464271157
0.00614117628679
0.00520007451367
0.00536817327413
0.00582310044125
0.0059690453053
0.00602026064556
0.006047782887
0.00607166530684
0.00609678265352
0.0061245671938
0.00615731154171
0.0051739308588
0.005343177332
0.00579772314234
0.00594476962755
0.00599750559107
0.00602658316488
0.00605193116279
0.00607841547815
0.00610748048033
0.00614153024916
0.00514547362079
0.00531538127902
0.00576908017524
0.00591717783446
0.00597154471449
0.00600228168237
0.00602916612365
0.00605702749101
0.0060873335905
0.00612260813956
0.00511067412827
0.00527881603937
0.00572975224392
0.00587834374009
0.00593424967797
0.00596665140756
0.00599503630931
0.0060241690454
0.00605555104369
0.00609182345556
0.00505598144433
0.0052142800832
0.00565679465223
0.0058039675794
0.00586084798466
0.00589467243324
0.00592431362587
0.00595441913235
0.00598651780756
0.00602334546486
0.00493837864044
0.00506430623115
0.005483799848
0.00562454912181
0.00568079946359
0.00571535932224
0.00574574271467
0.00577630585408
0.0058085583849
0.0046306573166
0.00466893517441
0.00503062917029
0.00515320534486
0.00520492919751
0.00523862614847
0.00526878038369
0.00529901873663
0.00533066205955
0.00416835679287
0.00460046585237
0.00488084436074
0.00498007974253
0.00502947597385
0.00506750804984
0.00510399472915
0.0051412887745
0.00518029786456
)
;
    }
    atmosphere
    {
        type            inletOutlet;
        inletValue      nonuniform List<scalar> 0();
        value           nonuniform List<scalar> 0();
    }
    floatingObject
    {
        lowReCorrection 0;
        blending        stepwise;
        n               2;
        type            epsilonWallFunction;
        value           nonuniform List<scalar> 0();
    }
    procBoundary10to9
    {
        type            processor;
        value           nonuniform List<scalar> 
15
(
0.00617503999143
0.00621831938929
0.00623734420753
0.00625255485376
0.00626884152554
0.00628743632513
0.00630961949657
0.00633988197373
0.00555808512132
0.00601718244442
0.00601718244442
0.00536982768259
0.0053524848325
0.00533401469134
0.00533401469134
)
;
    }
    procBoundary10to11
    {
        type            processor;
        value           nonuniform List<scalar> 
23
(
0.00638332333092
0.00638332333092
0.00650828481
0.00650332327508
0.00635076606426
0.00635076606426
0.00634014616139
0.00632953042832
0.00624420954112
0.00624420954112
0.00618806301869
0.00618806301869
0.00617259834829
0.00617259834829
0.00620314712498
0.00618910670127
0.00617176693856
0.00614223863307
0.00607438230474
0.00584522735351
0.00584522735351
0.00536613876255
0.00522277606726
)
;
    }
}


// ************************************************************************* //
