/*--------------------------------*- C++ -*----------------------------------*\
| =========                 |                                                 |
| \\      /  F ield         | OpenFOAM: The Open Source CFD Toolbox           |
|  \\    /   O peration     | Version:  v2012                                 |
|   \\  /    A nd           | Website:  www.openfoam.com                      |
|    \\/     M anipulation  |                                                 |
\*---------------------------------------------------------------------------*/
FoamFile
{
    version     2.0;
    format      ascii;
    class       volScalarField;
    location    "4";
    object      alpha.water;
}
// * * * * * * * * * * * * * * * * * * * * * * * * * * * * * * * * * * * * * //

dimensions      [0 0 0 0 0 0 0];


internalField   nonuniform List<scalar> 
164
(
0.999991712308
0.99999292259
0.999994891297
0.999997251969
0.999999709196
1.00000129253
1.00000278339
1.00000476512
1.00000369732
0.801860631871
0.105303936001
-1.21101835872e-08
0.999991711798
0.999992616287
0.999994082815
0.999995129442
0.999996324719
0.999996828253
0.999997156437
0.999998530867
1.00000010359
0.815555745318
0.114984429444
0
0.999987078863
0.99999254167
0.999993670296
0.99999298968
0.999993140748
0.999995759032
1
0.819059144622
0.123777918846
-2.71945966134e-22
0.999982029853
0.99998936719
0.999990406881
0.999989378323
0.999989667675
0.999993854841
0.999999997434
0.820745435687
0.123396153131
-7.45716348914e-12
0.999981458188
0.999987240158
0.999988038946
0.999986162959
0.99998775992
0.999993837321
0.999999440207
0.816939143121
0.11838543179
-3.48841546471e-13
0.999981458188
0.999984659414
0.999986767981
0.999983725184
0.999986290374
0.999992652791
0.999996179108
0.804763533037
0.111639694784
-2.19603787881e-12
0.999981458188
0.999983933799
0.999985502772
0.999983496124
0.999983549072
0.999991285808
0.999990007677
0.793576262464
0.103160853817
-1.17114074708e-10
0.99998388449
0.999987997762
0.999983634493
0.999983537407
0.999984014371
0.99998964187
0.999987404062
0.78744632764
0.0924671281446
-2.55103279834e-12
0.999986959649
0.999988005012
0.999984383798
0.999984818119
0.999989526789
0.999991693997
0.999990159251
0.779926852759
0.0821693111224
-3.00043768775e-12
0.999988131911
0.9999879396
0.999988029231
0.999988219115
0.999992809266
0.999992944007
0.999991798773
0.773862871682
0.0733843483925
-2.07362452386e-18
0.999991069463
0.999990867613
0.99999193842
0.999992403539
0.999994437828
0.99999405829
0.999993305272
0.769502002454
0.0683100177282
-9.43759656611e-19
0.999995243234
0.999995321323
0.99999568504
0.999995528678
0.999995823603
0.999995688001
0.999994896505
0.766344616456
0.0660320738412
-1.70240533167e-17
0.999997408561
0.999998014022
0.999998317139
0.999997866254
0.999997115507
0.999997086416
0.999996344847
0.763709945904
0.0647457958346
-7.89564200742e-18
0.999997527207
0.999998926485
0.999998926485
0.999998130854
0.999996935931
0.999997046652
0.999996181918
0.762772806504
0.0633331589658
-5.13235904672e-20
0.999997578584
0.999998486834
0.999997412932
0.999992897267
0.999994585302
0.999994983484
0.999993927538
0.763960972521
0.0620040035758
-9.34344334464e-21
0.999998629675
0.999993919344
0.999989707039
0.999989520005
0.999989758894
0.999992444187
0.999990728622
0.767293469471
0.0610158850627
-1.5673258011e-39
)
;

boundaryField
{
    back
    {
        type            zeroGradient;
    }
    sides
    {
        type            zeroGradient;
    }
    bottom
    {
        type            zeroGradient;
    }
    front
    {
        type            zeroGradient;
    }
    atmosphere
    {
        type            inletOutlet;
        inletValue      uniform 0;
        value           uniform 0;
    }
    floatingObject
    {
        type            zeroGradient;
    }
    procBoundary5to0
    {
        type            processor;
        value           nonuniform List<scalar> 
12
(
0.999994916153
0.999995934042
0.999997687494
0.999999602106
1.00000180782
1.00000299281
1.00000411319
1.00000484876
1.00000305741
0.787132520465
0.0969507556235
0
)
;
    }
    procBoundary5to3
    {
        type            processor;
        value           nonuniform List<scalar> 10(1.00000040725 0.999999963227 0.999995634567 0.999991249418 0.999993637098 0.999994273479 0.999992425244 0.769355948299 0.0607287074341 -1.44527699259e-24);
    }
    procBoundary5to4
    {
        type            processor;
        value           nonuniform List<scalar> 
18
(
0.999993658534
0.999996405994
0.999991041026
0.999987495199
0.999987495199
0.99999008937
0.999989282768
0.99998854383
0.999989291363
0.999991009437
0.999992589489
0.999993664853
0.999994862285
0.999997115387
0.999998705684
0.999999247292
0.999999446889
0.999999661584
)
;
    }
}


// ************************************************************************* //
