/*--------------------------------*- C++ -*----------------------------------*\
| =========                 |                                                 |
| \\      /  F ield         | OpenFOAM: The Open Source CFD Toolbox           |
|  \\    /   O peration     | Version:  v2012                                 |
|   \\  /    A nd           | Website:  www.openfoam.com                      |
|    \\/     M anipulation  |                                                 |
\*---------------------------------------------------------------------------*/
FoamFile
{
    version     2.0;
    format      ascii;
    class       surfaceScalarField;
    location    "4";
    object      alphaPhi0.water;
}
// * * * * * * * * * * * * * * * * * * * * * * * * * * * * * * * * * * * * * //

dimensions      [0 3 -1 0 0 0 0];
oriented        oriented;


internalField   nonuniform List<scalar> 
300
(
3.23864546152e-05
-0.000254093431393
3.82017103778e-05
-0.000264919766769
4.4851087168e-05
-0.000277466602871
5.24917122155e-05
-0.000291994741724
6.12050354446e-05
-0.000308912340689
7.10703096763e-05
-0.000328680239388
8.20547840967e-05
-0.000351090125752
9.39430447854e-05
-0.000372389985304
0.000107019278557
-0.000393230524785
5.26484920294e-05
-0.000336582149056
-2.20491663719e-06
-7.69627115531e-05
-1.14297244411e-06
2.15995512975e-05
2.5702792588e-05
3.04316376681e-05
-0.000282202569544
3.58503208319e-05
-0.000297423196729
4.19662107297e-05
-0.000315042412904
4.87542158648e-05
-0.000335486198294
5.61030516273e-05
-0.000358457342783
6.39362475535e-05
-0.00038023773871
7.32571632284e-05
-0.00040255506382
4.65065995218e-05
-0.000357945198398
4.32435090507e-07
-9.62981404733e-05
-1.60759392289e-07
1.53852077664e-05
-0.00028494269451
1.85166904504e-05
-0.000300570227132
2.19858723897e-05
-0.000318530962993
2.55188187986e-05
-0.000339041409751
2.84392347618e-05
-0.000361398891068
2.9449300997e-05
-0.000381263435362
2.33959018503e-05
-0.000396509968506
1.26463252136e-05
-0.000352123852541
2.22724938206e-06
-9.71305544174e-05
3.48967238848e-07
-5.92092733331e-08
-0.000285709571943
8.80206208643e-07
-0.000301530029329
1.87074867578e-06
-0.00031954499328
2.49774967208e-06
-0.000339693592965
1.67422664768e-06
-0.000360597961025
-1.44902535439e-06
-0.000378158164948
-1.09956453622e-05
-0.000386971753973
-1.93560807987e-05
-0.000343277405666
2.42733206449e-07
-9.60774614464e-05
2.39659503517e-07
-1.56728239594e-05
-0.000284553296533
-1.68789314005e-05
-0.00030034533186
-1.81993633821e-05
-0.000318249261448
-2.0135349482e-05
-0.000337785335031
-2.4524534585e-05
-0.000356231677285
-3.48922624885e-05
-0.000367821778099
-5.10542100499e-05
-0.000370811453244
-3.49838071425e-05
-0.000327773029701
-3.06708484338e-07
-9.15924890986e-05
1.82051237533e-07
-3.13716559004e-05
-0.000281471344433
-3.46453706916e-05
-0.000297089316472
-3.81809092379e-05
-0.000314737018614
-4.2620181023e-05
-0.000333365754668
-5.07093997386e-05
-0.000348163532688
-6.85001665294e-05
-0.000350043938788
-9.57971523013e-05
-0.000343487619368
-6.42198010408e-05
-0.000295276325694
-1.08710336509e-06
-7.45832342258e-05
3.8362688196e-08
-4.70775147064e-05
-0.000276405707789
-5.2488553914e-05
-0.000291693430139
-5.843083898e-05
-0.000308813423063
-6.54494624832e-05
-0.000326361054684
-7.60842085603e-05
-0.000337541494921
-9.38939581405e-05
-0.000332240900734
-0.000118686703298
-0.000318649051224
-6.6132281282e-05
-0.000271231730505
-5.19550919318e-07
-5.68366396209e-05
-1.00788608589e-08
-6.25946911214e-05
-0.000269331047992
-7.03575898969e-05
-0.000283942501077
-7.90819578443e-05
-0.000300100569288
-8.97140626779e-05
-0.000315741045883
-0.000103661968077
-0.000323607323129
-0.000121971961438
-0.000313935536921
-0.000145093244438
-0.000295533272695
-7.38867173756e-05
-0.000247788092286
-7.20096814061e-08
-4.06088495705e-05
2.98487151498e-09
-7.74987346864e-05
-0.000260365597871
-8.76377488861e-05
-0.000273812043202
-9.95015078088e-05
-0.000288244373978
-0.000113784683412
-0.000301469134046
-0.000130448034463
-0.00030695724519
-0.000146458230092
-0.000297931637525
-0.000158459212958
-0.000283540053874
-7.15384539443e-05
-0.000231076823967
-5.28117750376e-07
-2.99255221705e-05
1.52688126107e-08
-9.13706463723e-05
-0.000249769451571
-0.000103436880248
-0.000261753362586
-0.000117627710939
-0.000274062065764
-0.000134422333426
-0.000284683840184
-0.000151980489024
-0.000289407398008
-0.000164290667258
-0.000285624948468
-0.000170161078271
-0.000277674004643
-6.96277475395e-05
-0.000219710240436
-9.40729940363e-07
-2.54142367466e-05
7.32096572866e-08
-0.000103624206379
-0.000238088461722
-0.000116575611635
-0.0002488046049
-0.00013147862198
-0.000259165127141
-0.000148605195751
-0.000267563833074
-0.000164431240757
-0.000273586970719
-0.000172550890663
-0.000277507412141
-0.000173249038552
-0.000276978766018
-6.72629001215e-05
-0.00021221756088
-2.06596015262e-07
-2.40934679461e-05
1.44927073353e-08
-0.000113980136579
-0.00022625548395
-0.000126894190931
-0.00023589392463
-0.000141064406886
-0.00024499899378
-0.000155846850452
-0.000252785828228
-0.000168913557827
-0.000260524245113
-0.000174622985413
-0.000271800896202
-0.000173803397979
-0.000277800961381
-6.52814422315e-05
-0.000208134745111
-1.9995968221e-08
-2.32641337652e-05
3.94522725863e-10
-0.000123492306224
-0.000214119678259
-0.000135847929714
-0.000223540325625
-0.000148679098134
-0.000232170157776
-0.000160872576196
-0.000240595204203
-0.000171119758421
-0.000250280321805
-0.000175545764762
-0.000267378008368
-0.000176254709004
-0.000277094681851
-6.43536825651e-05
-0.000207565931636
-1.98826804389e-07
-2.29009165726e-05
1.26028991311e-10
-0.000132855455125
-0.000201800175599
-0.000144997611857
-0.000211398441017
-0.000156872227352
-0.000220295896688
-0.000167566659824
-0.00022990172702
-0.000175431666956
-0.000242416900144
-0.000179267189972
-0.000263545250919
-0.000180858555597
-0.000275504912351
-6.59686278249e-05
-0.000206535621798
-5.48276862739e-08
-2.27785557701e-05
1.69493803704e-09
-0.000141990264403
-0.000189327982135
-0.000153820323837
-0.000199568144537
-0.000164539708863
-0.000209576088
-0.00017441100714
-0.000220031090279
-0.000181365476481
-0.000235462628097
-0.000184812645859
-0.000260096490306
-0.000188584595759
-0.000271732711477
-7.07494755942e-05
-0.00020131228901
-3.87409198542e-07
-2.17212201524e-05
2.13615173115e-09
-0.000151364581592
-0.000162310881834
-0.000171124905364
-0.000179225610123
-0.000186485548095
-0.00019380692535
-0.000203444806274
-7.96748653508e-05
-2.02375980306e-09
)
;

boundaryField
{
    back
    {
        type            calculated;
        value           uniform 0;
    }
    sides
    {
        type            calculated;
        value           nonuniform List<scalar> 0();
    }
    bottom
    {
        type            calculated;
        value           nonuniform List<scalar> 0();
    }
    front
    {
        type            calculated;
        value           uniform 0;
    }
    atmosphere
    {
        type            calculated;
        value           nonuniform List<scalar> 
16
(
-8.46485112849e-07
1.18894665382e-07
-1.27111510469e-06
-9.02187525505e-07
-2.49077439438e-07
-1.0321168512e-06
-4.68596048621e-07
-7.48334243465e-08
-5.38854772207e-07
-9.92148464169e-07
-1.45719013756e-07
-6.19800826509e-09
-1.98907929611e-07
-5.65980736625e-08
-3.87852645778e-07
-3.20509449698e-11
)
;
    }
    floatingObject
    {
        type            calculated;
        value           nonuniform List<scalar> 0();
    }
    procBoundary5to0
    {
        type            processor;
        value           nonuniform List<scalar> 
12
(
0.000249014285427
0.000259111975875
0.000270821567521
0.000284355150398
0.000300192842219
0.000318804499837
0.000340092420303
0.000360490973287
0.000380153944196
0.000318853755109
7.34875306063e-05
-4.24135375023e-07
)
;
    }
    procBoundary5to3
    {
        type            processor;
        value           nonuniform List<scalar> 10(-0.000176787126876 -0.000188622657672 -0.000200760371313 -0.000211926600418 -0.00022819880956 -0.000252772083443 -0.000262091576929 -0.000188542980641 -2.07287146359e-05 1.42519672943e-10);
    }
    procBoundary5to4
    {
        type            processor;
        value           nonuniform List<scalar> 
18
(
-2.72965999261e-05
-1.8034715882e-05
-0.000257657230708
-0.000269027818979
-1.26635003074e-05
8.04544087959e-07
1.44891118285e-05
2.82639397699e-05
4.19875355156e-05
5.55097621985e-05
6.85225158526e-05
8.07697862964e-05
9.19402402338e-05
0.000102145473305
0.000111356381943
0.000120535813768
0.000129517124267
0.000138822764723
)
;
    }
}


// ************************************************************************* //
