/*--------------------------------*- C++ -*----------------------------------*\
| =========                 |                                                 |
| \\      /  F ield         | OpenFOAM: The Open Source CFD Toolbox           |
|  \\    /   O peration     | Version:  v2012                                 |
|   \\  /    A nd           | Website:  www.openfoam.com                      |
|    \\/     M anipulation  |                                                 |
\*---------------------------------------------------------------------------*/
FoamFile
{
    version     2.0;
    format      ascii;
    class       volScalarField;
    location    "4";
    object      epsilon_0;
}
// * * * * * * * * * * * * * * * * * * * * * * * * * * * * * * * * * * * * * //

dimensions      [0 2 -3 0 0 0 0];


internalField   nonuniform List<scalar> 
164
(
0.00131813302482
0.0013245091433
0.00133284299113
0.00134592379656
0.00137185016575
0.00143431923014
0.0016095653476
0.00218168651698
0.00415959230431
0.010018488406
0.025442032031
0.112977730063
0.00132057453614
0.00132706654805
0.00133541628667
0.00134819226894
0.00137298852867
0.00143210256025
0.00159535836157
0.00211881006536
0.00395052591828
0.00965794869799
0.0275059083008
0.131557142402
0.00133773143202
0.00135033693127
0.00137424977265
0.0014308633768
0.00158596796987
0.00207373753487
0.00377534970184
0.00924275910135
0.0257066946059
0.0913040931885
0.00133982105496
0.00135234195949
0.0013756346338
0.00143072282623
0.00158244294855
0.00205403232305
0.00367185020114
0.009060264932
0.0273522350372
0.108346061916
0.00134163849496
0.00135421288549
0.001377250143
0.00143184950332
0.00158367186586
0.00205172583123
0.00361428060031
0.00886114108154
0.0283419742792
0.130425512992
0.00134317484826
0.00135600877212
0.00137943627839
0.00143534517862
0.00159081276849
0.0020583941083
0.00355161648951
0.0083646461324
0.0265369441147
0.13318110519
0.0013444459716
0.00135785762779
0.00138280444871
0.00144338425069
0.00160913086252
0.00208021178888
0.00348111932395
0.00785990179671
0.0278712733311
0.144802442791
0.00134546440499
0.00135988096659
0.00138789266093
0.00145787784031
0.00164429074547
0.00213179682192
0.00347165078909
0.00786445139538
0.031221252677
0.150592185274
0.00134622687341
0.00136206429309
0.00139454115034
0.00147799685452
0.00169403929359
0.00221537873253
0.00357166868566
0.00862620704549
0.0373822780653
0.15803867972
0.0013466559972
0.00136409355041
0.00140141788466
0.00149902955549
0.00174648906028
0.00231305127157
0.00375423232571
0.00964442097349
0.0425017440058
0.161595140076
0.00134661575605
0.00136542899229
0.00140654991556
0.00151466232544
0.00178594444628
0.00239545932043
0.00394681566819
0.0105394714532
0.0455093553184
0.163426736234
0.00134602619889
0.00136579889275
0.00140905040178
0.0015223558474
0.00180604069596
0.0024457808332
0.00411029728871
0.0112393638978
0.046918488741
0.164088394127
0.00134501782706
0.00136572238376
0.00141065294068
0.00152705331556
0.00181620575865
0.00247259709192
0.00423248259829
0.0116990461751
0.0468023558555
0.163701253201
0.00134372372922
0.00136556419031
0.00141251695415
0.0015320472566
0.00182448952471
0.00249090179178
0.00431566360477
0.0120369314777
0.0472653692774
0.163745673802
0.00134199845968
0.0013645376497
0.00141181265976
0.00153040292104
0.00182049958094
0.00249475884722
0.00439577072762
0.0125109973956
0.0492621545974
0.164572787553
0.00133970858095
0.00136188772948
0.00140598122649
0.00151554132464
0.00179301373435
0.00247660269912
0.00447465387546
0.01298336682
0.0506059344348
0.164979305693
)
;

boundaryField
{
    back
    {
        lowReCorrection 0;
        blending        stepwise;
        n               2;
        type            epsilonWallFunction;
        value           nonuniform List<scalar> 
164
(
0.00131813302482
0.0013245091433
0.00133284299113
0.00134592379656
0.00137185016575
0.00143431923014
0.0016095653476
0.00218168651698
0.00415959230431
0.010018488406
0.025442032031
0.112977730063
0.00132057453614
0.00132706654805
0.00133541628667
0.00134819226894
0.00137298852867
0.00143210256025
0.00159535836157
0.00211881006536
0.00395052591828
0.00965794869799
0.0275059083008
0.131557142402
0.00133773143202
0.00135033693127
0.00137424977265
0.0014308633768
0.00158596796987
0.00207373753487
0.00377534970184
0.00924275910135
0.0257066946059
0.0913040931885
0.00133982105496
0.00135234195949
0.0013756346338
0.00143072282623
0.00158244294855
0.00205403232305
0.00367185020114
0.009060264932
0.0273522350372
0.108346061916
0.00134163849496
0.00135421288549
0.001377250143
0.00143184950332
0.00158367186586
0.00205172583123
0.00361428060031
0.00886114108154
0.0283419742792
0.130425512992
0.00134317484826
0.00135600877212
0.00137943627839
0.00143534517862
0.00159081276849
0.0020583941083
0.00355161648951
0.0083646461324
0.0265369441147
0.13318110519
0.0013444459716
0.00135785762779
0.00138280444871
0.00144338425069
0.00160913086252
0.00208021178888
0.00348111932395
0.00785990179671
0.0278712733311
0.144802442791
0.00134546440499
0.00135988096659
0.00138789266093
0.00145787784031
0.00164429074547
0.00213179682192
0.00347165078909
0.00786445139538
0.031221252677
0.150592185274
0.00134622687341
0.00136206429309
0.00139454115034
0.00147799685452
0.00169403929359
0.00221537873253
0.00357166868566
0.00862620704549
0.0373822780653
0.15803867972
0.0013466559972
0.00136409355041
0.00140141788466
0.00149902955549
0.00174648906028
0.00231305127157
0.00375423232571
0.00964442097349
0.0425017440058
0.161595140076
0.00134661575605
0.00136542899229
0.00140654991556
0.00151466232544
0.00178594444628
0.00239545932043
0.00394681566819
0.0105394714532
0.0455093553184
0.163426736234
0.00134602619889
0.00136579889275
0.00140905040178
0.0015223558474
0.00180604069596
0.0024457808332
0.00411029728871
0.0112393638978
0.046918488741
0.164088394127
0.00134501782706
0.00136572238376
0.00141065294068
0.00152705331556
0.00181620575865
0.00247259709192
0.00423248259829
0.0116990461751
0.0468023558555
0.163701253201
0.00134372372922
0.00136556419031
0.00141251695415
0.0015320472566
0.00182448952471
0.00249090179178
0.00431566360477
0.0120369314777
0.0472653692774
0.163745673802
0.00134199845968
0.0013645376497
0.00141181265976
0.00153040292104
0.00182049958094
0.00249475884722
0.00439577072762
0.0125109973956
0.0492621545974
0.164572787553
0.00133970858095
0.00136188772948
0.00140598122649
0.00151554132464
0.00179301373435
0.00247660269912
0.00447465387546
0.01298336682
0.0506059344348
0.164979305693
)
;
    }
    sides
    {
        lowReCorrection 0;
        blending        stepwise;
        n               2;
        type            epsilonWallFunction;
        value           nonuniform List<scalar> 0();
    }
    bottom
    {
        lowReCorrection 0;
        blending        stepwise;
        n               2;
        type            epsilonWallFunction;
        value           nonuniform List<scalar> 0();
    }
    front
    {
        lowReCorrection 0;
        blending        stepwise;
        n               2;
        type            epsilonWallFunction;
        value           nonuniform List<scalar> 
164
(
0.00131813302482
0.0013245091433
0.00133284299113
0.00134592379656
0.00137185016575
0.00143431923014
0.0016095653476
0.00218168651698
0.00415959230431
0.010018488406
0.025442032031
0.112977730063
0.00132057453614
0.00132706654805
0.00133541628667
0.00134819226894
0.00137298852867
0.00143210256025
0.00159535836157
0.00211881006536
0.00395052591828
0.00965794869799
0.0275059083008
0.131557142402
0.00133773143202
0.00135033693127
0.00137424977265
0.0014308633768
0.00158596796987
0.00207373753487
0.00377534970184
0.00924275910135
0.0257066946059
0.0913040931885
0.00133982105496
0.00135234195949
0.0013756346338
0.00143072282623
0.00158244294855
0.00205403232305
0.00367185020114
0.009060264932
0.0273522350372
0.108346061916
0.00134163849496
0.00135421288549
0.001377250143
0.00143184950332
0.00158367186586
0.00205172583123
0.00361428060031
0.00886114108154
0.0283419742792
0.130425512992
0.00134317484826
0.00135600877212
0.00137943627839
0.00143534517862
0.00159081276849
0.0020583941083
0.00355161648951
0.0083646461324
0.0265369441147
0.13318110519
0.0013444459716
0.00135785762779
0.00138280444871
0.00144338425069
0.00160913086252
0.00208021178888
0.00348111932395
0.00785990179671
0.0278712733311
0.144802442791
0.00134546440499
0.00135988096659
0.00138789266093
0.00145787784031
0.00164429074547
0.00213179682192
0.00347165078909
0.00786445139538
0.031221252677
0.150592185274
0.00134622687341
0.00136206429309
0.00139454115034
0.00147799685452
0.00169403929359
0.00221537873253
0.00357166868566
0.00862620704549
0.0373822780653
0.15803867972
0.0013466559972
0.00136409355041
0.00140141788466
0.00149902955549
0.00174648906028
0.00231305127157
0.00375423232571
0.00964442097349
0.0425017440058
0.161595140076
0.00134661575605
0.00136542899229
0.00140654991556
0.00151466232544
0.00178594444628
0.00239545932043
0.00394681566819
0.0105394714532
0.0455093553184
0.163426736234
0.00134602619889
0.00136579889275
0.00140905040178
0.0015223558474
0.00180604069596
0.0024457808332
0.00411029728871
0.0112393638978
0.046918488741
0.164088394127
0.00134501782706
0.00136572238376
0.00141065294068
0.00152705331556
0.00181620575865
0.00247259709192
0.00423248259829
0.0116990461751
0.0468023558555
0.163701253201
0.00134372372922
0.00136556419031
0.00141251695415
0.0015320472566
0.00182448952471
0.00249090179178
0.00431566360477
0.0120369314777
0.0472653692774
0.163745673802
0.00134199845968
0.0013645376497
0.00141181265976
0.00153040292104
0.00182049958094
0.00249475884722
0.00439577072762
0.0125109973956
0.0492621545974
0.164572787553
0.00133970858095
0.00136188772948
0.00140598122649
0.00151554132464
0.00179301373435
0.00247660269912
0.00447465387546
0.01298336682
0.0506059344348
0.164979305693
)
;
    }
    atmosphere
    {
        type            inletOutlet;
        inletValue      uniform 0.1;
        value           nonuniform List<scalar> 
16
(
0.1
0.131557142402
0.0913040931885
0.1
0.1
0.1
0.1
0.1
0.1
0.1
0.1
0.1
0.1
0.1
0.1
0.1
)
;
    }
    floatingObject
    {
        lowReCorrection 0;
        blending        stepwise;
        n               2;
        type            epsilonWallFunction;
        value           nonuniform List<scalar> 0();
    }
    procBoundary5to0
    {
        type            processor;
        value           nonuniform List<scalar> 
12
(
0.00131544221614
0.00132170731372
0.00133006672073
0.00134353288645
0.0013707377736
0.00143685859551
0.00162455927187
0.00224394427118
0.00435346393878
0.0103824486831
0.0238301896085
0.0533708798111
)
;
    }
    procBoundary5to3
    {
        type            processor;
        value           nonuniform List<scalar> 10(0.00133719202323 0.001358763143 0.00139874326895 0.00149727434896 0.00176174410139 0.00247365946752 0.00466293820829 0.0135800243688 0.0505926479213 0.164797816717);
    }
    procBoundary5to4
    {
        type            processor;
        value           nonuniform List<scalar> 
18
(
0.00131281103043
0.00131511604472
0.00132268200181
0.00132931634624
0.00132931634624
0.00133129574776
0.00133291891975
0.00133418158288
0.00133507464733
0.00133558918072
0.00133571263023
0.00133541623235
0.00133466129407
0.00133343688787
0.00133175071457
0.0013296605604
0.00132719000578
0.001324335189
)
;
    }
}


// ************************************************************************* //
