/*--------------------------------*- C++ -*----------------------------------*\
| =========                 |                                                 |
| \\      /  F ield         | OpenFOAM: The Open Source CFD Toolbox           |
|  \\    /   O peration     | Version:  v2012                                 |
|   \\  /    A nd           | Website:  www.openfoam.com                      |
|    \\/     M anipulation  |                                                 |
\*---------------------------------------------------------------------------*/
FoamFile
{
    version     2.0;
    format      ascii;
    class       volScalarField;
    location    "4";
    object      k_0;
}
// * * * * * * * * * * * * * * * * * * * * * * * * * * * * * * * * * * * * * //

dimensions      [0 2 -2 0 0 0 0];


internalField   nonuniform List<scalar> 
164
(
0.00296090168966
0.00297052370814
0.00298305677374
0.00300260496688
0.00304098364107
0.00313217886499
0.00338081406389
0.00413369327525
0.00632010820981
0.0112852826196
0.0217057304925
0.06244926821
0.00296459041545
0.00297438421224
0.0029869433191
0.00300605456049
0.00304281416369
0.00312929575283
0.00336193057652
0.00405794292358
0.00612040323752
0.011055507384
0.0224088327484
0.0574314297523
0.0029904385008
0.00300931178049
0.00304482092756
0.00312784514199
0.00334980653235
0.00400441440717
0.00595401871871
0.0107719427797
0.0214955782911
0.0486794019326
0.00299358200074
0.00301234740015
0.00304700345583
0.00312800926866
0.00334585650426
0.00398231437095
0.00585923848814
0.0106858327309
0.0226222481223
0.0605516205551
0.00299630753556
0.00301517508001
0.00304953880909
0.00313010255392
0.00334873858542
0.00398193744987
0.00580969123589
0.010577280457
0.0232627013055
0.0619096885154
0.00299861341918
0.00301791237597
0.00305301867153
0.00313600407331
0.00336108922888
0.00399716691771
0.00576374708659
0.0103037921051
0.0235136120925
0.0683284431436
0.0030005250781
0.00302075761874
0.00305837424844
0.00314892885935
0.00339011735162
0.00403321767515
0.00571076079331
0.010044834025
0.0246746466706
0.0708703989432
0.00300205762784
0.0030238825454
0.00306635375756
0.00317139008148
0.00344253930471
0.00410671018427
0.00573242073705
0.0102299448444
0.0267410761477
0.0723371736442
0.00300320276897
0.00302724988849
0.00307664901249
0.00320183464932
0.00351409169767
0.00421918823952
0.00587668041368
0.010979186872
0.0294678699224
0.073844139511
0.00300384107442
0.00303036738956
0.00308720009204
0.00323319064291
0.0035877887285
0.00434650485672
0.0061048499682
0.011860731974
0.0315669062424
0.0745198897684
0.00300376806675
0.00303241735972
0.00309504878856
0.00325634305783
0.00364252184857
0.00445151618952
0.00632489738589
0.0125400622554
0.032640820661
0.0747924257466
0.00300287345517
0.00303301943517
0.00309896238846
0.00326789793407
0.00367060593303
0.00451590641786
0.0065021397137
0.0130138206954
0.0330613363547
0.0748520273882
0.0030013671527
0.00303296837277
0.00310151990101
0.00327498978964
0.00368502145497
0.00455147650309
0.00663285635506
0.0133095534062
0.0329212648902
0.0747059354081
0.00299944380553
0.00303277539671
0.0031043109318
0.00328208596666
0.00369626637283
0.00457607580024
0.00672670156307
0.0135684823173
0.0331611244448
0.0747280591671
0.00299687223656
0.00303122738193
0.00310313379946
0.00327939897631
0.00369094434415
0.00458404905129
0.00682265382603
0.0139549063076
0.0341146960463
0.0749828789563
0.00299345924917
0.00302724552704
0.00309442904681
0.00325819952521
0.00365557996616
0.0045694397495
0.00692557971942
0.0143381136244
0.0347529830339
0.075139818606
)
;

boundaryField
{
    back
    {
        type            kqRWallFunction;
        value           nonuniform List<scalar> 
164
(
0.00296090168966
0.00297052370814
0.00298305677374
0.00300260496688
0.00304098364107
0.00313217886499
0.00338081406389
0.00413369327525
0.00632010820981
0.0112852826196
0.0217057304925
0.06244926821
0.00296459041545
0.00297438421224
0.0029869433191
0.00300605456049
0.00304281416369
0.00312929575283
0.00336193057652
0.00405794292358
0.00612040323752
0.011055507384
0.0224088327484
0.0574314297523
0.0029904385008
0.00300931178049
0.00304482092756
0.00312784514199
0.00334980653235
0.00400441440717
0.00595401871871
0.0107719427797
0.0214955782911
0.0486794019326
0.00299358200074
0.00301234740015
0.00304700345583
0.00312800926866
0.00334585650426
0.00398231437095
0.00585923848814
0.0106858327309
0.0226222481223
0.0605516205551
0.00299630753556
0.00301517508001
0.00304953880909
0.00313010255392
0.00334873858542
0.00398193744987
0.00580969123589
0.010577280457
0.0232627013055
0.0619096885154
0.00299861341918
0.00301791237597
0.00305301867153
0.00313600407331
0.00336108922888
0.00399716691771
0.00576374708659
0.0103037921051
0.0235136120925
0.0683284431436
0.0030005250781
0.00302075761874
0.00305837424844
0.00314892885935
0.00339011735162
0.00403321767515
0.00571076079331
0.010044834025
0.0246746466706
0.0708703989432
0.00300205762784
0.0030238825454
0.00306635375756
0.00317139008148
0.00344253930471
0.00410671018427
0.00573242073705
0.0102299448444
0.0267410761477
0.0723371736442
0.00300320276897
0.00302724988849
0.00307664901249
0.00320183464932
0.00351409169767
0.00421918823952
0.00587668041368
0.010979186872
0.0294678699224
0.073844139511
0.00300384107442
0.00303036738956
0.00308720009204
0.00323319064291
0.0035877887285
0.00434650485672
0.0061048499682
0.011860731974
0.0315669062424
0.0745198897684
0.00300376806675
0.00303241735972
0.00309504878856
0.00325634305783
0.00364252184857
0.00445151618952
0.00632489738589
0.0125400622554
0.032640820661
0.0747924257466
0.00300287345517
0.00303301943517
0.00309896238846
0.00326789793407
0.00367060593303
0.00451590641786
0.0065021397137
0.0130138206954
0.0330613363547
0.0748520273882
0.0030013671527
0.00303296837277
0.00310151990101
0.00327498978964
0.00368502145497
0.00455147650309
0.00663285635506
0.0133095534062
0.0329212648902
0.0747059354081
0.00299944380553
0.00303277539671
0.0031043109318
0.00328208596666
0.00369626637283
0.00457607580024
0.00672670156307
0.0135684823173
0.0331611244448
0.0747280591671
0.00299687223656
0.00303122738193
0.00310313379946
0.00327939897631
0.00369094434415
0.00458404905129
0.00682265382603
0.0139549063076
0.0341146960463
0.0749828789563
0.00299345924917
0.00302724552704
0.00309442904681
0.00325819952521
0.00365557996616
0.0045694397495
0.00692557971942
0.0143381136244
0.0347529830339
0.075139818606
)
;
    }
    sides
    {
        type            kqRWallFunction;
        value           nonuniform List<scalar> 0();
    }
    bottom
    {
        type            kqRWallFunction;
        value           nonuniform List<scalar> 0();
    }
    front
    {
        type            kqRWallFunction;
        value           nonuniform List<scalar> 
164
(
0.00296090168966
0.00297052370814
0.00298305677374
0.00300260496688
0.00304098364107
0.00313217886499
0.00338081406389
0.00413369327525
0.00632010820981
0.0112852826196
0.0217057304925
0.06244926821
0.00296459041545
0.00297438421224
0.0029869433191
0.00300605456049
0.00304281416369
0.00312929575283
0.00336193057652
0.00405794292358
0.00612040323752
0.011055507384
0.0224088327484
0.0574314297523
0.0029904385008
0.00300931178049
0.00304482092756
0.00312784514199
0.00334980653235
0.00400441440717
0.00595401871871
0.0107719427797
0.0214955782911
0.0486794019326
0.00299358200074
0.00301234740015
0.00304700345583
0.00312800926866
0.00334585650426
0.00398231437095
0.00585923848814
0.0106858327309
0.0226222481223
0.0605516205551
0.00299630753556
0.00301517508001
0.00304953880909
0.00313010255392
0.00334873858542
0.00398193744987
0.00580969123589
0.010577280457
0.0232627013055
0.0619096885154
0.00299861341918
0.00301791237597
0.00305301867153
0.00313600407331
0.00336108922888
0.00399716691771
0.00576374708659
0.0103037921051
0.0235136120925
0.0683284431436
0.0030005250781
0.00302075761874
0.00305837424844
0.00314892885935
0.00339011735162
0.00403321767515
0.00571076079331
0.010044834025
0.0246746466706
0.0708703989432
0.00300205762784
0.0030238825454
0.00306635375756
0.00317139008148
0.00344253930471
0.00410671018427
0.00573242073705
0.0102299448444
0.0267410761477
0.0723371736442
0.00300320276897
0.00302724988849
0.00307664901249
0.00320183464932
0.00351409169767
0.00421918823952
0.00587668041368
0.010979186872
0.0294678699224
0.073844139511
0.00300384107442
0.00303036738956
0.00308720009204
0.00323319064291
0.0035877887285
0.00434650485672
0.0061048499682
0.011860731974
0.0315669062424
0.0745198897684
0.00300376806675
0.00303241735972
0.00309504878856
0.00325634305783
0.00364252184857
0.00445151618952
0.00632489738589
0.0125400622554
0.032640820661
0.0747924257466
0.00300287345517
0.00303301943517
0.00309896238846
0.00326789793407
0.00367060593303
0.00451590641786
0.0065021397137
0.0130138206954
0.0330613363547
0.0748520273882
0.0030013671527
0.00303296837277
0.00310151990101
0.00327498978964
0.00368502145497
0.00455147650309
0.00663285635506
0.0133095534062
0.0329212648902
0.0747059354081
0.00299944380553
0.00303277539671
0.0031043109318
0.00328208596666
0.00369626637283
0.00457607580024
0.00672670156307
0.0135684823173
0.0331611244448
0.0747280591671
0.00299687223656
0.00303122738193
0.00310313379946
0.00327939897631
0.00369094434415
0.00458404905129
0.00682265382603
0.0139549063076
0.0341146960463
0.0749828789563
0.00299345924917
0.00302724552704
0.00309442904681
0.00325819952521
0.00365557996616
0.0045694397495
0.00692557971942
0.0143381136244
0.0347529830339
0.075139818606
)
;
    }
    atmosphere
    {
        type            inletOutlet;
        inletValue      uniform 0.1;
        value           nonuniform List<scalar> 
16
(
0.1
0.0574314297523
0.0486794019326
0.1
0.1
0.1
0.1
0.1
0.1
0.1
0.1
0.1
0.1
0.1
0.1
0.1
)
;
    }
    floatingObject
    {
        type            kqRWallFunction;
        value           nonuniform List<scalar> 0();
    }
    procBoundary5to0
    {
        type            processor;
        value           nonuniform List<scalar> 
12
(
0.00295682361542
0.00296627270616
0.00297883429076
0.00299893588176
0.0030391555157
0.00313552486431
0.0034009287446
0.00420896926543
0.00650501127137
0.0115039690884
0.0201280620064
0.0387995053085
)
;
    }
    procBoundary5to3
    {
        type            processor;
        value           nonuniform List<scalar> 10(0.00298973550602 0.00302260984894 0.00308382447257 0.00323272049782 0.00361717777835 0.0045793799572 0.0071403743246 0.0147709468959 0.0348292522335 0.0751477514409);
    }
    procBoundary5to4
    {
        type            processor;
        value           nonuniform List<scalar> 
18
(
0.00295286119165
0.00295634700896
0.00296776979791
0.00297777859914
0.00297777859914
0.00298075147156
0.00298318149261
0.00298506618333
0.00298639353397
0.00298714787642
0.00298730996838
0.00298683825533
0.00298567749229
0.00298381633863
0.00298127234976
0.00297813542405
0.0029744378887
0.002970179319
)
;
    }
}


// ************************************************************************* //
