/*--------------------------------*- C++ -*----------------------------------*\
| =========                 |                                                 |
| \\      /  F ield         | OpenFOAM: The Open Source CFD Toolbox           |
|  \\    /   O peration     | Version:  v2012                                 |
|   \\  /    A nd           | Website:  www.openfoam.com                      |
|    \\/     M anipulation  |                                                 |
\*---------------------------------------------------------------------------*/
FoamFile
{
    version     2.0;
    format      ascii;
    class       volScalarField;
    location    "3.9";
    object      k_0;
}
// * * * * * * * * * * * * * * * * * * * * * * * * * * * * * * * * * * * * * //

dimensions      [0 2 -2 0 0 0 0];


internalField   nonuniform List<scalar> 
164
(
0.00308658680755
0.00309637726348
0.00310918369892
0.00312939237457
0.00316969193866
0.00326656189926
0.00353234480596
0.00434651521874
0.00677931299052
0.012432436077
0.0221440269562
0.044099389217
0.00309028906406
0.00310024443948
0.0031130460171
0.00313271291837
0.00317111146762
0.00326248870203
0.00350950541395
0.00425469100843
0.00652373184608
0.0120310166788
0.0226391413047
0.0651269159807
0.0031165142662
0.00313583676872
0.00317270072048
0.00325982474917
0.00349349421007
0.00418560082693
0.00629758198283
0.0116119829006
0.0223143583197
0.0548926918032
0.00311964805441
0.00313876495348
0.00317448589089
0.00325878031182
0.00348614523524
0.00415206084188
0.00615088018321
0.0113355707447
0.0232990935707
0.0598044286431
0.00312237682932
0.00314149906629
0.00317660263896
0.0032595000419
0.0034854955421
0.00414337034399
0.00606464999486
0.0110844242776
0.0235904305743
0.0633208826296
0.00312468164509
0.00314411819991
0.00317953584636
0.00326355947967
0.00349291324148
0.00414665201532
0.00597664399098
0.0105813951145
0.0216626889019
0.0534822207456
0.00312657819658
0.00314678938506
0.003184132397
0.003274008082
0.00351520716245
0.00416445982642
0.00586096810373
0.00989200462289
0.0203859804729
0.061592374776
0.0031280748044
0.00314965258518
0.00319105878599
0.00329328230431
0.00355956179305
0.00421611520718
0.00579216936736
0.00957879154193
0.0212805726944
0.0648460808311
0.00312918423598
0.00315272773449
0.00320020020168
0.00332066590192
0.00362497474694
0.00431101985229
0.00582887978218
0.00982171004933
0.0244354844084
0.0699328606182
0.00312980628127
0.00315560541025
0.00320977355656
0.00334972555172
0.00369541779513
0.00442706615561
0.00595856414604
0.0103374967787
0.0271377179969
0.0720601270771
0.00312973511812
0.00315748785096
0.00321689122165
0.00337120309189
0.00374818979282
0.00452551780564
0.00612058861958
0.0109295795126
0.0292799971976
0.0736007416257
0.00312883138849
0.00315791921307
0.00322011022995
0.00338118729853
0.00377389287784
0.00458271238157
0.00626526079227
0.0115103435045
0.0307373491387
0.0744536506695
0.00312726410837
0.00315765234297
0.00322204188702
0.00338711049519
0.00378624538475
0.00460966428395
0.00637070196034
0.0119102159962
0.0310292000563
0.0745182914796
0.00312524211303
0.00315730530792
0.00322469538736
0.00339443709772
0.00379760823487
0.0046282313065
0.00643729775138
0.0121230601109
0.0311580822084
0.0745309834038
0.00312256571356
0.00315576328933
0.00322389298773
0.00339274737206
0.00379244315065
0.00462851502422
0.0064978555941
0.0123798976233
0.0318760848761
0.0747783996242
0.00311901057666
0.00315178334173
0.00321534825858
0.00337085459466
0.00375137801227
0.00459448988311
0.00654577767816
0.0126570762799
0.032537066708
0.0748957750025
)
;

boundaryField
{
    back
    {
        type            kqRWallFunction;
        value           nonuniform List<scalar> 
164
(
0.00308658680755
0.00309637726348
0.00310918369892
0.00312939237457
0.00316969193866
0.00326656189926
0.00353234480596
0.00434651521874
0.00677931299052
0.012432436077
0.0221440269562
0.044099389217
0.00309028906406
0.00310024443948
0.0031130460171
0.00313271291837
0.00317111146762
0.00326248870203
0.00350950541395
0.00425469100843
0.00652373184608
0.0120310166788
0.0226391413047
0.0651269159807
0.0031165142662
0.00313583676872
0.00317270072048
0.00325982474917
0.00349349421007
0.00418560082693
0.00629758198283
0.0116119829006
0.0223143583197
0.0548926918032
0.00311964805441
0.00313876495348
0.00317448589089
0.00325878031182
0.00348614523524
0.00415206084188
0.00615088018321
0.0113355707447
0.0232990935707
0.0598044286431
0.00312237682932
0.00314149906629
0.00317660263896
0.0032595000419
0.0034854955421
0.00414337034399
0.00606464999486
0.0110844242776
0.0235904305743
0.0633208826296
0.00312468164509
0.00314411819991
0.00317953584636
0.00326355947967
0.00349291324148
0.00414665201532
0.00597664399098
0.0105813951145
0.0216626889019
0.0534822207456
0.00312657819658
0.00314678938506
0.003184132397
0.003274008082
0.00351520716245
0.00416445982642
0.00586096810373
0.00989200462289
0.0203859804729
0.061592374776
0.0031280748044
0.00314965258518
0.00319105878599
0.00329328230431
0.00355956179305
0.00421611520718
0.00579216936736
0.00957879154193
0.0212805726944
0.0648460808311
0.00312918423598
0.00315272773449
0.00320020020168
0.00332066590192
0.00362497474694
0.00431101985229
0.00582887978218
0.00982171004933
0.0244354844084
0.0699328606182
0.00312980628127
0.00315560541025
0.00320977355656
0.00334972555172
0.00369541779513
0.00442706615561
0.00595856414604
0.0103374967787
0.0271377179969
0.0720601270771
0.00312973511812
0.00315748785096
0.00321689122165
0.00337120309189
0.00374818979282
0.00452551780564
0.00612058861958
0.0109295795126
0.0292799971976
0.0736007416257
0.00312883138849
0.00315791921307
0.00322011022995
0.00338118729853
0.00377389287784
0.00458271238157
0.00626526079227
0.0115103435045
0.0307373491387
0.0744536506695
0.00312726410837
0.00315765234297
0.00322204188702
0.00338711049519
0.00378624538475
0.00460966428395
0.00637070196034
0.0119102159962
0.0310292000563
0.0745182914796
0.00312524211303
0.00315730530792
0.00322469538736
0.00339443709772
0.00379760823487
0.0046282313065
0.00643729775138
0.0121230601109
0.0311580822084
0.0745309834038
0.00312256571356
0.00315576328933
0.00322389298773
0.00339274737206
0.00379244315065
0.00462851502422
0.0064978555941
0.0123798976233
0.0318760848761
0.0747783996242
0.00311901057666
0.00315178334173
0.00321534825858
0.00337085459466
0.00375137801227
0.00459448988311
0.00654577767816
0.0126570762799
0.032537066708
0.0748957750025
)
;
    }
    sides
    {
        type            kqRWallFunction;
        value           nonuniform List<scalar> 0();
    }
    bottom
    {
        type            kqRWallFunction;
        value           nonuniform List<scalar> 0();
    }
    front
    {
        type            kqRWallFunction;
        value           nonuniform List<scalar> 
164
(
0.00308658680755
0.00309637726348
0.00310918369892
0.00312939237457
0.00316969193866
0.00326656189926
0.00353234480596
0.00434651521874
0.00677931299052
0.012432436077
0.0221440269562
0.044099389217
0.00309028906406
0.00310024443948
0.0031130460171
0.00313271291837
0.00317111146762
0.00326248870203
0.00350950541395
0.00425469100843
0.00652373184608
0.0120310166788
0.0226391413047
0.0651269159807
0.0031165142662
0.00313583676872
0.00317270072048
0.00325982474917
0.00349349421007
0.00418560082693
0.00629758198283
0.0116119829006
0.0223143583197
0.0548926918032
0.00311964805441
0.00313876495348
0.00317448589089
0.00325878031182
0.00348614523524
0.00415206084188
0.00615088018321
0.0113355707447
0.0232990935707
0.0598044286431
0.00312237682932
0.00314149906629
0.00317660263896
0.0032595000419
0.0034854955421
0.00414337034399
0.00606464999486
0.0110844242776
0.0235904305743
0.0633208826296
0.00312468164509
0.00314411819991
0.00317953584636
0.00326355947967
0.00349291324148
0.00414665201532
0.00597664399098
0.0105813951145
0.0216626889019
0.0534822207456
0.00312657819658
0.00314678938506
0.003184132397
0.003274008082
0.00351520716245
0.00416445982642
0.00586096810373
0.00989200462289
0.0203859804729
0.061592374776
0.0031280748044
0.00314965258518
0.00319105878599
0.00329328230431
0.00355956179305
0.00421611520718
0.00579216936736
0.00957879154193
0.0212805726944
0.0648460808311
0.00312918423598
0.00315272773449
0.00320020020168
0.00332066590192
0.00362497474694
0.00431101985229
0.00582887978218
0.00982171004933
0.0244354844084
0.0699328606182
0.00312980628127
0.00315560541025
0.00320977355656
0.00334972555172
0.00369541779513
0.00442706615561
0.00595856414604
0.0103374967787
0.0271377179969
0.0720601270771
0.00312973511812
0.00315748785096
0.00321689122165
0.00337120309189
0.00374818979282
0.00452551780564
0.00612058861958
0.0109295795126
0.0292799971976
0.0736007416257
0.00312883138849
0.00315791921307
0.00322011022995
0.00338118729853
0.00377389287784
0.00458271238157
0.00626526079227
0.0115103435045
0.0307373491387
0.0744536506695
0.00312726410837
0.00315765234297
0.00322204188702
0.00338711049519
0.00378624538475
0.00460966428395
0.00637070196034
0.0119102159962
0.0310292000563
0.0745182914796
0.00312524211303
0.00315730530792
0.00322469538736
0.00339443709772
0.00379760823487
0.0046282313065
0.00643729775138
0.0121230601109
0.0311580822084
0.0745309834038
0.00312256571356
0.00315576328933
0.00322389298773
0.00339274737206
0.00379244315065
0.00462851502422
0.0064978555941
0.0123798976233
0.0318760848761
0.0747783996242
0.00311901057666
0.00315178334173
0.00321534825858
0.00337085459466
0.00375137801227
0.00459448988311
0.00654577767816
0.0126570762799
0.032537066708
0.0748957750025
)
;
    }
    atmosphere
    {
        type            inletOutlet;
        inletValue      uniform 0.1;
        value           nonuniform List<scalar> 
16
(
0.1
0.1
0.0548926918032
0.0598044286431
0.1
0.1
0.1
0.1
0.1
0.1
0.1
0.1
0.1
0.1
0.1
0.1
)
;
    }
    floatingObject
    {
        type            kqRWallFunction;
        value           nonuniform List<scalar> 0();
    }
    procBoundary5to0
    {
        type            processor;
        value           nonuniform List<scalar> 
12
(
0.00308253508136
0.00309218898341
0.00310508672051
0.00312598104722
0.00316842047903
0.00327116842787
0.00355587855468
0.00443440426888
0.00700642603849
0.0128058006047
0.0225185142832
0.0377566227935
)
;
    }
    procBoundary5to3
    {
        type            processor;
        value           nonuniform List<scalar> 10(0.00311504828733 0.00314697816464 0.00320433701044 0.00334259146961 0.00370054265443 0.00456747584322 0.00669081380971 0.0130984729117 0.0326027889629 0.0748056520172);
    }
    procBoundary5to4
    {
        type            processor;
        value           nonuniform List<scalar> 
18
(
0.00307839780267
0.00308189457362
0.00309347714853
0.00310363382526
0.00310363382526
0.00310662254403
0.00310907713516
0.0031109896429
0.00311234270927
0.00311311719737
0.00311330387792
0.00311286091112
0.00311172340686
0.00310986250712
0.00310727682501
0.0031040445592
0.00310020151182
0.00309572942642
)
;
    }
}


// ************************************************************************* //
