/*--------------------------------*- C++ -*----------------------------------*\
| =========                 |                                                 |
| \\      /  F ield         | OpenFOAM: The Open Source CFD Toolbox           |
|  \\    /   O peration     | Version:  v2012                                 |
|   \\  /    A nd           | Website:  www.openfoam.com                      |
|    \\/     M anipulation  |                                                 |
\*---------------------------------------------------------------------------*/
FoamFile
{
    version     2.0;
    format      ascii;
    class       volScalarField;
    location    "3.9";
    object      rAU;
}
// * * * * * * * * * * * * * * * * * * * * * * * * * * * * * * * * * * * * * //

dimensions      [-1 3 1 0 0 0 0];


internalField   nonuniform List<scalar> 
164
(
2.17648538512e-05
2.17630841165e-05
2.17603102781e-05
2.17563053676e-05
2.17492541711e-05
2.17420777272e-05
2.17034765283e-05
2.17150869169e-05
2.15944258541e-05
2.84903559954e-05
0.000258356136167
0.00978766980754
2.17646741787e-05
2.17631357057e-05
2.17606542262e-05
2.17569143094e-05
2.175060883e-05
2.17441425568e-05
2.17093645661e-05
2.17025111957e-05
2.16199121684e-05
2.78600358636e-05
0.000246633394017
0.00994205062908
2.17619893493e-05
2.17584859429e-05
2.1753029875e-05
2.17459450714e-05
2.17160283031e-05
2.16888974758e-05
2.16032376325e-05
2.7156186961e-05
0.000212636112574
0.00746389162559
2.17638448444e-05
2.17611105062e-05
2.17566522899e-05
2.1749420029e-05
2.17243467212e-05
2.16759545037e-05
2.15866441396e-05
2.66272085261e-05
0.000188858448893
0.00758808821088
2.17666449228e-05
2.1764373739e-05
2.17611080835e-05
2.17558958689e-05
2.17373524882e-05
2.16787960823e-05
2.1561222341e-05
2.62659775549e-05
0.000173579513278
0.0089312832695
2.17691603e-05
2.17672675142e-05
2.17657842053e-05
2.17645092184e-05
2.17603137502e-05
2.17092649741e-05
2.15668527194e-05
2.61544974188e-05
0.000157644493886
0.00963212664049
2.17714989649e-05
2.17698141337e-05
2.17686511159e-05
2.1767402416e-05
2.17628415814e-05
2.1716756457e-05
2.16015402507e-05
2.631462843e-05
0.000157029262615
0.00939558191728
2.17728649523e-05
2.17696342308e-05
2.17622976661e-05
2.17409861998e-05
2.17281917081e-05
2.16384135489e-05
2.15752152944e-05
2.62884104455e-05
0.000160640965671
0.00947249316168
2.17719165835e-05
2.17646449116e-05
2.17480393374e-05
2.17054873806e-05
2.16803432576e-05
2.153434255e-05
2.14610828535e-05
2.62147533083e-05
0.000166891454651
0.00910984015516
2.17699554998e-05
2.1758231055e-05
2.17364884983e-05
2.16878920233e-05
2.16482176681e-05
2.14345467281e-05
2.1230641983e-05
2.59139692856e-05
0.000175488489378
0.00906594020284
2.17696699421e-05
2.17575312424e-05
2.17341674945e-05
2.16900607985e-05
2.16459159276e-05
2.14097550917e-05
2.11741619024e-05
2.57415427735e-05
0.000184702889387
0.00961739130577
2.17734328162e-05
2.17631985191e-05
2.17445103229e-05
2.17129770656e-05
2.16712585951e-05
2.14500570559e-05
2.1266045548e-05
2.58245112215e-05
0.00019106739655
0.00981113009344
2.17752812549e-05
2.17652526699e-05
2.17528422119e-05
2.17313067096e-05
2.16986872902e-05
2.14776740961e-05
2.12566579003e-05
2.59248427938e-05
0.000199309495311
0.0099145084506
2.17738499471e-05
2.17606749226e-05
2.17454203685e-05
2.17207875244e-05
2.16833008392e-05
2.14620992927e-05
2.12274378091e-05
2.59489938886e-05
0.000204259890498
0.00998726954524
2.17770117739e-05
2.17625160236e-05
2.17458438592e-05
2.17213837788e-05
2.16685554165e-05
2.14931610244e-05
2.12601449741e-05
2.58108079185e-05
0.000199086086249
0.00972864204504
2.17811076154e-05
2.17707998494e-05
2.17696177474e-05
2.1759726112e-05
2.16984235176e-05
2.15399417891e-05
2.1282192036e-05
2.55417075915e-05
0.000191450381739
0.00974528256143
)
;

boundaryField
{
    back
    {
        type            calculated;
        value           nonuniform List<scalar> 
164
(
2.17648538512e-05
2.17630841165e-05
2.17603102781e-05
2.17563053676e-05
2.17492541711e-05
2.17420777272e-05
2.17034765283e-05
2.17150869169e-05
2.15944258541e-05
2.84903559954e-05
0.000258356136167
0.00978766980754
2.17646741787e-05
2.17631357057e-05
2.17606542262e-05
2.17569143094e-05
2.175060883e-05
2.17441425568e-05
2.17093645661e-05
2.17025111957e-05
2.16199121684e-05
2.78600358636e-05
0.000246633394017
0.00994205062908
2.17619893493e-05
2.17584859429e-05
2.1753029875e-05
2.17459450714e-05
2.17160283031e-05
2.16888974758e-05
2.16032376325e-05
2.7156186961e-05
0.000212636112574
0.00746389162559
2.17638448444e-05
2.17611105062e-05
2.17566522899e-05
2.1749420029e-05
2.17243467212e-05
2.16759545037e-05
2.15866441396e-05
2.66272085261e-05
0.000188858448893
0.00758808821088
2.17666449228e-05
2.1764373739e-05
2.17611080835e-05
2.17558958689e-05
2.17373524882e-05
2.16787960823e-05
2.1561222341e-05
2.62659775549e-05
0.000173579513278
0.0089312832695
2.17691603e-05
2.17672675142e-05
2.17657842053e-05
2.17645092184e-05
2.17603137502e-05
2.17092649741e-05
2.15668527194e-05
2.61544974188e-05
0.000157644493886
0.00963212664049
2.17714989649e-05
2.17698141337e-05
2.17686511159e-05
2.1767402416e-05
2.17628415814e-05
2.1716756457e-05
2.16015402507e-05
2.631462843e-05
0.000157029262615
0.00939558191728
2.17728649523e-05
2.17696342308e-05
2.17622976661e-05
2.17409861998e-05
2.17281917081e-05
2.16384135489e-05
2.15752152944e-05
2.62884104455e-05
0.000160640965671
0.00947249316168
2.17719165835e-05
2.17646449116e-05
2.17480393374e-05
2.17054873806e-05
2.16803432576e-05
2.153434255e-05
2.14610828535e-05
2.62147533083e-05
0.000166891454651
0.00910984015516
2.17699554998e-05
2.1758231055e-05
2.17364884983e-05
2.16878920233e-05
2.16482176681e-05
2.14345467281e-05
2.1230641983e-05
2.59139692856e-05
0.000175488489378
0.00906594020284
2.17696699421e-05
2.17575312424e-05
2.17341674945e-05
2.16900607985e-05
2.16459159276e-05
2.14097550917e-05
2.11741619024e-05
2.57415427735e-05
0.000184702889387
0.00961739130577
2.17734328162e-05
2.17631985191e-05
2.17445103229e-05
2.17129770656e-05
2.16712585951e-05
2.14500570559e-05
2.1266045548e-05
2.58245112215e-05
0.00019106739655
0.00981113009344
2.17752812549e-05
2.17652526699e-05
2.17528422119e-05
2.17313067096e-05
2.16986872902e-05
2.14776740961e-05
2.12566579003e-05
2.59248427938e-05
0.000199309495311
0.0099145084506
2.17738499471e-05
2.17606749226e-05
2.17454203685e-05
2.17207875244e-05
2.16833008392e-05
2.14620992927e-05
2.12274378091e-05
2.59489938886e-05
0.000204259890498
0.00998726954524
2.17770117739e-05
2.17625160236e-05
2.17458438592e-05
2.17213837788e-05
2.16685554165e-05
2.14931610244e-05
2.12601449741e-05
2.58108079185e-05
0.000199086086249
0.00972864204504
2.17811076154e-05
2.17707998494e-05
2.17696177474e-05
2.1759726112e-05
2.16984235176e-05
2.15399417891e-05
2.1282192036e-05
2.55417075915e-05
0.000191450381739
0.00974528256143
)
;
    }
    sides
    {
        type            calculated;
        value           nonuniform List<scalar> 0();
    }
    bottom
    {
        type            calculated;
        value           nonuniform List<scalar> 0();
    }
    front
    {
        type            calculated;
        value           nonuniform List<scalar> 
164
(
2.17648538512e-05
2.17630841165e-05
2.17603102781e-05
2.17563053676e-05
2.17492541711e-05
2.17420777272e-05
2.17034765283e-05
2.17150869169e-05
2.15944258541e-05
2.84903559954e-05
0.000258356136167
0.00978766980754
2.17646741787e-05
2.17631357057e-05
2.17606542262e-05
2.17569143094e-05
2.175060883e-05
2.17441425568e-05
2.17093645661e-05
2.17025111957e-05
2.16199121684e-05
2.78600358636e-05
0.000246633394017
0.00994205062908
2.17619893493e-05
2.17584859429e-05
2.1753029875e-05
2.17459450714e-05
2.17160283031e-05
2.16888974758e-05
2.16032376325e-05
2.7156186961e-05
0.000212636112574
0.00746389162559
2.17638448444e-05
2.17611105062e-05
2.17566522899e-05
2.1749420029e-05
2.17243467212e-05
2.16759545037e-05
2.15866441396e-05
2.66272085261e-05
0.000188858448893
0.00758808821088
2.17666449228e-05
2.1764373739e-05
2.17611080835e-05
2.17558958689e-05
2.17373524882e-05
2.16787960823e-05
2.1561222341e-05
2.62659775549e-05
0.000173579513278
0.0089312832695
2.17691603e-05
2.17672675142e-05
2.17657842053e-05
2.17645092184e-05
2.17603137502e-05
2.17092649741e-05
2.15668527194e-05
2.61544974188e-05
0.000157644493886
0.00963212664049
2.17714989649e-05
2.17698141337e-05
2.17686511159e-05
2.1767402416e-05
2.17628415814e-05
2.1716756457e-05
2.16015402507e-05
2.631462843e-05
0.000157029262615
0.00939558191728
2.17728649523e-05
2.17696342308e-05
2.17622976661e-05
2.17409861998e-05
2.17281917081e-05
2.16384135489e-05
2.15752152944e-05
2.62884104455e-05
0.000160640965671
0.00947249316168
2.17719165835e-05
2.17646449116e-05
2.17480393374e-05
2.17054873806e-05
2.16803432576e-05
2.153434255e-05
2.14610828535e-05
2.62147533083e-05
0.000166891454651
0.00910984015516
2.17699554998e-05
2.1758231055e-05
2.17364884983e-05
2.16878920233e-05
2.16482176681e-05
2.14345467281e-05
2.1230641983e-05
2.59139692856e-05
0.000175488489378
0.00906594020284
2.17696699421e-05
2.17575312424e-05
2.17341674945e-05
2.16900607985e-05
2.16459159276e-05
2.14097550917e-05
2.11741619024e-05
2.57415427735e-05
0.000184702889387
0.00961739130577
2.17734328162e-05
2.17631985191e-05
2.17445103229e-05
2.17129770656e-05
2.16712585951e-05
2.14500570559e-05
2.1266045548e-05
2.58245112215e-05
0.00019106739655
0.00981113009344
2.17752812549e-05
2.17652526699e-05
2.17528422119e-05
2.17313067096e-05
2.16986872902e-05
2.14776740961e-05
2.12566579003e-05
2.59248427938e-05
0.000199309495311
0.0099145084506
2.17738499471e-05
2.17606749226e-05
2.17454203685e-05
2.17207875244e-05
2.16833008392e-05
2.14620992927e-05
2.12274378091e-05
2.59489938886e-05
0.000204259890498
0.00998726954524
2.17770117739e-05
2.17625160236e-05
2.17458438592e-05
2.17213837788e-05
2.16685554165e-05
2.14931610244e-05
2.12601449741e-05
2.58108079185e-05
0.000199086086249
0.00972864204504
2.17811076154e-05
2.17707998494e-05
2.17696177474e-05
2.1759726112e-05
2.16984235176e-05
2.15399417891e-05
2.1282192036e-05
2.55417075915e-05
0.000191450381739
0.00974528256143
)
;
    }
    atmosphere
    {
        type            calculated;
        value           nonuniform List<scalar> 
16
(
0.00978766980754
0.00994205062908
0.00746389162559
0.00758808821088
0.0089312832695
0.00963212664049
0.00939558191728
0.00947249316168
0.00910984015516
0.00906594020284
0.00961739130577
0.00981113009344
0.0099145084506
0.00998726954524
0.00972864204504
0.00974528256143
)
;
    }
    floatingObject
    {
        type            calculated;
        value           nonuniform List<scalar> 0();
    }
    procBoundary5to0
    {
        type            processor;
        value           nonuniform List<scalar> 
12
(
2.17659559265e-05
2.17639191347e-05
2.1760818566e-05
2.17561325116e-05
2.17481478438e-05
2.17388841274e-05
2.16926498533e-05
2.17153199078e-05
2.15583085141e-05
2.92121417588e-05
0.000307738465532
0.00727427129063
)
;
    }
    procBoundary5to3
    {
        type            processor;
        value           nonuniform List<scalar> 10(2.1787104771e-05 2.17743352306e-05 2.17847284634e-05 2.17927667572e-05 2.17452784026e-05 2.15284576485e-05 2.1199677821e-05 2.52506616083e-05 0.000185462897863 0.00963052435926);
    }
    procBoundary5to4
    {
        type            processor;
        value           nonuniform List<scalar> 
18
(
2.17657834894e-05
2.1765212412e-05
2.1765464866e-05
2.17642378855e-05
2.17642378855e-05
2.17655691313e-05
2.17681149133e-05
2.17709331268e-05
2.17729884741e-05
2.17749495694e-05
2.17763387884e-05
2.1776459427e-05
2.17776164459e-05
2.17795387441e-05
2.17802594732e-05
2.17810206828e-05
2.17846232252e-05
2.17887370054e-05
)
;
    }
}


// ************************************************************************* //
