/*--------------------------------*- C++ -*----------------------------------*\
| =========                 |                                                 |
| \\      /  F ield         | OpenFOAM: The Open Source CFD Toolbox           |
|  \\    /   O peration     | Version:  v2012                                 |
|   \\  /    A nd           | Website:  www.openfoam.com                      |
|    \\/     M anipulation  |                                                 |
\*---------------------------------------------------------------------------*/
FoamFile
{
    version     2.0;
    format      ascii;
    class       volVectorField;
    location    "3.9";
    object      U_0;
}
// * * * * * * * * * * * * * * * * * * * * * * * * * * * * * * * * * * * * * //

dimensions      [0 1 -1 0 0 0 0];


internalField   nonuniform List<vector> 
164
(
(-0.0303378453704 0.0140897794422 3.13435596231e-24)
(-0.0315536981439 0.0167986845061 -5.6033183828e-24)
(-0.0329568702895 0.0199471591038 -5.90619281645e-24)
(-0.0345749450877 0.0236287507493 3.18177205936e-23)
(-0.0364641007499 0.0279430374681 2.40891046912e-23)
(-0.0387191982977 0.0330437789783 1.10601010618e-22)
(-0.0412114895317 0.03871164848 -1.26852064673e-21)
(-0.0432192397808 0.0472323504786 1.31841829337e-21)
(-0.0448467837127 0.0512985837152 -1.22005283021e-21)
(-0.050394555911 0.0546709763533 -8.76605126861e-21)
(-0.145542204114 0.0551480424466 4.4628566694e-21)
(-0.242185391304 -0.113947562695 -1.03755552186e-20)
(-0.0327401857577 0.012786760772 1.77472022795e-23)
(-0.0343367264063 0.0152826233405 3.04880572215e-23)
(-0.0362008826371 0.0181917520289 -5.71651759507e-24)
(-0.0383740780349 0.0216007061517 9.54418639748e-23)
(-0.0409284981742 0.025597670723 1.17920544366e-22)
(-0.043945221291 0.0303280745979 1.71795752406e-22)
(-0.0472969560107 0.0355537790609 -6.72518852222e-22)
(-0.0501682309246 0.043516528539 2.47211075291e-21)
(-0.0523000922269 0.0483789385397 -1.24465541773e-20)
(-0.0566055218556 0.0525253755371 -1.08339102889e-20)
(-0.139157260751 0.0591096592841 -1.13281672964e-20)
(0.247879333296 -0.258294880364 -2.6737765949e-20)
(-0.0391357217783 0.0159533457239 2.76857413675e-23)
(-0.0418192003224 0.0189861548282 1.34692403117e-22)
(-0.0449802737142 0.0225484791165 2.05709925822e-22)
(-0.0486966759628 0.0267697183053 1.8709672814e-22)
(-0.0528739586827 0.0314157327067 -8.50285835044e-22)
(-0.0566974320723 0.0385732547315 -1.37158149375e-21)
(-0.0598374887613 0.0439330193655 -1.14834427689e-20)
(-0.0625672536657 0.048824926561 -6.83134354047e-21)
(-0.135372951452 0.0563272799258 -8.69911225927e-20)
(0.132592321142 0.392105281774 -8.17028980869e-20)
(-0.0416836113667 0.0132709488005 2.00918563961e-23)
(-0.0448138836568 0.0158397269363 1.50724963784e-22)
(-0.048504104122 0.0188624155061 2.06233518985e-22)
(-0.0528240597649 0.0224427756739 1.37369201544e-22)
(-0.0576735540998 0.0263544107825 -2.53226934166e-21)
(-0.0623451706203 0.032261777123 -3.02571019325e-21)
(-0.0667676704325 0.0371650858245 -8.10666782114e-21)
(-0.068849343438 0.0419996363296 -1.91671299763e-21)
(-0.151518567749 0.0466249571626 -3.79872460554e-20)
(-0.377577030213 0.34215529263 -7.24805406749e-20)
(-0.0437674113205 0.010210748768 2.86946129177e-23)
(-0.0472729610788 0.0122378767466 1.49867205242e-22)
(-0.0514116335246 0.0146261151863 1.15067576207e-22)
(-0.0562222586641 0.0174517281854 -4.80622303602e-22)
(-0.0614899632013 0.0204024666435 -2.6024528776e-21)
(-0.0664396745032 0.0245929843068 1.34412361419e-22)
(-0.0711644119762 0.0279645194652 -1.24878620886e-20)
(-0.0740910783334 0.0328106793813 -2.04696382646e-20)
(-0.165516464094 0.0342640090109 -4.52107238046e-20)
(-0.528764737904 -0.166665441518 -4.42539723405e-20)
(-0.0453263831144 0.00684094608773 5.89066286207e-23)
(-0.049128173579 0.00825226317392 1.40616382161e-22)
(-0.0536201483941 0.00991759495929 -2.03661451895e-23)
(-0.0587827384667 0.0118817313893 -8.69120271939e-22)
(-0.0641156501466 0.0137398140618 -2.42514437107e-21)
(-0.068402834121 0.0160688596813 -3.23214533797e-21)
(-0.0719454918267 0.0169326455175 -1.18233474716e-20)
(-0.077086475624 0.0211095756568 -1.8460275428e-20)
(-0.179868592764 0.0167135317509 -1.80816628609e-21)
(-0.22102568807 -0.0225261147274 -7.98223899794e-21)
(-0.0463098118261 0.00324122589433 7.89620720357e-23)
(-0.0502981825202 0.00397897301363 1.22935055558e-22)
(-0.0550147890069 0.00483881358015 1.31727119896e-22)
(-0.0603788856561 0.00583560175233 -7.19183982344e-22)
(-0.0654642967896 0.00653375260164 -1.94834509749e-22)
(-0.068381080158 0.00717996706803 -5.49683779425e-21)
(-0.0696219285989 0.00581019206272 -8.64875402928e-21)
(-0.076614429083 0.00839541558694 -1.59742719444e-20)
(-0.186765605996 -0.000961516287738 3.44738117298e-20)
(-0.173225847327 -0.0287895267116 1.21505002072e-20)
(-0.0466529728025 -0.000479939680172 -2.32818955097e-23)
(-0.0507030468732 -0.000454400032904 -7.22324991212e-23)
(-0.0554798895373 -0.000483453239713 -1.22578101372e-22)
(-0.0608241790069 -0.000588195336505 1.21900070929e-22)
(-0.0654208683938 -0.00122240844463 2.64492197046e-21)
(-0.0671188658432 -0.00186810762962 4.68255570338e-21)
(-0.0669723333402 -0.00486773056305 8.64324368408e-21)
(-0.0751862216557 -0.000290404104971 1.80662897933e-20)
(-0.178678099256 -0.00715149946316 3.84882870984e-20)
(-0.148506759599 -0.0281094988703 3.36795647837e-20)
(-0.0463429399132 -0.00420736033775 7.96832255229e-24)
(-0.0503003235196 -0.00490112858381 -9.64751544939e-23)
(-0.0548961498508 -0.0058571711135 3.63757124839e-22)
(-0.0598556804264 -0.00716563565339 3.47144288228e-21)
(-0.0638030069455 -0.0093620003793 1.62843351129e-20)
(-0.0649930494776 -0.011352422181 3.63345645533e-20)
(-0.0651120117779 -0.015228233644 5.28124209733e-20)
(-0.0733090910912 -0.0083287907996 5.82052670629e-20)
(-0.165547277325 -0.0236238517426 7.40836420545e-20)
(-0.126587840928 -0.0559393869467 6.30446146604e-20)
(-0.0454083056926 -0.00779156124662 -9.30746342792e-24)
(-0.0490924592323 -0.00914009320477 1.89692428513e-22)
(-0.0532408833445 -0.0109167773867 1.73945080742e-21)
(-0.057551459236 -0.0132779198702 1.05023359106e-20)
(-0.0609839321331 -0.0166755678319 3.73565248555e-20)
(-0.0624475642049 -0.0198278350972 8.03565794415e-20)
(-0.0632979304541 -0.0247733145809 1.15170405844e-19)
(-0.0690630652071 -0.0146618990287 1.38693794833e-19)
(-0.142927730073 -0.0352432790498 1.46877437563e-19)
(-0.111665044215 -0.0700703189914 1.17020528482e-19)
(-0.0439526762193 -0.0110806599929 1.0823524778e-22)
(-0.0472288447171 -0.0129029873323 4.36938975825e-22)
(-0.0507894152768 -0.0152273284835 2.65359549377e-21)
(-0.0544227200063 -0.0182048420205 1.45549882163e-20)
(-0.0574656165863 -0.0220958501539 4.84881195952e-20)
(-0.0597326985062 -0.0256448910691 1.05380807754e-19)
(-0.0617324683498 -0.0304604539432 1.54395335909e-19)
(-0.0632854836343 -0.0189796894798 1.81915458769e-19)
(-0.119106196276 -0.0411660569713 1.58151175989e-19)
(-0.104778998354 -0.0672284446057 1.3236002697e-19)
(-0.0421229288454 -0.0139875420482 3.39129450533e-22)
(-0.0449725183727 -0.0160456879208 4.86904878591e-22)
(-0.0479567485636 -0.0185828650225 2.05782215037e-21)
(-0.0509326410928 -0.0216120144088 9.15550320127e-21)
(-0.0537203507689 -0.0252972760091 3.26715891234e-20)
(-0.0570452350698 -0.0286102889451 7.48562870076e-20)
(-0.0602210288877 -0.0332180645504 1.1651478832e-19)
(-0.0586157610186 -0.0226615609054 1.35820790424e-19)
(-0.10120482666 -0.0422478618452 9.94769352757e-20)
(-0.0927147941835 -0.0579353231865 8.49584870304e-20)
(-0.0400984967049 -0.0165675802649 1.4048799459e-22)
(-0.0426683342612 -0.018766573949 1.1784772119e-23)
(-0.0452582072803 -0.0212870000448 4.02912748869e-22)
(-0.047734168336 -0.0241210295683 2.46194579759e-21)
(-0.0502646638087 -0.0273215459947 1.2132263852e-20)
(-0.0541652453245 -0.0298185884228 3.28475494904e-20)
(-0.0580259402605 -0.0353393105519 5.02358137088e-20)
(-0.0557850747092 -0.0269616086651 5.91407416077e-20)
(-0.0930887879972 -0.0437895948424 3.30335075812e-20)
(-0.0818712326246 -0.0484193234081 2.50315100251e-20)
(-0.0379344531955 -0.0189628691612 3.17945097128e-22)
(-0.0403181174383 -0.021242651177 1.32765150489e-22)
(-0.0426820387395 -0.0237142756552 6.75641937725e-22)
(-0.0449237397267 -0.0264053226618 1.79471198716e-21)
(-0.0474093981124 -0.0292792458164 6.79237248555e-21)
(-0.0515960022838 -0.0307827798188 1.1266242464e-20)
(-0.0552982748805 -0.036874560067 9.33762866269e-21)
(-0.0527848076594 -0.0296021126309 1.10637952928e-20)
(-0.0901143996765 -0.0453474041187 2.84785132636e-21)
(-0.0752004114645 -0.0474211867938 6.49671417831e-21)
(-0.0356616154664 -0.0211653797589 2.36968874512e-22)
(-0.0379187583961 -0.0234607244589 2.2164676738e-22)
(-0.0401004080705 -0.0257764922495 6.76342722171e-22)
(-0.0421683506873 -0.0282014329515 1.64960934645e-21)
(-0.0448339988704 -0.0307884255222 3.25773253912e-21)
(-0.049526581566 -0.0319191433925 8.31432778668e-21)
(-0.0523410662009 -0.0377859741637 6.30702946026e-21)
(-0.0484377932853 -0.0305062046531 -2.30947526022e-21)
(-0.0840954171228 -0.0471848962563 -9.95005737508e-21)
(-0.0667788688568 -0.0563157389795 -8.59056796799e-21)
(-0.033366684238 -0.0232662982814 6.25411985269e-22)
(-0.0356844713769 -0.0254695339257 6.71598677117e-22)
(-0.0378295847028 -0.0274157824038 1.3184555223e-21)
(-0.0397912376883 -0.0292658643864 1.81396132213e-21)
(-0.0425380140601 -0.0313789933411 3.06716202949e-21)
(-0.0474694325027 -0.0320037326877 2.23528414533e-21)
(-0.0495131994442 -0.0378810824449 8.72895134252e-21)
(-0.0431831758436 -0.0303316924529 3.12578019304e-21)
(-0.0735097830006 -0.0481149488653 -1.01758956127e-20)
(-0.0619716570504 -0.0583287591653 -9.22105344494e-21)
)
;

boundaryField
{
    back
    {
        type            noSlip;
    }
    sides
    {
        type            noSlip;
    }
    bottom
    {
        type            noSlip;
    }
    front
    {
        type            noSlip;
    }
    atmosphere
    {
        type            pressureInletOutletVelocity;
        value           nonuniform List<vector> 
16
(
(0 -0.113947562695 0)
(0 -0.258294880364 0)
(0.132592321142 0.392105281774 -8.17028980869e-20)
(-0.377577030213 0.34215529263 -7.24805406749e-20)
(0 -0.166665441518 0)
(0 -0.0225261147274 0)
(0 -0.0287895267116 0)
(0 -0.0281094988703 0)
(0 -0.0559393869467 0)
(0 -0.0700703189914 0)
(0 -0.0672284446057 0)
(0 -0.0579353231865 0)
(0 -0.0484193234081 0)
(0 -0.0474211867938 0)
(0 -0.0563157389795 0)
(0 -0.0583287591653 0)
)
;
    }
    floatingObject
    {
        type            movingWallVelocity;
        value           nonuniform List<vector> 0();
    }
    procBoundary5to0
    {
        type            processor;
        value           nonuniform List<vector> 
12
(
(-0.0277631603888 0.0150311767606 -9.10191470525e-24)
(-0.0285826750897 0.0178709151649 5.31192809016e-24)
(-0.0295013711534 0.0211641987833 5.02618045188e-24)
(-0.0305348829268 0.0250068776465 4.05050366985e-23)
(-0.0317201170118 0.0295146990304 1.92109949178e-23)
(-0.0331490087285 0.0348516982332 1.4840800605e-22)
(-0.0347644359665 0.0408400886627 -1.2579007285e-21)
(-0.03593604129 0.0498917859583 2.06881521962e-21)
(-0.0368363745799 0.0535585302068 -9.14634575485e-21)
(-0.0412516551237 0.0571924691306 -8.71407368349e-21)
(-0.119940949218 0.0647359745218 3.14182820407e-20)
(-0.142920270306 0.339844080342 1.0740939313e-19)
)
;
    }
    procBoundary5to3
    {
        type            processor;
        value           nonuniform List<vector> 10((-0.0310554594454 -0.0255935702211 2.92009072163e-21) (-0.0337138305108 -0.0277735938546 2.7797213564e-21) (-0.0362251749515 -0.0293155016476 2.68158687941e-21) (-0.0382516072862 -0.0305385326324 2.36767207929e-21) (-0.0407256843424 -0.0321616324619 2.24287155397e-21) (-0.0449146031464 -0.0328126077358 -4.33418381225e-22) (-0.0464358679727 -0.0410148324602 9.01252216075e-21) (-0.0386240406228 -0.0327189454105 6.7685624326e-21) (-0.0648955989217 -0.0493640091595 -1.46600148677e-20) (-0.0556051775211 -0.0527805186629 -1.27128664004e-20));
    }
    procBoundary5to4
    {
        type            processor;
        value           nonuniform List<vector> 
18
(
(-0.0292872029744 0.0117429469848 -7.08543887494e-24)
(-0.0313797513334 0.0106323417636 -4.46167803061e-24)
(-0.0349044344512 0.0111560416889 3.60663531447e-23)
(-0.0368487872425 0.0133683103974 3.56183818572e-23)
(-0.0368487872425 0.0133683103974 3.56183818572e-23)
(-0.0390245119046 0.0110870321054 3.33403340523e-23)
(-0.0407987106263 0.00849087101735 4.58222893248e-23)
(-0.0421176016792 0.0056450307984 2.68269313838e-23)
(-0.0429463138848 0.00261148082071 3.55225100259e-23)
(-0.0432391110416 -0.000526531133498 9.22951206036e-23)
(-0.0429882522405 -0.00366303464987 9.24502150697e-23)
(-0.0422232000827 -0.00670722359657 9.64994371933e-23)
(-0.0410077459935 -0.00956476241512 6.56217636859e-23)
(-0.0394793561858 -0.0121943359612 1.33199724892e-22)
(-0.0376756175468 -0.0146031428345 1.92436995466e-22)
(-0.0356395453461 -0.0168347657644 1.61863859565e-22)
(-0.0334721437008 -0.0189229855849 2.23559048006e-22)
(-0.0311721320022 -0.0209344787928 4.9018910178e-22)
)
;
    }
}


// ************************************************************************* //
