/*--------------------------------*- C++ -*----------------------------------*\
| =========                 |                                                 |
| \\      /  F ield         | OpenFOAM: The Open Source CFD Toolbox           |
|  \\    /   O peration     | Version:  v2012                                 |
|   \\  /    A nd           | Website:  www.openfoam.com                      |
|    \\/     M anipulation  |                                                 |
\*---------------------------------------------------------------------------*/
FoamFile
{
    version     2.0;
    format      ascii;
    class       surfaceVectorField;
    location    "3";
    object      ddtCorrDdt0(Uf);
}
// * * * * * * * * * * * * * * * * * * * * * * * * * * * * * * * * * * * * * //

dimensions      [0 1 -2 0 0 0 0];


internalField   nonuniform List<vector> 
300
(
(-0.0198662345959 0.00883998091254 1.11938937488e-21)
(-0.0247735310912 0.00507215918965 -7.33058455745e-23)
(-0.0186699742894 0.0178027150816 5.00444220297e-21)
(-0.0241893397134 0.0137109804511 1.79735244453e-21)
(-0.016258699476 0.027153530205 1.54697594689e-20)
(-0.0228213973695 0.0231132160313 5.35472112142e-21)
(-0.0115675605301 0.0374933119128 2.31615813679e-20)
(-0.0204466365425 0.0333150501628 1.64525915599e-20)
(-0.00273152231175 0.0490332748621 -9.58026217058e-20)
(-0.0171786174774 0.0443403772902 1.66558205248e-20)
(0.0109546635571 0.063285518236 -1.09765298905e-18)
(-0.0106012138178 0.0574131048645 -1.53397173474e-19)
(0.0303608157837 0.0838430040366 -3.92768562619e-18)
(0.00304920568668 0.0762703856496 -1.17285095604e-18)
(0.0257578136338 0.101639161749 -6.85059125256e-18)
(0.0153182421137 0.100131356569 -3.40166666065e-18)
(0.000649951354798 0.109602107316 -3.18617220379e-18)
(-0.00762068985499 0.118614182737 -5.36111723625e-18)
(-0.019208022993 0.11712207374 4.40108743492e-18)
(-0.0071048316938 0.132552536475 1.14968694836e-18)
(-0.0452775629887 0.131116136647 5.28321665567e-18)
(-0.0134918763805 0.134912100902 4.00832723614e-18)
(-0.0614440222113 0.169913584277 7.07130374437e-18)
(-0.0381713668628 0.17094773659 1.20702911172e-19)
(-0.0456818082547 0.161545242434 7.53881098927e-18)
(-0.0445875596823 0.172352038094 5.24962217399e-18)
(-0.00416440652179 0.152026875929 3.77807569699e-18)
(-0.0292468729262 0.00947795030034 6.04657224081e-22)
(-0.0343162246331 0.00538328258903 -3.83329662015e-22)
(-0.0283737748537 0.0191782423495 2.14763136299e-21)
(-0.0339451478437 0.0146175922664 1.18251229409e-21)
(-0.0268715617919 0.0291891894594 6.33755321239e-21)
(-0.0328701686087 0.0246262955047 1.98101062559e-21)
(-0.0247421466324 0.039964816804 9.94683071678e-21)
(-0.0312289745935 0.0354987080793 6.16428721593e-21)
(-0.0219282529781 0.051718627269 -4.09387312435e-20)
(-0.0288918098252 0.0470607533166 7.1371179205e-21)
(-0.018393100865 0.0665964784895 -2.28595140467e-19)
(-0.0253655075822 0.0602203177881 -5.2027022552e-20)
(-0.0141690982969 0.0895374444807 -6.46831990502e-19)
(-0.0196876846978 0.0783713119947 -2.36207326874e-19)
(-0.0150763339891 0.120719859375 -1.91219264433e-18)
(-0.0155649627656 0.103878223613 -6.65706644809e-19)
(-0.0151011784795 0.135635275682 -1.0252580841e-18)
(-0.0221505283152 0.124884760393 -2.09227461841e-18)
(-0.0122190557599 0.152484639474 7.56926749578e-19)
(-0.0235097287673 0.142827144053 -4.44760634732e-19)
(-0.0159020692814 0.168226308484 -1.15418650836e-18)
(-0.0287520675637 0.162566363644 -3.05964629847e-19)
(-0.0342712747133 0.167161162338 -1.7009786592e-18)
(-0.0365748105562 0.175262721683 -2.51773251801e-18)
(-0.0175053471534 0.16772520961 1.48888688172e-18)
(-0.0445975250592 0.173653679633 -4.97557259936e-19)
(0.00672053819641 0.171803338792 1.9804908674e-18)
(-0.0391834493529 0.00995782472899 1.94525407995e-22)
(-0.0443050808378 0.00556929974492 -6.1164317926e-22)
(-0.038640241628 0.0202079465257 1.01589155669e-21)
(-0.0442144353948 0.0152081025907 7.71093108305e-22)
(-0.0376148518282 0.0309229427472 1.80774462913e-21)
(-0.0435844315154 0.0256595913722 6.94393891621e-22)
(-0.0361371637997 0.0425327458216 3.35457441966e-21)
(-0.0428058066782 0.0370813181763 1.40211766323e-21)
(-0.0339622525948 0.0554347139146 -3.95117338808e-21)
(-0.0417140096535 0.0493389903 2.42937425173e-21)
(-0.030922051656 0.0705161669149 -5.96392089598e-20)
(-0.0403001890394 0.0631047828077 -9.39176359612e-21)
(-0.0283458094768 0.0897064131655 -2.55081981181e-19)
(-0.0386507850774 0.0794658684181 -7.42031753918e-20)
(-0.0300355339809 0.112073373047 -8.45788618884e-19)
(-0.0376229282263 0.0994304084299 -2.63424770723e-19)
(-0.0336863569564 0.131029056195 -1.51177716904e-18)
(-0.0407285387588 0.119058778627 -7.90818199109e-19)
(-0.0377424007619 0.150637020193 -1.50765201416e-18)
(-0.0426971757193 0.13853534355 -1.0564701192e-18)
(-0.0443608893385 0.168790297036 -1.66951063949e-18)
(-0.0464731163782 0.159553127464 -8.32482903594e-19)
(-0.0446144977582 0.181326498599 -1.31431111874e-18)
(-0.0486607347112 0.178595124663 -1.30925401109e-18)
(-0.019827447827 0.180870808 -5.9532742474e-21)
(-0.0436788244345 0.186192878318 -4.37015959965e-19)
(-0.00612369943629 0.201109177288 2.29301851813e-19)
(-0.0494568687304 0.0102205696372 -3.50754789506e-23)
(-0.054530245914 0.00562846729267 -6.19339673408e-22)
(-0.0492989619851 0.0207516981638 4.49595443234e-22)
(-0.054737841734 0.0154329502743 7.68962315385e-22)
(-0.0489330261276 0.0317739539222 2.88766925724e-22)
(-0.0545795149405 0.026030594529 1.8757906538e-22)
(-0.0485250856544 0.0436585615054 4.76917495304e-22)
(-0.05463327654 0.0375904831149 1.88709506082e-22)
(-0.0480216279375 0.0567540530721 -3.01121595631e-21)
(-0.0547103617884 0.0499275603507 2.78073048491e-22)
(-0.047526553773 0.0715066399444 -2.39557300281e-20)
(-0.0548974252374 0.0636214048608 -4.36106211666e-21)
(-0.0475972945388 0.0884352303522 -8.25459649344e-20)
(-0.0553592752954 0.0791222562619 -2.65855836046e-20)
(-0.0492879848563 0.107748754917 -2.08454350949e-19)
(-0.0566523645501 0.0967119176233 -7.95351878173e-20)
(-0.0518243796024 0.126901460863 -3.35511149272e-19)
(-0.0595461610036 0.115212297146 -1.83552030309e-19)
(-0.0545758956714 0.146941323558 -3.81301008639e-19)
(-0.06237337916 0.134933526604 -2.39534831911e-19)
(-0.0573497169354 0.16656531451 -4.72226275195e-19)
(-0.0657332893457 0.156339786669 -2.51003146469e-19)
(-0.0554837671974 0.185688968533 -4.31958852317e-19)
(-0.0674170136558 0.178418956655 -3.69913778864e-19)
(-0.0378776760239 0.204077185119 -2.01760833904e-19)
(-0.0617003198539 0.199013032742 -2.23175779891e-19)
(-0.0398564909265 0.230006828991 -9.14075976227e-20)
(-0.0598486385466 0.0102393666487 1.84698120928e-22)
(-0.0647564246404 0.0055577590547 -4.25955717919e-22)
(-0.0600804469321 0.0207754360631 5.06945937531e-22)
(-0.0652501441716 0.015284198857 1.02766841552e-21)
(-0.0603522448015 0.031783602558 8.75216457374e-23)
(-0.0655478099324 0.0257594078852 1.9606504046e-22)
(-0.0609037388293 0.0435716222307 -1.01349407314e-23)
(-0.0663572301042 0.037138989404 1.76359323909e-22)
(-0.0617002817658 0.056432624115 -1.07177311185e-21)
(-0.0674738411887 0.0492101685601 -1.53645540662e-22)
(-0.0628927115228 0.0706716000368 -6.99091569308e-21)
(-0.06899582396 0.062482595474 -1.27469037355e-21)
(-0.0647697232781 0.0865961733436 -2.35748064874e-20)
(-0.0710948778296 0.0772291127447 -7.43536494018e-21)
(-0.0676328128507 0.104276323298 -5.46328671775e-20)
(-0.0740968276113 0.0935880957385 -2.14789079693e-20)
(-0.0711249576253 0.123104195459 -8.75757129476e-20)
(-0.0781024515076 0.111321523842 -4.51122731125e-20)
(-0.0748639617838 0.143493351072 -1.0923696974e-19)
(-0.0824734673664 0.130863096744 -6.13474403988e-20)
(-0.0781149643116 0.165394180619 -1.48690650138e-19)
(-0.0873512567388 0.152750069672 -6.95549525971e-20)
(-0.0781280936374 0.189684898207 -1.61130706437e-19)
(-0.091429946635 0.177158260082 -1.05315939311e-19)
(-0.0704650787583 0.219820821818 -1.12822543609e-19)
(-0.0915708240037 0.205320501151 -8.53929802839e-20)
(-0.0857939496703 0.244535457062 -5.06284283524e-20)
(-0.0701178784685 0.0100165135583 4.17014576675e-22)
(-0.0747502119104 0.00536530714867 -4.38977050789e-22)
(-0.070714191811 0.02031004003 7.16787518451e-22)
(-0.0755132581045 0.0147858889205 8.75402609894e-22)
(-0.0715680243961 0.0310333273721 2.84902718632e-22)
(-0.0762295531707 0.0249064336467 1.0169423868e-22)
(-0.0729733798785 0.0424545717331 3.28487239786e-23)
(-0.0777202876792 0.0358433933313 6.23462265129e-23)
(-0.0748753207148 0.0548338827348 -3.56562802359e-22)
(-0.0797717477576 0.0473919664358 -1.64831720039e-22)
(-0.0774041147985 0.0684273674477 -1.71913962064e-21)
(-0.0824782996705 0.0600080865423 -3.67844417481e-22)
(-0.0807733494936 0.0834692402977 -5.33946642206e-21)
(-0.0859927074662 0.0738917976018 -1.79303804535e-21)
(-0.0851107035924 0.100097103535 -1.19583139043e-20)
(-0.0905492218921 0.08921270383 -4.6127257984e-21)
(-0.0902292250531 0.118342135938 -1.88840005638e-20)
(-0.0961487388679 0.106116964889 -9.71699745672e-21)
(-0.0959812747995 0.138729256778 -2.16654232559e-20)
(-0.102652637354 0.125061309244 -1.26844221243e-20)
(-0.101956110769 0.161775563316 -2.61802417693e-20)
(-0.110198919293 0.146683839388 -1.2760943719e-20)
(-0.106902930764 0.188877202765 -2.95782131571e-20)
(-0.118344101716 0.171779418506 -1.74438777169e-20)
(-0.109671169778 0.223690613283 -2.31988650272e-20)
(-0.126217996803 0.202160545125 -1.58441429715e-20)
(-0.134128894644 0.242364755273 -1.03159009333e-20)
(-0.0800313278941 0.00957847564074 1.94109824301e-23)
(-0.0843026034556 0.005060107261 -7.56115965091e-22)
(-0.0809606294551 0.0194080656592 2.60309330123e-22)
(-0.0853120865749 0.0139692701426 3.52003488203e-22)
(-0.0823345074889 0.0296143054099 -1.20862253439e-22)
(-0.0863990522525 0.0235298311772 -2.71117823722e-22)
(-0.084498355924 0.0404327876383 -1.35334217504e-22)
(-0.0884929051413 0.0337966848139 -1.19706966556e-22)
(-0.0873847948035 0.0521150010102 -1.76113335161e-22)
(-0.0913947601084 0.044592139227 -1.36679153334e-22)
(-0.0911156029703 0.064861464026 -4.41742842188e-22)
(-0.0951481128545 0.0563249299408 -1.9373203991e-22)
(-0.0958766939788 0.078892543879 -1.06629742169e-21)
(-0.0999274052409 0.0691609229762 -4.69049652463e-22)
(-0.101794988324 0.0944081973737 -2.37140935078e-21)
(-0.105949805538 0.0833079363177 -9.01773742841e-22)
(-0.108890493609 0.111707366158 -3.51741901726e-21)
(-0.113319662683 0.0990217054692 -2.16198169322e-21)
(-0.117240003408 0.13132509698 -3.77994258742e-21)
(-0.122138859588 0.116730452142 -2.43080907186e-21)
(-0.126901044743 0.153948264347 -4.02457966653e-21)
(-0.132700771984 0.137003188797 -2.22408274474e-21)
(-0.137775096247 0.180919588142 -3.70980753126e-21)
(-0.145209241152 0.160660927514 -2.60591802719e-21)
(-0.150355447862 0.214776691294 -2.96117887756e-21)
(-0.1599952726 0.189097921988 -1.60871854061e-21)
(-0.178370455233 0.224771438213 -1.80323392579e-21)
(-0.0893948746067 0.00894825139229 -4.23523459318e-22)
(-0.093224799559 0.00466082167943 -8.34194232504e-22)
(-0.090606326829 0.0180935242942 -1.79423665642e-22)
(-0.0944290965294 0.0128786240265 2.30643473533e-22)
(-0.0924428740512 0.027558956003 -2.69962536839e-22)
(-0.0958344638279 0.0216826640493 -2.72934940892e-22)
(-0.0952813644192 0.0376067620383 -1.21051902386e-22)
(-0.0985077292582 0.0310782724355 -7.6519783641e-23)
(-0.0990375614241 0.0483596237214 -1.54297858084e-22)
(-0.102109401846 0.0409208978378 -1.4306437822e-22)
(-0.103849669104 0.0600388058481 -2.21038850185e-22)
(-0.106781395478 0.0515538851404 -9.18772242163e-23)
(-0.109899425922 0.0728568462608 -3.04525973615e-22)
(-0.112690323309 0.0631325174313 -1.70421842231e-22)
(-0.117357473054 0.0870215221112 -6.92346085279e-22)
(-0.120050534647 0.0758626215445 -1.38899048644e-22)
(-0.126391327297 0.102834366752 -1.07537174783e-21)
(-0.12906299621 0.0899961786231 -6.59269199708e-22)
(-0.137249112745 0.120736776846 -8.74949229186e-22)
(-0.13997243418 0.105890742073 -6.82827519579e-22)
(-0.150273996695 0.141265479277 -8.05421105397e-22)
(-0.153170224026 0.123989992017 -3.3567433577e-22)
(-0.166014386042 0.165272767506 -5.04829036539e-22)
(-0.169174086228 0.144903663098 -1.34419562275e-22)
(-0.185778041985 0.194325644772 -4.50773588839e-22)
(-0.189033060234 0.169403986614 8.76709957297e-22)
(-0.2148815491 0.198526684386 2.80070941877e-21)
(-0.0980127329278 0.00814602056654 -1.80027299653e-22)
(-0.101340289255 0.00418714840041 -4.4149178941e-22)
(-0.0994643787547 0.0164411138307 1.37132198283e-22)
(-0.102694190592 0.0115494958326 4.53592564607e-22)
(-0.101700893484 0.0250474731321 -7.9492187694e-23)
(-0.10441243203 0.0194237653406 5.00984854178e-23)
(-0.105111009062 0.0340720688635 -9.85322594753e-23)
(-0.107505758245 0.027785521085 -9.55689336539e-23)
(-0.109611423772 0.0437076322245 -8.06437443526e-23)
(-0.111719631121 0.0365002631578 -1.22745022466e-22)
(-0.115352318315 0.0541102105817 -4.12602162625e-23)
(-0.117158957223 0.0458470434719 -3.57300176963e-23)
(-0.122535328093 0.0654702032241 -4.79491725904e-24)
(-0.124024899416 0.0559607208204 -8.52191845469e-23)
(-0.131382191377 0.077998270925 -1.05822163072e-22)
(-0.132552704516 0.0670191736625 -4.6408317672e-23)
(-0.14215126766 0.0919510858998 -2.66724971457e-22)
(-0.14298850003 0.079233597009 -1.71585073029e-22)
(-0.155203367792 0.107693568461 -1.43552626163e-22)
(-0.155690057885 0.0928731457091 -1.55050509818e-22)
(-0.171021017262 0.125678803342 3.35327207352e-22)
(-0.171138374107 0.108270408315 -1.30289409133e-22)
(-0.190354822285 0.146480935301 1.24711943156e-21)
(-0.189975339361 0.125810067882 5.59727873888e-23)
(-0.214758287883 0.170689592482 4.12819296491e-21)
(-0.213265702839 0.145859637942 1.10204196859e-22)
(-0.242947866656 0.168622575904 3.99308917188e-21)
(-0.105714195304 0.00719796779535 1.92128074849e-22)
(-0.108500945893 0.00364691890158 -1.90776116228e-22)
(-0.107370280163 0.014533417205 3.66558851742e-22)
(-0.10999379121 0.0100165423781 5.22157622923e-22)
(-0.109926518363 0.0220643811625 3.40217394579e-23)
(-0.111911461391 0.0168274166637 7.02377955626e-23)
(-0.113799690724 0.0299392106303 -1.19781696645e-22)
(-0.115354217302 0.0240218814853 -9.5291265533e-23)
(-0.11891449446 0.0382844247866 -7.78312958097e-23)
(-0.120045159526 0.0314595608306 -1.5890850231e-22)
(-0.12542131058 0.047239301396 -7.96889859807e-23)
(-0.126101379605 0.0393683029055 -8.86027640035e-23)
(-0.133543601828 0.0569233873507 -1.2683258496e-22)
(-0.133703434647 0.0478438134307 -1.08367632203e-22)
(-0.14354322342 0.0675260991156 -1.1217122763e-22)
(-0.143152925132 0.057016939686 -6.09137926299e-23)
(-0.155741431114 0.0792502297908 -5.99106113914e-23)
(-0.154711504256 0.0670305563982 -1.12515629601e-22)
(-0.170568474641 0.0923216550022 -1.41787292789e-22)
(-0.168762048919 0.0780431013743 1.62552063662e-23)
(-0.188619910073 0.107037099276 -4.09643829097e-22)
(-0.185858617621 0.0902248749066 5.46465056476e-23)
(-0.210757270988 0.123690460359 -1.08094244731e-21)
(-0.20664819499 0.103708671234 -2.35552331351e-22)
(-0.23835324912 0.142341697092 -2.48995961657e-23)
(-0.231957022463 0.118498995137 -1.17373779859e-21)
(-0.263123653048 0.134331000193 1.09856512671e-21)
(-0.112389714273 0.00612297973322 1.39253431845e-22)
(-0.114195899908 0.0123462748892 2.25836566744e-22)
(-0.116985843461 0.0187133674446 -5.90752094283e-23)
(-0.121210907822 0.0253204906822 -1.34418071199e-22)
(-0.126785851911 0.0322585765941 -1.69679970504e-22)
(-0.133868147099 0.0396044018489 -1.17281410226e-22)
(-0.142687911163 0.0474724460199 -4.24488398734e-23)
(-0.153530726592 0.0559396769466 -6.12581946009e-23)
(-0.166748900099 0.0651264897847 -3.6349811843e-23)
(-0.163909349386 0.0538096051465 -1.4935417246e-22)
(-0.182787878654 0.0751464253473 2.12689004803e-22)
(-0.178791221739 0.0619920142412 -9.7980485308e-23)
(-0.20223010839 0.0860347516987 2.28738003393e-22)
(-0.196760962399 0.0707153808639 1.09403901497e-22)
(-0.225797310712 0.0976893521342 -3.28347682624e-22)
(-0.218326090639 0.0799016472594 -1.89021441298e-23)
(-0.254427116102 0.109839073267 -5.02730757111e-23)
(-0.244141888581 0.0892919664334 -2.45947736453e-22)
(-0.274996761317 0.0987191960001 1.43122885055e-21)
(-0.174871782664 0.0501823474811 -2.10984845925e-22)
(-0.191420806465 0.0570166879839 -2.01265588614e-22)
(-0.211218953012 0.0640422835129 -1.38236246026e-22)
(-0.234797231974 0.071003325958 6.34978020417e-23)
(-0.225304536756 0.0561980138051 -1.61588752831e-22)
(-0.262959903313 0.0777282379131 1.23555418981e-21)
(-0.250897640828 0.0610209328801 -1.05002728788e-22)
(-0.281648310641 0.0663513603918 2.15254989386e-21)
(-0.239594101796 0.0459310586866 -3.30089283661e-22)
(-0.266784548197 0.0482127973794 8.11992975263e-22)
(-0.281425019306 0.0361061327205 2.24597907563e-22)
)
;

boundaryField
{
    back
    {
        type            calculated;
        value           uniform (0 0 0);
    }
    sides
    {
        type            calculated;
        value           nonuniform List<vector> 0();
    }
    bottom
    {
        type            calculated;
        value           uniform (0 0 0);
    }
    front
    {
        type            calculated;
        value           uniform (0 0 0);
    }
    atmosphere
    {
        type            calculated;
        value           nonuniform List<vector> 0();
    }
    floatingObject
    {
        type            calculated;
        value           nonuniform List<vector> 4((0 2.28986017594e-14 -2.86232521992e-15) (0 2.28986017594e-14 -2.86232521992e-15) (0 0 0) (0 4.57972035188e-14 -2.86232521992e-15));
    }
    procBoundary8to3
    {
        type            processor;
        value           nonuniform List<vector> 8((-0.0157688888764 0.00469825637162 7.67401057068e-23) (-0.0150680799068 0.0125071938581 2.99960547508e-21) (-0.0133318899493 0.0206916374904 1.09127445492e-20) (-0.0100100584043 0.0285912791414 2.90549885918e-20) (-0.00560645139846 0.0358488199991 4.64925444567e-20) (0.00357827442798 0.043540091119 3.57249404778e-21) (0.0234144579889 0.0482012983216 -7.88531535732e-19) (0.0327960714698 0.0571934514855 -2.13958194027e-18));
    }
    procBoundary8to6
    {
        type            processor;
        value           nonuniform List<vector> 
16
(
(-0.0539754879822 0.121654453585 6.41856668572e-18)
(-0.0322307095905 0.0850948648271 2.60972140314e-18)
(-0.0041423598 0.134395848486 2.83519016116e-18)
(0.0358674814049 0.157342286031 2.95128960364e-18)
(0.0257724598191 0.19413190672 6.94236196924e-19)
(-0.00296384657128 0.238132911897 -3.85168943361e-20)
(-0.0539219583502 0.265982805355 -5.48890388664e-20)
(-0.111547894827 0.272155738093 -1.16071004969e-20)
(-0.167711634746 0.259068447629 -2.38331907662e-21)
(-0.213471441034 0.230829444418 -2.03104428162e-21)
(-0.24826328845 0.198716165978 1.18558455177e-20)
(-0.273832051171 0.162468186742 1.42525756892e-20)
(-0.288984306668 0.121670100362 4.1415087097e-21)
(-0.295637134575 0.084352471283 4.73004555434e-21)
(-0.298810713588 0.0479695517681 7.03882127813e-21)
(-0.299411390179 0.0207431916473 -1.91143366934e-21)
)
;
    }
    procBoundary8to7
    {
        type            processor;
        value           nonuniform List<vector> 
17
(
(-0.11458388798 0.00304888255439 -5.97070832104e-23)
(-0.116178345154 0.00833383327526 4.36474873672e-22)
(-0.118244527585 0.0139824896281 5.13723261396e-23)
(-0.121934769138 0.0199014995256 -6.33452317771e-23)
(-0.126966063835 0.0259558416862 -1.58754641736e-22)
(-0.133440468391 0.032312173251 -1.19480021087e-22)
(-0.141575700007 0.0390292565914 -9.23088753129e-23)
(-0.151629360097 0.0461734188235 -5.2497128038e-23)
(-0.16113098178 0.0436271077915 -1.40593105897e-22)
(-0.170479166534 0.0400690723164 -1.56284059269e-22)
(-0.185638421475 0.0454327500286 -2.07758880739e-22)
(-0.203795137598 0.0508620092456 -1.47244506444e-22)
(-0.216445783745 0.0425975703898 -1.70597013249e-22)
(-0.228653793611 0.0333205291954 -3.86688297632e-22)
(-0.253196778595 0.0345958589318 -7.11419601444e-22)
(-0.267314558236 0.0209071277202 -1.29881466914e-21)
(-0.281290218202 0.00544626948368 -1.81027540247e-21)
)
;
    }
}


// ************************************************************************* //
