/*--------------------------------*- C++ -*----------------------------------*\
| =========                 |                                                 |
| \\      /  F ield         | OpenFOAM: The Open Source CFD Toolbox           |
|  \\    /   O peration     | Version:  v2012                                 |
|   \\  /    A nd           | Website:  www.openfoam.com                      |
|    \\/     M anipulation  |                                                 |
\*---------------------------------------------------------------------------*/
FoamFile
{
    version     2.0;
    format      ascii;
    class       volScalarField;
    location    "3";
    object      k;
}
// * * * * * * * * * * * * * * * * * * * * * * * * * * * * * * * * * * * * * //

dimensions      [0 2 -2 0 0 0 0];


internalField   nonuniform List<scalar> 
164
(
0.00318677983968
0.00398582298595
0.00424279123981
0.00434220494461
0.00437603510816
0.00435816678372
0.00425842617428
0.0040164536416
0.00371612799272
0.00371713909786
0.00381865435966
0.00398543835849
0.00443093965679
0.0052088697194
0.00320372546877
0.004002108491
0.00425993447503
0.00436261517088
0.00440734620273
0.00442293810296
0.00441155334003
0.00436947407333
0.00434441951614
0.00438612926007
0.00444670957421
0.00450582531404
0.00467848572154
0.00519765942797
0.00322218818158
0.00402110282962
0.00427948526727
0.00438363439048
0.00443313043876
0.00446243040811
0.00448268188836
0.00449824819495
0.00451910503466
0.00456117163451
0.00460938161166
0.00465698144379
0.00476913495436
0.00512245234374
0.00324138954784
0.00404177505462
0.00430043190237
0.0044047045209
0.00445519574132
0.00448800421406
0.00451626341557
0.00454485401666
0.00457726514942
0.00461748812632
0.00466212693139
0.00471087184511
0.00479734828962
0.00505156852253
0.00326052247182
0.00406311014259
0.00432187985161
0.00442551960665
0.00447530181114
0.00450781230921
0.00453656867633
0.00456646422538
0.00459948239752
0.00463674668281
0.00467782086064
0.00472471055746
0.00479932725267
0.00500211575933
0.00327894044401
0.00408427050508
0.00434305739571
0.00444565923643
0.00449401532837
0.00452495380206
0.00455203824192
0.00458013975172
0.00461091246732
0.00464493152328
0.00468247299264
0.00472647474984
0.00479595814404
0.00497838074308
0.00329618045054
0.00410459511347
0.00436334653857
0.00446470306458
0.00451136027958
0.00454039525312
0.00456536508543
0.00459110594302
0.00461922299593
0.0046502434501
0.00468485799571
0.00472728421643
0.00479943295915
0.00499343411202
0.00331196602551
0.0041236394533
0.00438229686914
0.00448230915411
0.00452720128392
0.00455432005894
0.00457723542242
0.00460074068929
0.00462643119781
0.0046549305038
0.00468749237771
0.00473066627726
0.00481460981965
0.00505177793154
0.003326217161
0.00414111971587
0.00439965771948
0.00449830314934
0.00454143875389
0.00456673542587
0.00458776343499
0.00460927312706
0.00463286843794
0.00465931863751
0.00469060403885
0.00473646421495
0.00483898508654
0.00513913677927
0.00333876918241
0.00415682146146
0.00441526588602
0.00451256924953
0.00455402605502
0.00457762920698
0.00459695406862
0.00461668491684
0.0046384070537
0.00466289305546
0.00469210620288
0.00473554517258
0.00483480493567
0.00513273095905
0.00334965900099
0.00417068799242
0.00442904478022
0.00452507672392
0.00456495404628
0.00458700349469
0.00460480225818
0.00462295559619
0.00464299760454
0.00466565322701
0.00469262323447
0.0047318413179
0.00481823990895
0.00507802536665
0.00464665259497
0.0046677271795
0.00469302047862
0.00473018657794
0.00481201361925
0.00505618864964
0.00472997282166
0.00481382278481
0.00506403054769
0.00504317266626
)
;

boundaryField
{
    back
    {
        type            kqRWallFunction;
        value           nonuniform List<scalar> 
164
(
0.00318677983968
0.00398582298595
0.00424279123981
0.00434220494461
0.00437603510816
0.00435816678372
0.00425842617428
0.0040164536416
0.00371612799272
0.00371713909786
0.00381865435966
0.00398543835849
0.00443093965679
0.0052088697194
0.00320372546877
0.004002108491
0.00425993447503
0.00436261517088
0.00440734620273
0.00442293810296
0.00441155334003
0.00436947407333
0.00434441951614
0.00438612926007
0.00444670957421
0.00450582531404
0.00467848572154
0.00519765942797
0.00322218818158
0.00402110282962
0.00427948526727
0.00438363439048
0.00443313043876
0.00446243040811
0.00448268188836
0.00449824819495
0.00451910503466
0.00456117163451
0.00460938161166
0.00465698144379
0.00476913495436
0.00512245234374
0.00324138954784
0.00404177505462
0.00430043190237
0.0044047045209
0.00445519574132
0.00448800421406
0.00451626341557
0.00454485401666
0.00457726514942
0.00461748812632
0.00466212693139
0.00471087184511
0.00479734828962
0.00505156852253
0.00326052247182
0.00406311014259
0.00432187985161
0.00442551960665
0.00447530181114
0.00450781230921
0.00453656867633
0.00456646422538
0.00459948239752
0.00463674668281
0.00467782086064
0.00472471055746
0.00479932725267
0.00500211575933
0.00327894044401
0.00408427050508
0.00434305739571
0.00444565923643
0.00449401532837
0.00452495380206
0.00455203824192
0.00458013975172
0.00461091246732
0.00464493152328
0.00468247299264
0.00472647474984
0.00479595814404
0.00497838074308
0.00329618045054
0.00410459511347
0.00436334653857
0.00446470306458
0.00451136027958
0.00454039525312
0.00456536508543
0.00459110594302
0.00461922299593
0.0046502434501
0.00468485799571
0.00472728421643
0.00479943295915
0.00499343411202
0.00331196602551
0.0041236394533
0.00438229686914
0.00448230915411
0.00452720128392
0.00455432005894
0.00457723542242
0.00460074068929
0.00462643119781
0.0046549305038
0.00468749237771
0.00473066627726
0.00481460981965
0.00505177793154
0.003326217161
0.00414111971587
0.00439965771948
0.00449830314934
0.00454143875389
0.00456673542587
0.00458776343499
0.00460927312706
0.00463286843794
0.00465931863751
0.00469060403885
0.00473646421495
0.00483898508654
0.00513913677927
0.00333876918241
0.00415682146146
0.00441526588602
0.00451256924953
0.00455402605502
0.00457762920698
0.00459695406862
0.00461668491684
0.0046384070537
0.00466289305546
0.00469210620288
0.00473554517258
0.00483480493567
0.00513273095905
0.00334965900099
0.00417068799242
0.00442904478022
0.00452507672392
0.00456495404628
0.00458700349469
0.00460480225818
0.00462295559619
0.00464299760454
0.00466565322701
0.00469262323447
0.0047318413179
0.00481823990895
0.00507802536665
0.00464665259497
0.0046677271795
0.00469302047862
0.00473018657794
0.00481201361925
0.00505618864964
0.00472997282166
0.00481382278481
0.00506403054769
0.00504317266626
)
;
    }
    sides
    {
        type            kqRWallFunction;
        value           nonuniform List<scalar> 0();
    }
    bottom
    {
        type            kqRWallFunction;
        value           nonuniform List<scalar> 
11
(
0.00318677983968
0.00320372546877
0.00322218818158
0.00324138954784
0.00326052247182
0.00327894044401
0.00329618045054
0.00331196602551
0.003326217161
0.00333876918241
0.00334965900099
)
;
    }
    front
    {
        type            kqRWallFunction;
        value           nonuniform List<scalar> 
164
(
0.00318677983968
0.00398582298595
0.00424279123981
0.00434220494461
0.00437603510816
0.00435816678372
0.00425842617428
0.0040164536416
0.00371612799272
0.00371713909786
0.00381865435966
0.00398543835849
0.00443093965679
0.0052088697194
0.00320372546877
0.004002108491
0.00425993447503
0.00436261517088
0.00440734620273
0.00442293810296
0.00441155334003
0.00436947407333
0.00434441951614
0.00438612926007
0.00444670957421
0.00450582531404
0.00467848572154
0.00519765942797
0.00322218818158
0.00402110282962
0.00427948526727
0.00438363439048
0.00443313043876
0.00446243040811
0.00448268188836
0.00449824819495
0.00451910503466
0.00456117163451
0.00460938161166
0.00465698144379
0.00476913495436
0.00512245234374
0.00324138954784
0.00404177505462
0.00430043190237
0.0044047045209
0.00445519574132
0.00448800421406
0.00451626341557
0.00454485401666
0.00457726514942
0.00461748812632
0.00466212693139
0.00471087184511
0.00479734828962
0.00505156852253
0.00326052247182
0.00406311014259
0.00432187985161
0.00442551960665
0.00447530181114
0.00450781230921
0.00453656867633
0.00456646422538
0.00459948239752
0.00463674668281
0.00467782086064
0.00472471055746
0.00479932725267
0.00500211575933
0.00327894044401
0.00408427050508
0.00434305739571
0.00444565923643
0.00449401532837
0.00452495380206
0.00455203824192
0.00458013975172
0.00461091246732
0.00464493152328
0.00468247299264
0.00472647474984
0.00479595814404
0.00497838074308
0.00329618045054
0.00410459511347
0.00436334653857
0.00446470306458
0.00451136027958
0.00454039525312
0.00456536508543
0.00459110594302
0.00461922299593
0.0046502434501
0.00468485799571
0.00472728421643
0.00479943295915
0.00499343411202
0.00331196602551
0.0041236394533
0.00438229686914
0.00448230915411
0.00452720128392
0.00455432005894
0.00457723542242
0.00460074068929
0.00462643119781
0.0046549305038
0.00468749237771
0.00473066627726
0.00481460981965
0.00505177793154
0.003326217161
0.00414111971587
0.00439965771948
0.00449830314934
0.00454143875389
0.00456673542587
0.00458776343499
0.00460927312706
0.00463286843794
0.00465931863751
0.00469060403885
0.00473646421495
0.00483898508654
0.00513913677927
0.00333876918241
0.00415682146146
0.00441526588602
0.00451256924953
0.00455402605502
0.00457762920698
0.00459695406862
0.00461668491684
0.0046384070537
0.00466289305546
0.00469210620288
0.00473554517258
0.00483480493567
0.00513273095905
0.00334965900099
0.00417068799242
0.00442904478022
0.00452507672392
0.00456495404628
0.00458700349469
0.00460480225818
0.00462295559619
0.00464299760454
0.00466565322701
0.00469262323447
0.0047318413179
0.00481823990895
0.00507802536665
0.00464665259497
0.0046677271795
0.00469302047862
0.00473018657794
0.00481201361925
0.00505618864964
0.00472997282166
0.00481382278481
0.00506403054769
0.00504317266626
)
;
    }
    atmosphere
    {
        type            inletOutlet;
        inletValue      nonuniform List<scalar> 0();
        value           nonuniform List<scalar> 0();
    }
    floatingObject
    {
        type            kqRWallFunction;
        value           nonuniform List<scalar> 4(0.00371612799272 0.00371713909786 0.00381865435966 0.00398543835849);
    }
    procBoundary8to3
    {
        type            processor;
        value           nonuniform List<scalar> 8(0.00317225468185 0.00397236236348 0.00422840460109 0.00432369592394 0.00434672840317 0.00430314916981 0.00413575469832 0.00352708298379);
    }
    procBoundary8to6
    {
        type            processor;
        value           nonuniform List<scalar> 
16
(
0.00428339930371
0.00559961709242
0.00682764098317
0.00649164582576
0.00613603835639
0.00587442271377
0.00569388873896
0.00559903525758
0.00562415650354
0.00576347018716
0.00596226425646
0.00596167379076
0.00583732860388
0.00577398921686
0.00578011287891
0.00571469265504
)
;
    }
    procBoundary8to7
    {
        type            processor;
        value           nonuniform List<scalar> 
17
(
0.00335897991369
0.00418276051516
0.00444102465476
0.00453584594109
0.00457425992807
0.00459490212839
0.00461133640545
0.00462809028505
0.00462809028505
0.00464936955945
0.00466910553355
0.00469320031942
0.00469320031942
0.00472673180428
0.00480549314295
0.00480549314295
0.0049881441289
)
;
    }
}


// ************************************************************************* //
