/*--------------------------------*- C++ -*----------------------------------*\
| =========                 |                                                 |
| \\      /  F ield         | OpenFOAM: The Open Source CFD Toolbox           |
|  \\    /   O peration     | Version:  v2012                                 |
|   \\  /    A nd           | Website:  www.openfoam.com                      |
|    \\/     M anipulation  |                                                 |
\*---------------------------------------------------------------------------*/
FoamFile
{
    version     2.0;
    format      ascii;
    class       surfaceVectorField;
    location    "3";
    object      Uf;
}
// * * * * * * * * * * * * * * * * * * * * * * * * * * * * * * * * * * * * * //

dimensions      [0 1 -1 0 0 0 0];


internalField   nonuniform List<vector> 
300
(
(-0.00720378328805 0.00302633047295 2.53647812593e-21)
(-0.00848143724746 0.00150872836732 2.00644583895e-21)
(-0.00748418183015 0.0062342562238 8.33881522933e-21)
(-0.00904959045704 0.00487229144833 1.88618899924e-21)
(-0.00723667280696 0.00956171489452 4.28297603665e-20)
(-0.00913490847444 0.00837272753816 9.03152438903e-21)
(-0.0063888284752 0.0131176554303 2.05676206906e-19)
(-0.00867991258629 0.0120729380891 4.90953785675e-20)
(-0.00483702411236 0.0172441659117 9.05056559943e-19)
(-0.00783667707217 0.0161523636494 2.33427770488e-19)
(-0.000795023137841 0.022334112118 3.16361267734e-18)
(-0.00676270526927 0.0206083575593 1.01798957623e-18)
(0.00937631481274 0.0305288678155 8.46623360714e-18)
(-0.00309907100957 0.0259790903621 3.44056560627e-18)
(0.007139267314 0.0486847321921 1.65686713728e-17)
(0.00439367566524 0.0374143079617 8.55949268938e-18)
(-0.00686458108142 0.0571991852334 2.16674753556e-17)
(-0.00851379414887 0.050464688311 1.4631087724e-17)
(-0.0105160628223 0.0752595531702 1.72812936248e-17)
(-0.0180594202534 0.058802089621 1.53231514303e-17)
(-0.000423059746201 0.0952024177988 1.30517839868e-17)
(-0.0199416242188 0.0750418252561 9.20824765482e-18)
(-0.00972551488285 0.103819896818 1.16332858122e-17)
(-0.00861592435091 0.0859214503046 1.0701019731e-17)
(-0.0352677707384 0.0928543636854 7.36760237587e-18)
(-0.0209679075433 0.0933976564114 7.82221063275e-18)
(-0.0359559860675 0.0916343431808 4.77092687955e-18)
(-0.0104643001757 0.00333338242938 1.35615671226e-21)
(-0.0118152003582 0.00161562940498 2.1069978082e-21)
(-0.010898950307 0.00686843601239 2.57889815894e-21)
(-0.0125850795452 0.00520633469279 6.04415816604e-22)
(-0.0107725488313 0.0107033134049 1.529714259e-20)
(-0.0129702117507 0.00901321398051 2.6749817818e-21)
(-0.0100872859015 0.0148645530981 7.68469421496e-20)
(-0.0128415177544 0.0130756266801 1.67397966935e-20)
(-0.00902972325184 0.0192847689566 3.4636078678e-19)
(-0.0122571451746 0.0176037425278 8.14791786889e-20)
(-0.00762203619177 0.0238134233358 1.29494250517e-18)
(-0.0112914305078 0.0226261102648 3.59328495053e-19)
(-0.00587289155102 0.0306675945255 3.53382468851e-18)
(-0.00995305470968 0.0281757873728 1.28518283995e-18)
(-0.00915838925791 0.0436082659556 6.62190904053e-18)
(-0.00854649475996 0.0372483184616 3.22402328048e-18)
(-0.0183639316952 0.0506407286714 8.28676379861e-18)
(-0.0155454139439 0.0471545853582 5.31321788634e-18)
(-0.0260010771369 0.0569569379601 7.2501054603e-18)
(-0.0243744784834 0.0531602767929 5.5125970628e-18)
(-0.027116380345 0.065628630841 6.85748339902e-18)
(-0.0286119267769 0.0591884128011 4.2906568816e-18)
(-0.0236915916313 0.0834221567626 6.88994455152e-18)
(-0.0264078194626 0.0680101877009 5.35408106302e-18)
(-0.0285479689191 0.089486205378 5.22553513643e-18)
(-0.0270301187639 0.0823925373796 4.46552366061e-18)
(-0.0398232279805 0.0912067824553 3.0048065208e-18)
(-0.0139901254004 0.00349287414202 1.35525691254e-21)
(-0.0153085686199 0.00166684924592 2.38577583086e-21)
(-0.014692296438 0.0071893813666 7.00499439457e-22)
(-0.0162821336951 0.00535796112268 3.3037230845e-22)
(-0.0149846349662 0.0111903520751 4.11763588527e-21)
(-0.0169717045396 0.00926433219733 6.58419625477e-22)
(-0.014863025591 0.0155646015513 2.13720332329e-20)
(-0.0172162017934 0.0134251293063 4.54825006056e-21)
(-0.0144559076444 0.0204743429808 9.44468869618e-20)
(-0.0171671696877 0.0181038612752 2.20154207899e-20)
(-0.0139047746049 0.0261770911429 3.4956882984e-19)
(-0.0169942345412 0.0234723533192 9.40750905472e-20)
(-0.0134789419728 0.0333358926428 9.75381431925e-19)
(-0.0171116071189 0.0297054597126 3.32484296525e-19)
(-0.0159917678538 0.0428855133174 1.91533212629e-18)
(-0.0180955029429 0.0374151924366 8.53731835312e-19)
(-0.0222997312403 0.0500264082321 2.53905115052e-18)
(-0.0226853149275 0.0455899779025 1.4783809831e-18)
(-0.027998716168 0.0551651004532 2.5531484841e-18)
(-0.0295118343069 0.051924541158 1.63136676072e-18)
(-0.0294323307032 0.0610598517162 2.7872545456e-18)
(-0.0345051004275 0.056656402298 1.52264823355e-18)
(-0.0305030437661 0.0705154047751 2.9296601721e-18)
(-0.0358615464421 0.0628866641512 1.94194038498e-18)
(-0.0389546803851 0.0823400382681 2.24479504498e-18)
(-0.0388526463393 0.0745855983984 1.69370765923e-18)
(-0.0502960586232 0.0867126681469 1.06187554819e-18)
(-0.017618520289 0.00353464427934 1.36089122678e-21)
(-0.0188438208841 0.00166442405205 2.21728107131e-21)
(-0.0185704584607 0.00727364101726 2.8829249447e-22)
(-0.0200217813909 0.0053463124483 1.67079954703e-22)
(-0.0192060810972 0.0113059627896 1.08903380077e-21)
(-0.0210046342639 0.00922535695071 1.45827085144e-22)
(-0.0195334014664 0.015713037349 5.1916376176e-21)
(-0.0216237698721 0.0133381938882 1.17748341144e-21)
(-0.0197480713811 0.020656171727 2.16436243754e-20)
(-0.0221106105321 0.0179261836136 5.24975348378e-21)
(-0.0201537084788 0.0263701837389 7.69905572325e-20)
(-0.0227082850768 0.0230853768688 2.08720037341e-20)
(-0.0212224728243 0.0330547387049 2.10834699913e-19)
(-0.0237958539684 0.0289222982887 7.08569356061e-20)
(-0.0240850362494 0.0407144708535 4.16780692124e-19)
(-0.0257545220688 0.0355640467379 1.78690452617e-19)
(-0.0291727729466 0.0476491798738 5.706965933e-19)
(-0.0296188914748 0.0425637415382 3.12556919155e-19)
(-0.0348462198325 0.0532335110859 6.00866510174e-19)
(-0.0350946572821 0.0486873727187 3.59656792814e-19)
(-0.0391559628582 0.0590551371936 6.77334072935e-19)
(-0.0403249552757 0.0538071370032 3.45479607758e-19)
(-0.0429916559347 0.0674368112588 7.05987872107e-19)
(-0.0442411678597 0.0600597089349 4.38819672325e-19)
(-0.0504367023182 0.0781625337084 5.10788162436e-19)
(-0.0495759906635 0.0696239853209 3.72615394598e-19)
(-0.0595572341853 0.0797577640843 2.14734959596e-19)
(-0.0212319637374 0.00347559797731 1.02346979924e-21)
(-0.0223201133119 0.00161717596787 1.91626389143e-21)
(-0.0224202180072 0.00714678291421 2.46145453767e-23)
(-0.0236936888755 0.00518911197383 2.57978499436e-24)
(-0.0233686234481 0.0110788680124 2.34276695814e-22)
(-0.0249373821189 0.00892834793961 -4.46485864117e-23)
(-0.0241099387578 0.015338128563 1.23559927762e-21)
(-0.0258835577852 0.0128611096593 2.9392116524e-22)
(-0.0248950658431 0.0200239141487 4.47813284251e-21)
(-0.0267967102342 0.0171786551089 1.34454981079e-21)
(-0.0260256463947 0.0252650206419 1.47383821078e-20)
(-0.027949408233 0.0218967869404 4.18409305761e-21)
(-0.0278403740825 0.0311070586103 3.87126883101e-20)
(-0.029637531061 0.0270650157117 1.32264160592e-20)
(-0.0308414530131 0.0374578739346 7.44666796469e-20)
(-0.0321045411317 0.0327141272311 3.19622025681e-20)
(-0.0352744235999 0.0436383209622 1.01517118668e-19)
(-0.0357980938277 0.0386162353523 5.46639093549e-20)
(-0.0404802605719 0.0492712425607 1.04269890397e-19)
(-0.0407259350033 0.0441675064991 6.35864787923e-20)
(-0.0456101326963 0.0550057144184 1.06965207148e-19)
(-0.0460575071003 0.0493105204369 5.77912128512e-20)
(-0.0511760103089 0.0621662953545 1.05447194816e-19)
(-0.0513995176664 0.0551073941315 6.5090195953e-20)
(-0.0589864700592 0.0706978524858 7.65621917579e-20)
(-0.0581049565231 0.0625586475036 5.43848845905e-20)
(-0.0675709394766 0.0704809378871 3.15613691074e-20)
(-0.0247303449828 0.00332805529674 8.95373877185e-22)
(-0.0256489052561 0.00153668077423 1.98223201462e-21)
(-0.0261312736883 0.00683323856115 -6.6683346794e-23)
(-0.0271996194854 0.00491362507149 1.01897407877e-22)
(-0.0273454035877 0.0105586555005 1.49958830136e-23)
(-0.0286634744672 0.00842081071806 7.75681656577e-23)
(-0.0284155467856 0.0145393696073 4.02871698413e-22)
(-0.0298648008292 0.0120786388067 2.38681426171e-22)
(-0.0296191488274 0.0188246283971 1.05051002589e-21)
(-0.0310822725723 0.016025698863 5.73276272189e-22)
(-0.0312316702939 0.0234730519895 2.67212700901e-21)
(-0.0325978252832 0.0202299461292 9.62198429603e-22)
(-0.0334874575742 0.0284876123785 6.47593031722e-21)
(-0.0346516949385 0.0247168660208 2.41972608144e-21)
(-0.0366512699248 0.0337938469176 1.21594322762e-20)
(-0.0374099324901 0.0294861573954 5.32409701823e-21)
(-0.040895156079 0.0391184727891 1.67332694794e-20)
(-0.0411214182266 0.0343992789277 8.88134751985e-21)
(-0.045986787178 0.0442239754649 1.71078012461e-20)
(-0.0458297308927 0.03918032455 1.05910753252e-20)
(-0.0516218011168 0.0493994171052 1.59162016561e-20)
(-0.0512309653682 0.0438101012867 9.26966780938e-21)
(-0.0581509358688 0.0552761555531 1.40278857276e-20)
(-0.0572739422307 0.0487383810191 8.80306721508e-21)
(-0.066448466314 0.0618181090972 9.38406194e-21)
(-0.0646442160405 0.0543846586445 6.24398450495e-21)
(-0.0741479240876 0.0602871884277 1.67557204426e-21)
(-0.0280344450236 0.00311579591133 1.18875554531e-21)
(-0.0287654271722 0.00143555784177 1.95146220237e-21)
(-0.0296172031537 0.00638079923074 2.46148920329e-22)
(-0.030465342184 0.00455543937695 1.71101830663e-22)
(-0.031040617341 0.00982265246296 3.01253708815e-22)
(-0.0321059702333 0.0077660856191 2.00540711412e-22)
(-0.0323476028299 0.0134545486379 4.09085999946e-22)
(-0.0334971944418 0.011090840683 2.4648236708e-22)
(-0.0338258659815 0.0172795997337 4.84964675902e-22)
(-0.034907600579 0.0146221009445 4.0900805775e-22)
(-0.0357279999636 0.0213307691625 7.09797502034e-22)
(-0.0366489696037 0.0183016088772 4.17989299957e-22)
(-0.038237561287 0.0255943961651 1.26789278245e-21)
(-0.0389149178377 0.0221405525333 6.58455827839e-22)
(-0.0415253534023 0.030018460796 2.04601226191e-21)
(-0.0418331595051 0.0261210710078 1.04770812093e-21)
(-0.0457102775076 0.034453075846 2.73915336567e-21)
(-0.0455547510506 0.0301533327872 1.61881526441e-21)
(-0.0507460386705 0.0387777653033 2.75294188848e-21)
(-0.0501527462207 0.0341010205748 1.98100091472e-21)
(-0.0565769160216 0.0431091732295 2.15653336835e-21)
(-0.0555604339488 0.0379481663189 1.58859194531e-21)
(-0.0634539360981 0.0477028502139 1.01916599241e-21)
(-0.0618653435809 0.0418445849937 1.0876605807e-21)
(-0.0717880368425 0.052507065742 -1.46450539079e-21)
(-0.0694457773437 0.0459013638448 -2.35511298564e-22)
(-0.0786467774089 0.0498917804316 -5.10866160078e-21)
(-0.0310832049813 0.0028552992913 9.33808487724e-22)
(-0.0316213876646 0.00131058214185 1.11512628161e-21)
(-0.0328196398542 0.00584408866284 1.25493621747e-22)
(-0.0334547712508 0.00413647153742 -2.36804454585e-22)
(-0.0343941872632 0.00896949973299 1.45769369678e-22)
(-0.0352319477772 0.00701936170602 -1.05722502011e-22)
(-0.0358560156086 0.0121910221193 2.46404424883e-22)
(-0.0367191528391 0.00997979747158 6.33320366769e-23)
(-0.0375011937886 0.0155462365694 3.42032681805e-22)
(-0.0382630532243 0.0130740138762 3.00131214263e-22)
(-0.0395621619336 0.0190201573624 3.66647625762e-22)
(-0.0401228564919 0.0162375263725 2.92872936116e-22)
(-0.0421982483864 0.0225864035769 4.38271166315e-22)
(-0.0424807867913 0.0194641262902 3.07493415522e-22)
(-0.0455389559904 0.0262073106925 6.2051112343e-22)
(-0.045453294534 0.0227255214025 3.58454041398e-22)
(-0.0496822081745 0.0297970335871 8.60662813466e-22)
(-0.0491432947888 0.0259537700269 5.2520471444e-22)
(-0.0546706263449 0.0332724523415 8.16650971547e-22)
(-0.0536266257281 0.0290582978997 6.21794996093e-22)
(-0.06057622793 0.036659341214 5.19719157659e-22)
(-0.0589455397562 0.0319923859566 3.82359786502e-22)
(-0.0675971803674 0.0400216977063 -1.67016710275e-22)
(-0.0652255923187 0.0347505520869 -1.92022479125e-23)
(-0.0758417673451 0.0431976686159 -3.87966750855e-21)
(-0.072619289299 0.0372794135646 -1.07761811215e-21)
(-0.0810219856261 0.0393913578613 -8.14405887806e-21)
(-0.0338515133136 0.00256656491987 -5.54866606943e-23)
(-0.0341885138551 0.00116674214855 1.25688783084e-22)
(-0.0357024255508 0.00524312475252 -4.68020578343e-22)
(-0.0361318643327 0.00368194480703 -6.76235992114e-22)
(-0.0373770255721 0.00799186776566 -1.88159835012e-22)
(-0.037981167451 0.00622274158033 -4.15719102232e-22)
(-0.0389298581281 0.0108241803827 1.17058826057e-22)
(-0.0395518434749 0.00880151213287 -1.84070497491e-23)
(-0.0406577357772 0.0137064299509 2.50971468574e-22)
(-0.0411455260531 0.0114553419188 2.48887766003e-22)
(-0.042783747541 0.0166302064724 2.33718725877e-22)
(-0.043046633851 0.0141193502173 2.32018727328e-22)
(-0.0454471341597 0.0195598206677 2.27676290605e-22)
(-0.0454101112686 0.0167741413634 2.10397573573e-22)
(-0.048749460436 0.0224443041278 2.63147632408e-22)
(-0.048337142099 0.0193820127316 2.11684939286e-22)
(-0.0527711479867 0.0252158487925 2.86336897066e-22)
(-0.0519138411179 0.0218802203812 2.37543970816e-22)
(-0.057574768336 0.0277857903178 1.87503811048e-22)
(-0.0561952543657 0.0241887045534 1.99522198764e-22)
(-0.0632548325044 0.0300835396188 -1.56561619069e-22)
(-0.0612417612558 0.0262285278968 1.12189103599e-22)
(-0.0699569598967 0.0320232161211 -9.29803649784e-22)
(-0.0671634444203 0.0279209029435 -1.07473129552e-22)
(-0.0776524532731 0.0334654316538 -5.34200948166e-21)
(-0.0740593757646 0.0291390741465 -6.9234875638e-22)
(-0.0818145414592 0.0297844359333 -8.44093882728e-21)
(-0.0363198452229 0.0022638286833 -4.95060548336e-22)
(-0.036452781941 0.0010204493225 -1.80127973044e-22)
(-0.0382436625626 0.0045967740126 -6.23934516004e-22)
(-0.0384652371296 0.0032153472921 -7.37836963427e-22)
(-0.0399779890163 0.0069917268324 -2.4596631697e-22)
(-0.040376522923 0.00540554360502 -3.57102866066e-22)
(-0.0415690155141 0.00941451727627 1.13421890198e-22)
(-0.0419749831525 0.00760044084932 -4.68333933316e-24)
(-0.0433117490223 0.0118409702627 2.29935024758e-22)
(-0.0435722248994 0.00982747432069 2.46493710561e-22)
(-0.0454262181401 0.0142402664534 2.08697575025e-22)
(-0.0454460083595 0.0120179741586 2.09233805591e-22)
(-0.0480353684593 0.0165903472214 1.94406222254e-22)
(-0.0477600283681 0.0141456004827 1.75361976148e-22)
(-0.0512183854817 0.0188238226497 1.86081277695e-22)
(-0.0505701562179 0.0161673738281 1.62439767876e-22)
(-0.0550372579048 0.0208701108291 1.50729272514e-22)
(-0.0539593818636 0.0180213060493 1.61342135057e-22)
(-0.059546747537 0.0226580528903 1.24207491316e-22)
(-0.0579821710148 0.0196343219062 9.58580864363e-23)
(-0.0648091305964 0.0240841873921 1.61277593117e-22)
(-0.0626666692942 0.0209288326878 -2.31488183333e-24)
(-0.0709007743683 0.025037918665 1.29981763851e-22)
(-0.0681157079335 0.0218172732272 -1.51611207646e-22)
(-0.077820750825 0.0254628459442 -3.79127810201e-21)
(-0.0744825952682 0.0221825139319 -7.9705302076e-22)
(-0.0817391883035 0.0219887422327 -8.13617072576e-21)
(-0.0384606183861 0.00196177962795 -4.22904388136e-22)
(-0.0404303705241 0.00396148745448 -4.7100531349e-22)
(-0.0421931691683 0.00598954374365 -1.15819888429e-22)
(-0.0437807095232 0.0080126536555 1.28388481031e-22)
(-0.0454923528813 0.0100001680021 2.25792491395e-22)
(-0.047541973482 0.011927011541 1.75898206714e-22)
(-0.0500394070964 0.0137409064017 1.43395521769e-22)
(-0.0530475887161 0.015402206209 1.37700625238e-22)
(-0.0566152583984 0.0168359797208 1.06470948979e-22)
(-0.0553926661452 0.0144261632582 1.38198959285e-22)
(-0.060790148999 0.0179599856193 -3.06642867131e-23)
(-0.0591054307263 0.0154306886185 1.40394564688e-22)
(-0.0656318819891 0.0187075501964 -3.15203682596e-22)
(-0.0634133355672 0.0160733941155 2.73913586758e-23)
(-0.071233399448 0.0190094616853 -1.07864599226e-21)
(-0.0684165327164 0.016256221978 -3.20198234891e-22)
(-0.0776870112803 0.018738417892 -5.14194564452e-21)
(-0.0742102605391 0.0158471519115 -1.59333901345e-21)
(-0.0809308620097 0.0147998832901 -7.73406487816e-21)
(-0.0576133426621 0.0131040389434 1.72122574994e-22)
(-0.0614386039524 0.013638874939 1.98450210077e-22)
(-0.0658707170343 0.0137193594673 2.23968063806e-23)
(-0.0710035825622 0.0132285928667 -8.34891256086e-22)
(-0.0679250072175 0.0111002364726 -1.61935813003e-22)
(-0.0769457989427 0.0119666017522 -4.1854582471e-21)
(-0.0729473960529 0.00981814528911 -1.15993219437e-21)
(-0.0787874467771 0.00778108709395 -5.33980961417e-21)
(-0.0695589550468 0.00788913233392 -4.86976751292e-22)
(-0.0745322054109 0.00566108469284 -2.31428356145e-21)
(-0.0754903860334 0.0020973566409 -2.59418304875e-21)
)
;

boundaryField
{
    back
    {
        type            calculated;
        value           uniform (0 0 0);
    }
    sides
    {
        type            calculated;
        value           nonuniform List<vector> 0();
    }
    bottom
    {
        type            calculated;
        value           uniform (0 0 0);
    }
    front
    {
        type            calculated;
        value           uniform (0 0 0);
    }
    atmosphere
    {
        type            calculated;
        value           nonuniform List<vector> 0();
    }
    floatingObject
    {
        type            calculated;
        value           nonuniform List<vector> 4((0 -2.49800180541e-15 3.12250225676e-16) (0 -2.49800180541e-15 3.12250225676e-16) (0 0 0) (0 -4.99600361081e-15 3.12250225676e-16));
    }
    procBoundary8to3
    {
        type            processor;
        value           nonuniform List<vector> 8((-0.00545466512266 0.00137901444188 2.79497572704e-21) (-0.00584116978882 0.00451395321538 4.6285866566e-21) (-0.00580696470588 0.00768875151585 2.17598747408e-20) (-0.00512354714167 0.0108896472662 1.07096455092e-19) (-0.00370985758477 0.0140755891917 4.58582678648e-19) (-0.00167263932918 0.0167714835639 1.79821646097e-18) (0.00509552140051 0.020782093873 5.27793847222e-18) (0.0225491026871 0.0225870528532 1.1790701733e-17));
    }
    procBoundary8to6
    {
        type            processor;
        value           nonuniform List<vector> 
16
(
(-0.0319358827646 0.054162134402 7.86983486674e-18)
(-0.0420322475767 0.0671081654632 5.19993001306e-18)
(-0.0468525036758 0.0867803505298 3.95818862845e-18)
(-0.0441761182029 0.0933552153703 3.04891605423e-18)
(-0.0532725363174 0.0928149278705 1.20876782576e-18)
(-0.0621135048727 0.0874260428666 2.53402515577e-19)
(-0.0693901841504 0.078714103162 3.65655767563e-20)
(-0.076446745724 0.0683977421846 1.7996660163e-22)
(-0.0809854385948 0.0570085273467 -8.89291005406e-21)
(-0.0842306356297 0.0455752892541 -1.66048754791e-20)
(-0.0852757383803 0.0342600714644 -2.54527572231e-20)
(-0.0851294512367 0.0253891705166 -2.16490550519e-20)
(-0.0849029667758 0.0179313514084 -1.83433748514e-20)
(-0.0835440420762 0.00982410083684 -1.39221270459e-20)
(-0.0803936010908 0.00236460225622 -8.22615781238e-21)
(-0.0763742837475 -0.00253310065958 -2.02567234276e-21)
)
;
    }
    procBoundary8to7
    {
        type            processor;
        value           nonuniform List<vector> 
17
(
(-0.0384148782636 0.000876565092219 -2.4190192788e-22)
(-0.0404652622417 0.00274484773427 -5.52148735418e-22)
(-0.0424049004651 0.00458591785203 -2.15672879687e-22)
(-0.0439983999899 0.00641119260599 3.3681959614e-23)
(-0.0455599938259 0.00823286565491 2.22448519126e-22)
(-0.0473729930192 0.0099849611596 1.78737128614e-22)
(-0.0495738814143 0.0116353126939 1.36450849322e-22)
(-0.0522312120507 0.0131374251487 1.26559708426e-22)
(-0.0543241376051 0.012223056181 1.27058042473e-22)
(-0.0562733750848 0.0111222621524 7.26244166646e-23)
(-0.0596397930204 0.0115906871263 1.32422868165e-22)
(-0.0634932199984 0.0116284976676 1.22479785486e-22)
(-0.0652336465305 0.00917763105227 -6.18528338985e-23)
(-0.0666358385901 0.00670771366605 -2.20559956902e-22)
(-0.070718770165 0.00481096026429 -1.0442186495e-21)
(-0.0713404471772 0.00125857754323 -1.32411813681e-21)
(-0.0716981422788 -0.00154252401703 -1.9522760784e-21)
)
;
    }
}


// ************************************************************************* //
