/*--------------------------------*- C++ -*----------------------------------*\
| =========                 |                                                 |
| \\      /  F ield         | OpenFOAM: The Open Source CFD Toolbox           |
|  \\    /   O peration     | Version:  v2012                                 |
|   \\  /    A nd           | Website:  www.openfoam.com                      |
|    \\/     M anipulation  |                                                 |
\*---------------------------------------------------------------------------*/
FoamFile
{
    version     2.0;
    format      ascii;
    class       volScalarField;
    location    "5.4";
    object      epsilon_0;
}
// * * * * * * * * * * * * * * * * * * * * * * * * * * * * * * * * * * * * * //

dimensions      [0 2 -3 0 0 0 0];


internalField   nonuniform List<scalar> 
167
(
0.000587110036003
0.0005952469636
0.000599288737133
0.000602186000651
0.000605026111436
0.000608287826648
0.000612466859998
0.000618647009715
0.000513992603113
0.000564921296925
0.000584871784149
0.000593040080509
0.000597138342437
0.000600103725775
0.000603024052361
0.000606391827244
0.000610739977367
0.000617242260044
0.000628914422691
0.00051182189158
0.000562541109759
0.000582456957377
0.000590664912938
0.000594831232835
0.000597877523816
0.000600891947687
0.000604381777738
0.000608920294819
0.00061578015397
0.000628215989822
0.000509481877899
0.000559988872296
0.000579875914886
0.000588133716176
0.000592380491471
0.000595521581388
0.000598645795589
0.000602275729021
0.000607028994801
0.000614290607175
0.000487510887954
0.000506978744154
0.000557273309877
0.000577140555921
0.0005854600892
0.00058980095251
0.000593051646361
0.000596300896297
0.000600088129476
0.000605082380837
0.000612792500982
0.000484893601778
0.000504327409522
0.000554410649835
0.000574266037961
0.000582659982805
0.000587110071299
0.000590485891597
0.000593875257198
0.000597836763387
0.000603099668931
0.000611285546486
0.000482084458524
0.000501538319843
0.000551415315866
0.000571268747679
0.000579751262783
0.000584326693173
0.000587844011984
0.000591389577599
0.000595548645154
0.000601088192887
0.000479103184065
0.000498624763229
0.000548299146783
0.000568162583129
0.000576750377821
0.000581469201143
0.000585145447038
0.000588866332848
0.000593231367292
0.000475950896754
0.000495576294702
0.00054506211724
0.000564951910143
0.000573664130377
0.000578546204827
0.000582400594724
0.000586313411439
0.000590898155026
0.000472609673723
0.000492389811862
0.000541684267839
0.000561612305347
0.000570467666446
0.000575532577781
0.000579582805652
0.000583697725756
0.000588513178659
0.000594973928711
0.000469026323023
0.000488978555879
0.000538059180796
0.000558027944692
0.000567040882425
0.000572304247896
0.000576561302709
0.000580884443003
0.000585930815391
0.000592708259099
0.000465016889079
0.000485069843923
0.000533851066654
0.000553834607739
0.000563005114677
0.000568471518935
0.000572933783573
0.000577454124323
0.000582707720006
0.000589769283047
0.000460008706355
0.000479883235005
0.000528122930195
0.000548022553003
0.000557313695173
0.000562961924916
0.000567603375455
0.000572280704122
0.000577685326167
0.000584956134375
0.000452404812479
0.000471312874461
0.000518394383655
0.00053794170081
0.000547234844546
0.000552992539282
0.000557745543425
0.000562498038223
0.000567954132135
0.000575255028782
0.000437886710433
0.000453855896101
0.000498284990686
0.000516844548198
0.000525854916884
0.000531562102231
0.000536293581403
0.000540983251243
0.000546295914056
0.000404947440704
0.000413300539403
0.0004516070862
0.000467768889448
0.000475892749925
0.000481232407134
0.000485713203584
0.000490144573649
0.000495098238793
0.000359147517326
0.000403945550287
0.000435642717575
0.000449786899506
0.0004577835578
0.000463776832258
0.000469270586911
0.000474901836794
0.000481113674564
)
;

boundaryField
{
    back
    {
        lowReCorrection 0;
        blending        stepwise;
        n               2;
        type            epsilonWallFunction;
        value           nonuniform List<scalar> 
167
(
0.000587110036003
0.0005952469636
0.000599288737133
0.000602186000651
0.000605026111436
0.000608287826648
0.000612466859998
0.000618647009715
0.000513992603113
0.000564921296925
0.000584871784149
0.000593040080509
0.000597138342437
0.000600103725775
0.000603024052361
0.000606391827244
0.000610739977367
0.000617242260044
0.000628914422691
0.00051182189158
0.000562541109759
0.000582456957377
0.000590664912938
0.000594831232835
0.000597877523816
0.000600891947687
0.000604381777738
0.000608920294819
0.00061578015397
0.000628215989822
0.000509481877899
0.000559988872296
0.000579875914886
0.000588133716176
0.000592380491471
0.000595521581388
0.000598645795589
0.000602275729021
0.000607028994801
0.000614290607175
0.000487510887954
0.000506978744154
0.000557273309877
0.000577140555921
0.0005854600892
0.00058980095251
0.000593051646361
0.000596300896297
0.000600088129476
0.000605082380837
0.000612792500982
0.000484893601778
0.000504327409522
0.000554410649835
0.000574266037961
0.000582659982805
0.000587110071299
0.000590485891597
0.000593875257198
0.000597836763387
0.000603099668931
0.000611285546486
0.000482084458524
0.000501538319843
0.000551415315866
0.000571268747679
0.000579751262783
0.000584326693173
0.000587844011984
0.000591389577599
0.000595548645154
0.000601088192887
0.000479103184065
0.000498624763229
0.000548299146783
0.000568162583129
0.000576750377821
0.000581469201143
0.000585145447038
0.000588866332848
0.000593231367292
0.000475950896754
0.000495576294702
0.00054506211724
0.000564951910143
0.000573664130377
0.000578546204827
0.000582400594724
0.000586313411439
0.000590898155026
0.000472609673723
0.000492389811862
0.000541684267839
0.000561612305347
0.000570467666446
0.000575532577781
0.000579582805652
0.000583697725756
0.000588513178659
0.000594973928711
0.000469026323023
0.000488978555879
0.000538059180796
0.000558027944692
0.000567040882425
0.000572304247896
0.000576561302709
0.000580884443003
0.000585930815391
0.000592708259099
0.000465016889079
0.000485069843923
0.000533851066654
0.000553834607739
0.000563005114677
0.000568471518935
0.000572933783573
0.000577454124323
0.000582707720006
0.000589769283047
0.000460008706355
0.000479883235005
0.000528122930195
0.000548022553003
0.000557313695173
0.000562961924916
0.000567603375455
0.000572280704122
0.000577685326167
0.000584956134375
0.000452404812479
0.000471312874461
0.000518394383655
0.00053794170081
0.000547234844546
0.000552992539282
0.000557745543425
0.000562498038223
0.000567954132135
0.000575255028782
0.000437886710433
0.000453855896101
0.000498284990686
0.000516844548198
0.000525854916884
0.000531562102231
0.000536293581403
0.000540983251243
0.000546295914056
0.000404947440704
0.000413300539403
0.0004516070862
0.000467768889448
0.000475892749925
0.000481232407134
0.000485713203584
0.000490144573649
0.000495098238793
0.000359147517326
0.000403945550287
0.000435642717575
0.000449786899506
0.0004577835578
0.000463776832258
0.000469270586911
0.000474901836794
0.000481113674564
)
;
    }
    sides
    {
        lowReCorrection 0;
        blending        stepwise;
        n               2;
        type            epsilonWallFunction;
        value           nonuniform List<scalar> 9(0.000359147517326 0.000403945550287 0.000435642717575 0.000449786899506 0.0004577835578 0.000463776832258 0.000469270586911 0.000474901836794 0.000481113674564);
    }
    bottom
    {
        lowReCorrection 0;
        blending        stepwise;
        n               2;
        type            epsilonWallFunction;
        value           nonuniform List<scalar> 
13
(
0.000487510887954
0.000484893601778
0.000482084458524
0.000479103184065
0.000475950896754
0.000472609673723
0.000469026323023
0.000465016889079
0.000460008706355
0.000452404812479
0.000437886710433
0.000404947440704
0.000359147517326
)
;
    }
    front
    {
        lowReCorrection 0;
        blending        stepwise;
        n               2;
        type            epsilonWallFunction;
        value           nonuniform List<scalar> 
167
(
0.000587110036003
0.0005952469636
0.000599288737133
0.000602186000651
0.000605026111436
0.000608287826648
0.000612466859998
0.000618647009715
0.000513992603113
0.000564921296925
0.000584871784149
0.000593040080509
0.000597138342437
0.000600103725775
0.000603024052361
0.000606391827244
0.000610739977367
0.000617242260044
0.000628914422691
0.00051182189158
0.000562541109759
0.000582456957377
0.000590664912938
0.000594831232835
0.000597877523816
0.000600891947687
0.000604381777738
0.000608920294819
0.00061578015397
0.000628215989822
0.000509481877899
0.000559988872296
0.000579875914886
0.000588133716176
0.000592380491471
0.000595521581388
0.000598645795589
0.000602275729021
0.000607028994801
0.000614290607175
0.000487510887954
0.000506978744154
0.000557273309877
0.000577140555921
0.0005854600892
0.00058980095251
0.000593051646361
0.000596300896297
0.000600088129476
0.000605082380837
0.000612792500982
0.000484893601778
0.000504327409522
0.000554410649835
0.000574266037961
0.000582659982805
0.000587110071299
0.000590485891597
0.000593875257198
0.000597836763387
0.000603099668931
0.000611285546486
0.000482084458524
0.000501538319843
0.000551415315866
0.000571268747679
0.000579751262783
0.000584326693173
0.000587844011984
0.000591389577599
0.000595548645154
0.000601088192887
0.000479103184065
0.000498624763229
0.000548299146783
0.000568162583129
0.000576750377821
0.000581469201143
0.000585145447038
0.000588866332848
0.000593231367292
0.000475950896754
0.000495576294702
0.00054506211724
0.000564951910143
0.000573664130377
0.000578546204827
0.000582400594724
0.000586313411439
0.000590898155026
0.000472609673723
0.000492389811862
0.000541684267839
0.000561612305347
0.000570467666446
0.000575532577781
0.000579582805652
0.000583697725756
0.000588513178659
0.000594973928711
0.000469026323023
0.000488978555879
0.000538059180796
0.000558027944692
0.000567040882425
0.000572304247896
0.000576561302709
0.000580884443003
0.000585930815391
0.000592708259099
0.000465016889079
0.000485069843923
0.000533851066654
0.000553834607739
0.000563005114677
0.000568471518935
0.000572933783573
0.000577454124323
0.000582707720006
0.000589769283047
0.000460008706355
0.000479883235005
0.000528122930195
0.000548022553003
0.000557313695173
0.000562961924916
0.000567603375455
0.000572280704122
0.000577685326167
0.000584956134375
0.000452404812479
0.000471312874461
0.000518394383655
0.00053794170081
0.000547234844546
0.000552992539282
0.000557745543425
0.000562498038223
0.000567954132135
0.000575255028782
0.000437886710433
0.000453855896101
0.000498284990686
0.000516844548198
0.000525854916884
0.000531562102231
0.000536293581403
0.000540983251243
0.000546295914056
0.000404947440704
0.000413300539403
0.0004516070862
0.000467768889448
0.000475892749925
0.000481232407134
0.000485713203584
0.000490144573649
0.000495098238793
0.000359147517326
0.000403945550287
0.000435642717575
0.000449786899506
0.0004577835578
0.000463776832258
0.000469270586911
0.000474901836794
0.000481113674564
)
;
    }
    atmosphere
    {
        type            inletOutlet;
        inletValue      nonuniform List<scalar> 0();
        value           nonuniform List<scalar> 0();
    }
    floatingObject
    {
        lowReCorrection 0;
        blending        stepwise;
        n               2;
        type            epsilonWallFunction;
        value           nonuniform List<scalar> 0();
    }
    procBoundary10to9
    {
        type            processor;
        value           nonuniform List<scalar> 
15
(
0.000589162740993
0.00059727506969
0.000601270305803
0.000604111916135
0.000606884928208
0.000610056834504
0.000614084810888
0.000619980496798
0.00051599475032
0.000567123898814
0.000567123898814
0.000494141121437
0.00049213462276
0.000489924815919
0.000489924815919
)
;
    }
    procBoundary10to11
    {
        type            processor;
        value           nonuniform List<scalar> 
23
(
0.000629644475359
0.000629644475359
0.000654051118957
0.000655211289372
0.000627600573131
0.000627600573131
0.000627063381714
0.000626580696661
0.000609778902889
0.000609778902889
0.000599069186534
0.000599069186534
0.000597045634252
0.000597045634252
0.000605291563515
0.000603583771589
0.000601174793247
0.000596771192494
0.000587213846346
0.000553354223721
0.000553354223721
0.000501534800211
0.000488730130259
)
;
    }
}


// ************************************************************************* //
