/*--------------------------------*- C++ -*----------------------------------*\
| =========                 |                                                 |
| \\      /  F ield         | OpenFOAM: The Open Source CFD Toolbox           |
|  \\    /   O peration     | Version:  v2012                                 |
|   \\  /    A nd           | Website:  www.openfoam.com                      |
|    \\/     M anipulation  |                                                 |
\*---------------------------------------------------------------------------*/
FoamFile
{
    version     2.0;
    format      ascii;
    class       surfaceVectorField;
    location    "5.4";
    object      Uf_0;
}
// * * * * * * * * * * * * * * * * * * * * * * * * * * * * * * * * * * * * * //

dimensions      [0 1 -1 0 0 0 0];


internalField   nonuniform List<vector> 
304
(
(-0.0383336157463 -0.00505514732178 2.11871186822e-23)
(-0.0372533409929 -0.00466845822679 3.52851708541e-23)
(-0.0391832832615 -0.00640585280634 -3.13574860273e-24)
(-0.0380544165541 -0.00609305834858 -3.46272978351e-24)
(-0.0401363257214 -0.00778244646966 -1.60579899875e-24)
(-0.0389230828937 -0.00754371129633 -2.35089257148e-24)
(-0.0412454112705 -0.00918693821403 1.74601711657e-23)
(-0.039927407976 -0.00902405503364 -2.9598190266e-24)
(-0.042534163643 -0.0106189243956 5.11728088295e-23)
(-0.0411022281058 -0.0105390421412 -6.1030408303e-24)
(-0.0440130930357 -0.0121061397881 4.17431049495e-23)
(-0.0424542398525 -0.0120918035546 5.76063103267e-23)
(-0.0456929672941 -0.013630442873 -9.43424610095e-24)
(-0.0440155801363 -0.0137009092572 4.2473357106e-24)
(-0.0457584196691 -0.0153738446022 -5.71419879139e-23)
(-0.0352865186393 -0.00276353155825 7.68653546149e-23)
(-0.0341551500564 -0.00218602649652 1.24909874094e-22)
(-0.0361140932715 -0.00421608800594 5.40171072333e-23)
(-0.0349740920166 -0.00366563496495 9.93573063424e-23)
(-0.03691185522 -0.00570486376813 1.06353223884e-23)
(-0.0357647551981 -0.00522502853837 4.6538301626e-23)
(-0.0377311720417 -0.00722593539797 -2.67787375227e-24)
(-0.0365335043134 -0.00681420658801 1.29218370957e-24)
(-0.0386520288524 -0.00878041805111 -3.70491259934e-24)
(-0.0373687375708 -0.00843564068776 -2.37447340359e-24)
(-0.0397230196957 -0.0103701816049 -2.65230310226e-23)
(-0.0383377570458 -0.0100932421056 -6.99258128318e-24)
(-0.0409678715189 -0.0120047891378 3.30460666862e-25)
(-0.0394677191539 -0.0117940553347 -2.17943990992e-23)
(-0.0423996082237 -0.0136878627653 2.01105410878e-23)
(-0.0407712290462 -0.0135437378081 2.72489635119e-23)
(-0.0440220532298 -0.0154361728867 -4.34604061024e-23)
(-0.0422672782673 -0.0153580142036 -7.89316783502e-24)
(-0.045826702804 -0.0172508689792 -1.02220127444e-22)
(-0.0439436559864 -0.0172428746421 -7.53561354804e-23)
(-0.0457883579955 -0.0192091159144 -1.18706816382e-22)
(-0.0337804417236 -0.00307749626056 1.47401825821e-22)
(-0.032592703223 -0.00241469705099 2.33662050495e-22)
(-0.0345653078623 -0.00468316616114 9.18785007351e-23)
(-0.033368619445 -0.00404400801654 1.6154221442e-22)
(-0.0353249685024 -0.00633196593073 3.71951629472e-23)
(-0.0341161203617 -0.00575985710123 8.90819326129e-23)
(-0.0361091550635 -0.00801910682917 1.59558405825e-24)
(-0.034846501176 -0.00750766477081 2.11219528243e-23)
(-0.0369923643715 -0.00974229045609 -5.66214208744e-24)
(-0.035645667205 -0.00929258114147 2.52651492576e-24)
(-0.0380178624205 -0.0115083203236 -2.26394935983e-24)
(-0.0365718211059 -0.0111184525367 -4.21440611989e-24)
(-0.0392077578018 -0.0133288467179 5.12410374586e-24)
(-0.0376472727625 -0.0129956309322 9.62979734415e-25)
(-0.0405758295464 -0.0152059944496 -7.54745410871e-25)
(-0.038894146582 -0.0149307433897 1.00781335807e-23)
(-0.0421256823564 -0.0171587009293 -3.9788897213e-23)
(-0.0403145195771 -0.016935297748 -8.77453690992e-24)
(-0.0438499835779 -0.0191912694443 -9.1842824419e-23)
(-0.0419110695959 -0.019016959806 -4.66491228911e-23)
(-0.0321203492729 -0.00337393499735 2.47802439094e-22)
(-0.030880830589 -0.00263112822167 3.64717512764e-22)
(-0.0328611399368 -0.00513158207705 1.58745646298e-22)
(-0.0316111426592 -0.00440417146508 2.51022896912e-22)
(-0.0335800664454 -0.00693213561073 7.300872249e-23)
(-0.0323157099475 -0.00626881729403 1.28742008429e-22)
(-0.0343244579557 -0.00877531826041 2.20528836918e-23)
(-0.0330034340429 -0.00816775597351 3.71155326596e-23)
(-0.0351634585605 -0.0106617025096 3.97425089331e-24)
(-0.0337593780729 -0.0101075157976 8.80271164749e-24)
(-0.0361386258871 -0.0126000662349 -9.87477025644e-25)
(-0.034633533656 -0.0120937868126 -1.4975871634e-24)
(-0.0372706330178 -0.0145913927737 5.91700956922e-24)
(-0.0356560132654 -0.0141377918485 8.30274540587e-24)
(-0.0385681555188 -0.0166479457939 2.05834208162e-24)
(-0.0368376325612 -0.0162435620012 1.16774003547e-24)
(-0.0400372648698 -0.0187894282651 -1.5634762588e-23)
(-0.0381730351478 -0.0184253343895 -4.66943079311e-25)
(-0.0396942511399 -0.0206890246584 -3.123568212e-23)
(-0.0295951794412 -0.00180274184013 4.56922860412e-22)
(-0.0283265603927 -0.000956097281159 4.987761029e-22)
(-0.0303156297124 -0.00365092711738 3.67937970582e-22)
(-0.0290328126813 -0.00283571225464 4.57099940531e-22)
(-0.031008720931 -0.00555267104453 2.21019259043e-22)
(-0.0297095434488 -0.00474340984798 3.19757015999e-22)
(-0.0316838480141 -0.00750189686503 9.28488185987e-23)
(-0.0303666035706 -0.00674843574919 1.50327401547e-22)
(-0.0323840590808 -0.00949266026193 2.38653606153e-23)
(-0.0310127673708 -0.00878924377811 4.36710567234e-23)
(-0.0331737462379 -0.0115308144618 3.33087359078e-24)
(-0.0317213010736 -0.0108743522912 5.58775759865e-24)
(-0.034092256557 -0.0136241591893 7.79263526812e-24)
(-0.0325402537857 -0.0130115237335 2.82513192616e-24)
(-0.0351593200819 -0.0157850914165 3.55347587213e-24)
(-0.0334951373664 -0.0152110355099 1.14377313187e-23)
(-0.036385029447 -0.0180214366388 -1.35754512545e-24)
(-0.0346013232093 -0.0174776963706 1.0014683796e-23)
(-0.0377737716417 -0.0203225357892 -1.60678626113e-23)
(-0.0358718085097 -0.0198266306048 1.04933586156e-23)
(-0.0372994760342 -0.0222610240398 -5.40654329704e-23)
(-0.0277049597243 -0.00193137833911 4.98953183018e-22)
(-0.0263953282116 -0.00102550111539 5.06979783424e-22)
(-0.0283739788454 -0.00391288847172 4.08918985948e-22)
(-0.0270514405593 -0.00302658362645 4.85326085514e-22)
(-0.029016412297 -0.00594769074607 2.49065158502e-22)
(-0.0276748610145 -0.00505805599685 3.67119864395e-22)
(-0.0296449482179 -0.00803303346292 1.01149639672e-22)
(-0.0282813600909 -0.00719520761214 1.70358430181e-22)
(-0.0302974968882 -0.0101633410419 2.53934537067e-23)
(-0.0288825385699 -0.00936779893991 5.08743109865e-23)
(-0.0310334705948 -0.0123464888418 5.08201593403e-24)
(-0.0295382175511 -0.0115879393458 6.92000860418e-24)
(-0.0318901250101 -0.0145891130115 6.47022797679e-24)
(-0.0302976846508 -0.0138642982843 4.46114496369e-24)
(-0.0328870037233 -0.016896749515 1.78989392427e-23)
(-0.0311875539824 -0.0162074027609 5.64005972369e-25)
(-0.0340332660031 -0.0192808087017 2.1865587537e-23)
(-0.0322171181225 -0.0186233293393 3.44602388557e-23)
(-0.0353321865514 -0.0217650446469 -2.75042117435e-23)
(-0.0333876114944 -0.0211275810479 1.01485609129e-23)
(-0.0256868927388 -0.00204978045346 4.93352685919e-22)
(-0.024345667087 -0.00108906907297 5.45222795009e-22)
(-0.0263025078053 -0.00415772675892 4.43526963962e-22)
(-0.0249436081022 -0.00320196301295 5.74093633424e-22)
(-0.0268945394504 -0.0063169539841 2.88413136074e-22)
(-0.0255157333266 -0.00534854035706 4.36110843784e-22)
(-0.0274739126266 -0.00852510642654 1.20083101495e-22)
(-0.0260732894596 -0.00760682111675 2.21328202259e-22)
(-0.0280758042462 -0.0107836685276 3.24008658839e-23)
(-0.0266240416773 -0.00990008090407 7.11297404489e-23)
(-0.0287548958638 -0.0130962878246 6.29913763383e-24)
(-0.0272256517945 -0.0122433863041 1.5348077516e-23)
(-0.0295448714977 -0.015472227158 -1.44507704073e-24)
(-0.0279217954057 -0.0146460028233 6.40375100242e-24)
(-0.0304630485278 -0.0179275663671 1.71253055855e-23)
(-0.0287321442998 -0.0171186311427 1.1478918216e-24)
(-0.0315228784748 -0.0204745010008 2.27432122316e-23)
(-0.0296701781871 -0.0196704948959 2.251815401e-23)
(-0.023549772784 -0.0021608471664 6.25963742513e-22)
(-0.0221849188797 -0.0011450447765 6.85862305339e-22)
(-0.024110979355 -0.00438764568377 5.66677513246e-22)
(-0.0227169045693 -0.00336082169384 7.29368498752e-22)
(-0.0246539172738 -0.00665709347775 3.69025909969e-22)
(-0.0232463690341 -0.00561600555038 5.6259933131e-22)
(-0.0251825350521 -0.00897735160554 1.72374841212e-22)
(-0.0237530998208 -0.00798120546318 2.95653098911e-22)
(-0.0257317289753 -0.0113509716232 5.4076952081e-23)
(-0.0242504758224 -0.0103838229938 9.96907830117e-23)
(-0.0263507830775 -0.0137811461245 1.54526908846e-23)
(-0.0247955218296 -0.0128378298603 3.02867225586e-23)
(-0.0270690040626 -0.0162789363176 8.99671986476e-24)
(-0.0254240158155 -0.0153536007053 1.38910628253e-23)
(-0.0279031297737 -0.0188539304479 6.54074024618e-24)
(-0.026157090501 -0.0179424383603 1.12598349239e-23)
(-0.0270038183632 -0.0206162636629 6.16775499863e-24)
(-0.0213071314937 -0.00226386100191 7.89267061577e-22)
(-0.0199211412516 -0.00119662738258 8.02049036813e-22)
(-0.0218132186045 -0.00458230727977 7.25290316816e-22)
(-0.0203985389071 -0.00350328163614 8.07178415859e-22)
(-0.0223048523677 -0.00695751583654 4.89226520251e-22)
(-0.0208712317051 -0.00585909240995 6.63901851064e-22)
(-0.0227815321511 -0.00938438657866 2.2296904071e-22)
(-0.0213262871281 -0.00831750339961 3.62738984201e-22)
(-0.0232760357203 -0.0118634681197 7.59005534893e-23)
(-0.0217714388163 -0.0108168963561 1.36055948896e-22)
(-0.0238328877163 -0.0144022506061 2.87250944993e-23)
(-0.0222567731137 -0.0133696272784 4.66685671504e-23)
(-0.0244781812053 -0.0170072238106 1.61541778845e-23)
(-0.0228190244584 -0.0159862660099 1.99215943624e-23)
(-0.0252256291348 -0.0196934467435 1.08868496764e-23)
(-0.0234708597453 -0.0186783630535 1.2839297483e-23)
(-0.0242230956032 -0.0214569795891 6.85031871381e-24)
(-0.0189701028639 -0.00235595941006 8.19960391095e-22)
(-0.0175652532379 -0.00124707805458 7.40589619461e-22)
(-0.0194208966825 -0.00476613269251 7.45789950107e-22)
(-0.0179884346953 -0.00363084376409 8.17779874681e-22)
(-0.01985853373 -0.00723032654989 5.37414315013e-22)
(-0.0184070985648 -0.00607540311624 6.82964948604e-22)
(-0.0202825292605 -0.00974697656378 2.75825892386e-22)
(-0.0188096853461 -0.00861529955012 3.97665731759e-22)
(-0.0207206492235 -0.0123176846634 1.06823962557e-22)
(-0.0192007646409 -0.0111978259746 1.66145449733e-22)
(-0.0212130000857 -0.0149484333798 3.78650670135e-23)
(-0.0196260464769 -0.0138363081166 6.5294097348e-23)
(-0.021783026261 -0.0176500737636 1.66067139609e-23)
(-0.0201173778854 -0.0165404392022 2.31937838595e-23)
(-0.0224416579724 -0.0204334222197 8.80276652046e-24)
(-0.0206874631132 -0.0193219457583 1.99327740323e-23)
(-0.0231940334373 -0.0233102056924 -4.13786632139e-24)
(-0.0213463037434 -0.0221916906477 1.13119262961e-23)
(-0.0220846447184 -0.0251641176684 -7.85810742906e-24)
(-0.0165467812313 -0.00243887750257 7.38409103047e-22)
(-0.0151264367006 -0.00129621977385 5.90296882013e-22)
(-0.016943891884 -0.00493014522653 7.54954873178e-22)
(-0.0154972247389 -0.00374468698245 7.64051236642e-22)
(-0.0173287851387 -0.00747092040095 5.4321636535e-22)
(-0.0158663724148 -0.00626385911306 6.69956999199e-22)
(-0.0176993922289 -0.0100640474698 2.87985289105e-22)
(-0.0162165943656 -0.00887137180395 4.07696433704e-22)
(-0.0180795781479 -0.0127126109333 1.24615584523e-22)
(-0.0165522213764 -0.0115225934168 1.93219935984e-22)
(-0.0185053528158 -0.0154222662112 5.0622814194e-23)
(-0.0169163988794 -0.0142323825038 9.01785890844e-23)
(-0.0189977760162 -0.0182067028212 2.65198439308e-23)
(-0.0173329364496 -0.0170094677827 4.71586816293e-23)
(-0.0195679808529 -0.0210741747081 2.24419338078e-23)
(-0.0178199594918 -0.0198657652978 4.36047246035e-23)
(-0.0202196850633 -0.0240392419229 7.59168518838e-24)
(-0.0183812276495 -0.0228111837612 3.13284692994e-23)
(-0.0190173658925 -0.0258560212731 1.6499739487e-23)
(-0.0140463029502 -0.00251415353262 6.15939015608e-22)
(-0.0126123326871 -0.00134311437218 5.56748206552e-22)
(-0.0143942085199 -0.00507183834979 6.79053362663e-22)
(-0.0129395840319 -0.00384380960886 7.3193216455e-22)
(-0.0147292461459 -0.00767479532804 5.34437067553e-22)
(-0.0132634492559 -0.00642003779411 6.66727167262e-22)
(-0.0150463634166 -0.0103292878321 3.12931080583e-22)
(-0.0135621214042 -0.00907799567924 4.1772450461e-22)
(-0.0153671605471 -0.0130399329185 1.58782940545e-22)
(-0.013841579087 -0.0117815172762 2.24010523126e-22)
(-0.0157242231217 -0.0158162778663 8.67144565197e-23)
(-0.0141400426178 -0.0145465440731 1.31103416604e-22)
(-0.0161376448185 -0.01866655968 6.4243562302e-23)
(-0.0144826377698 -0.0173799988205 1.00599999808e-22)
(-0.0166188987207 -0.0216026576052 5.24912600951e-23)
(-0.0148838368014 -0.0202931122945 9.54987233773e-23)
(-0.0171692780297 -0.0246324133872 4.0236523598e-23)
(-0.0153514601925 -0.0232967369848 8.36037013129e-23)
(-0.0158772868211 -0.0264020641529 5.925133981e-23)
(-0.0114791121312 -0.00258072698037 6.72741355494e-22)
(-0.0100316405299 -0.00138394841735 6.90530686656e-22)
(-0.0117877795652 -0.00518576463023 7.19605969149e-22)
(-0.0103345728236 -0.00391761829293 8.20612965109e-22)
(-0.0120758005977 -0.00783166187973 5.50014604319e-22)
(-0.0106175661019 -0.00652702014717 6.99638216304e-22)
(-0.0123385548825 -0.0105308554314 3.28803947154e-22)
(-0.0108629262066 -0.00921504198135 4.31873847013e-22)
(-0.012598009019 -0.0132877405278 1.96330999186e-22)
(-0.0110846755531 -0.0119522063706 2.50798196481e-22)
(-0.0128844178119 -0.0161105154582 1.44988959893e-22)
(-0.0113172361436 -0.0147534808526 2.00819097301e-22)
(-0.0132178478463 -0.0190095398912 1.31855160883e-22)
(-0.0115835808781 -0.0176232087208 1.74309438647e-22)
(-0.0136075051392 -0.0219926654424 1.26611164595e-22)
(-0.0119006817088 -0.0205729943197 1.8838730366e-22)
(-0.0140517878059 -0.0250781574944 1.02618517525e-22)
(-0.0122658628602 -0.0236146288716 1.83138119303e-22)
(-0.0126783306357 -0.026758250413 1.26391226181e-22)
(-0.00886216148888 -0.00262686901336 8.38402296271e-22)
(-0.00740478746863 -0.00140073364222 8.89642080457e-22)
(-0.00914582463113 -0.00525292316326 8.00645212264e-22)
(-0.00770852349215 -0.00393557223542 9.01212343962e-22)
(-0.00938746225674 -0.00791737500766 5.81497458998e-22)
(-0.0079531047557 -0.00654820979724 7.40870755939e-22)
(-0.00959198223431 -0.0106376499918 3.5386809634e-22)
(-0.00814262525673 -0.00924594161064 4.63489976698e-22)
(-0.00978611742505 -0.0134219716278 2.55286294596e-22)
(-0.00830031173196 -0.0119972782691 3.19602471399e-22)
(-0.0100012948732 -0.0162693720023 2.30139576055e-22)
(-0.00846978405306 -0.0148141963405 2.91601067603e-22)
(-0.0102548879973 -0.0191933434048 2.30841581423e-22)
(-0.00865956363377 -0.0176977644916 2.96741089577e-22)
(-0.0105516273286 -0.0222054284415 2.44914258368e-22)
(-0.00888848245515 -0.0206560831646 3.07679454154e-22)
(-0.0108887604114 -0.0253161208438 2.0691082796e-22)
(-0.00915516132406 -0.0237037225354 3.13660125414e-22)
(-0.00623228954388 -0.00261551673744 9.52452128148e-22)
(-0.00478926366429 -0.00135764572534 8.30195731634e-22)
(-0.00649431244605 -0.00522753738905 8.41437887637e-22)
(-0.00509648467364 -0.00385791984527 8.46533064483e-22)
(-0.00668550772087 -0.00788555010822 6.22863273639e-22)
(-0.00529505907567 -0.0064514615528 6.82784281739e-22)
(-0.00682607618254 -0.0106082887606 4.29224351757e-22)
(-0.00541983683193 -0.00914658755188 4.73577635365e-22)
(-0.00695230652394 -0.0133940970828 3.55917244407e-22)
(-0.00551443974255 -0.0118966628954 3.95416619613e-22)
(-0.00709748905897 -0.0162499964474 3.58202581125e-22)
(-0.00561381637025 -0.0147088168164 4.05671712372e-22)
(-0.00727411014578 -0.0191735041112 3.73578962308e-22)
(-0.00573597981924 -0.0175815676479 4.46239691815e-22)
(-0.00747849116576 -0.0221709035386 3.764253212e-22)
(-0.0058910169245 -0.0205218600232 4.53368889746e-22)
(-0.00605698526988 -0.0235470197371 4.77949256042e-22)
(-0.00367279859312 -0.00249940934177 7.24276667969e-22)
(-0.00228982987007 -0.00121449712728 5.05465020539e-22)
(-0.00390440863252 -0.00508192967459 6.87879458585e-22)
(-0.00251392954024 -0.00365744448816 6.18086761391e-22)
(-0.00404018353352 -0.00772740644628 5.33498643465e-22)
(-0.00264953244591 -0.00623891855487 5.0975453381e-22)
(-0.00411919454941 -0.0104392506617 4.39769903221e-22)
(-0.00270792805797 -0.00892890048476 4.23779823379e-22)
(-0.0041850246401 -0.0132150371482 4.45171087578e-22)
(-0.00273857740063 -0.0116641791447 4.34115448009e-22)
(-0.00426592807576 -0.0160518258661 4.93708823062e-22)
(-0.00277695288812 -0.0144442069279 4.99917803862e-22)
(-0.00436715927506 -0.0189450708781 5.26029619253e-22)
(-0.00284266037032 -0.0172764511256 5.31285116626e-22)
(-0.00448060168874 -0.0219176263798 5.54892824587e-22)
(-0.00291835200054 -0.0201768574635 6.30391184307e-22)
(-0.00299392543696 -0.0231558248924 6.81493731316e-22)
(-0.00121518696061 -0.00228981291328 3.9927511396e-22)
(-0.001374910194 -0.00480371876195 4.39961836615e-22)
(-0.00144553066958 -0.00745322042516 4.00035713724e-22)
(-0.00146611055184 -0.0101611109653 4.18125368167e-22)
(-0.00147722761432 -0.0128996482353 4.88862164292e-22)
(-0.00149767953565 -0.0156765674098 5.37494097425e-22)
(-0.00152853925298 -0.0185191635325 6.3564668168e-22)
(-0.00156892562588 -0.0214375055525 7.56992091036e-22)
)
;

boundaryField
{
    back
    {
        type            calculated;
        value           uniform (0 0 0);
    }
    sides
    {
        type            calculated;
        value           uniform (0 0 0);
    }
    bottom
    {
        type            calculated;
        value           uniform (0 0 0);
    }
    front
    {
        type            calculated;
        value           uniform (0 0 0);
    }
    atmosphere
    {
        type            calculated;
        value           nonuniform List<vector> 0();
    }
    floatingObject
    {
        type            calculated;
        value           nonuniform List<vector> 0();
    }
    procBoundary10to9
    {
        type            processor;
        value           nonuniform List<vector> 
15
(
(-0.0385768239232 -0.0040930198629 4.84801652194e-23)
(-0.0394048315707 -0.00534627750029 7.0458857319e-24)
(-0.0402994072185 -0.00661953598624 -2.5935297311e-24)
(-0.0413316813322 -0.00791555166417 2.9057151771e-24)
(-0.0425340132556 -0.00923936969502 2.10732556058e-23)
(-0.0439413393351 -0.0105925101075 6.02209139575e-23)
(-0.0455397262049 -0.0119863412046 1.93363870321e-23)
(-0.0473554533676 -0.0134310340413 -2.55516212056e-23)
(-0.0355582548554 -0.00194709258925 7.24943599744e-23)
(-0.0375017958409 -0.00373117249538 6.18898833205e-23)
(-0.0364262792391 -0.00327102145479 8.06218196997e-23)
(-0.0344254822042 -0.00135986150556 6.22479456633e-23)
(-0.0329649527618 -0.00151463019058 1.45559350995e-22)
(-0.0313513063976 -0.00166173551224 3.08916288415e-22)
(-0.0301289933209 -0.000884615334736 4.01121636063e-22)
)
;
    }
    procBoundary10to11
    {
        type            processor;
        value           nonuniform List<vector> 
23
(
(-0.0475724902302 -0.0152272874492 -7.53740140135e-23)
(-0.0477022025063 -0.0171212125977 -1.20452153543e-22)
(-0.0477821253481 -0.0191645133124 -2.7896529706e-22)
(-0.0457181129204 -0.0213036644701 -2.65253044636e-22)
(-0.0436758092693 -0.0211834930597 -9.11795565667e-23)
(-0.0416738154443 -0.02100612866 -4.59858550388e-23)
(-0.0393191421669 -0.0227173051064 -1.04579039616e-22)
(-0.0367839780432 -0.0243529309981 -2.01891916657e-22)
(-0.0347114590054 -0.0237316309406 -9.8552914408e-23)
(-0.0327258868697 -0.0231002262187 -6.09001417516e-23)
(-0.0307617574441 -0.0223197087623 -1.75244488624e-23)
(-0.0288683172744 -0.02152024951 -1.7749507084e-23)
(-0.0260839987788 -0.0224740327809 -2.96321805202e-24)
(-0.0250822085031 -0.024343055346 -1.39514030872e-23)
(-0.0240457918244 -0.0263076515869 -4.3826475511e-23)
(-0.020951970703 -0.0271065138113 -3.37449670134e-23)
(-0.0177817638134 -0.0277724700265 8.59538545866e-24)
(-0.0145403097269 -0.0282771534591 6.29420257975e-23)
(-0.0112481775855 -0.0285428238747 1.71170492945e-22)
(-0.00945155051521 -0.0268571079349 2.74340565152e-22)
(-0.00770385095239 -0.0252689781926 3.81089862607e-22)
(-0.00459803397958 -0.0249806652377 5.59814720812e-22)
(-0.00161683713194 -0.0244313959995 7.14298016273e-22)
)
;
    }
}


// ************************************************************************* //
