/*--------------------------------*- C++ -*----------------------------------*\
| =========                 |                                                 |
| \\      /  F ield         | OpenFOAM: The Open Source CFD Toolbox           |
|  \\    /   O peration     | Version:  v2012                                 |
|   \\  /    A nd           | Website:  www.openfoam.com                      |
|    \\/     M anipulation  |                                                 |
\*---------------------------------------------------------------------------*/
FoamFile
{
    version     2.0;
    format      ascii;
    class       volScalarField;
    location    "1.5";
    object      p;
}
// * * * * * * * * * * * * * * * * * * * * * * * * * * * * * * * * * * * * * //

dimensions      [1 -1 -2 0 0 0 0];


internalField   nonuniform List<scalar> 
164
(
2879.88685873
2402.57150774
1925.39080467
1451.32709018
978.605741196
503.62216233
84.4634288926
-60.4276477795
2887.62703238
2406.32413611
1928.89846055
1453.703006
973.098714185
496.021312795
-136.737792532
-207.213652757
2887.62752385
2406.32462358
1928.89895284
1453.70337075
973.098870044
496.021410318
-136.737252872
-207.215656061
2879.88833198
2402.57293622
1925.39213369
1451.32808169
978.606090708
503.621753717
84.4623721515
-60.4287647532
1918.54813662
1445.50797594
979.068156143
520.906542698
145.115176736
-46.1491236883
1909.55885874
1431.2177368
949.127378051
471.214025931
-120.064966576
-117.606335336
1901.0669674
1422.02044427
941.987825114
458.442134356
73.5790197238
-33.2445582987
1892.38285332
1412.99575045
932.728264221
448.851472873
95.2157855308
-17.3874476358
1883.37596296
1404.01011198
924.78936946
446.413662934
98.9828998783
-13.1254454033
1873.80911356
1394.0655707
914.880573662
438.449972115
96.9169523179
-12.4938827647
1863.70889764
1383.69282733
902.461127936
422.612908329
83.6375769843
-14.2425007307
1853.05754681
1373.30073665
891.726476558
424.826706267
79.3790199685
-21.1505700444
1841.36157682
1360.62575448
876.101682257
417.616939189
-81.9874601717
-65.2815505337
1828.90585591
1346.26426538
860.532936538
381.634633172
43.380442378
-23.1173954603
1816.32020913
1333.47053362
843.748711767
350.507839211
40.6611914386
-17.0276064461
1804.13255933
1325.19084569
832.31849855
360.499688454
43.6255912502
-18.7130990479
1791.54190187
1316.4080385
823.802798947
374.216194502
-56.058613486
-48.3063544937
1778.35115997
1302.40121537
806.607720445
340.479498691
29.839426221
-17.6827973401
1766.20716751
1283.17056753
794.439359741
317.747919004
32.3081156011
-12.1986855292
1752.42188629
1266.33329335
777.727499943
303.189400353
31.1132874017
-10.572680679
1738.91559089
1251.75740803
762.442397228
291.557344323
28.2306308403
-9.96844404273
1726.13163813
1238.98649047
750.138451849
283.941954532
26.450545497
-9.77359368923
1713.95435861
1227.56755743
740.275068542
279.436056734
25.9411306685
-9.72474659061
1701.98518927
1216.7208684
731.579232398
276.36180371
26.2116559344
-9.71358171583
722.498650193
272.370859723
25.892472501
-9.70361676228
711.743771313
266.430287829
24.5651147107
-9.69196191213
698.661585622
258.113763116
22.1850582579
-9.67601826674
)
;

boundaryField
{
    back
    {
        type            calculated;
        value           nonuniform List<scalar> 
164
(
2879.88685873
2402.57150774
1925.39080467
1451.32709018
978.605741196
503.62216233
84.4634288926
-60.4276477795
2887.62703238
2406.32413611
1928.89846055
1453.703006
973.098714185
496.021312795
-136.737792532
-207.213652757
2887.62752385
2406.32462358
1928.89895284
1453.70337075
973.098870044
496.021410318
-136.737252872
-207.215656061
2879.88833198
2402.57293622
1925.39213369
1451.32808169
978.606090708
503.621753717
84.4623721515
-60.4287647532
1918.54813662
1445.50797594
979.068156143
520.906542698
145.115176736
-46.1491236883
1909.55885874
1431.2177368
949.127378051
471.214025931
-120.064966576
-117.606335336
1901.0669674
1422.02044427
941.987825114
458.442134356
73.5790197238
-33.2445582987
1892.38285332
1412.99575045
932.728264221
448.851472873
95.2157855308
-17.3874476358
1883.37596296
1404.01011198
924.78936946
446.413662934
98.9828998783
-13.1254454033
1873.80911356
1394.0655707
914.880573662
438.449972115
96.9169523179
-12.4938827647
1863.70889764
1383.69282733
902.461127936
422.612908329
83.6375769843
-14.2425007307
1853.05754681
1373.30073665
891.726476558
424.826706267
79.3790199685
-21.1505700444
1841.36157682
1360.62575448
876.101682257
417.616939189
-81.9874601717
-65.2815505337
1828.90585591
1346.26426538
860.532936538
381.634633172
43.380442378
-23.1173954603
1816.32020913
1333.47053362
843.748711767
350.507839211
40.6611914386
-17.0276064461
1804.13255933
1325.19084569
832.31849855
360.499688454
43.6255912502
-18.7130990479
1791.54190187
1316.4080385
823.802798947
374.216194502
-56.058613486
-48.3063544937
1778.35115997
1302.40121537
806.607720445
340.479498691
29.839426221
-17.6827973401
1766.20716751
1283.17056753
794.439359741
317.747919004
32.3081156011
-12.1986855292
1752.42188629
1266.33329335
777.727499943
303.189400353
31.1132874017
-10.572680679
1738.91559089
1251.75740803
762.442397228
291.557344323
28.2306308403
-9.96844404273
1726.13163813
1238.98649047
750.138451849
283.941954532
26.450545497
-9.77359368923
1713.95435861
1227.56755743
740.275068542
279.436056734
25.9411306685
-9.72474659061
1701.98518927
1216.7208684
731.579232398
276.36180371
26.2116559344
-9.71358171583
722.498650193
272.370859723
25.892472501
-9.70361676228
711.743771313
266.430287829
24.5651147107
-9.69196191213
698.661585622
258.113763116
22.1850582579
-9.67601826674
)
;
    }
    sides
    {
        type            calculated;
        value           nonuniform List<scalar> 0();
    }
    bottom
    {
        type            calculated;
        value           nonuniform List<scalar> 0();
    }
    front
    {
        type            calculated;
        value           nonuniform List<scalar> 
164
(
2879.88685873
2402.57150774
1925.39080467
1451.32709018
978.605741196
503.62216233
84.4634288926
-60.4276477795
2887.62703238
2406.32413611
1928.89846055
1453.703006
973.098714185
496.021312795
-136.737792532
-207.213652757
2887.62752385
2406.32462358
1928.89895284
1453.70337075
973.098870044
496.021410318
-136.737252872
-207.215656061
2879.88833198
2402.57293622
1925.39213369
1451.32808169
978.606090708
503.621753717
84.4623721515
-60.4287647532
1918.54813662
1445.50797594
979.068156143
520.906542698
145.115176736
-46.1491236883
1909.55885874
1431.2177368
949.127378051
471.214025931
-120.064966576
-117.606335336
1901.0669674
1422.02044427
941.987825114
458.442134356
73.5790197238
-33.2445582987
1892.38285332
1412.99575045
932.728264221
448.851472873
95.2157855308
-17.3874476358
1883.37596296
1404.01011198
924.78936946
446.413662934
98.9828998783
-13.1254454033
1873.80911356
1394.0655707
914.880573662
438.449972115
96.9169523178
-12.4938827647
1863.70889764
1383.69282733
902.461127936
422.612908329
83.6375769843
-14.2425007307
1853.05754681
1373.30073665
891.726476558
424.826706267
79.3790199685
-21.1505700444
1841.36157682
1360.62575448
876.101682257
417.616939189
-81.9874601717
-65.2815505337
1828.90585591
1346.26426538
860.532936538
381.634633172
43.380442378
-23.1173954603
1816.32020913
1333.47053362
843.748711767
350.507839211
40.6611914386
-17.0276064461
1804.13255933
1325.19084569
832.31849855
360.499688454
43.6255912502
-18.7130990479
1791.54190187
1316.4080385
823.802798947
374.216194502
-56.058613486
-48.3063544937
1778.35115997
1302.40121537
806.607720445
340.479498691
29.839426221
-17.6827973401
1766.20716751
1283.17056753
794.439359741
317.747919004
32.3081156011
-12.1986855292
1752.42188629
1266.33329335
777.727499943
303.189400353
31.1132874017
-10.572680679
1738.91559089
1251.75740803
762.442397228
291.557344323
28.2306308403
-9.96844404273
1726.13163813
1238.98649047
750.138451849
283.941954532
26.450545497
-9.77359368923
1713.95435861
1227.56755743
740.275068542
279.436056734
25.9411306685
-9.72474659061
1701.98518927
1216.7208684
731.579232398
276.36180371
26.2116559344
-9.71358171583
722.498650193
272.370859723
25.892472501
-9.70361676228
711.743771313
266.430287829
24.5651147107
-9.69196191213
698.661585622
258.113763116
22.1850582579
-9.67601826674
)
;
    }
    atmosphere
    {
        type            calculated;
        value           nonuniform List<scalar> 
27
(
-10.7705488686
-2405.11102262
-2405.13051837
-10.7705792515
-10.289517481
-1912.61093338
-10.0537201989
-9.93862335566
-9.85413061714
-9.84268690919
-9.88907754452
-9.88079559847
-1178.95428451
-10.006389083
-10.2248404129
-9.93768605658
-733.559928987
-9.95467603153
-9.89538603212
-9.83773368173
-9.82153412083
-9.81874719126
-9.81921816244
-9.8192145145
-9.81810976223
-9.81701514174
-9.81564605784
)
;
    }
    floatingObject
    {
        type            calculated;
        value           nonuniform List<scalar> 4(3124.69654292 3132.43675993 3132.4374131 3124.69824629);
    }
    procBoundary6to3
    {
        type            processor;
        value           nonuniform List<scalar> 8(2871.9623484 2394.78788073 1918.5467216 1445.50674906 979.067452439 520.906065314 145.116273302 -46.1467203601);
    }
    procBoundary6to7
    {
        type            processor;
        value           nonuniform List<scalar> 
11
(
2251.4012746
2238.24703308
2225.21463006
2212.4511872
2199.88907982
2187.29700092
1689.67960806
1205.53089295
1205.53089295
1193.28860927
1179.42964505
)
;
    }
    procBoundary6to8
    {
        type            processor;
        value           nonuniform List<scalar> 
16
(
2871.96369161
2394.78929033
2394.78929033
2387.20944472
2379.68354904
2371.60428612
2363.09387851
2354.06269864
2344.4583528
2334.24785963
2323.35211594
2311.96839387
2300.38055743
2288.85347907
2277.03965295
2264.47241636
)
;
    }
    procBoundary6to9
    {
        type            processor;
        value           nonuniform List<scalar> 4(682.970536035 247.116340565 18.8389810375 -9.65522663205);
    }
}


// ************************************************************************* //
