/*--------------------------------*- C++ -*----------------------------------*\
| =========                 |                                                 |
| \\      /  F ield         | OpenFOAM: The Open Source CFD Toolbox           |
|  \\    /   O peration     | Version:  v2012                                 |
|   \\  /    A nd           | Website:  www.openfoam.com                      |
|    \\/     M anipulation  |                                                 |
\*---------------------------------------------------------------------------*/
FoamFile
{
    version     2.0;
    format      ascii;
    class       surfaceScalarField;
    location    "2.6";
    object      phi;
}
// * * * * * * * * * * * * * * * * * * * * * * * * * * * * * * * * * * * * * //

dimensions      [0 3 -1 0 0 0 0];
oriented        oriented;


internalField   nonuniform List<scalar> 
300
(
6.69933907979e-06
8.69604268186e-05
1.32046928091e-05
7.99940228985e-05
1.96910657593e-05
7.40003696429e-05
2.6340259212e-05
7.17791887031e-05
3.33021209854e-05
7.13018726164e-05
4.06752821938e-05
7.1310844353e-05
4.85431109929e-05
7.13521391574e-05
5.70017790366e-05
7.12352454089e-05
6.61167506462e-05
7.09431274414e-05
7.59380805777e-05
7.02651921685e-05
8.65857537111e-05
6.91630328685e-05
9.80182975785e-05
6.75254779506e-05
0.000110451964757
6.51480387209e-05
0.000123870822723
6.25851232402e-05
0.0001385861191
6.01054653924e-05
0.000154491613813
5.60667912619e-05
0.00016942071313
4.24813808439e-05
0.000165957312838
-9.95126693673e-06
0.000199388282321
-0.000585762392339
-0.000415910257855
6.7698475471e-06
8.01907322531e-05
1.33145861306e-05
7.34497233192e-05
1.98352508669e-05
6.74803881446e-05
2.64855506698e-05
6.51296826917e-05
3.34105736794e-05
6.43774744953e-05
4.06958732731e-05
6.40255475805e-05
4.84323376171e-05
6.36144296977e-05
5.66390037366e-05
6.30253622165e-05
6.54073265857e-05
6.21689247627e-05
7.47785401782e-05
6.08849866583e-05
8.48212757075e-05
5.91082033332e-05
9.56240560085e-05
5.67081147084e-05
0.000107209377944
5.35468016214e-05
0.000119818858988
4.99596613031e-05
0.00013319913415
4.67109231786e-05
0.000147572782014
4.16827497897e-05
0.000158145518249
3.19042156129e-05
0.00014174819684
6.4452041273e-06
0.000117079403836
-0.000561095759716
-0.000327331762965
6.77125726802e-06
7.34199287758e-05
1.33019551495e-05
6.69196869091e-05
1.97669841913e-05
6.10160895304e-05
2.63579507032e-05
5.85392915163e-05
3.31700864662e-05
5.75653930868e-05
4.02885872933e-05
5.69060602642e-05
4.78026047199e-05
5.60977221281e-05
5.56802577944e-05
5.51426072681e-05
6.40643431829e-05
5.37767129559e-05
7.29374211764e-05
5.20004479472e-05
8.23652787122e-05
4.96657387198e-05
9.23602722489e-05
4.66961374429e-05
0.00010291020905
4.29788005779e-05
0.000114054445093
3.87977815312e-05
0.000125663534479
3.50864543236e-05
0.000136314272407
3.10210569083e-05
0.000140994848248
2.72189208728e-05
0.000120960920475
2.64781517462e-05
5.3795282533e-05
-0.000493932050958
-0.000266831706645
6.70475204489e-06
6.67159947526e-05
1.31709277356e-05
6.04544364235e-05
1.95379804512e-05
5.46498819155e-05
2.59992930934e-05
5.20784650275e-05
3.26368604476e-05
5.09275179446e-05
3.95533652327e-05
4.998788039e-05
4.67470358889e-05
4.89003124595e-05
5.43183222576e-05
4.75648229693e-05
6.22977199872e-05
4.57875062792e-05
7.05976480502e-05
4.36871939891e-05
7.93033392568e-05
4.0943535941e-05
8.84208097625e-05
3.75598641624e-05
9.78944208645e-05
3.34855295587e-05
0.000107694927309
2.89784236197e-05
0.000117319290707
2.5446018796e-05
0.000124755023534
2.35741183139e-05
0.000124822965449
2.71461993399e-05
0.000103330784294
4.79692906665e-05
1.18270050581e-05
-0.000402429773603
-0.000212845703766
6.59347114194e-06
6.01236134835e-05
1.29293526513e-05
5.41196270129e-05
1.91374560393e-05
4.844265458e-05
2.53856778814e-05
4.58306629187e-05
3.18210643365e-05
4.44916480391e-05
3.84768660138e-05
4.33300956322e-05
4.53755290401e-05
4.19974624791e-05
5.25781253049e-05
4.03551512372e-05
6.002916728e-05
3.83259858326e-05
6.78266733981e-05
3.58756495839e-05
7.58750023407e-05
3.28780132369e-05
8.41621900975e-05
2.92532865072e-05
9.25998866578e-05
2.50277455608e-05
0.000101126333894
2.04329458571e-05
0.000109237629717
1.73188773086e-05
0.00011471214342
1.8088818085e-05
0.000113095695318
2.87581268019e-05
9.3260465576e-05
6.78035139441e-05
-1.43360440504e-05
-0.000294834219622
-0.000157671188958
6.42506384706e-06
5.3699652799e-05
1.25748551748e-05
4.79707722937e-05
1.85724339085e-05
4.24457752001e-05
2.46002184848e-05
3.98033322035e-05
3.07760680724e-05
3.83155038191e-05
3.71464398357e-05
3.69580526663e-05
4.37243793589e-05
3.54157135038e-05
5.05274119754e-05
3.3545381507e-05
5.7543878002e-05
3.12993174836e-05
6.47791632545e-05
2.86263909591e-05
7.21855236042e-05
2.54545964299e-05
7.96825136912e-05
2.17360284967e-05
8.72192516945e-05
1.74696606705e-05
9.46207487152e-05
1.30111517422e-05
0.000101728888903
1.01940787637e-05
0.000106857144751
1.29493811489e-05
0.000107416673875
2.8193906318e-05
9.72037553004e-05
7.80154541161e-05
-6.04339067056e-06
-0.000191587258689
-9.96576324966e-05
6.21696697629e-06
4.74833978002e-05
1.2127036067e-05
4.20611567791e-05
1.78930877698e-05
3.66807011208e-05
2.3673319233e-05
3.40237904329e-05
2.95609312124e-05
3.24281887464e-05
3.56044035556e-05
3.09137260564e-05
4.18344815868e-05
2.91826221686e-05
4.82532976991e-05
2.712073287e-05
5.48395345775e-05
2.47032094539e-05
6.15551433313e-05
2.18975933766e-05
6.83669879346e-05
1.86220039368e-05
7.51502609057e-05
1.49301564918e-05
8.18302768841e-05
1.07654146584e-05
8.82169385265e-05
6.60281368611e-06
9.43008276685e-05
4.09203229104e-06
9.9933283054e-05
7.30622450549e-06
0.000107238740617
2.08835856526e-05
0.000116747011543
6.85061774061e-05
5.43610023933e-05
-0.00012919692904
-2.55872465833e-05
5.91344587757e-06
4.15698929875e-05
1.15928931241e-05
3.63819453591e-05
1.70672495658e-05
3.12065627909e-05
2.25594716577e-05
2.81484866162e-05
3.38736015806e-05
3.97653677081e-05
4.58041578857e-05
5.19807060016e-05
5.8271190517e-05
6.4530003358e-05
7.06854213603e-05
7.65474210435e-05
8.18834343408e-05
8.65844968736e-05
9.14793249444e-05
9.94190174389e-05
0.000112559548946
3.53510967145e-05
5.60901346608e-06
3.59594837609e-05
1.09889911382e-05
3.06639578877e-05
2.57304289162e-05
)
;

boundaryField
{
    back
    {
        type            calculated;
        value           uniform 0;
    }
    sides
    {
        type            calculated;
        value           nonuniform List<scalar> 0();
    }
    bottom
    {
        type            calculated;
        value           uniform 0;
    }
    front
    {
        type            calculated;
        value           uniform 0;
    }
    atmosphere
    {
        type            calculated;
        value           nonuniform List<scalar> 8(1.09530916656e-05 2.8498796593e-05 -6.70661255459e-06 -4.2161017268e-05 -6.95123819558e-05 -6.40534077577e-05 -1.97026383719e-05 -5.45201483586e-05);
    }
    floatingObject
    {
        type            calculated;
        value           nonuniform List<scalar> 0();
    }
    procBoundary9to6
    {
        type            processor;
        value           nonuniform List<scalar> 4(-5.74181558342e-05 1.34135266214e-05 0.000552329366263 0.000604340271953);
    }
    procBoundary9to7
    {
        type            processor;
        value           nonuniform List<scalar> 
16
(
-9.36593928088e-05
-8.6498584741e-05
-8.04853605075e-05
-7.8426429103e-05
-7.82614926403e-05
-7.86820513144e-05
-7.92191744169e-05
-7.96953644677e-05
-8.00629341265e-05
-8.00956393834e-05
-7.98244446836e-05
-7.89758144885e-05
-7.76021248577e-05
-7.60254050149e-05
-7.4840760596e-05
-7.19890844623e-05
)
;
    }
    procBoundary9to10
    {
        type            processor;
        value           nonuniform List<scalar> 
15
(
2.85326792811e-05
2.68400361647e-05
2.51885294763e-05
2.32891526548e-05
2.10771551514e-05
1.85188951488e-05
1.55904789842e-05
1.23452258946e-05
3.10011910312e-05
1.61501745969e-05
2.60459680445e-05
5.29354106626e-06
4.93485666472e-06
4.55463788827e-06
2.11750447646e-05
)
;
    }
    procBoundary9to11
    {
        type            processor;
        value           nonuniform List<scalar> 9(8.74879351665e-06 4.8804130587e-06 1.24473598985e-06 -6.24970910894e-07 2.40013700345e-06 1.29391608271e-05 5.53646875794e-05 -5.19812857488e-05 6.42892585863e-05);
    }
}


// ************************************************************************* //
