/*--------------------------------*- C++ -*----------------------------------*\
| =========                 |                                                 |
| \\      /  F ield         | OpenFOAM: The Open Source CFD Toolbox           |
|  \\    /   O peration     | Version:  v2012                                 |
|   \\  /    A nd           | Website:  www.openfoam.com                      |
|    \\/     M anipulation  |                                                 |
\*---------------------------------------------------------------------------*/
FoamFile
{
    version     2.0;
    format      ascii;
    class       volScalarField;
    location    "5.3";
    object      k;
}
// * * * * * * * * * * * * * * * * * * * * * * * * * * * * * * * * * * * * * //

dimensions      [0 2 -2 0 0 0 0];


internalField   nonuniform List<scalar> 
164
(
0.0012967700963
0.00161410380361
0.00172114403403
0.00176378393047
0.00178250170581
0.00179278164594
0.00180058446851
0.00180818993963
0.0013012330613
0.00161927215568
0.00172649021506
0.00176893697081
0.00178730343592
0.0017971929903
0.00180460175759
0.00181180601904
0.00181979724833
0.00182960772448
0.00184408426312
0.00130518683491
0.00162387275013
0.00173125006008
0.00177352025719
0.00179157145175
0.00180111672087
0.0018081807775
0.00181503185159
0.00182263521503
0.00183194212048
0.0018455021374
0.00187122470938
0.00193134881295
0.00130864474642
0.00162792296569
0.0017354316791
0.00177753813966
0.0017953077424
0.00180455008013
0.00181131314208
0.00181785575945
0.00182510834567
0.00183391126237
0.00184642685264
0.00186941295946
0.00192236610962
0.00205823983975
0.00131161967234
0.00163142444584
0.00173903734798
0.00178099615088
0.00179851710688
0.00180749577055
0.00181399866531
0.00182027462615
0.00182722086141
0.00183556898972
0.00184709786192
0.00186739286568
0.00191314072681
0.00203246296818
0.00131411846395
0.00163437155093
0.00174207089088
0.00178390111001
0.00180120677584
0.00180995922821
0.00181624104048
0.0018222905
0.00182897899422
0.00183695589607
0.00184770519818
0.00186589628927
0.00190602825684
0.00201266612087
0.00131616025174
0.00163677820109
0.00174454553826
0.00178626010275
0.00180338315501
0.00181194556808
0.00181804135405
0.00182390094504
0.00183037896447
0.00183807579686
0.00184829597202
0.00186515041319
0.00190183335483
0.00200105890143
0.00131779256218
0.00163868359959
0.00174648092215
0.00178808785219
0.00180505359989
0.00181345729399
0.00181939845052
0.00182510051405
0.00183140891525
0.00183890373072
0.00184880896664
0.00186496547328
0.00189992970633
0.00199557688688
0.00131903654216
0.00164013132862
0.00174789513489
0.0017893947469
0.00180622742243
0.00181449960878
0.00182031261233
0.00182588418643
0.00183205613676
0.00183940744335
0.00184914592543
0.00186502532136
0.00189935034678
0.00199365259962
0.00131987031838
0.0016411091576
0.00174880730067
0.00179020133715
0.00180691790356
0.00181508005917
0.00182078664464
0.0018262502138
0.00183231240199
0.00183956184601
0.00184922650168
0.0018650765299
0.00189941179692
0.00199393984617
0.0022899018112
0.00319807740071
0.00132028710328
0.00164163320211
0.00174923969872
0.0017905258434
0.00180713776878
0.00181520620643
0.00182082449888
0.00182619950579
0.00183217442797
0.00183935301906
0.00184900086087
0.00186495739229
0.00189963458407
0.00199528759923
0.00229506695501
0.00321054654869
0.00132028719962
0.00164173315499
0.00174921408022
0.00179038365111
0.00180689736327
0.00181488503135
0.00182043140389
0.00182573642556
0.00183164576139
0.00183878088195
0.0018484497837
0.00186457083219
0.00189965634092
0.00199617864107
0.0022977936834
0.00321469259032
)
;

boundaryField
{
    back
    {
        type            kqRWallFunction;
        value           nonuniform List<scalar> 
164
(
0.0012967700963
0.00161410380361
0.00172114403403
0.00176378393047
0.00178250170581
0.00179278164594
0.00180058446851
0.00180818993963
0.0013012330613
0.00161927215568
0.00172649021506
0.00176893697081
0.00178730343592
0.0017971929903
0.00180460175759
0.00181180601904
0.00181979724833
0.00182960772448
0.00184408426312
0.00130518683491
0.00162387275013
0.00173125006008
0.00177352025719
0.00179157145175
0.00180111672087
0.0018081807775
0.00181503185159
0.00182263521503
0.00183194212048
0.0018455021374
0.00187122470938
0.00193134881295
0.00130864474642
0.00162792296569
0.0017354316791
0.00177753813966
0.0017953077424
0.00180455008013
0.00181131314208
0.00181785575945
0.00182510834567
0.00183391126237
0.00184642685264
0.00186941295946
0.00192236610962
0.00205823983975
0.00131161967234
0.00163142444584
0.00173903734798
0.00178099615088
0.00179851710688
0.00180749577055
0.00181399866531
0.00182027462615
0.00182722086141
0.00183556898972
0.00184709786192
0.00186739286568
0.00191314072681
0.00203246296818
0.00131411846395
0.00163437155093
0.00174207089088
0.00178390111001
0.00180120677584
0.00180995922821
0.00181624104048
0.0018222905
0.00182897899422
0.00183695589607
0.00184770519818
0.00186589628927
0.00190602825684
0.00201266612087
0.00131616025174
0.00163677820109
0.00174454553826
0.00178626010275
0.00180338315501
0.00181194556808
0.00181804135405
0.00182390094504
0.00183037896447
0.00183807579686
0.00184829597202
0.00186515041319
0.00190183335483
0.00200105890143
0.00131779256218
0.00163868359959
0.00174648092215
0.00178808785219
0.00180505359989
0.00181345729399
0.00181939845052
0.00182510051405
0.00183140891525
0.00183890373072
0.00184880896664
0.00186496547328
0.00189992970633
0.00199557688688
0.00131903654216
0.00164013132862
0.00174789513489
0.0017893947469
0.00180622742243
0.00181449960878
0.00182031261233
0.00182588418643
0.00183205613676
0.00183940744335
0.00184914592543
0.00186502532136
0.00189935034678
0.00199365259962
0.00131987031838
0.0016411091576
0.00174880730067
0.00179020133715
0.00180691790356
0.00181508005917
0.00182078664464
0.0018262502138
0.00183231240199
0.00183956184601
0.00184922650168
0.0018650765299
0.00189941179692
0.00199393984617
0.0022899018112
0.00319807740071
0.00132028710328
0.00164163320211
0.00174923969872
0.0017905258434
0.00180713776878
0.00181520620643
0.00182082449888
0.00182619950579
0.00183217442797
0.00183935301906
0.00184900086087
0.00186495739229
0.00189963458407
0.00199528759923
0.00229506695501
0.00321054654869
0.00132028719962
0.00164173315499
0.00174921408022
0.00179038365111
0.00180689736327
0.00181488503135
0.00182043140389
0.00182573642556
0.00183164576139
0.00183878088195
0.0018484497837
0.00186457083219
0.00189965634092
0.00199617864107
0.0022977936834
0.00321469259032
)
;
    }
    sides
    {
        type            kqRWallFunction;
        value           nonuniform List<scalar> 0();
    }
    bottom
    {
        type            kqRWallFunction;
        value           nonuniform List<scalar> 
12
(
0.0012967700963
0.0013012330613
0.00130518683491
0.00130864474642
0.00131161967234
0.00131411846395
0.00131616025174
0.00131779256218
0.00131903654216
0.00131987031838
0.00132028710328
0.00132028719962
)
;
    }
    front
    {
        type            kqRWallFunction;
        value           nonuniform List<scalar> 
164
(
0.0012967700963
0.00161410380361
0.00172114403403
0.00176378393047
0.00178250170581
0.00179278164594
0.00180058446851
0.00180818993963
0.0013012330613
0.00161927215568
0.00172649021506
0.00176893697081
0.00178730343592
0.0017971929903
0.00180460175759
0.00181180601904
0.00181979724833
0.00182960772448
0.00184408426312
0.00130518683491
0.00162387275013
0.00173125006008
0.00177352025719
0.00179157145175
0.00180111672087
0.0018081807775
0.00181503185159
0.00182263521503
0.00183194212048
0.0018455021374
0.00187122470938
0.00193134881295
0.00130864474642
0.00162792296569
0.0017354316791
0.00177753813966
0.0017953077424
0.00180455008013
0.00181131314208
0.00181785575945
0.00182510834567
0.00183391126237
0.00184642685264
0.00186941295946
0.00192236610962
0.00205823983975
0.00131161967234
0.00163142444584
0.00173903734798
0.00178099615088
0.00179851710688
0.00180749577055
0.00181399866531
0.00182027462615
0.00182722086141
0.00183556898972
0.00184709786192
0.00186739286568
0.00191314072681
0.00203246296818
0.00131411846395
0.00163437155093
0.00174207089088
0.00178390111001
0.00180120677584
0.00180995922821
0.00181624104048
0.0018222905
0.00182897899422
0.00183695589607
0.00184770519818
0.00186589628927
0.00190602825684
0.00201266612087
0.00131616025174
0.00163677820109
0.00174454553826
0.00178626010275
0.00180338315501
0.00181194556808
0.00181804135405
0.00182390094504
0.00183037896447
0.00183807579686
0.00184829597202
0.00186515041319
0.00190183335483
0.00200105890143
0.00131779256218
0.00163868359959
0.00174648092215
0.00178808785219
0.00180505359989
0.00181345729399
0.00181939845052
0.00182510051405
0.00183140891525
0.00183890373072
0.00184880896664
0.00186496547328
0.00189992970633
0.00199557688688
0.00131903654216
0.00164013132862
0.00174789513489
0.0017893947469
0.00180622742243
0.00181449960878
0.00182031261233
0.00182588418643
0.00183205613676
0.00183940744335
0.00184914592543
0.00186502532136
0.00189935034678
0.00199365259962
0.00131987031838
0.0016411091576
0.00174880730067
0.00179020133715
0.00180691790356
0.00181508005917
0.00182078664464
0.0018262502138
0.00183231240199
0.00183956184601
0.00184922650168
0.0018650765299
0.00189941179692
0.00199393984617
0.0022899018112
0.00319807740071
0.00132028710328
0.00164163320211
0.00174923969872
0.0017905258434
0.00180713776878
0.00181520620643
0.00182082449888
0.00182619950579
0.00183217442797
0.00183935301906
0.00184900086087
0.00186495739229
0.00189963458407
0.00199528759923
0.00229506695501
0.00321054654869
0.00132028719962
0.00164173315499
0.00174921408022
0.00179038365111
0.00180689736327
0.00181488503135
0.00182043140389
0.00182573642556
0.00183164576139
0.00183878088195
0.0018484497837
0.00186457083219
0.00189965634092
0.00199617864107
0.0022977936834
0.00321469259032
)
;
    }
    atmosphere
    {
        type            inletOutlet;
        inletValue      nonuniform List<scalar> 0();
        value           nonuniform List<scalar> 0();
    }
    floatingObject
    {
        type            kqRWallFunction;
        value           nonuniform List<scalar> 0();
    }
    procBoundary7to6
    {
        type            processor;
        value           nonuniform List<scalar> 
11
(
0.00242413254811
0.00236871283221
0.00232702303642
0.00230350107169
0.00229231921757
0.00228817738465
0.00228817738465
0.00319344304596
0.00552738909948
0.0055271452381
0.00551260773841
)
;
    }
    procBoundary7to8
    {
        type            processor;
        value           nonuniform List<scalar> 
17
(
0.0012917577857
0.00160832029533
0.00171518130223
0.0017580405235
0.00177715056333
0.00178787178132
0.001796127514
0.00180419447564
0.00181660593598
0.00181660593598
0.00182691307304
0.001842110133
0.00187195757178
0.00187195757178
0.00193718831138
0.00208332850364
0.00208332850364
)
;
    }
    procBoundary7to9
    {
        type            processor;
        value           nonuniform List<scalar> 
16
(
0.00131986376974
0.00164141487429
0.00174874133144
0.00178978502404
0.0018062049065
0.00181412484962
0.00181961591159
0.00182487038107
0.00183073735855
0.00183785697035
0.00184757992622
0.00186387741384
0.00189926660244
0.00199572655969
0.00229447505964
0.00320069076861
)
;
    }
}


// ************************************************************************* //
