/*--------------------------------*- C++ -*----------------------------------*\
| =========                 |                                                 |
| \\      /  F ield         | OpenFOAM: The Open Source CFD Toolbox           |
|  \\    /   O peration     | Version:  v2012                                 |
|   \\  /    A nd           | Website:  www.openfoam.com                      |
|    \\/     M anipulation  |                                                 |
\*---------------------------------------------------------------------------*/
FoamFile
{
    version     2.0;
    format      ascii;
    class       surfaceScalarField;
    location    "5.3";
    object      phi;
}
// * * * * * * * * * * * * * * * * * * * * * * * * * * * * * * * * * * * * * //

dimensions      [0 3 -1 0 0 0 0];
oriented        oriented;


internalField   nonuniform List<scalar> 
300
(
1.00706814901e-05
-0.000146026142886
2.02825870528e-05
-0.000152355268909
3.0654907724e-05
-0.000158467799937
4.11869351565e-05
-0.000163418607034
5.18756308935e-05
-0.000167261383091
6.27087399301e-05
-0.000170755438727
7.36571206009e-05
-0.000174471859292
-0.000178681106946
9.62127563788e-06
-0.000155648858522
1.93237305431e-05
-0.000162059167112
2.91299877697e-05
-0.000168275212945
3.90440683795e-05
-0.000173333397878
4.90718550033e-05
-0.000177289371488
5.92101579795e-05
-0.000180893399937
6.94396968435e-05
-0.000184700432288
7.97305681391e-05
-0.00018897029653
9.00299366564e-05
-0.000193801471462
0.000100207643015
-0.000199149071634
-0.000204903114602
9.11566821544e-06
-0.000164766464161
1.82702909103e-05
-0.000171215699848
2.74802441636e-05
-0.000177486777462
3.67755678821e-05
-0.00018262984547
4.61491316865e-05
-0.000186663439598
5.5600834762e-05
-0.000190344899255
6.51696842282e-05
-0.000194268302364
7.47772223715e-05
-0.000198576105419
8.43954144802e-05
-0.000203417476737
9.39567389658e-05
-0.000208707818305
0.000103409101563
-0.000214353320456
0.000112378083118
-0.00022025229588
-0.000227224966364
8.55608073654e-06
-0.000173324646083
1.71248970345e-05
-0.000179786543691
2.57274702611e-05
-0.000186091060746
3.43902359278e-05
-0.00019129380329
4.31220740312e-05
-0.000195395780659
5.19444932484e-05
-0.00019916701383
6.0848839764e-05
-0.00020317149823
6.98844951476e-05
-0.000207609894156
7.90091971231e-05
-0.000212539861015
8.81966384049e-05
-0.000217892874842
9.7408283391e-05
-0.000223563293937
0.000106672053296
-0.000229516578921
0.000115812271171
-0.000236368880528
-0.000247107638405
7.95627722937e-06
-0.000181282898363
1.59156200964e-05
-0.000187747744093
2.38863694034e-05
-0.000194063337319
3.18991539981e-05
-0.000199307584638
3.9988419063e-05
-0.000203485329874
4.81837853194e-05
-0.000207361821864
5.65015178533e-05
-0.000211487855432
6.49853844525e-05
-0.00021609173236
7.36603149983e-05
-0.000221212515864
8.25935880061e-05
-0.00022682411897
9.1828251352e-05
-0.000232796985867
0.000101471462336
-0.000239161698975
0.000111578358586
-0.000246481969609
-0.000257260665347
7.33690909054e-06
-0.000188621457337
1.46631938027e-05
-0.000195075526866
2.19677875305e-05
-0.000201369095653
2.9311993369e-05
-0.000206652434915
3.67372373572e-05
-0.000210910526277
4.42848092531e-05
-0.000214908543616
5.19991131109e-05
-0.000219200564984
5.99219237846e-05
-0.000224012463536
6.81389905562e-05
-0.000229427471094
7.66988135851e-05
-0.000235382447375
8.57918287506e-05
-0.000241889962426
9.55825526836e-05
-0.000248955763017
0.000106164674951
-0.000257072294715
-0.000268223775071
6.70080994501e-06
-0.000195323493529
1.33561280783e-05
-0.000201731896109
1.99876142049e-05
-0.000208001305292
2.66255979987e-05
-0.000213290649829
3.33498151182e-05
-0.000217634336633
4.02175855716e-05
-0.000221775197809
4.72756790847e-05
-0.000226256930136
5.45842449721e-05
-0.000231319012026
6.21954470972e-05
-0.00023703688559
7.02542490754e-05
-0.000243440403215
7.88887551825e-05
-0.000250525402609
8.82814185724e-05
-0.00025835302858
9.84996953774e-05
-0.000267300263712
-0.000278844393154
6.03132144172e-06
-0.00020135560451
1.19647899817e-05
-0.000207665966782
1.78573417293e-05
-0.00021389414595
2.37842344116e-05
-0.000219217380037
2.97936943644e-05
-0.000223643072858
3.59399478362e-05
-0.000227920142918
4.22757762553e-05
-0.000232591012094
4.88614591756e-05
-0.000237902883652
5.57727854165e-05
-0.000243946910749
6.30951674195e-05
-0.000250762718303
7.09651794315e-05
-0.000258397368606
7.94921413755e-05
-0.00026688578433
8.86985353687e-05
-0.000276517890939
-0.00028825483846
5.29061755264e-06
-0.000206646617816
1.04944710869e-05
-0.000212870025118
1.56464701868e-05
-0.00021904605787
2.08115926847e-05
-0.000224382015565
2.60552948831e-05
-0.000228885818324
3.14333046448e-05
-0.000233296755443
3.69972622235e-05
-0.000238153333322
4.27996826504e-05
-0.000243703850913
4.88984526357e-05
-0.000250045030249
5.5364498982e-05
-0.000257229640456
6.22628828351e-05
-0.000265298865971
6.96816789106e-05
-0.000274311858936
7.75618245371e-05
-0.00028440953223
-0.000296241420524
4.52044767577e-06
-0.000211167036259
8.95266126494e-06
-0.000217302031857
1.33202064543e-05
-0.0002234131161
1.7691007729e-05
-0.000228751956001
2.21318370194e-05
-0.00023332538152
2.67017543908e-05
-0.000237865094844
3.14498872994e-05
-0.000242899871173
3.64168363034e-05
-0.000248669728283
4.16447368962e-05
-0.000255273140874
4.71761622368e-05
-0.000262763411159
5.30404220592e-05
-0.000271168378054
5.92714018589e-05
-0.000280551770749
6.58913847204e-05
-0.000291042819264
7.24731880493e-05
-0.000302841626259
7.79192771242e-05
-0.000317755153514
-0.000336309108738
3.72830399234e-06
-0.000214894905948
7.34708513551e-06
-0.000220920169626
1.08911125696e-05
-0.000226956188111
1.44322926008e-05
-0.000232291797427
1.80321573087e-05
-0.000236923546752
2.1766865878e-05
-0.000241597948991
2.56696843165e-05
-0.000246801152214
2.97721931872e-05
-0.000252771785759
3.41034744567e-05
-0.00025960609429
3.86897158283e-05
-0.000267354556407
4.35402594915e-05
-0.000276028024594
4.87193616368e-05
-0.000285744729763
5.3868700085e-05
-0.000296210790088
5.89182911201e-05
-0.000307914612451
6.29933878747e-05
-0.000321855903239
-0.000338755716799
2.89417403004e-06
5.67149380569e-06
8.36260910093e-06
1.10438323968e-05
1.37806540326e-05
1.66535171051e-05
1.9684752227e-05
2.29118320574e-05
2.63626224885e-05
3.0043500771e-05
3.39597637474e-05
3.80244886234e-05
4.21976717103e-05
4.60557168975e-05
4.9026256361e-05
)
;

boundaryField
{
    back
    {
        type            calculated;
        value           uniform 0;
    }
    sides
    {
        type            calculated;
        value           nonuniform List<scalar> 0();
    }
    bottom
    {
        type            calculated;
        value           uniform 0;
    }
    front
    {
        type            calculated;
        value           uniform 0;
    }
    atmosphere
    {
        type            calculated;
        value           nonuniform List<scalar> 0();
    }
    floatingObject
    {
        type            calculated;
        value           nonuniform List<scalar> 0();
    }
    procBoundary7to6
    {
        type            processor;
        value           nonuniform List<scalar> 
11
(
0.000124561938287
0.000121722070319
0.000117116561846
0.000109107711627
9.80937966217e-05
8.5532711719e-05
0.000312278971859
0.000333541073535
8.06621729025e-05
6.54191575961e-05
5.0840560426e-05
)
;
    }
    procBoundary7to8
    {
        type            processor;
        value           nonuniform List<scalar> 
17
(
0.00013595545729
0.00014214333181
0.000148095818507
0.0001528873849
0.000156573814164
0.000159923656733
0.000163524605507
0.000167678576578
8.46603569892e-05
0.000183504728009
0.000188974059213
0.000195090514302
0.000110022470593
0.000211285610576
0.000219076347901
0.000120523842646
0.000238348993793
)
;
    }
    procBoundary7to9
    {
        type            processor;
        value           nonuniform List<scalar> 
16
(
-0.000217788397143
-0.000223696571048
-0.000229646068478
-0.00023497141964
-0.000239658470626
-0.000244468909091
-0.000249831051689
-0.000255999009814
-0.00026305966093
-0.000271042100116
-0.000279955876808
-0.000289826404159
-0.000300405909837
-0.000311798610672
-0.000324852654588
-0.000340591225749
)
;
    }
}


// ************************************************************************* //
