/*--------------------------------*- C++ -*----------------------------------*\
| =========                 |                                                 |
| \\      /  F ield         | OpenFOAM: The Open Source CFD Toolbox           |
|  \\    /   O peration     | Version:  v2012                                 |
|   \\  /    A nd           | Website:  www.openfoam.com                      |
|    \\/     M anipulation  |                                                 |
\*---------------------------------------------------------------------------*/
FoamFile
{
    version     2.0;
    format      ascii;
    class       volScalarField;
    location    "0.4";
    object      ddt0(k);
}
// * * * * * * * * * * * * * * * * * * * * * * * * * * * * * * * * * * * * * //

dimensions      [0 2 -3 0 0 0 0];


internalField   nonuniform List<scalar> 
167
(
-0.0718286435937
-0.0740475901033
-0.0736166686714
-0.0734540671608
-0.073394718741
-0.0733508051815
-0.0733085958643
-0.0732667487033
-0.0739872130976
-0.0789917316057
-0.0784526163867
-0.0781691167695
-0.0780838738047
-0.0780366257265
-0.0779937950174
-0.0779511605604
-0.0734389201504
-0.0782673597021
-0.077568036169
-0.0772386158401
-0.0771478633653
-0.0771021098029
-0.077061241368
-0.0770203558372
-0.073230680424
-0.077901580366
-0.0771485737127
-0.0768099525367
-0.0767212868503
-0.0766790085743
-0.0766413638102
-0.0766034026909
-0.0765650208561
-0.0731611383034
-0.0777958089899
-0.0770339706571
-0.076696700659
-0.0766114474856
-0.0765725024885
-0.0765377807042
-0.0765023517189
-0.0764662101405
-0.0764297358947
-0.0731148450752
-0.077745747025
-0.0769845396548
-0.0766501225743
-0.0765680329607
-0.0765320402806
-0.0764999361891
-0.0764667769013
-0.0764325895301
-0.0763978065968
-0.073070763916
-0.0777030593562
-0.0769435503334
-0.0766117067672
-0.0765323197756
-0.0764989258498
-0.0764692075139
-0.0764381729117
-0.0764058422414
-0.076372662517
-0.073026331886
-0.0776604796328
-0.0769025002418
-0.0765727940078
-0.0764956774833
-0.0764645437651
-0.0764369737818
-0.0764079111191
-0.0763773431336
-0.0763457153314
-0.0729813709451
-0.0776172354067
-0.0768605528246
-0.0765326229821
-0.0764574062625
-0.0764282139208
-0.0764025432407
-0.0763752685111
-0.0763463360674
-0.076316168873
-0.0729359476009
-0.0775733222528
-0.0768177554883
-0.0764913199604
-0.0764176909916
-0.0763901492703
-0.0763661291806
-0.0763404411206
-0.0763129832847
-0.0762841555561
-0.0728901586911
-0.0775288045415
-0.0767742106363
-0.0764490455516
-0.076376741193
-0.0763505884138
-0.0763279799069
-0.0763036687728
-0.0762775097118
-0.0762498681418
-0.0728441212786
-0.0774837548978
-0.0767300085819
-0.0764059300842
-0.0763347252099
-0.0763097265587
-0.0762883026094
-0.0762651593657
-0.0762401072251
-0.0762134854877
-0.07279797866
-0.0774382573724
-0.0766852350843
-0.0763620853166
-0.076291783418
-0.0762677255901
-0.0762472716342
-0.0762250873515
-0.0762009473414
-0.0761751570362
-0.0727519062866
-0.0773924142623
-0.076639981573
-0.0763176181405
-0.0762480431899
-0.0762247301451
-0.0762050407472
-0.0761836077838
-0.0761601725467
-0.0761350183059
-0.0727061169735
-0.0773463519067
-0.0765943532169
-0.0762726410305
-0.0762036309194
-0.0761808750508
-0.0761617446489
-0.0761408598714
-0.0761179212281
-0.0760931957668
-0.0726608625316
-0.0773002225676
-0.0765484740546
-0.076227278717
-0.0761586676997
-0.0761362910379
-0.0761175404135
-0.076096982542
-0.0760743362126
-0.0760497968426
-0.0726164466454
-0.0772542199499
-0.0765024911969
-0.0761816529118
-0.0761133186281
-0.0760911475385
-0.0760725590504
-0.0725732278838
-0.0772085638592
-0.0764565708736
-0.076135984991
-0.0760677333496
-0.0764109542344
-0.076090422395
)
;

boundaryField
{
    back
    {
        type            calculated;
        value           nonuniform List<scalar> 
167
(
-0.0718286435937
-0.0740475901033
-0.0736166686714
-0.0734540671608
-0.073394718741
-0.0733508051815
-0.0733085958643
-0.0732667487033
-0.0739872130976
-0.0789917316057
-0.0784526163867
-0.0781691167695
-0.0780838738047
-0.0780366257265
-0.0779937950174
-0.0779511605604
-0.0734389201504
-0.0782673597021
-0.077568036169
-0.0772386158401
-0.0771478633653
-0.0771021098029
-0.077061241368
-0.0770203558372
-0.073230680424
-0.077901580366
-0.0771485737127
-0.0768099525367
-0.0767212868503
-0.0766790085743
-0.0766413638102
-0.0766034026909
-0.0765650208561
-0.0731611383034
-0.0777958089899
-0.0770339706571
-0.076696700659
-0.0766114474856
-0.0765725024885
-0.0765377807042
-0.0765023517189
-0.0764662101405
-0.0764297358947
-0.0731148450752
-0.077745747025
-0.0769845396548
-0.0766501225743
-0.0765680329607
-0.0765320402806
-0.0764999361891
-0.0764667769013
-0.0764325895301
-0.0763978065968
-0.073070763916
-0.0777030593562
-0.0769435503334
-0.0766117067672
-0.0765323197756
-0.0764989258498
-0.0764692075139
-0.0764381729117
-0.0764058422414
-0.076372662517
-0.073026331886
-0.0776604796328
-0.0769025002418
-0.0765727940078
-0.0764956774833
-0.0764645437651
-0.0764369737818
-0.0764079111191
-0.0763773431336
-0.0763457153314
-0.0729813709451
-0.0776172354067
-0.0768605528246
-0.0765326229821
-0.0764574062625
-0.0764282139208
-0.0764025432407
-0.0763752685111
-0.0763463360674
-0.076316168873
-0.0729359476009
-0.0775733222528
-0.0768177554883
-0.0764913199604
-0.0764176909916
-0.0763901492703
-0.0763661291806
-0.0763404411206
-0.0763129832847
-0.0762841555561
-0.0728901586911
-0.0775288045415
-0.0767742106363
-0.0764490455516
-0.076376741193
-0.0763505884138
-0.0763279799069
-0.0763036687728
-0.0762775097118
-0.0762498681418
-0.0728441212786
-0.0774837548978
-0.0767300085819
-0.0764059300842
-0.0763347252099
-0.0763097265587
-0.0762883026094
-0.0762651593657
-0.0762401072251
-0.0762134854877
-0.07279797866
-0.0774382573724
-0.0766852350843
-0.0763620853166
-0.076291783418
-0.0762677255901
-0.0762472716342
-0.0762250873515
-0.0762009473414
-0.0761751570362
-0.0727519062866
-0.0773924142623
-0.076639981573
-0.0763176181405
-0.0762480431899
-0.0762247301451
-0.0762050407472
-0.0761836077838
-0.0761601725467
-0.0761350183059
-0.0727061169735
-0.0773463519067
-0.0765943532169
-0.0762726410305
-0.0762036309194
-0.0761808750508
-0.0761617446489
-0.0761408598714
-0.0761179212281
-0.0760931957668
-0.0726608625316
-0.0773002225676
-0.0765484740546
-0.076227278717
-0.0761586676997
-0.0761362910379
-0.0761175404135
-0.076096982542
-0.0760743362126
-0.0760497968426
-0.0726164466454
-0.0772542199499
-0.0765024911969
-0.0761816529118
-0.0761133186281
-0.0760911475385
-0.0760725590504
-0.0725732278838
-0.0772085638592
-0.0764565708736
-0.076135984991
-0.0760677333496
-0.0764109542344
-0.076090422395
)
;
    }
    sides
    {
        type            calculated;
        value           nonuniform List<scalar> 8(-0.0718286435937 -0.0740475901033 -0.0736166686714 -0.0734540671608 -0.073394718741 -0.0733508051815 -0.0733085958643 -0.0732667487033);
    }
    bottom
    {
        type            calculated;
        value           nonuniform List<scalar> 
18
(
-0.0718286435937
-0.0739872130976
-0.0734389201504
-0.073230680424
-0.0731611383034
-0.0731148450752
-0.073070763916
-0.073026331886
-0.0729813709451
-0.0729359476009
-0.0728901586911
-0.0728441212786
-0.07279797866
-0.0727519062866
-0.0727061169735
-0.0726608625316
-0.0726164466454
-0.0725732278838
)
;
    }
    front
    {
        type            calculated;
        value           nonuniform List<scalar> 
167
(
-0.0718286435937
-0.0740475901033
-0.0736166686714
-0.0734540671608
-0.073394718741
-0.0733508051815
-0.0733085958643
-0.0732667487033
-0.0739872130976
-0.0789917316057
-0.0784526163867
-0.0781691167695
-0.0780838738047
-0.0780366257265
-0.0779937950174
-0.0779511605604
-0.0734389201504
-0.0782673597021
-0.077568036169
-0.0772386158401
-0.0771478633653
-0.0771021098029
-0.077061241368
-0.0770203558372
-0.073230680424
-0.077901580366
-0.0771485737127
-0.0768099525367
-0.0767212868503
-0.0766790085743
-0.0766413638102
-0.0766034026909
-0.0765650208561
-0.0731611383034
-0.0777958089899
-0.0770339706571
-0.076696700659
-0.0766114474856
-0.0765725024885
-0.0765377807042
-0.0765023517189
-0.0764662101405
-0.0764297358947
-0.0731148450752
-0.077745747025
-0.0769845396548
-0.0766501225743
-0.0765680329607
-0.0765320402806
-0.0764999361891
-0.0764667769013
-0.0764325895301
-0.0763978065968
-0.073070763916
-0.0777030593562
-0.0769435503334
-0.0766117067672
-0.0765323197756
-0.0764989258498
-0.0764692075139
-0.0764381729117
-0.0764058422414
-0.076372662517
-0.073026331886
-0.0776604796328
-0.0769025002418
-0.0765727940078
-0.0764956774833
-0.0764645437651
-0.0764369737818
-0.0764079111191
-0.0763773431336
-0.0763457153314
-0.0729813709451
-0.0776172354067
-0.0768605528246
-0.0765326229821
-0.0764574062625
-0.0764282139208
-0.0764025432407
-0.0763752685111
-0.0763463360674
-0.076316168873
-0.0729359476009
-0.0775733222528
-0.0768177554883
-0.0764913199604
-0.0764176909916
-0.0763901492703
-0.0763661291806
-0.0763404411206
-0.0763129832847
-0.0762841555561
-0.0728901586911
-0.0775288045415
-0.0767742106363
-0.0764490455516
-0.076376741193
-0.0763505884138
-0.0763279799069
-0.0763036687728
-0.0762775097118
-0.0762498681418
-0.0728441212786
-0.0774837548978
-0.0767300085819
-0.0764059300842
-0.0763347252099
-0.0763097265587
-0.0762883026094
-0.0762651593657
-0.0762401072251
-0.0762134854877
-0.07279797866
-0.0774382573724
-0.0766852350843
-0.0763620853166
-0.076291783418
-0.0762677255901
-0.0762472716342
-0.0762250873515
-0.0762009473414
-0.0761751570362
-0.0727519062866
-0.0773924142623
-0.076639981573
-0.0763176181405
-0.0762480431899
-0.0762247301451
-0.0762050407472
-0.0761836077838
-0.0761601725467
-0.0761350183059
-0.0727061169735
-0.0773463519067
-0.0765943532169
-0.0762726410305
-0.0762036309194
-0.0761808750508
-0.0761617446489
-0.0761408598714
-0.0761179212281
-0.0760931957668
-0.0726608625316
-0.0773002225676
-0.0765484740546
-0.076227278717
-0.0761586676997
-0.0761362910379
-0.0761175404135
-0.076096982542
-0.0760743362126
-0.0760497968426
-0.0726164466454
-0.0772542199499
-0.0765024911969
-0.0761816529118
-0.0761133186281
-0.0760911475385
-0.0760725590504
-0.0725732278838
-0.0772085638592
-0.0764565708736
-0.076135984991
-0.0760677333496
-0.0764109542344
-0.076090422395
)
;
    }
    atmosphere
    {
        type            calculated;
        value           nonuniform List<scalar> 0();
    }
    floatingObject
    {
        type            calculated;
        value           nonuniform List<scalar> 0();
    }
    procBoundary2to0
    {
        type            processor;
        value           nonuniform List<scalar> 
14
(
-0.07605212042
-0.0760295216278
-0.0760049551284
-0.0760455817462
-0.07605212042
-0.0760270095242
-0.0725316001516
-0.0771635240341
-0.0760455817462
-0.0760221342527
-0.0771635240341
-0.0763658961701
-0.0760221342527
-0.076045248475
)
;
    }
    procBoundary2to1
    {
        type            processor;
        value           nonuniform List<scalar> 
18
(
-0.0732252517333
-0.0779084255095
-0.0769792821479
-0.0769792821479
-0.0765266022932
-0.0765266022932
-0.0763933262722
-0.0763628155269
-0.0763390446732
-0.0763134412895
-0.0762851805702
-0.0762543530821
-0.076221126699
-0.0761856497438
-0.0761480576037
-0.0761084608843
-0.0760669589056
-0.0760236764143
)
;
    }
}


// ************************************************************************* //
