/*--------------------------------*- C++ -*----------------------------------*\
| =========                 |                                                 |
| \\      /  F ield         | OpenFOAM: The Open Source CFD Toolbox           |
|  \\    /   O peration     | Version:  v2012                                 |
|   \\  /    A nd           | Website:  www.openfoam.com                      |
|    \\/     M anipulation  |                                                 |
\*---------------------------------------------------------------------------*/
FoamFile
{
    version     2.0;
    format      ascii;
    class       volScalarField;
    location    "0.4";
    object      epsilon_0;
}
// * * * * * * * * * * * * * * * * * * * * * * * * * * * * * * * * * * * * * //

dimensions      [0 2 -3 0 0 0 0];


internalField   nonuniform List<scalar> 
167
(
0.077857963279
0.0790184363436
0.0803493340836
0.0805307893505
0.0805891372093
0.0806363913813
0.0806819923082
0.0807264001297
0.0790707368825
0.0733407686204
0.0754592472544
0.07575789298
0.0758193101771
0.0758566049439
0.075891842616
0.075926670117
0.0804839758467
0.0755683412185
0.0779258942672
0.0782578792844
0.0783197757127
0.0783541615719
0.0783864627511
0.0784184727514
0.080689865679
0.0759018207177
0.0782962473195
0.0786306119672
0.0786895275297
0.0787207949254
0.0787503761831
0.0787799866136
0.0788093303059
0.0807559770399
0.075970609573
0.0783672022764
0.0786989803879
0.0787547771223
0.0787832478306
0.0788104486921
0.0788380511011
0.0788656837183
0.0788929293668
0.0808101376586
0.0760104552132
0.078405178265
0.0787342681242
0.0787873279481
0.0788132759012
0.0788382547218
0.0788639452625
0.0788899505682
0.0789158138988
0.0808649455228
0.0760487455754
0.0784415616101
0.0787684204663
0.0788191607714
0.0788428658333
0.0788657817438
0.0788896348534
0.078914036154
0.0789385173316
0.0809215672812
0.0760881718919
0.0784793414648
0.078804377964
0.0788531716309
0.0788749171234
0.0788959615688
0.0789180926277
0.0789409505912
0.0789640720217
0.0809802172212
0.0761290069332
0.0785187218095
0.0788422518045
0.0788894146691
0.0789094683666
0.0789288471597
0.0789494035069
0.0789708157702
0.0789926400373
0.0810410482281
0.0761713435873
0.078559726814
0.0788819930051
0.0789277887587
0.0789463933587
0.0789643112628
0.0789834554097
0.0790035466716
0.0790241642945
0.0811042103064
0.07621527747
0.0786024066534
0.0789235991986
0.0789682489357
0.0789856214012
0.0790022743923
0.0790201748664
0.0790390837384
0.0790586091029
0.0811698475506
0.0762609116852
0.0786468365072
0.0789671088274
0.0790108010185
0.079027135659
0.0790427093427
0.0790595347536
0.079077411177
0.0790959721332
0.0812380922505
0.0763083506952
0.0786931053275
0.0790125858795
0.0790554850851
0.0790709586684
0.0790856292247
0.07910154811
0.0791185472906
0.0791362870896
0.0813090591002
0.0763576949694
0.0787413074003
0.0790601085459
0.0791023628995
0.0791171395817
0.079131076977
0.0791462579768
0.0791625439113
0.0791796161115
0.0813828390601
0.0764090363022
0.078791535877
0.0791097608064
0.079151508224
0.0791657452387
0.0791791175333
0.0791937322338
0.0792094756126
0.0792260461056
0.0814594935605
0.0764624538841
0.0788438774442
0.0791616257362
0.079203000386
0.0792168525242
0.0792298264599
0.0792440536332
0.0792594311879
0.0792756886138
0.0815390427073
0.0765180064795
0.078898406758
0.0792157810187
0.0792569138515
0.0792705372895
0.0792832896371
0.0816214573658
0.0765757305538
0.0789551808772
0.0792722841994
0.0793133171199
0.0790142310528
0.0793311820141
)
;

boundaryField
{
    back
    {
        lowReCorrection 0;
        blending        stepwise;
        n               2;
        type            epsilonWallFunction;
        value           nonuniform List<scalar> 
167
(
0.077857963279
0.0790184363436
0.0803493340836
0.0805307893505
0.0805891372093
0.0806363913813
0.0806819923082
0.0807264001297
0.0790707368825
0.0733407686204
0.0754592472544
0.07575789298
0.0758193101771
0.0758566049439
0.075891842616
0.075926670117
0.0804839758467
0.0755683412185
0.0779258942672
0.0782578792844
0.0783197757127
0.0783541615719
0.0783864627511
0.0784184727514
0.080689865679
0.0759018207177
0.0782962473195
0.0786306119672
0.0786895275297
0.0787207949254
0.0787503761831
0.0787799866136
0.0788093303059
0.0807559770399
0.075970609573
0.0783672022764
0.0786989803879
0.0787547771223
0.0787832478306
0.0788104486921
0.0788380511011
0.0788656837183
0.0788929293668
0.0808101376586
0.0760104552132
0.078405178265
0.0787342681242
0.0787873279481
0.0788132759012
0.0788382547218
0.0788639452625
0.0788899505682
0.0789158138988
0.0808649455228
0.0760487455754
0.0784415616101
0.0787684204663
0.0788191607714
0.0788428658333
0.0788657817438
0.0788896348534
0.078914036154
0.0789385173316
0.0809215672812
0.0760881718919
0.0784793414648
0.078804377964
0.0788531716309
0.0788749171234
0.0788959615688
0.0789180926277
0.0789409505912
0.0789640720217
0.0809802172212
0.0761290069332
0.0785187218095
0.0788422518045
0.0788894146691
0.0789094683666
0.0789288471597
0.0789494035069
0.0789708157702
0.0789926400373
0.0810410482281
0.0761713435873
0.078559726814
0.0788819930051
0.0789277887587
0.0789463933587
0.0789643112628
0.0789834554097
0.0790035466716
0.0790241642945
0.0811042103064
0.07621527747
0.0786024066534
0.0789235991986
0.0789682489357
0.0789856214012
0.0790022743923
0.0790201748664
0.0790390837384
0.0790586091029
0.0811698475506
0.0762609116852
0.0786468365072
0.0789671088274
0.0790108010185
0.079027135659
0.0790427093427
0.0790595347536
0.079077411177
0.0790959721332
0.0812380922505
0.0763083506952
0.0786931053275
0.0790125858795
0.0790554850851
0.0790709586684
0.0790856292247
0.07910154811
0.0791185472906
0.0791362870896
0.0813090591002
0.0763576949694
0.0787413074003
0.0790601085459
0.0791023628995
0.0791171395817
0.079131076977
0.0791462579768
0.0791625439113
0.0791796161115
0.0813828390601
0.0764090363022
0.078791535877
0.0791097608064
0.079151508224
0.0791657452387
0.0791791175333
0.0791937322338
0.0792094756126
0.0792260461056
0.0814594935605
0.0764624538841
0.0788438774442
0.0791616257362
0.079203000386
0.0792168525242
0.0792298264599
0.0792440536332
0.0792594311879
0.0792756886138
0.0815390427073
0.0765180064795
0.078898406758
0.0792157810187
0.0792569138515
0.0792705372895
0.0792832896371
0.0816214573658
0.0765757305538
0.0789551808772
0.0792722841994
0.0793133171199
0.0790142310528
0.0793311820141
)
;
    }
    sides
    {
        lowReCorrection 0;
        blending        stepwise;
        n               2;
        type            epsilonWallFunction;
        value           nonuniform List<scalar> 8(0.077857963279 0.0790184363436 0.0803493340836 0.0805307893505 0.0805891372093 0.0806363913813 0.0806819923082 0.0807264001297);
    }
    bottom
    {
        lowReCorrection 0;
        blending        stepwise;
        n               2;
        type            epsilonWallFunction;
        value           nonuniform List<scalar> 
18
(
0.077857963279
0.0790707368825
0.0804839758467
0.080689865679
0.0807559770399
0.0808101376586
0.0808649455228
0.0809215672812
0.0809802172212
0.0810410482281
0.0811042103064
0.0811698475506
0.0812380922505
0.0813090591002
0.0813828390601
0.0814594935605
0.0815390427073
0.0816214573658
)
;
    }
    front
    {
        lowReCorrection 0;
        blending        stepwise;
        n               2;
        type            epsilonWallFunction;
        value           nonuniform List<scalar> 
167
(
0.077857963279
0.0790184363436
0.0803493340836
0.0805307893505
0.0805891372093
0.0806363913813
0.0806819923082
0.0807264001297
0.0790707368825
0.0733407686204
0.0754592472544
0.07575789298
0.0758193101771
0.0758566049439
0.075891842616
0.075926670117
0.0804839758467
0.0755683412185
0.0779258942672
0.0782578792844
0.0783197757127
0.0783541615719
0.0783864627511
0.0784184727514
0.080689865679
0.0759018207177
0.0782962473195
0.0786306119672
0.0786895275297
0.0787207949254
0.0787503761831
0.0787799866136
0.0788093303059
0.0807559770399
0.075970609573
0.0783672022764
0.0786989803879
0.0787547771223
0.0787832478306
0.0788104486921
0.0788380511011
0.0788656837183
0.0788929293668
0.0808101376586
0.0760104552132
0.078405178265
0.0787342681242
0.0787873279481
0.0788132759012
0.0788382547218
0.0788639452625
0.0788899505682
0.0789158138988
0.0808649455228
0.0760487455754
0.0784415616101
0.0787684204663
0.0788191607714
0.0788428658333
0.0788657817438
0.0788896348534
0.078914036154
0.0789385173316
0.0809215672812
0.0760881718919
0.0784793414648
0.078804377964
0.0788531716309
0.0788749171234
0.0788959615688
0.0789180926277
0.0789409505912
0.0789640720217
0.0809802172212
0.0761290069332
0.0785187218095
0.0788422518045
0.0788894146691
0.0789094683666
0.0789288471597
0.0789494035069
0.0789708157702
0.0789926400373
0.0810410482281
0.0761713435873
0.078559726814
0.0788819930051
0.0789277887587
0.0789463933587
0.0789643112628
0.0789834554097
0.0790035466716
0.0790241642945
0.0811042103064
0.07621527747
0.0786024066534
0.0789235991986
0.0789682489357
0.0789856214012
0.0790022743923
0.0790201748664
0.0790390837384
0.0790586091029
0.0811698475506
0.0762609116852
0.0786468365072
0.0789671088274
0.0790108010185
0.079027135659
0.0790427093427
0.0790595347536
0.079077411177
0.0790959721332
0.0812380922505
0.0763083506952
0.0786931053275
0.0790125858795
0.0790554850851
0.0790709586684
0.0790856292247
0.07910154811
0.0791185472906
0.0791362870896
0.0813090591002
0.0763576949694
0.0787413074003
0.0790601085459
0.0791023628995
0.0791171395817
0.079131076977
0.0791462579768
0.0791625439113
0.0791796161115
0.0813828390601
0.0764090363022
0.078791535877
0.0791097608064
0.079151508224
0.0791657452387
0.0791791175333
0.0791937322338
0.0792094756126
0.0792260461056
0.0814594935605
0.0764624538841
0.0788438774442
0.0791616257362
0.079203000386
0.0792168525242
0.0792298264599
0.0792440536332
0.0792594311879
0.0792756886138
0.0815390427073
0.0765180064795
0.078898406758
0.0792157810187
0.0792569138515
0.0792705372895
0.0792832896371
0.0816214573658
0.0765757305538
0.0789551808772
0.0792722841994
0.0793133171199
0.0790142310528
0.0793311820141
)
;
    }
    atmosphere
    {
        type            inletOutlet;
        inletValue      nonuniform List<scalar> 0();
        value           nonuniform List<scalar> 0();
    }
    floatingObject
    {
        lowReCorrection 0;
        blending        stepwise;
        n               2;
        type            epsilonWallFunction;
        value           nonuniform List<scalar> 0();
    }
    procBoundary2to0
    {
        type            processor;
        value           nonuniform List<scalar> 
14
(
0.0792973134536
0.0793125298907
0.0793286669084
0.0793268759116
0.0792973134536
0.0793395848948
0.081706653146
0.0766356300898
0.0793268759116
0.0793722569455
0.0766356300898
0.0790755477587
0.0793722569455
0.0793924831384
)
;
    }
    procBoundary2to1
    {
        type            processor;
        value           nonuniform List<scalar> 
18
(
0.080769434106
0.0759609990131
0.0784499827987
0.0784499827987
0.0788380238262
0.0788380238262
0.0789194213512
0.0789411514937
0.078962674802
0.0789870490329
0.0790144711424
0.0790449170981
0.0790783735593
0.0791148603534
0.0791544259102
0.079197151152
0.0792431431164
0.0792925185548
)
;
    }
}


// ************************************************************************* //
