/*--------------------------------*- C++ -*----------------------------------*\
| =========                 |                                                 |
| \\      /  F ield         | OpenFOAM: The Open Source CFD Toolbox           |
|  \\    /   O peration     | Version:  v2012                                 |
|   \\  /    A nd           | Website:  www.openfoam.com                      |
|    \\/     M anipulation  |                                                 |
\*---------------------------------------------------------------------------*/
FoamFile
{
    version     2.0;
    format      ascii;
    class       volScalarField;
    location    "0.4";
    object      k_0;
}
// * * * * * * * * * * * * * * * * * * * * * * * * * * * * * * * * * * * * * //

dimensions      [0 2 -2 0 0 0 0];


internalField   nonuniform List<scalar> 
167
(
0.0338316210179
0.037014860867
0.0374453929695
0.0375051974031
0.037524499778
0.0375400764422
0.0375551032281
0.0375697433164
0.0370323596446
0.0427478971954
0.0435934251811
0.0437145767148
0.0437397992212
0.0437550532617
0.0437694412242
0.0437836633637
0.037490466045
0.0436386902446
0.044571278689
0.0447047325913
0.0447299498552
0.0447438953672
0.0447569673893
0.0447699245972
0.0375585716391
0.043774497175
0.0447207745588
0.0448550636135
0.0448790585034
0.0448917283687
0.0449036842667
0.0449156539293
0.0449275236436
0.03758045557
0.0438028534265
0.0447498041336
0.0448830320996
0.0449057666447
0.0449173057391
0.044928298052
0.0449394537636
0.0449506286595
0.044961656061
0.0375982475495
0.0438191345852
0.044765188479
0.0448973159839
0.0449189452259
0.0449294666413
0.0449395624618
0.0449499465802
0.0449604644156
0.0449709332729
0.0376162146243
0.0438347114062
0.0447798475351
0.0449110568872
0.0449317490221
0.0449413660842
0.0449506302859
0.0449602736767
0.0449701448412
0.0449800564058
0.0376347587527
0.0438507310388
0.0447950485847
0.0449255034022
0.0449454086597
0.0449542356971
0.0449627456406
0.0449716950404
0.044980944266
0.0449903078615
0.0376539497641
0.0438673098169
0.0448108808367
0.0449407075971
0.0449599532458
0.0449680982829
0.0449759370441
0.044984251985
0.044992918774
0.0450017598224
0.0376738349424
0.0438844839791
0.0448273527774
0.0449566485238
0.0449753408299
0.0449829017873
0.0449901520212
0.0449978981397
0.0450060329205
0.0450143880679
0.0376944602239
0.0439022899722
0.0448444823329
0.0449733229309
0.0449915509881
0.0449986154128
0.0450053562281
0.0450126015918
0.0450202603778
0.0450281759271
0.0377158693505
0.0439207670425
0.044862297272
0.0449907437673
0.0450085835048
0.0450152297934
0.0450215361055
0.0450283487923
0.0450355921779
0.0450431198177
0.0377381019216
0.0439399547831
0.0448808307356
0.0450089340957
0.045026451779
0.045032751228
0.0450386941175
0.045045142155
0.0450520328029
0.0450592304495
0.0377611914841
0.0439598909448
0.0449001178236
0.045027922512
0.0450451777486
0.0450511965201
0.0450568445177
0.0450629959353
0.0450696000452
0.045076529687
0.0377851635246
0.0439806095252
0.0449201929781
0.0450477397443
0.0450647879751
0.0450705894111
0.0450760102815
0.0450819341654
0.045088320521
0.0450950490475
0.0378100336161
0.0440021392033
0.044941087847
0.0450684159689
0.0450853111924
0.0450909575445
0.0450962181828
0.0451019865941
0.045108226243
0.0451148297568
0.0378358035382
0.0440245000885
0.0449628290696
0.0450899792554
0.0451067736689
0.0451123276201
0.0451174992411
0.0378624587469
0.0440477031713
0.0449854361755
0.0451124486008
0.0451291994613
0.0450089176991
0.0451358396404
)
;

boundaryField
{
    back
    {
        type            kqRWallFunction;
        value           nonuniform List<scalar> 
167
(
0.0338316210179
0.037014860867
0.0374453929695
0.0375051974031
0.037524499778
0.0375400764422
0.0375551032281
0.0375697433164
0.0370323596446
0.0427478971954
0.0435934251811
0.0437145767148
0.0437397992212
0.0437550532617
0.0437694412242
0.0437836633637
0.037490466045
0.0436386902446
0.044571278689
0.0447047325913
0.0447299498552
0.0447438953672
0.0447569673893
0.0447699245972
0.0375585716391
0.043774497175
0.0447207745588
0.0448550636135
0.0448790585034
0.0448917283687
0.0449036842667
0.0449156539293
0.0449275236436
0.03758045557
0.0438028534265
0.0447498041336
0.0448830320996
0.0449057666447
0.0449173057391
0.044928298052
0.0449394537636
0.0449506286595
0.044961656061
0.0375982475495
0.0438191345852
0.044765188479
0.0448973159839
0.0449189452259
0.0449294666413
0.0449395624618
0.0449499465802
0.0449604644156
0.0449709332729
0.0376162146243
0.0438347114062
0.0447798475351
0.0449110568872
0.0449317490221
0.0449413660842
0.0449506302859
0.0449602736767
0.0449701448412
0.0449800564058
0.0376347587527
0.0438507310388
0.0447950485847
0.0449255034022
0.0449454086597
0.0449542356971
0.0449627456406
0.0449716950404
0.044980944266
0.0449903078615
0.0376539497641
0.0438673098169
0.0448108808367
0.0449407075971
0.0449599532458
0.0449680982829
0.0449759370441
0.044984251985
0.044992918774
0.0450017598224
0.0376738349424
0.0438844839791
0.0448273527774
0.0449566485238
0.0449753408299
0.0449829017873
0.0449901520212
0.0449978981397
0.0450060329205
0.0450143880679
0.0376944602239
0.0439022899722
0.0448444823329
0.0449733229309
0.0449915509881
0.0449986154128
0.0450053562281
0.0450126015918
0.0450202603778
0.0450281759271
0.0377158693505
0.0439207670425
0.044862297272
0.0449907437673
0.0450085835048
0.0450152297934
0.0450215361055
0.0450283487923
0.0450355921779
0.0450431198177
0.0377381019216
0.0439399547831
0.0448808307356
0.0450089340957
0.045026451779
0.045032751228
0.0450386941175
0.045045142155
0.0450520328029
0.0450592304495
0.0377611914841
0.0439598909448
0.0449001178236
0.045027922512
0.0450451777486
0.0450511965201
0.0450568445177
0.0450629959353
0.0450696000452
0.045076529687
0.0377851635246
0.0439806095252
0.0449201929781
0.0450477397443
0.0450647879751
0.0450705894111
0.0450760102815
0.0450819341654
0.045088320521
0.0450950490475
0.0378100336161
0.0440021392033
0.044941087847
0.0450684159689
0.0450853111924
0.0450909575445
0.0450962181828
0.0451019865941
0.045108226243
0.0451148297568
0.0378358035382
0.0440245000885
0.0449628290696
0.0450899792554
0.0451067736689
0.0451123276201
0.0451174992411
0.0378624587469
0.0440477031713
0.0449854361755
0.0451124486008
0.0451291994613
0.0450089176991
0.0451358396404
)
;
    }
    sides
    {
        type            kqRWallFunction;
        value           nonuniform List<scalar> 8(0.0338316210179 0.037014860867 0.0374453929695 0.0375051974031 0.037524499778 0.0375400764422 0.0375551032281 0.0375697433164);
    }
    bottom
    {
        type            kqRWallFunction;
        value           nonuniform List<scalar> 
18
(
0.0338316210179
0.0370323596446
0.037490466045
0.0375585716391
0.03758045557
0.0375982475495
0.0376162146243
0.0376347587527
0.0376539497641
0.0376738349424
0.0376944602239
0.0377158693505
0.0377381019216
0.0377611914841
0.0377851635246
0.0378100336161
0.0378358035382
0.0378624587469
)
;
    }
    front
    {
        type            kqRWallFunction;
        value           nonuniform List<scalar> 
167
(
0.0338316210179
0.037014860867
0.0374453929695
0.0375051974031
0.037524499778
0.0375400764422
0.0375551032281
0.0375697433164
0.0370323596446
0.0427478971954
0.0435934251811
0.0437145767148
0.0437397992212
0.0437550532617
0.0437694412242
0.0437836633637
0.037490466045
0.0436386902446
0.044571278689
0.0447047325913
0.0447299498552
0.0447438953672
0.0447569673893
0.0447699245972
0.0375585716391
0.043774497175
0.0447207745588
0.0448550636135
0.0448790585034
0.0448917283687
0.0449036842667
0.0449156539293
0.0449275236436
0.03758045557
0.0438028534265
0.0447498041336
0.0448830320996
0.0449057666447
0.0449173057391
0.044928298052
0.0449394537636
0.0449506286595
0.044961656061
0.0375982475495
0.0438191345852
0.044765188479
0.0448973159839
0.0449189452259
0.0449294666413
0.0449395624618
0.0449499465802
0.0449604644156
0.0449709332729
0.0376162146243
0.0438347114062
0.0447798475351
0.0449110568872
0.0449317490221
0.0449413660842
0.0449506302859
0.0449602736767
0.0449701448412
0.0449800564058
0.0376347587527
0.0438507310388
0.0447950485847
0.0449255034022
0.0449454086597
0.0449542356971
0.0449627456406
0.0449716950404
0.044980944266
0.0449903078615
0.0376539497641
0.0438673098169
0.0448108808367
0.0449407075971
0.0449599532458
0.0449680982829
0.0449759370441
0.044984251985
0.044992918774
0.0450017598224
0.0376738349424
0.0438844839791
0.0448273527774
0.0449566485238
0.0449753408299
0.0449829017873
0.0449901520212
0.0449978981397
0.0450060329205
0.0450143880679
0.0376944602239
0.0439022899722
0.0448444823329
0.0449733229309
0.0449915509881
0.0449986154128
0.0450053562281
0.0450126015918
0.0450202603778
0.0450281759271
0.0377158693505
0.0439207670425
0.044862297272
0.0449907437673
0.0450085835048
0.0450152297934
0.0450215361055
0.0450283487923
0.0450355921779
0.0450431198177
0.0377381019216
0.0439399547831
0.0448808307356
0.0450089340957
0.045026451779
0.045032751228
0.0450386941175
0.045045142155
0.0450520328029
0.0450592304495
0.0377611914841
0.0439598909448
0.0449001178236
0.045027922512
0.0450451777486
0.0450511965201
0.0450568445177
0.0450629959353
0.0450696000452
0.045076529687
0.0377851635246
0.0439806095252
0.0449201929781
0.0450477397443
0.0450647879751
0.0450705894111
0.0450760102815
0.0450819341654
0.045088320521
0.0450950490475
0.0378100336161
0.0440021392033
0.044941087847
0.0450684159689
0.0450853111924
0.0450909575445
0.0450962181828
0.0451019865941
0.045108226243
0.0451148297568
0.0378358035382
0.0440245000885
0.0449628290696
0.0450899792554
0.0451067736689
0.0451123276201
0.0451174992411
0.0378624587469
0.0440477031713
0.0449854361755
0.0451124486008
0.0451291994613
0.0450089176991
0.0451358396404
)
;
    }
    atmosphere
    {
        type            inletOutlet;
        inletValue      nonuniform List<scalar> 0();
        value           nonuniform List<scalar> 0();
    }
    floatingObject
    {
        type            kqRWallFunction;
        value           nonuniform List<scalar> 0();
    }
    procBoundary2to0
    {
        type            processor;
        value           nonuniform List<scalar> 
14
(
0.045123186147
0.0451293614184
0.0451359171963
0.0451347268918
0.045123186147
0.0451398803395
0.0378899667243
0.0440717460584
0.0451347268918
0.0451526032857
0.0440717460584
0.0450332661609
0.0451526032857
0.045160151572
)
;
    }
    procBoundary2to1
    {
        type            processor;
        value           nonuniform List<scalar> 
18
(
0.0375839395748
0.0437976885962
0.0447826879212
0.0447826879212
0.0449391398398
0.0449391398398
0.0449723887844
0.0449811994247
0.0449898466443
0.0449996223923
0.0450106127573
0.0450228068703
0.0450361970485
0.0450507886743
0.0450665983401
0.0450836554786
0.0451019997204
0.0451216740895
)
;
    }
}


// ************************************************************************* //
