/*--------------------------------*- C++ -*----------------------------------*\
| =========                 |                                                 |
| \\      /  F ield         | OpenFOAM: The Open Source CFD Toolbox           |
|  \\    /   O peration     | Version:  v2012                                 |
|   \\  /    A nd           | Website:  www.openfoam.com                      |
|    \\/     M anipulation  |                                                 |
\*---------------------------------------------------------------------------*/
FoamFile
{
    version     2.0;
    format      ascii;
    class       volScalarField;
    location    "0.3";
    object      k_0;
}
// * * * * * * * * * * * * * * * * * * * * * * * * * * * * * * * * * * * * * //

dimensions      [0 2 -2 0 0 0 0];


internalField   nonuniform List<scalar> 
164
(
0.0543014676591
0.054415944228
0.054549260339
0.054702070327
0.0548762587145
0.0550746857823
0.0553033538268
0.0555849496252
0.0560582182963
0.0574499578055
0.0619521055348
0.0715811862571
0.0866069272918
0.0464268391617
0.052862925285
0.053802131759
0.0539628732924
0.0541030237577
0.0541923622869
0.0543024882203
0.0544352856364
0.0545901021234
0.0547674341315
0.0549695851886
0.0551998961189
0.0554645222783
0.0557870172835
0.0563025697268
0.0577168451079
0.062217542051
0.0714437583227
0.0864909666493
0.0463662920022
0.052793137611
0.0537470624325
0.0539162737716
0.0539906718967
0.0540703876534
0.0541707596359
0.054296924349
0.054451315303
0.0546305529893
0.0548349995506
0.0550680661365
0.0553331502289
0.0556348165818
0.0559981455683
0.0565528399795
0.0579577592638
0.0619429770598
0.0696691345441
0.0835533701043
0.0462979078986
0.0527199739105
0.0536858494686
0.053862100213
0.0539418762249
0.0540286336707
0.0541401555859
0.0542848001143
0.0544641567957
0.0546700925644
0.0549039558619
0.0551719749958
0.0554756463871
0.0558132689876
0.0562122411395
0.0567846617604
0.0581168720185
0.0614553225641
0.0676886275044
0.0829777198111
0.0462241767277
0.0526472933145
0.0536214183351
0.053802514963
0.0538858326164
0.0539775259417
0.0540974396209
0.0542552664465
0.0544424051481
0.0546653254593
0.0549292479707
0.0552465229184
0.055609599409
0.0559892884346
0.0564158637169
0.0569841378479
0.0581831415665
0.0608466869037
0.0660795350573
0.0871987310307
0.0461483929858
0.0525794907809
0.0535577762646
0.0537408423392
0.0538242941931
0.0539145745825
0.0540192925364
0.0540701321767
0.0540273202315
0.054155350531
0.0544370943732
0.0548726685159
0.0554663951292
0.0560269739267
0.0565475514707
0.0571360360204
0.058179321779
0.0602214674939
0.0647451187983
0.0870596399158
0.0460743439101
0.0525207617732
0.0534996758881
0.0536809607238
0.0537578793119
0.0538235916813
0.0537448953785
0.0525851489852
0.049534023866
0.048825920378
0.049102386518
0.0501184207139
0.0531856988164
0.0551551010219
0.0562646403832
0.0571013972838
0.058091600853
0.0597450288897
0.063724584159
0.08336182079
0.0460067335925
0.052475823702
0.0534532721885
0.0536262982028
0.0536758333538
0.0536414108499
0.0530137441749
0.0474186544281
0.0459546251241
0.0524471028205
0.0534286198816
0.0536019831003
0.053645823088
0.0535797856273
0.052803363586
0.0464938954887
0.0459546261209
0.0524471034132
0.0534286203955
0.0536019839044
0.0536458246763
0.0535797881602
0.0528033679433
0.046493896559
0.0460067362863
0.0524758258007
0.053453274091
0.053626300844
0.0536758374251
0.0536414167383
0.0530137503186
0.0474186591319
)
;

boundaryField
{
    back
    {
        type            kqRWallFunction;
        value           nonuniform List<scalar> 
164
(
0.0543014676591
0.054415944228
0.054549260339
0.054702070327
0.0548762587145
0.0550746857823
0.0553033538268
0.0555849496252
0.0560582182963
0.0574499578055
0.0619521055348
0.0715811862571
0.0866069272918
0.0464268391617
0.052862925285
0.053802131759
0.0539628732924
0.0541030237577
0.0541923622869
0.0543024882203
0.0544352856364
0.0545901021234
0.0547674341315
0.0549695851886
0.0551998961189
0.0554645222783
0.0557870172835
0.0563025697268
0.0577168451079
0.062217542051
0.0714437583227
0.0864909666493
0.0463662920022
0.052793137611
0.0537470624325
0.0539162737716
0.0539906718967
0.0540703876534
0.0541707596359
0.054296924349
0.054451315303
0.0546305529893
0.0548349995506
0.0550680661365
0.0553331502289
0.0556348165818
0.0559981455683
0.0565528399795
0.0579577592638
0.0619429770598
0.0696691345441
0.0835533701043
0.0462979078986
0.0527199739105
0.0536858494686
0.053862100213
0.0539418762249
0.0540286336707
0.0541401555859
0.0542848001143
0.0544641567957
0.0546700925644
0.0549039558619
0.0551719749958
0.0554756463871
0.0558132689876
0.0562122411395
0.0567846617604
0.0581168720185
0.0614553225641
0.0676886275044
0.0829777198111
0.0462241767277
0.0526472933145
0.0536214183351
0.053802514963
0.0538858326164
0.0539775259417
0.0540974396209
0.0542552664465
0.0544424051481
0.0546653254593
0.0549292479707
0.0552465229184
0.055609599409
0.0559892884346
0.0564158637169
0.0569841378479
0.0581831415665
0.0608466869037
0.0660795350573
0.0871987310307
0.0461483929858
0.0525794907809
0.0535577762646
0.0537408423392
0.0538242941931
0.0539145745825
0.0540192925364
0.0540701321767
0.0540273202315
0.054155350531
0.0544370943732
0.0548726685159
0.0554663951292
0.0560269739267
0.0565475514707
0.0571360360204
0.058179321779
0.0602214674939
0.0647451187983
0.0870596399158
0.0460743439101
0.0525207617732
0.0534996758881
0.0536809607238
0.0537578793119
0.0538235916813
0.0537448953785
0.0525851489852
0.049534023866
0.048825920378
0.049102386518
0.0501184207139
0.0531856988164
0.0551551010219
0.0562646403832
0.0571013972838
0.058091600853
0.0597450288897
0.063724584159
0.08336182079
0.0460067335925
0.052475823702
0.0534532721885
0.0536262982028
0.0536758333538
0.0536414108499
0.0530137441749
0.0474186544281
0.0459546251241
0.0524471028205
0.0534286198816
0.0536019831003
0.053645823088
0.0535797856273
0.052803363586
0.0464938954887
0.0459546261209
0.0524471034132
0.0534286203955
0.0536019839044
0.0536458246763
0.0535797881602
0.0528033679433
0.046493896559
0.0460067362863
0.0524758258007
0.053453274091
0.053626300844
0.0536758374251
0.0536414167383
0.0530137503186
0.0474186591319
)
;
    }
    sides
    {
        type            kqRWallFunction;
        value           nonuniform List<scalar> 0();
    }
    bottom
    {
        type            kqRWallFunction;
        value           nonuniform List<scalar> 10(0.0464268391617 0.0463662920022 0.0462979078986 0.0462241767277 0.0461483929858 0.0460743439101 0.0460067335925 0.0459546251241 0.0459546261209 0.0460067362863);
    }
    front
    {
        type            kqRWallFunction;
        value           nonuniform List<scalar> 
164
(
0.0543014676591
0.054415944228
0.054549260339
0.054702070327
0.0548762587145
0.0550746857823
0.0553033538268
0.0555849496252
0.0560582182963
0.0574499578055
0.0619521055348
0.0715811862571
0.0866069272918
0.0464268391617
0.052862925285
0.053802131759
0.0539628732924
0.0541030237577
0.0541923622869
0.0543024882203
0.0544352856364
0.0545901021234
0.0547674341315
0.0549695851886
0.0551998961189
0.0554645222783
0.0557870172835
0.0563025697268
0.0577168451079
0.062217542051
0.0714437583227
0.0864909666493
0.0463662920022
0.052793137611
0.0537470624325
0.0539162737716
0.0539906718967
0.0540703876534
0.0541707596359
0.054296924349
0.054451315303
0.0546305529893
0.0548349995506
0.0550680661365
0.0553331502289
0.0556348165818
0.0559981455683
0.0565528399795
0.0579577592638
0.0619429770598
0.0696691345441
0.0835533701043
0.0462979078986
0.0527199739105
0.0536858494686
0.053862100213
0.0539418762249
0.0540286336707
0.0541401555859
0.0542848001143
0.0544641567957
0.0546700925644
0.0549039558619
0.0551719749958
0.0554756463871
0.0558132689876
0.0562122411395
0.0567846617604
0.0581168720185
0.0614553225641
0.0676886275044
0.0829777198111
0.0462241767277
0.0526472933145
0.0536214183351
0.053802514963
0.0538858326164
0.0539775259417
0.0540974396209
0.0542552664465
0.0544424051481
0.0546653254593
0.0549292479707
0.0552465229184
0.055609599409
0.0559892884346
0.0564158637169
0.0569841378479
0.0581831415665
0.0608466869037
0.0660795350573
0.0871987310307
0.0461483929858
0.0525794907809
0.0535577762646
0.0537408423392
0.0538242941931
0.0539145745825
0.0540192925364
0.0540701321767
0.0540273202315
0.054155350531
0.0544370943732
0.0548726685159
0.0554663951292
0.0560269739267
0.0565475514707
0.0571360360204
0.058179321779
0.0602214674939
0.0647451187983
0.0870596399158
0.0460743439101
0.0525207617732
0.0534996758881
0.0536809607238
0.0537578793119
0.0538235916813
0.0537448953785
0.0525851489852
0.049534023866
0.048825920378
0.049102386518
0.0501184207139
0.0531856988164
0.0551551010219
0.0562646403832
0.0571013972838
0.058091600853
0.0597450288897
0.063724584159
0.08336182079
0.0460067335925
0.052475823702
0.0534532721885
0.0536262982028
0.0536758333538
0.0536414108499
0.0530137441749
0.0474186544281
0.0459546251241
0.0524471028205
0.0534286198816
0.0536019831003
0.053645823088
0.0535797856273
0.052803363586
0.0464938954887
0.0459546261209
0.0524471034132
0.0534286203955
0.0536019839044
0.0536458246763
0.0535797881602
0.0528033679433
0.046493896559
0.0460067362863
0.0524758258007
0.053453274091
0.053626300844
0.0536758374251
0.0536414167383
0.0530137503186
0.0474186591319
)
;
    }
    atmosphere
    {
        type            inletOutlet;
        inletValue      uniform 0.1;
        value           nonuniform List<scalar> 7(0.1 0.1 0.0835533701043 0.1 0.1 0.1 0.08336182079);
    }
    floatingObject
    {
        type            kqRWallFunction;
        value           nonuniform List<scalar> 8(0.049534023866 0.048825920378 0.049102386518 0.0501184207139 0.0474186544281 0.0464938954887 0.046493896559 0.0474186591319);
    }
    procBoundary3to4
    {
        type            processor;
        value           nonuniform List<scalar> 
13
(
0.0542939199033
0.0543925192506
0.0545069747783
0.0464779690383
0.0529263961844
0.0538491806438
0.0540007434504
0.0541265767688
0.0542054568179
0.0542054568179
0.0540310082681
0.0540310082681
0.0540310082681
)
;
    }
    procBoundary3to5
    {
        type            processor;
        value           nonuniform List<scalar> 10(0.0546379335067 0.054786958188 0.054956192719 0.0551502721129 0.0553908225098 0.0558216923119 0.057129484155 0.0613035772831 0.0707180570217 0.086253979401);
    }
    procBoundary3to6
    {
        type            processor;
        value           nonuniform List<scalar> 8(0.0509930112373 0.0542316745425 0.0557451443923 0.0568471912574 0.0579098184188 0.0594319149011 0.0626048231654 0.0779717902225);
    }
    procBoundary3to8
    {
        type            processor;
        value           nonuniform List<scalar> 8(0.0460743437292 0.0525207605109 0.0534996746596 0.053680961006 0.0537578826251 0.0538235983828 0.0537449035191 0.052585156107);
    }
}


// ************************************************************************* //
