/*--------------------------------*- C++ -*----------------------------------*\
| =========                 |                                                 |
| \\      /  F ield         | OpenFOAM: The Open Source CFD Toolbox           |
|  \\    /   O peration     | Version:  v2012                                 |
|   \\  /    A nd           | Website:  www.openfoam.com                      |
|    \\/     M anipulation  |                                                 |
\*---------------------------------------------------------------------------*/
FoamFile
{
    version     2.0;
    format      ascii;
    class       surfaceScalarField;
    location    "5.6";
    object      alphaPhi0.water;
}
// * * * * * * * * * * * * * * * * * * * * * * * * * * * * * * * * * * * * * //

dimensions      [0 3 -1 0 0 0 0];
oriented        oriented;


internalField   nonuniform List<scalar> 
304
(
-8.45829912215e-05
-9.7485095909e-05
-2.79786221985e-05
-0.0001117594447
-2.57809220462e-05
-0.000127640279401
-2.26016121075e-05
-0.000145160000428
-1.68900508884e-05
-0.000156239580394
-1.20812848399e-05
-7.25974913385e-08
-1.14474328786e-05
4.12673326529e-11
-1.6363276591e-08
-6.44075668374e-13
-9.71962818383e-05
-1.47791388271e-05
-0.000112271441577
-1.07046057433e-05
-0.000129471823578
-5.40122540664e-06
-0.000149238799656
2.87693773724e-06
-0.000157798846147
9.55022011712e-06
4.7145495443e-07
3.21932156644e-06
-1.54337806263e-09
7.6789459999e-09
-1.09351373703e-10
-9.47272116377e-05
-1.62592389275e-06
-0.000110118231398
4.68768558171e-06
-0.000128440044185
1.29205931987e-05
-0.000150268825096
2.47057336097e-05
-0.000157272118456
3.40465352272e-05
-6.22551411192e-07
1.76467729578e-05
-1.39085324524e-07
-3.5132383778e-09
-1.90235693649e-08
-7.71870667573e-05
4.09135631112e-06
-8.96836868766e-05
1.08715531979e-05
-0.00010443409586
1.94393318585e-05
-0.000122318614921
3.0805116811e-05
-0.000144912756679
4.7299876022e-05
-0.000150668713908
6.12378635937e-05
2.65210285145e-07
3.21763743895e-05
-4.7410157732e-08
-1.50585874502e-09
-2.5062814099e-09
-7.09573587479e-05
1.39646576973e-05
-8.20828050243e-05
2.19978023837e-05
-9.52497570045e-05
3.2607384695e-05
-0.000110676403495
4.62317641416e-05
-0.000131595629263
6.82191021995e-05
-0.000136180219395
8.97623691901e-05
-1.7756093669e-07
4.57803752532e-05
-4.46323601764e-09
5.45319914312e-10
-6.97270562527e-09
-6.28982614626e-05
2.2325887121e-05
-7.27384637552e-05
3.183881312e-05
-8.37003681868e-05
4.35701191951e-05
-9.65018595141e-05
5.90332553673e-05
-0.000114250870079
8.59681092396e-05
-0.000115318351955
0.000115163382645
5.70028409061e-08
5.78270758507e-05
-1.55581936556e-08
-7.27854888411e-10
-2.56732804448e-09
-4.67839908178e-05
2.07058118511e-05
-5.3862470766e-05
2.94049411331e-05
-6.17579060797e-05
3.97348145425e-05
-7.12132957553e-05
5.30260434737e-05
-8.16040635052e-05
6.94243609735e-05
-9.55332997985e-05
9.98975110931e-05
-9.07549140235e-05
0.000132870225335
-6.17650052466e-08
6.61601067454e-05
-4.21963836354e-08
4.74711590096e-10
-6.24000548622e-09
-3.35091386474e-05
1.799553359e-05
-3.82731487299e-05
2.54702611142e-05
-4.3160768509e-05
3.42929900255e-05
-4.95326711719e-05
4.61071743729e-05
-5.59681501759e-05
5.94619280753e-05
-6.45006917959e-05
7.79572476369e-05
-7.31416921729e-05
0.000108538986515
-6.40136903066e-05
0.000142039328679
-1.69730393178e-08
7.16403004693e-05
-1.61298113386e-08
-9.02739576991e-11
-2.23567695757e-08
-2.58907519172e-05
-2.87780150204e-05
2.83578234275e-05
-3.21732782467e-05
3.7688525413e-05
-3.53748738855e-05
4.93089564127e-05
-3.9655392447e-05
6.37424726678e-05
-4.35600932374e-05
8.18622677508e-05
-4.71957473116e-05
0.000112173679706
-3.82991791725e-05
0.000145771013192
-8.23034646805e-07
7.47725232812e-05
-8.39784096391e-07
8.22578822463e-09
-1.71128404905e-11
-1.94389275935e-05
2.97533962375e-05
-2.05137394556e-05
3.87636686866e-05
-2.13132147182e-05
5.0108711089e-05
-2.16275682559e-05
6.40569904862e-05
-2.17468509246e-05
8.19755127769e-05
-2.03558332846e-05
0.00011077903291
-1.36728711129e-05
0.000145086796756
-1.97883807391e-08
7.48197328594e-05
-6.1188328001e-10
-3.04415685764e-11
-6.28999995102e-10
-1.0190322639e-05
2.9519240215e-05
-9.12780325468e-06
3.77012520145e-05
-7.54169952904e-06
4.85232685319e-05
-4.70321059459e-06
6.12192368002e-05
-1.32065700227e-06
7.85907683294e-05
3.52917794644e-06
0.000105923241311
2.27836881489e-06
0.000140590111488
8.85772275088e-08
6.98629597022e-05
1.58688690181e-12
8.0244941008e-08
-1.95653088325e-10
-1.3323145181e-06
2.75994364248e-05
1.1018120578e-06
3.52672825596e-05
4.92223810835e-06
4.47040486934e-05
1.02030695978e-05
5.59394168003e-05
1.80222358992e-05
7.07682570501e-05
2.50037736295e-05
9.88993242518e-05
2.44151897193e-05
0.000127892616173
4.31633557404e-08
6.11590500873e-05
-8.50198832413e-09
1.2741904439e-07
2.27507334761e-10
6.67027726741e-06
2.43664879234e-05
1.06000809953e-05
3.13396990474e-05
1.60283228305e-05
3.92770096952e-05
2.31037633813e-05
4.88651667611e-05
3.22811003221e-05
6.15849107284e-05
4.47957226021e-05
8.63615093842e-05
4.18079172787e-05
0.000107469435047
7.06928982178e-08
4.96403217384e-05
3.17705415697e-09
1.74088445434e-07
1.88919561409e-09
1.41694985033e-05
2.00705880215e-05
1.96930693473e-05
2.58182306724e-05
2.60358131716e-05
3.29355882268e-05
3.35831710126e-05
4.13189800996e-05
4.33583635659e-05
5.18010629489e-05
6.1019789051e-05
6.86873901836e-05
5.6210425763e-05
8.12756160483e-05
1.11399858401e-07
3.79360237695e-05
2.88728050056e-08
1.79142371552e-07
4.78629520532e-09
1.61857440194e-05
1.13050373959e-05
2.15173906589e-05
1.4741065385e-05
2.83614166277e-05
1.8975583544e-05
3.65443959824e-05
2.47541629644e-05
4.63841291891e-05
3.14808336763e-05
5.96226816572e-05
3.85639418463e-05
8.0270955323e-05
4.80272294442e-05
6.9806421306e-05
5.42744552093e-05
2.71632126067e-07
2.52913019986e-05
9.63496411682e-08
2.22819884615e-07
1.31182332705e-08
2.18217833241e-05
6.05928582808e-06
2.85600026035e-05
8.00440316319e-06
3.74143177149e-05
1.01223973045e-05
4.87908262232e-05
1.33790145688e-05
6.167497886e-05
1.85983911119e-05
7.82034450396e-05
2.20350367396e-05
0.000101622089825
2.45992367556e-05
8.2252792301e-05
2.98427477157e-05
1.55201020275e-07
1.24187856149e-05
9.33333305978e-08
2.0035931678e-07
1.72099000184e-08
2.71873334339e-05
3.51925690602e-05
4.53153747616e-05
5.86949359297e-05
7.72938414839e-05
9.93286390827e-05
0.000123923845664
0.000103681449106
4.42528385441e-08
1.79263807696e-07
)
;

boundaryField
{
    back
    {
        type            calculated;
        value           uniform 0;
    }
    sides
    {
        type            calculated;
        value           uniform 0;
    }
    bottom
    {
        type            calculated;
        value           nonuniform List<scalar> 0();
    }
    front
    {
        type            calculated;
        value           uniform 0;
    }
    atmosphere
    {
        type            calculated;
        value           nonuniform List<scalar> 
17
(
-1.01777022277e-13
-1.43467663269e-09
-1.20170851509e-07
-6.39278939977e-08
9.26033732543e-15
-1.99592172439e-08
-3.85198919112e-08
-1.26873349333e-11
-8.62117696108e-07
1.08962042484e-15
-4.31738266904e-10
-9.08324909986e-09
1.31193332201e-10
6.8849986318e-10
3.03262695015e-09
9.8228686954e-09
1.62778242271e-07
)
;
    }
    floatingObject
    {
        type            calculated;
        value           nonuniform List<scalar> 0();
    }
    procBoundary11to9
    {
        type            processor;
        value           nonuniform List<scalar> 9(4.10095426476e-05 4.08821952457e-05 4.00566621688e-05 3.8482655663e-05 3.4409797499e-05 3.20021881294e-05 2.39098821489e-05 -2.84660421636e-08 4.19243788399e-11);
    }
    procBoundary11to10
    {
        type            processor;
        value           nonuniform List<scalar> 
23
(
7.31883520838e-05
-2.96138455765e-05
8.39981378951e-05
8.15751991988e-05
6.69677591369e-06
6.64002135716e-05
6.10852596249e-05
5.45378466646e-05
-1.4581411994e-05
4.0660677676e-05
-1.36733822691e-05
2.91880360733e-05
2.29344043247e-05
2.09528799763e-05
1.80436163264e-05
1.04256794406e-05
3.25361412226e-06
-3.43583156862e-06
-9.87209780969e-06
-1.56781594189e-05
-1.18107785708e-05
-1.65735334622e-05
-2.11267449214e-05
)
;
    }
}


// ************************************************************************* //
