/*--------------------------------*- C++ -*----------------------------------*\
| =========                 |                                                 |
| \\      /  F ield         | OpenFOAM: The Open Source CFD Toolbox           |
|  \\    /   O peration     | Version:  v2012                                 |
|   \\  /    A nd           | Website:  www.openfoam.com                      |
|    \\/     M anipulation  |                                                 |
\*---------------------------------------------------------------------------*/
FoamFile
{
    version     2.0;
    format      ascii;
    class       volScalarField;
    location    "0.7";
    object      alpha.water;
}
// * * * * * * * * * * * * * * * * * * * * * * * * * * * * * * * * * * * * * //

dimensions      [0 0 0 0 0 0 0];


internalField   nonuniform List<scalar> 
1984
(
1.00000004051
1.00000004428
1.00000004302
1.00000004051
1.00000004294
1.00000007673
1.00000011622
1.00000015124
1.00000019744
1.0000001638
1.00000018812
1.00000020453
1.00000020404
1.00000018254
1.00000007933
1
0.999999999873
0.999999871676
0.985485390755
0.285115386354
1.0000000456
1.00000004851
1.00000004674
1.00000004353
1.00000004539
1.0000000767
1.00000012088
1.00000015557
1.00000023819
1.00000018991
1.00000020463
1.00000021554
1.00000021145
1.0000001797
1.00000006774
1
0.999999999794
0.999999855822
0.984781550847
0.284072622724
1.00000004924
1.00000005188
1.000000049
1.00000004449
1.00000004433
1.00000007001
1.00000010049
1.00000018445
1.00000022238
1.00000023254
1.00000021481
1.00000021628
1.00000020211
1.0000001668
1.00000005009
1
0.999999999777
0.999999853113
0.98414294462
0.280449092843
1.00000005291
1.0000000551
1.00000005064
1.00000004367
1.00000003918
1.00000005208
1.00000009569
1.00000015531
1.00000031902
1.00000026946
1.00000023149
1.00000020839
1.00000018578
1.00000014222
1.00000002764
1
0.999999999766
0.999999846583
0.982976818208
0.274870410454
1.00000005717
1.00000005862
1.0000000522
1.00000004233
1.00000003374
1.00000003596
1.00000006536
1.0000001321
1.00000023178
1.00000035213
1.00000029301
1.00000019275
1.00000016156
1.0000001139
1
0.999999999993
0.999999999421
0.999999836983
0.981430577027
0.267883580808
1.00000006184
1.00000006228
1.00000005362
1.00000004072
1.00000002879
1.00000002507
1.00000004371
1.00000010661
1.00000017784
1.00000024279
1.00000027173
1.00000016989
1.00000013588
1.00000008457
1
0.999999999993
0.999999996219
0.999999818222
0.979325609055
0.259384397251
1.00000006646
1.00000006568
1.00000005466
1.00000003858
1.00000002354
1.0000000163
1.00000002908
1.00000008301
1.00000014985
1.0000002002
1.00000023941
1.00000014695
1.00000011203
1.00000006094
1
0.999999999993
0.999999995627
0.999999801333
0.97668800956
0.249344361339
1.00000007048
1.0000000684
1.00000005511
1.00000003596
1.00000001759
1.00000000768
1.00000001651
1.00000006356
1.00000012297
1.00000017209
1.00000020369
1.00000012587
1.00000009202
1.00000004428
0.999999998986
0.999999984882
0.999999987564
0.999999772517
0.973365297691
0.237866351351
1.00000007341
1.00000007002
1.00000005476
1.00000003293
1.00000001157
0.999999999121
1.00000000509
1.00000004549
1.00000010283
1.00000014468
1.00000017552
1.00000010874
1.00000007701
1.00000003254
0.999999996551
0.999999981427
0.999999980801
0.999999743554
0.9692692722
0.22500900774
1.00000007486
1.00000007022
1.00000005335
1.00000002948
1.00000000555
0.999999991964
0.999999996374
1.00000003136
1.00000008211
1.0000001244
1.00000014816
1.00000009472
1.00000006607
1.00000002486
0.999999995048
0.999999981185
0.999999980059
0.99999971153
0.964227177459
0.210922292465
1.00000007459
1.00000006881
1.00000005078
1.00000002553
1.00000000008
0.999999983505
0.999999987182
1.00000001816
1.00000006738
1.00000010368
1.000000128
1.00000008415
1.00000005907
1.00000002113
0.999999995331
0.999999982516
0.999999981879
0.999999674052
0.958131487779
0.19567788167
1.00000007253
1.00000006577
1.00000004708
1.00000002126
0.999999996094
0.999999976228
0.999999979247
1.00000000833
1.00000005152
1.00000008835
1.00000010763
1.00000007585
1.00000005512
1.00000002066
0.999999996837
0.999999986271
0.999999985183
0.999999629591
0.950773576833
0.179482927429
1.00000006876
1.00000006124
1.00000004246
1.00000001684
0.999999991801
0.999999970871
0.999999973072
1.00000000062
1.0000000404
1.00000007201
1.00000009331
1.00000007095
1.00000005505
1.0000000239
1
0.99999999925
0.999999990329
0.999999579779
0.941943470729
0.16252258431
1.00000006346
1.00000005544
1.00000003715
1.00000001248
0.999999988484
0.99999996913
0.999999968873
0.999999993168
1.0000000252
1.00000006346
1.00000008217
1.00000007792
1.00000006975
1.00000004105
1
1
0.999999989562
0.999999513949
0.931453946073
0.144980005985
1.0000000568
1.00000004845
1.00000003109
1.00000000771
0.999999985967
0.999999965292
0.999999953855
0.999999979647
1.00000001866
1.0000000518
1.00000010258
1.00000010308
1.00000010715
1.00000006804
1
1.00000000001
0.999999987864
0.999999434951
0.919074660683
0.127075126902
1.00000005132
1.0000000424
1.00000002456
1.00000000205
0.999999981656
0.999999946428
0.999999920023
0.99999996066
1.00000000288
1.00000006311
1.00000009877
1.0000001295
1.00000013062
1.00000009786
1
1.00000000004
0.999999985916
0.999999341807
0.90456402202
0.109054209841
1.00000004703
1.00000003458
1.00000001718
0.999999996148
0.99999996132
0.999999926986
0.999999896926
0.999999896926
0.999999999265
1.00000005969
1.00000013177
1.00000017163
1.00000018967
1.00000014302
1
1.00000000007
0.999999984809
0.999999236558
0.887684764897
0.0911793128188
1.00000003842
1.00000002727
1.00000000595
0.999999979481
0.999999951743
0.999999897039
0.999999896926
0.999999938434
1.00000000444
1.00000005453
1.0000001094
1.00000014193
1.00000015516
1.00000011219
1
1.00000000014
0.999999981648
0.99999911669
0.868218859112
0.0737252803578
1.00000004158
1.00000002384
1.00000000164
0.999999973177
0.999999928474
0.999999917591
0.999999932592
0.999999981564
1.00000000998
1.00000005233
1.0000000961
1.00000012627
1.00000013758
1.00000009589
1
1.0000000002
0.999999978535
0.999998985539
0.845988413113
0.0569750538919
1.00000002443
1.00000001168
0.999999992982
0.999999962813
0.999999949107
0.999999958555
0.999999965541
0.999999988362
1.00000001353
1.00000005212
1.00000009147
1.00000012084
1.00000013193
1.00000009076
1
1.00000000031
0.999999975413
0.99999884691
0.820834988844
0.0411771752238
1.00000000966
1.00000000201
0.999999989959
0.999999969755
0.999999966388
0.99999996455
0.999999967924
0.999999988087
1.00000001342
1.00000004966
1.00000008669
1.00000011546
1.00000012595
1.00000008216
1
1.00000000049
0.999999972943
0.999998707922
0.792647087799
0.0265719193889
1.00000000123
0.999999994171
0.999999984527
0.999999971342
0.999999963712
0.999999958318
0.999999965034
0.999999986746
1.00000000998
1.00000004312
1.00000007799
1.00000010586
1.00000011592
1.00000007331
1
1.0000000009
1.00000002138
0.999998592275
0.76145994322
0.0133883216918
1.00000000178
0.999999995962
0.999999984085
0.999999970655
0.999999959696
0.999999954401
0.999999964726
0.999999982474
1.00000000255
1.00000003149
1.00000006637
1.0000000959
1.00000010761
1.00000006557
1
1.000000001
0.999999983156
0.999998521758
0.727519820268
0.000958582008094
1.00000001045
1.0000000025
0.999999988106
0.999999970694
0.999999956134
0.999999948755
0.999999960441
0.99999997255
0.99999999377
1.00000002001
1.00000005853
1.00000009292
1.00000010783
1.00000006465
1
1.00000000089
0.999999969961
0.999998400877
0.682323583381
-4.15911049587e-28
1.0000000204
1.0000000106
0.999999993597
0.999999970364
0.999999946255
0.999999938351
0.999999888506
0.999999901751
0.999999980129
1.0000000101
1.00000005289
1.00000009191
1.00000010989
1.00000006574
1
1.00000000071
0.999999967941
0.999998340093
0.635356984696
1.05879118405e-23
1.00000003201
1.00000002007
0.999999997849
0.99999996751
0.999999919805
0.999999855977
0.999999855141
0.99999985514
0.999999882283
1.00000000302
1.00000005847
1.00000011021
1.00000013776
1.00000009087
1
1.00000000044
0.999999970126
0.999995058218
0.587875923332
-1.33751134221e-40
1.00000003326
1.0000000225
1.00000000112
0.999999975266
0.999999931812
0.999999865517
0.99999985514
0.99999985514
0.999999855182
1.00000000821
1.00000005793
1.00000010602
1.00000013311
1.00000008811
1
1.00000000037
0.999999974238
0.999007101244
0.541819429712
0
1.00000002815
1.00000001784
0.999999999473
0.999999979871
0.999999956025
0.999999923988
0.999999874541
0.999999867719
0.99999993582
1.00000002401
1.00000007401
1.00000011526
1.00000014031
1.00000009488
1
1.00000000058
0.999999978988
0.996828950163
0.498334913302
0
1.00000002009
1.00000000882
0.999999994193
0.999999975817
0.999999959853
0.9999999566
0.999999943786
0.999999959213
1
1.00000005466
1.00000010846
1.00000014031
1.00000016417
1.00000011556
1
1.00000000136
0.999999984705
0.993486014902
0.458296415303
0
1.00000000876
0.999999999322
0.99999998334
0.99999996431
0.999999948818
0.999999942323
0.99999995028
0.999999988643
1.00000002888
1.00000009425
1.00000015544
1.00000017455
1.00000019759
1.00000014447
1
1.00000000033
0.999999994038
0.98923071182
0.422529940344
-4.03896783473e-29
0.999999998014
0.999999983285
0.99999996672
0.999999947449
0.999999932442
0.999999915332
0.999999940982
0.999999992258
1.00000006258
1.00000013644
1.00000020853
1.00000021157
1.00000023325
1.00000017532
1
1.00000000075
0.999999996703
0.984540831031
0.392029321136
-5.04870979341e-30
0.999999979777
0.999999963581
0.999999945341
0.999999928179
0.99999991128
0.999999903458
0.999999938568
1.00000000081
1.00000009495
1.00000017837
1.00000026416
1.00000024707
1.00000026585
1.00000020275
1.00000000518
1
1.00000000056
0.980042059549
0.367625996101
0
0.999999958822
0.999999940252
0.999999922924
0.999999900401
0.999999882662
0.999999902226
0.999999942055
1.00000001539
1.0000001269
1.00000021915
1.00000032012
1.00000027838
1.00000029132
1.00000022413
1.00000001667
1
1
0.976522849456
0.35032170261
0
0.99999993575
0.999999916222
0.999999888547
0.999999872379
0.999999872374
0.999999904295
0.999999953484
1.00000003465
1.00000015948
1.00000025805
1.00000037387
1.00000030374
1.00000030556
1.00000023515
1.00000001647
1
1
0.97467124328
0.3406447195
0
0.999999914801
0.999999886661
0.999999873444
0.999999872374
0.999999883414
0.999999917042
0.999999970457
1.00000005891
1.00000019216
1.00000029299
1.00000042092
1.00000032076
1.00000030517
1.00000023074
1.00000003405
1.00000001561
1
0.976011799233
0.338762437941
4.23520209672e-23
0.999999888779
0.999999875749
0.999999872374
0.999999872493
0.999999903709
0.999999942652
0.999999991264
1.00000008714
1.00000022213
1.00000031952
1.00000045401
1.0000003254
1.00000028685
1.00000020599
1.00000004442
1.00000002713
1
0.982487034166
0.349876157643
-2.01948391737e-26
0.99999987612
0.999999875653
0.999999873565
0.999999890924
0.99999992275
0.999999968663
1.00000001943
1.0000001163
1.00000024403
1.00000033064
1.00000046265
1.00000031149
1.0000002473
1.00000015952
1.0000000333
1.00000000241
1.00000000664
0.99523517496
0.37722792465
2.52988020464e-23
0.999999888259
0.999999885083
0.9999998939
0.999999915852
0.999999949638
0.999999992848
1.00000004999
1.00000014043
1.00000025021
1.00000031728
1.00000043402
1.00000027107
1.00000017913
1.00000010322
1.00000000562
0.999999966606
1.0000000104
1
0.434041887466
0.000280920367949
0.999999918917
0.999999923214
0.999999936958
0.999999960049
0.999999981544
1.0000000195
1.00000007619
1.00000015966
1.00000023771
1.00000027215
1.00000034284
1.00000017252
1.00000009804
1.00000004562
0.999999954866
0.999999919825
0.999999994187
1
0.498792910884
0.00170471309165
0.999999962435
0.999999975601
0.999999987054
1.00000000452
1.00000002589
1.00000006005
1.00000012927
1.00000018155
1.00000020898
1.00000017132
1.00000017667
1.00000005695
1
0.999999983541
0.999999889423
0.999999863377
0.999999984202
0.999999999398
0.654169395963
0.0197727214382
1.00000000618
1.00000001724
1.00000004437
1.00000005285
1.00000010681
1.00000014577
1.00000018458
1.00000019625
1.00000015309
1.00000007582
1.00000003454
0.999999954543
0.999999739401
0.999999526371
0.999999420764
0.999999639839
0.999999986709
0.999999999398
0.672457426525
0.0214418636814
1.00000003748
1.00000006328
1.00000008087
1.00000013561
1.0000001516
1.00000020749
1.00000020889
1.00000027226
1.00000015385
1.00000000927
0.999999951255
0.999999563839
0.999999307584
0.999999294243
0.999999294341
0.999999299231
0.999999924809
1
0.697119157131
0.0159870872202
1.00000005699
1.00000008285
1.00000010977
1.00000012417
1.00000021081
1.00000027506
1.00000023318
1.00000014291
1.00000002948
0.999999963587
0.99999987305
0.999999681153
0.999999373603
0.999999294272
0.999999294252
0.99999935084
0.999999933679
1
0.701633432926
0.000143118676098
1.00000007144
1.00000008208
1.00000008584
1.00000009261
1.000000147
1.00000011172
1.00000006756
0.999999989861
0.999999928368
0.99999981018
0.999999731652
0.999999722279
0.999999720984
0.999999448132
0.999999529879
0.999999863358
1.00000000063
1.00000003287
0.935037257139
0.0397317236124
1.00000012256
1.00000014177
1.00000014027
1.00000012006
1.00000007785
1.00000001835
0.999999968321
0.999999895517
0.999999787006
0.999999704403
0.999999420673
0.999999379999
0.999999404826
0.999999663358
0.999999860242
1.00000000261
1.00000005283
1.00000005415
1
0.37378277646
1.00000016028
1.00000017179
1.00000016007
1.00000013173
1.00000007731
1
0.99999990973
0.999999818001
0.999999709137
0.999999379164
0.999999379144
0.999999379192
0.999999379999
0.999999640462
1
1.00000004267
1.00000009785
1.0000000948
1
0.0628607829788
1.00000017634
1.00000018354
1.00000016337
1.00000012429
1.00000006147
0.999999976015
0.999999879016
0.99999974659
0.999999563448
0.999999379182
0.999999379181
0.999999379243
0.999999441973
0.99999989727
1.00000000579
1.00000011675
1.00000019103
1.00000021041
0.881167719987
-8.67361737988e-20
1.00000019941
1.00000019793
1.000000171
1.00000012038
1.00000004537
0.99999995683
0.999999815876
0.99999969586
0.999999674766
0.999999691905
0.999999692674
0.999999726542
0.999999809321
0.999999989208
1.00000011027
1.00000024139
1.00000032157
1.00000009636
0.961957671921
0.00444985980402
1.00000020883
1.0000002006
1.00000016693
1.00000010911
1.00000002841
0.99999991756
0.99999980493
0.999999875577
0.9999999249
1.00000004225
1.00000026295
1.00000043725
1.00000051506
1.00000042602
1
0.0317743228848
1.00000020424
1.00000018576
1.00000014636
1.00000008301
0.999999997029
0.999999887653
0.999999768742
0.999999798576
1.00000016646
1.00000030878
1.00000043809
1.00000054078
1.00000059634
1.00000058056
1
0.501448522132
1.00000018436
1.00000015519
1.00000010506
1.00000003104
0.999999932984
0.999999797814
0.999999604196
0.99999979308
1.00000030506
1.00000044101
1.00000051578
1.00000055109
1.00000054934
1.0000004685
1
0.501451754375
1.00000014023
1.00000010176
1.00000004572
0.999999969903
0.999999862675
0.999999680342
0.999999567006
0.999999769746
1.00000026785
1.00000043852
1.00000056401
1.00000058935
1.00000055411
1.00000030546
1
0.0317756191822
1.00000015084
1.0000001023
1.00000002332
0.999999935516
0.9999998175
0.999999632554
0.999999337066
0.99999933685
0.999999336881
0.999999336932
0.999999661765
0.999999960823
1.00000010537
1.0000003899
1.00000062847
1.00000066476
1.00000059156
1
0.961961188899
0.00445006375721
0.999999963231
0.999999926376
0.999999881674
0.999999826631
0.999999773823
0.999999711849
0.999999668564
0.999999429893
0.999999336924
0.999999337964
0.999999620512
0.999999981841
1.00000018865
1.00000045121
1.00000071701
1.00000074002
1.00000063664
1.00000000001
0.881169586342
-4.33680868994e-20
0.999999881159
0.999999834292
0.99999979036
0.999999749505
0.999999698822
0.999999656531
0.999999584904
0.999999341896
0.999999337964
0.999999447033
0.999999870057
1.0000000204
1.00000031367
1.00000058822
1.0000008971
1.00000088535
1.00000072241
1
0.999999999996
0.0628619631417
0.999999792362
0.999999743415
0.999999698836
0.999999673459
0.999999634173
0.999999523856
0.999999371639
0.99999935345
0.999999484246
0.999999777829
0.999999958813
1.0000001363
1.00000045438
1.00000074741
1.00000109676
1.00000102733
1.00000078235
1.00000022742
1
0.373782164628
0.999999650404
0.999999606182
0.999999550911
0.999999512377
0.999999493017
0.999999465114
0.999999468146
0.999999562964
0.999999749201
0.999999932901
1.00000003001
1.00000025826
1.00000059192
1.00000088959
1.00000125155
1.00000108859
1.0000007327
1.00000024359
0.935036213163
0.0397308920842
0.999999503698
0.999999500454
0.999999496771
0.999999492548
0.99999949067
0.999999504549
0.999999627107
0.999999753705
0.999999920609
1.00000000359
1.00000013757
1.00000037351
1.00000070414
1.00000098049
1.00000132305
1.00000105028
1.00000061096
1.00000006642
0.701632217482
0.000143209975089
0.999999698669
0.999999679858
0.999999656314
0.999999634092
0.999999592701
0.999999657993
0.999999766371
0.999999900968
0.999999995596
1.00000009115
1.00000022943
1.00000046002
1.00000077033
1.00000100254
1.00000129472
1.00000092075
1.00000045858
1.00000000062
0.697117708448
0.0159868719284
0.999999817135
0.999999817802
0.999999814112
0.999999814154
0.999999817315
0.999999827881
0.999999883314
0.999999966506
1.00000005182
1.00000015575
1.00000029115
1.00000050396
1.00000077694
1.0000009533
1.00000117348
1.00000073132
1.0000003002
1
0.672454641488
0.0214415743019
0.999999875222
0.999999871447
0.999999863638
0.999999858969
0.999999850093
0.999999867826
0.999999930245
0.999999998756
1.0000000855
1.00000019207
1.00000031755
1.00000050227
1.00000072579
1.00000084332
1.00000098171
1.00000052261
1.00000015024
1
0.654164162495
0.0197718905469
0.999999909221
0.999999901486
0.999999889227
0.999999871973
0.999999846368
0.999999837524
0.999999910965
1.00000000068
1.00000009175
1.0000002054
1.00000031723
1.00000046842
1.00000063523
1.00000069791
1.0000007567
1.0000003332
1.00000004242
1
0.498791871161
0.00170475453896
0.999999913186
0.99999990521
0.999999879918
0.999999840211
0.999999837603
0.999999837999
0.999999890747
0.999999993042
1.00000008682
1.00000020249
1.000000301
1.00000042666
1.00000053511
1.00000055415
1.00000054597
1.00000017392
1.00000000603
1
0.434040454268
0.000280910378881
0.999999937696
0.999999929354
0.99999991617
0.999999911436
0.999999902872
0.999999950722
0.999999975921
1.00000001402
1.00000009912
1.00000019357
1.00000028021
1.000000399
1.00000045446
1.00000044941
1.00000039252
1.0000000441
1
0.99523496292
0.377226613014
-2.06774958299e-22
0.999999988618
0.999999981776
0.999999973008
0.999999969676
0.999999969395
0.999999972296
0.999999990635
1.00000001712
1.00000009417
1.00000015803
1.00000024487
1.00000036552
1.00000040822
1.00000039559
1.00000030073
1.00000000905
1
0.982486569135
0.349875533705
-1.69400510804e-22
0.999999995427
0.999999989928
0.999999978281
0.999999965293
0.999999963615
0.999999963615
0.999999976151
1.00000000305
1.0000000401
1.00000007914
1.00000014088
1.00000025728
1.00000036467
1.00000036122
1.00000020132
1
1
0.976011315458
0.338762042828
-4.23520209672e-23
1.0000000041
1.00000000007
0.999999991942
0.999999980561
0.999999971519
0.999999975378
0.999999989565
1.00000000851
1.00000003613
1.00000006983
1.00000011231
1.00000017037
1.000000219
1.00000029263
1.00000005985
1
1
0.974670898142
0.340644264892
0
1.0000000152
1.000000012
1.00000000344
0.999999996682
0.999999992657
0.999999994444
1.00000000175
1.00000001884
1.00000004555
1.00000007618
1.00000010981
1.00000015876
1.00000019883
1.00000017132
1.00000000323
1
1
0.976522818174
0.350321322781
-3.98272977783e-57
1.00000002616
1.00000002419
1.00000001637
1.00000000735
1.00000000258
1.0000000031
1.00000001286
1.00000003201
1.00000005739
1.00000008574
1.00000011429
1.0000001543
1.00000018561
1.00000014674
1
1
1.00000000069
0.980042098922
0.367625652429
3.94430452611e-32
1.00000003579
1.00000003432
1.00000002723
1.00000001896
1.00000001365
1.0000000145
1.00000002366
1.0000000412
1.0000000645
1.00000009002
1.00000011429
1.00000014598
1.00000016661
1.00000012191
1
1.00000000249
0.999999996049
0.984540799547
0.392028957474
6.31088724177e-31
1.00000004352
1.00000004159
1.00000003432
1.00000002577
1.00000001983
1.00000001965
1.00000002714
1.00000004262
1.00000006372
1.00000008669
1.00000010744
1.00000013126
1.00000014106
1.00000009544
1
1.00000000071
0.99999999364
0.989230634296
0.422529510215
-6.67571727133e-57
1.00000005002
1.0000000466
1.00000003789
1.0000000276
1.00000001968
1.00000001743
1.00000002274
1.00000003643
1.0000000563
1.00000007846
1.00000009772
1.00000011475
1.00000011497
1.00000006962
1
1.00000000191
0.999999983123
0.993485944264
0.458295975543
-6.46234853557e-28
1.00000005705
1.00000005107
1.00000003952
1.0000000259
1.00000001476
1.00000000946
1.00000001253
1.000000026
1.00000004722
1.00000007174
1.00000009277
1.00000010565
1.00000010305
1.00000005359
1
1.00000000031
0.99999997791
0.996828904739
0.498334513969
0
1.00000006147
1.00000005373
1.00000003927
1.00000002208
1.00000000765
0.999999998756
1.00000000042
1.0000000159
1.00000004145
1.00000007065
1.00000009604
1.00000011079
1.00000010603
1.00000005045
1
1.00000000042
0.9999999728
0.999007079806
0.54181905085
0
1.00000006239
1.00000005426
1.00000003836
1.0000000192
1.00000000195
0.999999989036
0.999999990789
1.00000000957
1.00000003992
1.00000007385
1.00000010415
1.00000012312
1.0000001199
1.00000006077
1
1.00000000125
0.999999968879
0.999995051386
0.587875522751
-1.3373977426e-40
1.00000006125
1.00000005377
1.00000003838
1.00000001939
1.00000000256
0.999999990019
0.999999996217
1.00000001476
1.00000004609
1.00000008268
1.00000011711
1.00000014052
1.00000014064
1.00000008017
1.00000000001
1.00000000251
0.99999996671
0.999998337944
0.635356531556
1.05879118405e-23
1.00000003575
1.00000003161
1.00000002158
1.00000000932
0.999999999822
0.999999995953
1.00000000179
1.00000001824
1.00000004233
1.00000007207
1.00000010152
1.00000012324
1.00000012592
1.00000007244
1.00000000003
1.00000000014
0.999999968475
0.999998399437
0.682323119933
1.69406173573e-22
1.00000003238
1.0000000292
1.00000002033
1.00000000956
1.00000000174
1.00000000076
1.00000000794
1.00000002538
1.00000005239
1.00000008513
1.00000011728
1.00000014163
1.00000014572
1.00000009058
1.00000000001
1.00000000008
0.999999981616
0.999998521195
0.727519418127
0.000958484647348
1.00000003212
1.00000002956
1.00000002147
1.00000001165
1.00000000417
1.0000000039
1.00000001267
1.00000003291
1.00000006263
1.00000009839
1.00000013366
1.00000016024
1.00000016402
1.00000010668
1.00000000001
1.00000000016
1.00000002147
0.999998592121
0.761459545031
0.0133881933029
1.000000034
1.00000003213
1.00000002491
1.0000000156
1.00000000762
1.00000000658
1.0000000163
1.00000003803
1.00000007061
1.0000001102
1.0000001511
1.00000018066
1.00000018245
1.00000012218
1
1.00000000034
0.999999972685
0.999998707781
0.792646691675
0.0265717584712
1.00000003824
1.00000003818
1.00000003225
1.00000002187
1.00000001067
1.00000000713
1.00000001665
1.00000003967
1.00000007697
1.00000012502
1.00000017987
1.00000021403
1.00000021078
1.00000014263
1
1.00000000025
0.999999975397
0.999998847076
0.820834601356
0.0411769801682
1.00000004846
1.00000005181
1.00000004369
1.00000003015
1.00000001159
1.00000000488
1.00000001431
1.00000003952
1.00000008566
1.0000001518
1.00000023342
1.00000026159
1.00000024051
1.00000016053
1
1.00000000018
0.999999978753
0.99999898595
0.845988050629
0.0569748363786
1.00000006886
1.00000007143
1.00000004946
1.00000004226
1.00000001249
1.00000000427
1.00000001042
1.00000004124
1.00000009519
1.00000019522
1.00000026398
1.00000033033
1.0000002685
1.00000018114
1
1.00000000011
0.999999981694
0.99999911693
0.868218531905
0.0737250561202
1.00000007899
1.0000000922
1.00000006148
1.00000004784
1.00000001346
1.00000000029
1.00000000909
1.00000003552
1.00000010437
1.00000018231
1.00000035756
1.00000038118
1.00000032609
1.00000019498
1
1.00000000004
0.999999985048
0.999999237423
0.887684442922
0.0911790709995
1.00000008935
1.00000013
1.00000005961
1.00000002507
1.00000001009
1.00000000238
1.00000000624
1.00000002265
1.00000006921
1.00000015943
1.00000026127
1.00000034857
1.00000026232
1.0000001053
1
1.00000000001
0.999999986292
0.999999342507
0.904563676593
0.109053963996
1.0000000951
1.00000010857
1.00000004331
1.00000002376
1.00000000979
1.00000000302
1.0000000064
1.00000002263
1.00000007062
1.00000017785
1.0000002252
1.00000027756
1.00000021005
1.00000009243
1
1
0.999999988221
0.999999436249
0.919074323773
0.127074850179
1.00000009354
1.00000009385
1.00000003991
1.00000002215
1.00000000923
1.00000000306
1.00000000746
1.00000002778
1.00000008922
1.00000018685
1.00000026387
1.00000030938
1.00000015061
1.00000008918
1
0.99999999999
0.999999990382
0.999999516154
0.931453741468
0.14497965122
1.00000009998
1.00000005184
1.00000003635
1.0000000206
1.00000000827
1.00000000292
1.00000000867
1.00000003892
1.00000012586
1.00000022701
1.00000023062
1.00000027382
1.00000015326
1.00000009751
1
0.999999999993
0.999999991685
0.999999583982
0.941943440162
0.16252216365
1.00000005305
1.0000000464
1.00000003369
1.00000001905
1.00000000737
1.00000000247
1.00000001341
1.00000006785
1.00000019302
1.00000019778
1.00000027503
1.00000023779
1.00000016117
1.00000011011
1
0.999999999986
0.999999992983
0.99999964094
0.950773629219
0.179482514334
1.00000004798
1.00000004339
1.00000003178
1.00000001772
1.00000000618
1.00000000277
1.00000002468
1.00000011264
1.00000015538
1.00000026994
1.00000027718
1.0000001858
1.00000016746
1.00000012543
1
0.999999999985
0.999999994092
0.999999688193
0.958131597857
0.195677469962
1.00000004585
1.00000004175
1.00000003029
1.00000001623
1.00000000483
1.00000000362
1.00000003695
1.00000010078
1.00000017717
1.00000026893
1.00000018405
1.00000018222
1.00000017378
1.00000013924
1
0.999999999986
0.999999997273
0.999999731581
0.964227299547
0.210921896512
1.00000004487
1.00000004049
1.00000002864
1.00000001424
1.00000000282
1.00000000231
1.0000000354
1.00000007804
1.00000017498
1.00000020109
1.0000001973
1.00000018345
1.00000017984
1.00000015168
1.00000001366
1
0.999999999905
0.99999976703
0.969269389082
0.225008627445
1.0000000439
1.00000003891
1.00000002646
1.00000001157
1.00000000011
0.999999997817
1.00000001973
1.00000007686
1.00000014382
1.00000025709
1.00000022876
1.00000018357
1.00000018492
1.00000016354
1.00000003462
1
0.999999999851
0.999999791806
0.973365395922
0.237865984701
1.00000004236
1.00000003671
1.00000002367
1.00000000835
0.999999996956
0.999999993543
1.00000000799
1.00000005899
1.00000011527
1.00000017078
1.00000021962
1.00000018336
1.0000001921
1.00000017518
1.00000005504
1
0.999999999918
0.999999811741
0.976688062221
0.249344019103
1.00000004011
1.00000003386
1.00000002036
1.0000000048
0.999999993346
0.999999989994
1.00000000187
1.00000004852
1.00000011394
1.0000001702
1.00000021292
1.00000018538
1.00000019949
1.00000018847
1.00000007285
1
0.999999999934
0.999999827044
0.979325605458
0.259384072232
1.00000003731
1.0000000306
1.0000000169
1.00000000143
0.999999990051
0.999999986962
1
1.00000005395
1.00000014439
1.00000014681
1.00000023953
1.00000019292
1.00000021005
1.00000020126
1.00000009094
1
0.999999999842
0.999999839026
0.981430555355
0.267883263603
1.0000000344
1.00000002737
1.00000001386
0.999999999151
0.999999988169
0.999999986782
1.00000000538
1.00000008374
1.00000010291
1.00000018402
1.00000020554
1.00000020054
1.00000021975
1.00000021545
1.00000010522
1
0.999999999814
0.999999847749
0.982976798008
0.274870118503
1.00000003317
1.00000002462
1.00000001125
0.999999997529
0.999999988169
0.999999989053
1.00000001615
1.00000007057
1.00000014527
1.00000020347
1.00000017381
1.00000020694
1.00000023097
1.00000022664
1.00000011858
1
0.999999999795
0.99999985389
0.984142925181
0.280448832155
1.00000003033
1.00000002108
1.00000000855
0.999999996596
0.999999989267
0.99999999368
1.00000002717
1.00000009255
1.00000011439
1.00000019341
1.00000018172
1.00000021451
1.00000023521
1.00000023082
1.00000012031
1
0.999999999783
0.999999856496
0.984781529444
0.284072398509
1.00000001302
1.0000000074
1.00000000101
0.99999999645
0.999999995573
1.00000000283
1.00000004222
1.0000000456
1.00000008685
1.00000011512
1.00000010285
1.0000001164
1.00000012384
1.00000011345
1.00000003518
1
0.999999999869
0.999999871431
0.98548534397
0.285115213979
)
;

boundaryField
{
    back
    {
        type            zeroGradient;
    }
    sides
    {
        type            zeroGradient;
    }
    bottom
    {
        type            zeroGradient;
    }
    front
    {
        type            zeroGradient;
    }
    atmosphere
    {
        type            inletOutlet;
        inletValue      uniform 0;
        value           nonuniform List<scalar> 
100
(
0
0
0
0
0
0
0
0
0
0
0
0
0
0
0
0
0
0
0
0
0
0
0
0
0
0
0
0
0
0
0
0
0
0
0
0
0
0
0
0.0197727214382
0
0
0
0.0397317236124
0.37378277646
0.0628607829788
0
0
0.0317743228848
0.501448522132
0.501451754375
0.0317756191822
0
0
0.0628619631417
0.373782164628
0.0397308920842
0
0
0
0.0197718905469
0
0
0
0
0
0
0
0
0
0
0
0
0
0
0
0
0
0
0
0
0
0
0
0
0
0
0
0
0
0
0
0
0
0
0
0
0
0
0
)
;
    }
    floatingObject
    {
        type            zeroGradient;
    }
}


// ************************************************************************* //
