/*--------------------------------*- C++ -*----------------------------------*\
| =========                 |                                                 |
| \\      /  F ield         | OpenFOAM: The Open Source CFD Toolbox           |
|  \\    /   O peration     | Version:  v2012                                 |
|   \\  /    A nd           | Website:  www.openfoam.com                      |
|    \\/     M anipulation  |                                                 |
\*---------------------------------------------------------------------------*/
FoamFile
{
    version     2.0;
    format      ascii;
    class       volVectorField;
    location    "0.7";
    object      ddt0(rho,U);
}
// * * * * * * * * * * * * * * * * * * * * * * * * * * * * * * * * * * * * * //

dimensions      [1 -2 -2 0 0 0 0];


internalField   nonuniform List<vector> 
1984
(
(5.13777246819 -5.09957652429 2.90326494746e-19)
(6.2395695322 -13.4082441085 5.78662025575e-18)
(6.37552499076 -23.9213381266 -4.02103642862e-19)
(6.37260902652 -34.2424768317 -1.57613593723e-19)
(6.42892099781 -44.5953470516 -4.29443116075e-19)
(6.54090149405 -55.1473148195 -3.53398518428e-19)
(6.69495126767 -65.986594284 -2.12145684966e-18)
(6.88384745991 -77.1764604862 1.72090672143e-19)
(7.10393681863 -88.7735170041 2.13269635852e-18)
(7.35200088228 -100.831151711 2.4140199037e-18)
(7.6259843847 -113.398265168 -1.09875631155e-19)
(7.92412273861 -126.526825585 4.14532784666e-19)
(8.24465692222 -140.27506775 3.73638119854e-20)
(8.55286665567 -154.577934627 6.15862115913e-19)
(8.65999964555 -169.346342128 7.34628317541e-20)
(8.16576688191 -185.613645694 3.46930278337e-19)
(6.97432493052 -202.847279539 1.49993445394e-18)
(8.62726356645 -211.331085395 -4.42637981312e-18)
(44.1358081043 -177.353692944 -5.60014405577e-17)
(-12.3988848337 165.536483083 1.82472544249e-19)
(13.4275131389 -6.18775785586 1.63751411871e-19)
(14.6932190325 -14.5196073735 7.08863206371e-19)
(14.9668210314 -24.8151845309 -6.85768652004e-21)
(15.129498453 -35.1962133597 -6.19416733342e-19)
(15.4120412693 -45.6919013235 -2.84870181854e-18)
(15.8125589291 -56.4436215018 -1.75154002868e-18)
(16.3104812424 -67.5093600214 -3.22202691839e-18)
(16.8941460034 -78.9375764935 -1.58929290709e-18)
(17.556161416 -90.7792541566 1.52830538381e-18)
(18.292265764 -103.085159576 -3.05447141914e-18)
(19.097587682 -115.901304541 1.81691104761e-18)
(19.9695218884 -129.275580289 -2.11235522814e-19)
(20.9077146883 -143.27064548 -2.30119280492e-18)
(21.8979657763 -157.821679226 4.0666576857e-19)
(22.8827427035 -172.690899321 -7.24495822549e-19)
(23.9121987601 -189.336261633 -2.08271520929e-19)
(25.0825467977 -210.801225195 4.03685506513e-18)
(25.4107507413 -222.477900715 1.8640923254e-18)
(20.5212339373 -173.641439949 -2.5774844288e-17)
(-3.10108388664 167.858411374 -4.6955160161e-18)
(23.6446928145 -6.26462652166 1.03289489103e-18)
(24.7617789178 -14.5106142585 9.71751126269e-18)
(25.1877218634 -24.7439375055 5.76498504128e-19)
(25.5899196798 -35.0446107556 -1.11417780971e-19)
(26.1197105347 -45.456576751 -5.2718574175e-19)
(26.7968088835 -56.1326908948 -3.61892779051e-19)
(27.6164754128 -67.1293131721 -3.69044653394e-19)
(28.5721061653 -78.4940299906 -1.86661087703e-19)
(29.657326575 -90.2761321993 7.78879009336e-19)
(30.8646890868 -102.526092751 -3.09767552335e-19)
(32.1885484052 -115.29015224 -1.15637536097e-19)
(33.6211344745 -128.614521747 -3.43074606097e-20)
(35.1563316939 -142.564939653 7.18934794608e-20)
(36.7830091403 -157.07495637 1.06451002177e-18)
(38.4759862462 -171.861401955 -2.11638920432e-19)
(40.2576819431 -188.258992239 -1.99890781127e-18)
(42.2804795893 -208.572293009 -1.54536210781e-18)
(44.4881625678 -219.157571845 -4.27870833088e-18)
(42.0114204434 -173.838824972 -1.26033602586e-17)
(-6.575345194 168.133900988 2.79389139716e-19)
(33.6223894343 -6.10148852046 1.69067709519e-18)
(34.8246147986 -14.1711287612 1.210659443e-19)
(35.3872050986 -24.3240621096 4.37664167897e-19)
(36.0053810977 -34.490961591 7.73138515932e-20)
(36.7922417517 -44.7490883586 -2.0770740064e-20)
(37.7698853999 -55.2675422717 4.99401191437e-19)
(38.9386547292 -66.1096911629 2.45371731091e-19)
(40.293443849 -77.3247220042 -2.90147929174e-19)
(41.8276950427 -88.9647312031 -6.95601906982e-20)
(43.5319403662 -101.079627676 4.26305477291e-19)
(45.3970552518 -113.715533357 -9.38644327355e-20)
(47.4124616428 -126.921180323 2.99516863567e-19)
(49.5669079695 -140.763270481 -5.95566385394e-20)
(51.846289757 -155.177528656 1.95601674805e-19)
(54.2101403584 -169.845997403 -5.29858506182e-20)
(56.6064760519 -186.076108155 -9.59885535229e-19)
(59.0385486088 -206.364030672 -3.01913603195e-20)
(59.6387706635 -216.53799517 -1.28267679557e-18)
(51.9838696367 -171.215940751 -1.22716065443e-18)
(-7.96212260363 172.735659107 -7.77607614222e-18)
(43.1664700244 -5.92116533083 -1.51248956154e-18)
(44.5569394054 -13.7566043885 7.02880782705e-18)
(45.2450906808 -23.7289229423 6.95567321023e-19)
(46.0504495149 -33.6908158771 1.0638411198e-19)
(47.0809092199 -43.7352412774 1.58627681174e-20)
(48.3553947157 -54.0377446412 4.7201794602e-20)
(49.8738335592 -64.6668274266 5.47191067385e-20)
(51.630978039 -75.6753806892 -1.59859767909e-20)
(53.6180771921 -87.1169451523 -1.5874230726e-20)
(55.8254973872 -99.0441676474 3.47236096153e-20)
(58.2395646859 -111.504028805 -3.72304784114e-21)
(60.8466153846 -124.545279631 1.75191049469e-20)
(63.6304547747 -138.238302261 1.84053420903e-20)
(66.5710020819 -152.519708417 9.50842618192e-20)
(69.6123024952 -167.028130174 9.09930137512e-20)
(72.6375195614 -183.037937741 2.74205307235e-19)
(75.3615913486 -203.561342322 7.50561877662e-19)
(74.580249575 -213.837859915 -3.84264268686e-18)
(65.1631882206 -165.736633045 2.52057772001e-19)
(-10.4276989589 175.199523803 -4.75857804526e-19)
(52.387517138 -5.73577283036 -1.68046408241e-18)
(54.0214951182 -13.2889947261 6.09641562057e-19)
(54.8426117281 -22.9926501207 1.00879064186e-18)
(55.8280822963 -32.6790996566 1.00163582987e-19)
(57.0981334082 -42.4488230008 5.63114573273e-20)
(58.6702591937 -52.4781041358 3.28931606264e-21)
(60.5427354774 -62.8386000473 9.41705964125e-21)
(62.70893107 -73.586141441 -3.6727937185e-21)
(65.1589729922 -84.7772064812 -1.12706312342e-20)
(67.8801591487 -96.4665285409 -4.43397626555e-21)
(70.8575475936 -108.703653399 9.55134895764e-22)
(74.0721536681 -121.53979659 -1.81933429105e-20)
(77.5024196343 -135.048656432 3.22253274207e-20)
(81.1198990165 -149.170055612 8.10263787552e-20)
(84.8517124057 -163.510903456 5.18151421721e-20)
(88.5090359235 -179.376765813 1.99054769756e-19)
(91.5424446369 -200.180753957 1.08115819449e-19)
(90.716791443 -210.719566217 -4.64493345774e-18)
(78.4965171993 -159.143569043 1.20404093295e-18)
(-13.1552621837 178.173277743 -6.51936431878e-19)
(61.2771471211 -5.53134024224 -3.80711693614e-20)
(63.1820705069 -12.7505930314 7.52687475805e-19)
(64.1454484367 -22.1142321483 5.71573390897e-19)
(65.3130734198 -31.4591439411 2.77673375996e-20)
(66.8246475869 -40.8924827324 -3.95460061525e-20)
(68.6986658432 -50.5894370139 3.56083453351e-20)
(70.9321767196 -60.6240135706 -2.17449187118e-20)
(73.5171755976 -71.0548069246 -2.40079912108e-20)
(76.4424630859 -81.9412659793 1.8897460025e-20)
(79.6933337743 -93.3413109046 -3.70907775009e-20)
(83.2517981197 -105.307849012 -1.20931823726e-21)
(87.0954085237 -117.895851153 -1.9762123253e-20)
(91.196992237 -131.184787917 3.56560307043e-20)
(95.5202002678 -145.120270086 1.34800943614e-19)
(99.9777543291 -159.289399992 -3.38598399699e-19)
(104.319085276 -175.061071363 -2.89908643744e-18)
(107.839806122 -196.181413604 3.78617395418e-18)
(107.311068522 -206.743654146 2.24396465902e-17)
(91.9774496726 -151.454334153 -7.1554092914e-18)
(-16.2254476002 181.547443174 1.35259188596e-18)
(69.7791010827 -5.29968804978 3.65115637185e-19)
(71.9651297448 -12.1304133711 1.58576711235e-18)
(73.077083935 -21.0889739243 1.36609919571e-18)
(74.4310123061 -30.0278916838 7.72604058276e-20)
(76.1884059403 -39.0623740053 1.7536913261e-21)
(78.3702974155 -48.3659269244 4.53069843199e-21)
(80.9732663666 -58.0147557848 -4.71229039203e-21)
(83.9884389331 -68.070182303 -3.54471222247e-20)
(87.4035067789 -78.5951140088 2.74534403802e-20)
(91.2022402576 -89.6511333659 -5.40850633235e-21)
(95.3641687613 -101.295368399 -4.97283941735e-21)
(99.8637572911 -113.587937379 -4.8461752536e-20)
(104.669435757 -126.615219265 5.41121310209e-20)
(109.73892138 -140.328803115 3.00791907062e-19)
(114.97613352 -154.301413475 -3.73114422187e-19)
(120.085698258 -169.960732573 -3.23506514027e-18)
(124.226190208 -191.307340438 -4.97264591497e-18)
(124.253270466 -201.518088769 -2.11180361469e-17)
(105.419808168 -142.915342949 -2.37439346281e-17)
(-19.758940553 185.354526004 -1.43210690103e-18)
(77.8365376143 -5.03652197539 2.96387484144e-19)
(80.3058868195 -11.4225105595 3.17147320654e-18)
(81.5708001694 -19.91233382 4.47836549243e-19)
(83.1154077701 -28.3807951692 -2.30075129811e-19)
(85.1237548961 -36.9527820683 -8.4929529289e-23)
(87.62037718 -45.7998159241 3.80796464974e-20)
(90.6021525103 -55.0003140374 -5.04693717618e-20)
(94.0600021041 -64.6186070362 -6.70123989172e-21)
(97.9811003745 -74.721198253 -8.73458989353e-21)
(102.348259509 -85.3741453516 2.52896172612e-21)
(107.139341256 -96.6395155247 7.05280282709e-21)
(112.326323699 -108.583255339 -2.60303178144e-20)
(117.874301111 -121.299617198 2.42534430911e-20)
(123.736241467 -134.744358146 7.39883328617e-20)
(129.810770936 -148.477004222 3.02804310309e-19)
(135.76731539 -163.992957423 7.57516202712e-19)
(140.557090042 -185.378577263 -1.0495080897e-18)
(141.228264116 -194.747073712 -3.86530614735e-18)
(118.536429081 -134.018291468 -4.40023188554e-18)
(-24.0598072793 189.772999423 3.27113828725e-18)
(85.3909671196 -4.73934445038 1.2037357876e-18)
(88.1424966593 -10.6231332631 3.82574313589e-18)
(89.5636285141 -18.5803112353 1.49322447999e-18)
(91.3029052299 -26.5131038557 5.59235699609e-20)
(93.567301236 -34.557542624 2.47469309791e-21)
(96.3856103464 -42.8827522522 6.75903706421e-21)
(99.7557721321 -51.569455194 -5.23964643171e-21)
(103.669294983 -60.6850826805 2.88485459946e-21)
(108.113631498 -70.3003236006 -2.34913985897e-21)
(113.071469328 -80.4860268587 -2.46332227716e-20)
(118.519837563 -91.3100205321 1.85428498135e-21)
(124.428975037 -102.845188471 -3.86772108763e-20)
(130.761164999 -115.194053717 3.53084165527e-20)
(137.463977648 -128.314064516 3.72604340455e-19)
(144.429270953 -141.754153561 8.42492815766e-20)
(151.283064245 -157.133313525 2.32446174683e-19)
(156.81658239 -178.129242785 -9.04132793775e-19)
(157.962514028 -186.425740252 -5.96860938829e-18)
(129.08285692 -126.528186996 -4.00356268513e-17)
(-30.2834474735 196.567666937 -2.29572319042e-18)
(92.3808939007 -4.40665036767 -1.17615783077e-18)
(95.4115795994 -9.7299563693 -2.32682284859e-18)
(96.9912004193 -17.0897693145 -1.24475058823e-18)
(98.9282989261 -24.420592135 -1.67137061173e-19)
(101.453107384 -31.8708125339 -3.74321266186e-20)
(104.59938756 -39.6065749079 -2.32517832154e-20)
(108.366964384 -47.7108642222 -1.55820740549e-21)
(112.748850183 -56.2544432293 -2.6733761785e-21)
(117.733795026 -65.3122657124 -4.70082898649e-20)
(123.305399515 -74.960761569 -1.18886061034e-20)
(129.440953659 -85.2743456316 -1.50690251079e-22)
(136.109863813 -96.3338323251 -2.86512250456e-20)
(143.272146553 -108.252071299 6.30859689971e-20)
(150.869101178 -120.987654406 -5.21067210154e-20)
(158.782371742 -134.098240607 2.46835593399e-19)
(166.587876352 -149.317651306 4.79166538364e-18)
(172.930481775 -169.871659915 -5.17701474546e-18)
(174.516305565 -178.007216841 -8.25401652012e-19)
(137.352539962 -112.096937547 -3.29709109592e-17)
(-38.8597491847 199.523884595 2.58107225658e-18)
(98.743313026 -4.03751641409 -2.24614110135e-18)
(102.048633261 -8.74174581452 3.71636419177e-18)
(103.787956612 -15.4386515746 4.21165303318e-20)
(105.924773161 -22.1001014067 -1.41903185094e-19)
(108.712962258 -28.8878459431 -2.66357238039e-20)
(112.192019556 -35.9641725634 -1.20357725776e-20)
(116.364575369 -43.414181689 -8.65201305462e-21)
(121.226226092 -51.3118518121 -2.56095160426e-20)
(126.768259077 -59.7368542381 -7.29217411696e-20)
(132.976524983 -68.7714456116 -3.30782584322e-20)
(139.829985748 -78.4976027839 3.36177346958e-20)
(147.298662574 -89.0057384817 -1.05258521548e-19)
(155.341500454 -100.42076621 1.71623183926e-20)
(163.894323872 -112.703593443 3.17512656932e-19)
(172.828484954 -125.439464362 1.72111299459e-19)
(181.67824257 -140.49062832 1.38847913462e-18)
(188.944072344 -160.470110859 -1.95364585271e-18)
(191.148698502 -169.195796306 -7.58898905079e-18)
(144.867580444 -93.6753761468 -6.74148038478e-18)
(-48.44856706 201.195966382 1.43488746953e-18)
(104.414726335 -3.63143432681 6.86725684761e-19)
(107.988691682 -7.65827240121 1.44916667108e-18)
(109.887683079 -13.6262424587 6.12950645161e-19)
(112.224394799 -19.5500860779 1.47771028083e-20)
(115.276838571 -25.6056878285 -9.1297996596e-20)
(119.091109196 -31.9503593693 1.15451654217e-21)
(123.673686028 -38.6708830208 -5.60732111701e-20)
(129.024018281 -45.8443436252 -2.37538778879e-20)
(135.137409863 -53.5549627339 -1.35059393578e-19)
(142.003624748 -61.8914398728 2.46797933856e-21)
(149.605121099 -70.9440588264 -3.19824956604e-21)
(157.91465484 -80.8140439976 -9.3109710851e-20)
(166.892158055 -91.6404026553 5.93530075695e-20)
(176.470255475 -103.388179063 3.7362095096e-19)
(186.513356895 -115.685930664 -2.58117453974e-19)
(196.525759264 -130.51993036 -7.11166161563e-18)
(204.919964652 -149.816845647 -1.7759958837e-18)
(207.974994919 -159.32438728 -1.11499205236e-17)
(151.295037711 -72.657125327 -1.85628185139e-17)
(-58.9341486566 202.450822466 -2.60173283922e-18)
(109.331865826 -3.18830625643 -2.27889638669e-18)
(113.166877486 -6.48044338488 1.09643196833e-18)
(115.22394923 -11.6535533209 3.55013341817e-19)
(117.758480989 -16.7712370761 -9.4993051754e-20)
(121.073213827 -22.0240724517 5.19743392285e-20)
(125.221802256 -27.5629312597 -6.95028953437e-20)
(130.215715172 -33.4756190967 -8.01538733103e-20)
(136.059592598 -39.8417776549 -3.78883527006e-20)
(142.754671585 -46.7502383779 -7.03553715788e-20)
(150.296446574 -54.2960528339 7.19730942443e-21)
(158.673748716 -62.5783619811 1.85475713348e-20)
(167.863863068 -71.7105884585 -4.56311968234e-20)
(177.831235314 -81.8466791402 1.67321841206e-19)
(188.508258817 -92.9571837542 5.16655419525e-20)
(199.75800845 -104.728916061 2.41584231382e-19)
(211.067090928 -119.230715353 2.45313375388e-18)
(220.775441425 -137.759670971 -5.0617985511e-18)
(225.180960425 -147.95280447 1.75470977863e-17)
(155.662829459 -48.9712767291 1.97707563498e-17)
(-70.284370977 202.621061309 9.19346573078e-19)
(113.432528041 -2.70851278794 -4.79706989285e-19)
(117.519158633 -5.21055037167 -4.38476238369e-20)
(119.730783988 -9.52378345539 1.31083857043e-19)
(122.45822763 -13.7671495701 -3.47674516445e-19)
(126.029673764 -18.1462298838 5.30551343066e-20)
(130.506954225 -22.8037260438 -1.64785409905e-20)
(135.908015637 -27.8275981902 -1.60145201059e-20)
(142.24497549 -33.2991505532 3.93885858031e-20)
(149.525966087 -39.3111850981 -1.67699234265e-20)
(157.755656504 -45.9647484078 -3.88236726809e-20)
(166.930151331 -53.3685845647 3.783507439e-20)
(177.036845903 -61.6488222509 -8.28424945894e-20)
(188.046425871 -70.9744819468 4.77666111067e-20)
(199.895962897 -81.3229219788 4.12323454351e-19)
(212.452137405 -92.4506934936 3.78154123323e-19)
(225.198191632 -106.463414884 7.13827482143e-19)
(236.404549377 -124.096965664 -8.38583044276e-18)
(242.483004196 -134.943334355 -6.61121450894e-18)
(157.397490263 -22.6032135834 -3.25300653063e-17)
(-82.3985798959 201.432207464 1.37280206574e-18)
(116.656038329 -2.19302034055 -2.39136259371e-18)
(120.98283983 -3.85258139948 -3.79180579831e-18)
(123.343431691 -7.24284131888 -1.39110171599e-18)
(126.255533723 -10.5449982462 -1.59283182642e-19)
(130.072512826 -13.9801945015 -2.72541849383e-20)
(134.867436823 -17.680697202 -1.52018470352e-20)
(140.665578947 -21.7322314874 -1.47008762078e-20)
(147.487397402 -26.2177473591 2.18696823757e-21)
(155.351167829 -31.2328209758 -9.99982506222e-20)
(164.271771705 -36.8843841059 -7.10142321729e-20)
(174.257325115 -43.289363428 1.52645185632e-19)
(185.308170491 -50.586971201 -4.79802432482e-20)
(197.405728841 -58.9621189416 9.79128211324e-20)
(210.495366259 -68.4000689027 2.23963917755e-20)
(224.454213126 -78.7364929351 4.91296420912e-19)
(238.767965904 -92.0663023199 4.06940053123e-18)
(251.636774531 -108.638199306 -8.82412500456e-18)
(259.898362999 -120.096422257 6.46382317588e-18)
(155.798629036 6.4884914868 2.34645670428e-17)
(-95.0457613909 198.50494918 -1.56198712734e-18)
(118.944673135 -1.64344579936 -3.01255535213e-18)
(123.498140589 -2.41220466054 -1.24777648633e-18)
(125.999252755 -4.81947648328 -3.72999847744e-19)
(129.082242138 -7.11736094962 -4.17835265765e-19)
(133.129614772 -9.54026858218 3.00983299529e-20)
(138.224369005 -12.2070892197 -7.8835660185e-20)
(144.400706384 -15.2024651234 -4.78481948811e-20)
(151.689665921 -18.6076109541 -2.80376881191e-20)
(160.121983829 -22.5202216807 -1.55864254621e-20)
(169.725310858 -27.0512594631 -4.37894395419e-20)
(180.523901276 -32.3247079265 -1.46281030916e-21)
(192.533938598 -38.4934727875 -1.67525202847e-19)
(205.7533259 -45.7570380109 2.93457991856e-20)
(220.140591217 -54.1111870159 1.03622186532e-19)
(235.590126952 -63.480145586 7.08316324176e-19)
(251.593428257 -75.8999713615 5.56639211113e-18)
(266.288929865 -91.2008054777 -1.5398565842e-18)
(277.150138521 -103.257319288 1.43921854386e-18)
(150.30744133 38.2151470694 -1.81273467247e-17)
(-107.934812952 193.548505766 -2.7275854881e-18)
(120.245920797 -1.06198324095 -2.17461907325e-18)
(125.009554602 -0.897556803114 -4.67732262709e-19)
(127.638923285 -2.26813033526 -9.28160211365e-20)
(130.875620894 -3.50105200619 -6.33552296938e-20)
(135.130721607 -4.84536758771 -3.91331334195e-20)
(140.497642044 -6.40667650268 -1.26413535414e-19)
(147.023916841 -8.26236703312 -1.10789866806e-19)
(154.751559412 -10.491082493 -6.84757720067e-20)
(163.724889877 -13.1909736816 -1.40144403085e-19)
(173.989182847 -16.4752517394 1.34371438318e-20)
(185.586781246 -20.4734592811 -3.22224532189e-20)
(198.555237421 -25.3505915192 -3.66227136348e-19)
(212.913613928 -31.3191398763 2.83727043228e-20)
(228.641121733 -38.3901711508 3.67708032578e-19)
(245.657615652 -46.5866338724 -1.20679020494e-20)
(263.467079644 -57.8405248255 2.20512009359e-19)
(280.14562196 -71.6345034264 -2.68490193362e-18)
(293.983347683 -84.2756365757 -1.35306497033e-17)
(140.18752413 72.3653458637 -4.0103435421e-17)
(-120.659697714 186.309380198 -1.57511767669e-19)
(120.51206583 -0.452459157266 7.53238437773e-20)
(125.466488299 0.679585429935 5.70217817413e-19)
(128.209360532 0.394896546163 2.39935235559e-19)
(131.577588773 0.280258435335 3.7001463699e-19)
(136.008178148 0.0727180596818 -2.41310484385e-20)
(141.612234712 -0.312059912893 -2.10802538329e-20)
(148.447912534 -0.945171079377 -2.42798950215e-20)
(156.570435466 -1.9022976037 -6.2462823909e-20)
(166.041306857 -3.27688495917 -3.73080531803e-20)
(176.925673396 -5.18207805891 -1.71270182314e-20)
(189.288733238 -7.75124989646 1.31144874807e-21)
(203.193294611 -11.1590046296 8.2816738236e-21)
(218.685913987 -15.6274225837 1.56923826034e-19)
(235.773822885 -21.1871114961 1.47797661799e-19)
(254.417229676 -27.9658896047 5.84919015693e-19)
(274.171765253 -37.770870515 8.62189525293e-19)
(293.022737903 -49.9273766954 1.69842905929e-18)
(309.223910501 -63.2142155014 -1.78357476383e-19)
(125.117282543 108.568236676 -8.85638016348e-17)
(-132.707544115 176.698715709 -2.22749500592e-18)
(119.708570924 0.180825950581 -7.20409786188e-19)
(124.831248922 2.30634745522 1.97937338173e-18)
(127.667003886 3.14739557027 -4.8684473791e-19)
(131.136318986 4.19502586359 9.73964505265e-20)
(135.704859901 5.17789705271 -1.05444165124e-19)
(141.49868152 6.03330755985 -5.49022646814e-20)
(148.587160671 6.69797514079 -6.37590397699e-20)
(157.043133043 7.1059113165 6.78781528712e-20)
(166.947537299 7.1696859565 -1.71918419851e-19)
(178.388216028 6.77952821381 -5.25268496392e-20)
(191.457115675 5.80150341671 1.18626736531e-19)
(206.247692153 4.05497482207 -1.73869416616e-19)
(222.83953353 1.31270197575 3.11779777085e-19)
(241.275252817 -2.47527997955 3.23530849383e-19)
(261.567938085 -7.50993793293 1.25535384133e-18)
(283.336130516 -15.5742310306 2.76067988042e-18)
(304.52007659 -26.550538013 -1.06595034793e-17)
(326.944701485 -33.8768164031 -4.72247327617e-17)
(101.307988322 140.876946622 -8.78832663791e-17)
(-143.666148182 164.646993883 2.85030120017e-18)
(117.810247677 0.831850576939 -2.23901034575e-18)
(123.075656675 3.96290458571 2.8645205966e-18)
(125.979731968 5.95872371542 -3.18950186497e-20)
(129.512685217 8.20577019281 -4.75906752056e-19)
(134.16989266 10.4209548424 -6.49163243297e-20)
(140.090581893 12.5691357288 -6.23250052853e-20)
(147.360432228 14.6007478605 1.55038855192e-20)
(156.069789114 16.4614039535 1.17366080299e-20)
(166.321013428 18.073592525 2.06398707686e-21)
(178.227749892 19.3350465982 -1.81570943319e-19)
(191.912699383 20.1155016214 2.94116595778e-19)
(207.505223119 20.2328361163 1.10909133088e-19)
(225.123888965 19.4588186576 1.62325096244e-19)
(244.855014499 17.7264533321 1.25623302532e-19)
(266.779204503 14.7470421347 6.70408420844e-19)
(290.556741476 8.63941579994 -5.06140842241e-19)
(314.252040815 0.0126171721957 -1.08339258448e-17)
(341.21544709 -5.08008606575 -3.31380272909e-17)
(74.5077537245 176.091299917 -7.49522713535e-18)
(-152.916729453 150.488864054 2.83567363556e-18)
(114.799160041 1.49404357034 -1.02994510417e-18)
(120.179087823 5.63011578637 -1.19794898367e-18)
(123.123801435 8.79542489272 -7.93090890403e-19)
(126.675529793 12.2624036792 -3.78645698896e-19)
(131.359865807 15.7390515545 -9.91616752944e-20)
(137.332833319 19.2217931658 -2.83604759873e-20)
(144.695526379 22.6782692243 -1.18509405882e-20)
(153.556950329 26.0698412813 1.4139549189e-20)
(164.042668091 29.3334906767 -1.20151079246e-19)
(176.294795017 32.3795268201 -1.39768339076e-20)
(190.470656306 35.0867915803 3.86597601785e-20)
(206.74072156 37.2775798433 -1.64725207277e-19)
(225.269053393 38.729434464 4.34252623958e-19)
(246.196828877 39.3619482644 2.90316135154e-19)
(269.686968924 38.7846693673 1.31140163285e-18)
(295.438943222 35.199910201 3.6457767057e-18)
(321.941046124 29.9118481234 -7.7012670919e-18)
(353.133132885 24.1897744342 -5.75300802719e-18)
(40.5220320443 211.36438894 5.81132215987e-17)
(-159.358431591 134.312642964 5.22007869848e-19)
(110.674520339 2.15916056317 -1.29536418824e-18)
(116.137433819 7.28265437872 -7.89810254379e-19)
(119.088351568 11.6158889402 -3.7370838486e-19)
(122.606703162 16.3075572872 -1.21397695725e-19)
(127.247581546 21.0586086244 -6.71914820013e-20)
(133.183987275 25.9017826458 -5.48507307972e-20)
(140.532738144 30.8258881085 7.77873213482e-21)
(149.421987273 35.8125512001 1.91807362143e-21)
(160.001618155 40.8185784975 -2.19203010942e-19)
(172.444228783 45.7730221341 -2.44731623347e-19)
(186.945125858 50.5707184829 -1.15592485127e-20)
(203.721029584 55.0460744908 -2.29026270698e-19)
(222.988929511 58.9904966093 8.00722370407e-20)
(244.956438153 62.3085951787 1.26548141412e-20)
(269.863266856 64.5019101316 -1.15664552414e-18)
(297.363841769 64.2200199223 -1.34587417062e-18)
(326.487747948 63.3226358783 -6.37448367577e-18)
(364.468113295 53.497856569 -1.84338821316e-17)
(-7.4638696804 245.214320493 3.36374827805e-18)
(-168.378938103 118.974161083 3.29118085941e-18)
(105.453114942 2.81774882736 -1.44956970865e-18)
(110.96500378 8.89160371394 -2.63240830099e-20)
(113.882583059 14.3720207582 3.66869985131e-19)
(117.307599427 20.2744553676 1.54544870238e-19)
(121.823549687 26.2936696279 -6.1790327895e-21)
(127.62020439 32.5035811368 -4.37997845973e-20)
(134.829516424 38.9183087174 -3.92652612269e-20)
(143.598355794 45.544725881 -9.37828070142e-20)
(154.100927434 52.3655590011 -2.06985034724e-19)
(166.54134227 59.3359852585 -6.34412468051e-20)
(181.155335559 66.3756309498 -1.00754107088e-19)
(198.210945255 73.3414652112 -2.16121605073e-19)
(217.988404808 80.0471572675 1.68180977491e-19)
(240.78325767 86.3657890644 2.90922999923e-19)
(266.918344878 91.6334237247 1.33818458088e-18)
(296.008290934 95.3217196929 7.10245574999e-19)
(327.885729906 101.225664138 -1.6816874373e-19)
(366.110880815 72.308520015 -2.45835839307e-17)
(-177.033440628 350.384077908 1.03986239822e-17)
(-57.8524619062 22.26671938 6.08764151114e-19)
(99.1723284714 3.45921150578 -8.15057927945e-19)
(104.697564109 10.424161059 -9.23169647886e-19)
(107.535973619 17.0090287307 6.71393311674e-20)
(110.800041403 24.0874822594 4.50192705123e-20)
(115.099324998 31.346575721 -2.47481448679e-20)
(120.639301878 38.9061563391 -3.89142919546e-20)
(127.565477132 46.8097535431 -1.42830792992e-20)
(136.041767071 55.0945337405 -1.78085879899e-20)
(146.265032959 63.7762194719 -6.58164612663e-20)
(158.470215381 72.8450876864 -1.49111016465e-19)
(172.934295915 82.2568349021 -2.48839493274e-19)
(189.979912983 91.9064104398 -3.31782330972e-19)
(209.961585045 101.64746177 -1.21486038915e-19)
(233.291392844 111.319868158 1.41192658889e-19)
(260.415835707 120.197796667 1.5952996083e-18)
(291.185280603 128.624905009 1.03741690755e-18)
(326.629378578 136.073430039 -7.62178761549e-18)
(359.265796228 103.561913243 -6.34698537814e-18)
(-243.246043542 365.896933586 1.12951183084e-16)
(-37.5515213117 19.9090562758 2.51663489213e-18)
(91.8912508173 4.07178952337 -5.07882923451e-19)
(97.3940171422 11.8431732982 -2.49113851234e-19)
(100.098589479 19.4651927841 -1.30009463989e-19)
(103.127354079 27.6634853936 -1.6402966349e-19)
(107.110000853 36.1097546491 -2.70500108111e-20)
(112.264985419 44.9742731735 -5.63302011316e-20)
(118.748396137 54.3341757435 1.87807221678e-20)
(126.73751086 64.2628215913 1.83817774297e-20)
(136.448603714 74.8163399814 1.86962001494e-20)
(148.144202285 86.0297630217 -6.80692031528e-21)
(162.140194849 97.9083059049 -1.2402415615e-19)
(178.812176405 110.404783187 1.94762094578e-20)
(198.591634961 123.438285115 2.84219705304e-19)
(222.010716897 136.866992041 3.12631876529e-19)
(249.640114042 150.130130044 4.540178184e-19)
(281.685322826 164.50649356 1.78903911991e-19)
(319.902334443 176.382907271 -2.02998301652e-18)
(351.50532048 153.137144163 -5.57950388954e-18)
(-281.756412379 382.994612942 2.6106272792e-17)
(-2.43668833903 2.58680375694 8.26648113499e-20)
(83.6971095126 4.64244343803 -1.81606658207e-18)
(89.1429225607 13.1060512796 1.19110744661e-18)
(91.6428185515 21.6722908636 -3.47437371907e-19)
(94.3585048247 30.9159412658 -4.27055770248e-19)
(97.9203008637 40.4698482568 -5.33571994702e-20)
(102.553805528 50.5618438292 4.66372224262e-20)
(108.421297046 61.3083127446 3.17148075793e-20)
(115.708989654 72.824837839 -1.19832877525e-20)
(124.647402001 85.2155118558 5.74252619795e-20)
(135.520828719 98.5698421547 4.07315107281e-20)
(148.677322079 112.955846301 2.48223487273e-20)
(164.53742621 128.4024087 1.62653818032e-19)
(183.600082851 144.914741794 3.1818369146e-19)
(206.494755793 162.407139694 2.18105551976e-19)
(233.858919365 180.60122397 2.01271915896e-19)
(266.163957997 201.360308361 -8.69583886294e-19)
(305.141050482 218.637521481 -1.65374454445e-17)
(324.429024791 206.807723833 9.76096803176e-18)
(-295.146048423 375.969531515 3.4442542495e-17)
(1.40047788248 0.132660502946 -4.94349670879e-21)
(74.7079772572 5.1557306409 -6.74254631697e-19)
(80.0626547373 14.1619757107 1.83332366325e-18)
(82.2525038638 23.5582675969 2.04772279732e-19)
(84.5894069378 33.7641536648 -1.75654524471e-19)
(87.6291549488 44.3128821732 -6.92905064635e-20)
(91.6002430481 55.5139496596 -6.33404309202e-21)
(96.6688834707 67.5329380646 -6.01175032052e-20)
(103.025654201 80.5328983271 -2.13912651608e-20)
(110.908297851 94.6715564615 6.597600613e-20)
(120.614041691 110.10155226 -1.39626270055e-19)
(132.51402101 126.964427505 -2.06243150651e-20)
(147.060754531 145.378670012 8.72678590357e-20)
(164.804090432 165.449246696 5.07278418904e-20)
(186.439745854 187.176462643 -2.19395731665e-19)
(212.640854371 210.585446038 -7.86837532128e-20)
(244.111447799 237.886557566 -3.60636363632e-18)
(282.3176128 262.357399097 -4.32870039152e-17)
(283.558484058 258.017427421 1.53999721854e-18)
(-292.664347311 363.845446304 9.55935846814e-17)
(0.743526408773 0.16515793433 6.03369504776e-20)
(65.0631407266 5.59125469874 -9.39795403449e-19)
(70.2857742033 14.9521790349 -8.34897581292e-19)
(72.0055774572 25.0638213713 -1.84323845182e-19)
(73.9573507635 36.1547709944 1.0719023091e-19)
(76.3784677376 47.5280088643 8.93478541023e-20)
(79.5422191899 59.6677775045 -4.47162057973e-20)
(83.6235179277 72.7951489908 -5.48159369669e-20)
(88.8106622413 87.1198440149 -5.09344378375e-20)
(95.3390929145 102.855388341 5.40674468924e-20)
(103.507608178 120.223917514 -7.88684971432e-20)
(113.69946211 139.448601043 2.72883042364e-20)
(126.383807648 160.746498545 -3.43215670704e-20)
(142.142604514 184.33210571 5.51711988196e-20)
(161.706306676 210.322004375 1.54414249136e-19)
(185.766384503 239.047028697 -7.67372172213e-19)
(215.23240997 273.064740297 -2.83428040306e-18)
(251.16240406 306.312824345 -3.24201773824e-17)
(234.171568406 309.65661329 -2.78624085465e-17)
(-279.944729158 348.353407519 5.03691906526e-17)
(0.30821179966 0.36272456956 -1.43503519526e-20)
(55.3210061653 6.02719824294 1.47563299229e-19)
(59.9114860933 15.4976332479 -1.93216576665e-19)
(60.9422911439 26.1781289636 5.02111004973e-19)
(62.7058408939 38.0691323025 1.22679219782e-19)
(64.3599572035 49.9830887684 1.1946248232e-19)
(66.5613172937 62.8435811816 6.71231147665e-20)
(69.466364918 76.871336107 -3.47100368181e-20)
(73.2453902943 92.3081099507 -2.77460592084e-19)
(78.118306549 109.422253154 6.77954113218e-20)
(84.3671837098 128.511856653 1.04415062572e-19)
(92.3801029225 149.888712106 -9.4653747909e-20)
(102.624049044 173.873666404 -3.71144378121e-19)
(115.695801183 200.796310184 -3.25205613377e-19)
(132.334247705 230.901313268 6.03198986863e-19)
(153.21671148 264.792407359 -1.21931727024e-18)