/*--------------------------------*- C++ -*----------------------------------*\
| =========                 |                                                 |
| \\      /  F ield         | OpenFOAM: The Open Source CFD Toolbox           |
|  \\    /   O peration     | Version:  v2012                                 |
|   \\  /    A nd           | Website:  www.openfoam.com                      |
|    \\/     M anipulation  |                                                 |
\*---------------------------------------------------------------------------*/
FoamFile
{
    version     2.0;
    format      ascii;
    class       volScalarField;
    location    "0.7";
    object      nut;
}
// * * * * * * * * * * * * * * * * * * * * * * * * * * * * * * * * * * * * * //

dimensions      [0 2 -1 0 0 0 0];


internalField   nonuniform List<scalar> 
1984
(
0.00100942561335
0.00120462654228
0.0012177743595
0.00122061611231
0.00122178027218
0.00122271945042
0.00122362890288
0.0012245285849
0.0012254183592
0.00122629610724
0.00122715973139
0.00122800843877
0.00122885476737
0.00122981622391
0.00123171139383
0.00123918359486
0.0012729698369
0.00139825823439
0.00172601841546
0.00231135609839
0.00120568368505
0.00175339337351
0.0017816378969
0.00178764817463
0.00178944067043
0.00179058610404
0.00179165263697
0.00179271152896
0.00179376748792
0.00179481812217
0.00179586131067
0.00179689874832
0.00179796243088
0.00179929355383
0.00180236709168
0.00181463394687
0.00186577307241
0.0020380811989
0.0024495125255
0.0031380288806
0.00122089322828
0.00178561460187
0.00181690170248
0.00182352067501
0.00182534023965
0.00182642173958
0.0018274228489
0.00182842353553
0.00182942612864
0.00183042567724
0.00183141806345
0.00183240384642
0.00183341587516
0.00183470450905
0.00183777748982
0.00185011092716
0.00190088282222
0.00206963011189
0.00247125444467
0.00314497875721
0.0012245872393
0.00179343963369
0.0018254895273
0.0018322054124
0.00183396231754
0.00183496502775
0.00183589671006
0.00183683775046
0.00183778773201
0.00183873899731
0.00183968557682
0.0018406267365
0.00184159502868
0.00184284444865
0.00184589921946
0.00185826578142
0.00190903084257
0.00207705995513
0.00247651578603
0.0031465134293
0.00122597262804
0.00179576226631
0.0018279208156
0.00183458933243
0.0018362641448
0.00183718841064
0.0018380524532
0.00183893609005
0.00183983700847
0.0018407458906
0.00184165493151
0.00184256234902
0.00184350085633
0.00184472926178
0.00184779664089
0.0018602915375
0.00191144427945
0.00208000712204
0.00247929393122
0.00314751264877
0.00122695980527
0.00179700803445
0.00182913141668
0.00183573012464
0.00183732767881
0.00183817955197
0.00183897963063
0.00183980806723
0.00184066177403
0.00184153041118
0.00184240527073
0.0018432835559
0.00184419848787
0.00184541566078
0.0018485181469
0.00186121345794
0.00191298108825
0.00208257855222
0.00248214631488
0.00314855855492
0.00122789485549
0.00179808118003
0.00183015056202
0.00183668639803
0.00183821715654
0.00183900443905
0.00183974529886
0.00184052111282
0.00184132894704
0.00184215809857
0.00184299931803
0.00184384935553
0.00184474238791
0.00184595278716
0.00184910639264
0.00186206033701
0.0019146097343
0.00208552233683
0.00248545554666
0.00314972420832
0.00122883278451
0.00179914296352
0.00183116281245
0.00183764651995
0.00183912096627
0.00183985178531
0.00184053902112
0.00184126574638
0.00184202977695
0.00184282056436
0.00184362870987
0.00184445090455
0.00184532283184
0.0018465297046
0.00184974879154
0.00186301509876
0.00191649206376
0.00208893549221
0.00248926614568
0.00315105709001
0.00122978090674
0.00180021798164
0.00183219492287
0.00183863587325
0.00184006319689
0.00184074531259
0.00184138491424
0.00184206689646
0.00184279013908
0.00184354459844
0.00184432104765
0.00184511643613
0.00184596852759
0.00184717551546
0.0018504748664
0.0018641069731
0.00191865124191
0.00209282437895
0.00249357545389
0.00315256915309
0.00123073949334
0.00180130871588
0.00183324834921
0.00183965410847
0.00184104210331
0.00184168261445
0.00184228056785
0.00184292260507
0.00184360878861
0.00184432978221
0.00184507675969
0.00184584718558
0.00184668147355
0.00184789301837
0.00185128843258
0.00186534047519
0.00192108749014
0.00209717159539
0.00249833777748
0.0031542370204
0.00123170778532
0.00180241457721
0.00183432149832
0.00184069820925
0.0018420534717
0.00184265875457
0.00184322081409
0.00184382787224
0.00184448117058
0.00184517217583
0.00184589260426
0.00184664064111
0.00184745990919
0.00184868132312
0.00185218986956
0.00186671771002
0.00192380241665
0.00210197250567
0.00250357614535
0.00315610157003
0.00123268470918
0.00180353461291
0.00183541281307
0.00184176560723
0.00184309378359
0.00184366954956
0.00184420115184
0.00184477819814
0.00184540304152
0.00184606796987
0.00184676532369
0.00184749416461
0.00184830187928
0.00184953931514
0.00185317927634
0.00186823977317
0.00192679263198
0.00210720283455
0.00250922354196
0.0031581206774
0.00123366887306
0.00180466772585
0.00183652094107
0.00184285426751
0.00184416028223
0.00184471168445
0.00184521794857
0.00184576988014
0.0018463708448
0.0018470139274
0.00184769212402
0.00184840549787
0.00184920575037
0.00185046617097
0.0018542570223
0.00186990800708
0.00193005548291
0.00211284537769
0.00251526622241
0.00316032034007
0.00123465849096
0.00180581258078
0.00183764456327
0.00184396243986
0.00184525068954
0.00184578244236
0.00184626821612
0.00184679984843
0.00184738161264
0.00184800734206
0.00184867068571
0.00184937280882
0.00185017027994
0.00185146143186
0.00185542377305
0.00187172377527
0.00193358755049
0.0021188800916
0.00252167411959
0.00316269662288
0.00123565130923
0.00180696749565
0.00183878223004
0.00184508843778
0.00184636295092
0.00184687944567
0.00184734937712
0.0018478654793
0.00184843282093
0.00184904591236
0.00184969908411
0.00185039461365
0.00185119454854
0.00185252491531
0.00185668030213
0.00187368781954
0.00193738324242
0.00212528440612
0.00252841100844
0.00316525048949
0.00123664454259
0.00180813034882
0.00183993223052
0.00184623046618
0.00184749504049
0.00184800046932
0.00184845908854
0.00184896442002
0.0018495221965
0.00185012764729
0.00185077560686
0.00185146968779
0.00185227788804
0.0018536566775
0.00185802730691
0.0018757995108
0.00194143111158
0.00213202004819
0.00253543218026
0.00316798197162
0.00123763479112
0.00180929847792
0.00184109248126
0.00184738649706
0.00184864482079
0.00184914323158
0.00184959500669
0.00185009434432
0.00185064764688
0.00185125062185
0.00185189877314
0.00185259703008
0.00185341990326
0.00185485692338
0.00185946526148
0.00187805665657
0.00194571614884
0.0021390458182
0.00254267984882
0.00317088421834
0.00123861797632
0.00181046861326
0.00184226044008
0.00184855411786
0.00184980981963
0.00185030521125
0.00185075447107
0.0018512525129
0.00185180643274
0.00185241235185
0.00185306632645
0.00185377475635
0.001854619181
0.00185612486293
0.00186099345153
0.00188045483133
0.00195021731682
0.00214630578915
0.00255007615821
0.00317394147127
0.0012395892919
0.00181163676266
0.00184343296752
0.00184973042262
0.0018509870983
0.00185148333391
0.00185193477929
0.00185243680743
0.00185299688347
0.00185361165351
0.00185427770517
0.00185500293941
0.00185587649064
0.00185746164601
0.00186261186981
0.0018829872448
0.00195490782558
0.0021537402898
0.00255753604614
0.00317712998825
0.00124054291049
0.0018127979332
0.00184460617956
0.00185091183809
0.0018521732205
0.00185267468049
0.00185313305042
0.00185364433971
0.00185421641861
0.00185484635957
0.00185553125527
0.00185628054887
0.00185719142216
0.00185886710915
0.00186431856707
0.00188564272355
0.00195975000791
0.00216128417829
0.00256499032933
0.00318037503621
0.00124147236799
0.00181394647079
0.00184577529292
0.00185209417684
0.0018533644192
0.00185387540261
0.00185434565205
0.00185487180029
0.0018554621079
0.00185611401825
0.00185682510279
0.00185760637888
0.00185856338952
0.00186034063872
0.0018661098263
0.00188840405811
0.0019646893093
0.00216879997358
0.00257223738343
0.00318331661522
0.00124237012927
0.00181507575891
0.00184693517373
0.00185327264893
0.0018545559525
0.00185508100294
0.00185556837844
0.00185611536188
0.00185673058329
0.00185741182026
0.00185815710009
0.00185897901981
0.00185999160957
0.00186188110049
0.00186797999752
0.00189124866963
0.00196966716921
0.00217620542785
0.0025790347782
0.00318459043089
0.00124322757092
0.00181617797284
0.00184807937354
0.00185444138037
0.00185574225841
0.00185628621445
0.00185679631839
0.00185737055838
0.00185801791871
0.00185873648499
0.00185952471894
0.00186039676145
0.00186147500151
0.00186348670164
0.00186992107425
0.0018941452667
0.00197458800345
0.00218324555847
0.00258416920063
0.00317597846896
0.00124403491112
0.00181724406301
0.00184920037415
0.001855593506
0.00185691683935
0.00185748489316
0.00185802375169
0.00185863218856
0.00185931953441
0.00186008416062
0.00186092494483
0.00186185747916
0.00186301205278
0.00186515480689
0.00187192267481
0.00189705884048
0.00197936662114
0.00218965610569
0.00258720749045
0.00316772318455
0.00124478113801
0.00181826366127
0.00185028948064
0.00185672106069
0.00185807215576
0.00185866991191
0.00185924404098
0.00185989421053
0.0018606300846
0.00186145030725
0.00186235415723
0.00186335851502
0.00186460066914
0.00186688149074
0.00187396953257
0.00189993419536
0.00198383669371
0.00219509920252
0.00258951000743
0.00317413042925
0.00124545397279
0.00181922498056
0.00185133668411
0.00185781482209
0.00185919945151
0.00185983297646
0.00186044944529
0.00186114955199
0.00186194330357
0.0018628295342
0.00186380798646
0.00186489654473
0.00186623806404
0.00186866161724
0.0018760432057
0.00190270900703
0.00198783947496
0.00219943847147
0.00259108741089
0.00317631531789
0.001246039612
0.00182011445907
0.00185233027182
0.00185886391845
0.00186028836403
0.00186096421599
0.00186163065657
0.00186238952797
0.0018632511999
0.00186421480735
0.0018652803147
0.0018664663853
0.00186791944071
0.00187048760565
0.00187812129193
0.00190531456684
0.00199121295596
0.00220237972953
0.002590906364
0.00317619362502
0.00124652321725
0.0018209174434
0.00185325747079
0.00185985650311
0.00186132764072
0.00186205298512
0.00186277773836
0.00186360509268
0.00186454587954
0.00186559925738
0.00186676556557
0.00186806375339
0.00186964117405
0.00187235272414
0.00188017954852
0.00190766937286
0.00199375147083
0.00220359109055
0.00258863152211
0.00317456142277
0.00124688858927
0.00182161739606
0.00185410352328
0.00186077885249
0.00186230420829
0.00186308682778
0.00186387894269
0.0018647852763
0.0018658170861
0.00186697395154
0.00186825628857
0.00186968265152
0.00187139802071
0.00187424881002
0.00188219254027
0.00190969226256
0.00199526050585
0.0022027515081
0.00258372893242
0.00317156444693
0.00124711908111
0.00182219521521
0.00185485145068
0.00186161546561
0.00186320332207
0.00186405171254
0.00186492109038
0.00186591793818
0.00186705398671
0.00186832916481
0.00186974394653
0.00187131592224
0.00187318383319
0.00187616747734
0.0018841358005
0.00191130259335
0.00199553255307
0.00219946219008
0.0025755162063
0.00316705463377
0.00124724059152
0.00182259332515
0.0018554661878
0.00186234510752
0.00186400780409
0.00186493164055
0.00186588932665
0.00186698924133
0.00186824389918
0.00186965353606
0.00187121862943
0.00187295525734
0.00187499175415
0.00187810106728
0.00188598925289
0.00191242919713
0.00199435453798
0.00219324505109
0.00256315022528
0.00316076442842
0.00124731560473
0.0018227307933
0.0018558949456
0.00186293639114
0.00186469750534
0.00186571025052
0.0018667675974
0.00186798350887
0.00186937137021
0.00187093185434
0.00187266666434
0.0018745909704
0.0018768141767
0.00188004360755
0.0018877423947
0.00191303294607
0.00199158066342
0.00218378810903
0.00254594624696
0.00315250390933
0.00124729790292
0.00182261416044
0.00185612142241
0.00186336998014
0.00186525247089
0.00186636872356
0.00186753996163
0.00186888746526
0.00187042604127
0.00187215664954
0.00187408016145
0.0018762082991
0.00187863839111
0.0018819846561
0.00188939061358
0.0019131096943
0.00198710247613
0.00217082835566
0.00252324606902
0.00314221749335
0.00124716474522
0.00182221568546
0.00185611733454
0.00186362074665
0.00186565014238
0.00186688617638
0.00186818648728
0.0018696822654
0.00187139028738
0.00187331162426
0.00187544752019
0.001877807883
0.00188047707574
0.0018839907163
0.00189110232481
0.00191279542993
0.00198076534014
0.00215449063083
0.00249472112065
0.00313023329062
0.00124689071997
0.00182151259356
0.00185585556093
0.00186366225957
0.00186586614795
0.00186724003859
0.00186868624714
0.00187034885969
0.0018722469492
0.00187438184792
0.00187675456219
0.00187937369349
0.00188231128496
0.00188603064725
0.00189295751466
0.00191299923257
0.00197532915527
0.00213518653639
0.002457528122
0.00311460403491
0.00124644889007
0.00182048252464
0.00185530787344
0.00186346638985
0.00186587437838
0.00186740631805
0.0018690172607
0.00187086700442
0.00187297759988
0.00187535102441
0.00187798742705
0.00188089384317
0.00188413120635
0.00188809600408
0.00189489749125
0.00191331873433
0.00196991874254
0.00211654223494
0.00242128103076
0.00308782306897
0.00124581048326
0.00181910406684
0.0018544469562
0.00186300409075
0.00186564749095
0.00186735966374
0.00186915605185
0.00187121524959
0.00187356355002
0.0018762030317
0.00187913250773
0.00188235668886
0.0018859262615
0.00189017612402
0.00189691404393
0.00191380375891
0.00196462211629
0.00209729433605
0.00238373565155
0.00309015304968
0.00124494635736
0.00181736272175
0.00185324935106
0.00186224740916
0.00186515760287
0.00186707364313
0.0018690781247
0.00187137206698
0.001873986676
0.00187692291576
0.00188017764393
0.00188375238329
0.00188768830791
0.00189226382778
0.0018990040484
0.00191448091162
0.00195962334121
0.00207803805291
0.00234843324883
0.00317144766071
0.00124383044491
0.0018152527998
0.00185169745684
0.00186117049492
0.00186437725814
0.00186652192642
0.00186875941884
0.00187131639405
0.00187422936401
0.00187749725522
0.00188111332491
0.0018850743664
0.00188941194168
0.00189435298185
0.00190116096769
0.00191536643117
0.00195511223109
0.00205969228087
0.0023211020482
0.00330054951075
0.00124244041228
0.00181277707276
0.00184978094585
0.00185975189408
0.00186328123744
0.00186567940008
0.00186817669054
0.00187102848983
0.00187427656607
0.00187791654441
0.00188193446867
0.00188632111759
0.00189109823897
0.00189644788493
0.0019033979391
0.00191650258954
0.00195115347514
0.00204098869476
0.00226414762737
0.00309169660037
0.00124075907982
0.00180994893178
0.00184749969537
0.00185797758691
0.00186184891903
0.00186452374626
0.00186730932318
0.00187049141056
0.00187411837234
0.00187817785419
0.00188264445013
0.00188749875526
0.00189275373069
0.00189855259812
0.00190571730306
0.00191790362842
0.00194807903079
0.00202677330506
0.00224868947368
0.00318631351913
0.00123878086142
0.00180679968411
0.00184486947208
0.00185584538656
0.00186006814869
0.00186303886273
0.00186614085899
0.0018696939432
0.00187375308765
0.00187829049082
0.0018832591842
0.00188862664595
0.00189439778885
0.00190068534835
0.0019081472044
0.0019196538846
0.00194609041059
0.00201594123638
0.00224890280632
0.00326405057267
0.00123651872252
0.00180338983634
0.00184193056925
0.00185337192568
0.0018579396605
0.00186121657275
0.00186466260994
0.00186863517632
0.0018731951061
0.00187828250956
0.00188381478297
0.00188974213625
0.00189606377008
0.00190286362797
0.00191067963363
0.0019216972489
0.00194504231453
0.00200831906673
0.0022655721206
0.00343821872159
0.00123400779855
0.00179981668668
0.00183875623448
0.00185060001644
0.00185548300911
0.00185906232545
0.00186287339365
0.00186732159474
0.00187247261965
0.00187819667752
0.00188435710807
0.00189089060276
0.00189779713331
0.00190511847921
0.00191330010875
0.00192397416764
0.00194438201503
0.00199831822098
0.00223853078219
0.00332935205121
0.00123131074133
0.00179622083379
0.00183546149007
0.00184760855858
0.0018527438557
0.00185658979176
0.00186075563043
0.00186570485778
0.0018715117031
0.00187793172606
0.00188477105111
0.00189197856629
0.00189954388492
0.00190739720414
0.00191591349058
0.0019262822052
0.00194352352224
0.00198616636481
0.00215703037902
0.00298869983559
0.00122851922184
0.00179278305344
0.00183220534184
0.00184451861037
0.00184979187934
0.00185378353044
0.00185808531942
0.00186303877916
0.00186901888089
0.00187579175673
0.0018832094512
0.00189130506264
0.00190001303721
0.00190883580684
0.00191795814976
0.00192784192928
0.00194263628563
0.00198203283449
0.00220786213726
0.00327052731068
0.00122575201087
0.00178970635949
0.00182918331478
0.0018414913086
0.00184669450961
0.00185040340549
0.00185334685937
0.00185291463542
0.00185535143064
0.00185998319018
0.0018672213823
0.00187722697605
0.001890091349
0.00190346842501
0.0019160561515
0.00192799783153
0.00194385454512
0.00198876009556
0.00227314175948
0.00349497120536
0.00122314312724
0.00178717035833
0.00182659820954
0.00183870014148
0.00184343771435
0.00184549991854
0.00184017519154
0.00180610104048
0.00132031136147
0.00130995670923
0.00131326233316
0.00132807080051
0.00182780846882
0.00187006588285
0.00189870172008
0.00192045959072
0.00194203881354
0.00198659613913
0.00226762426869
0.0034873338242
0.00122085933618
0.00178533834818
0.00182467718514
0.00183633578678
0.00183986072135
0.00183793623955
0.00181737607242
0.00127012919488
0.00133517337498
0.0018434717396
0.0018808722765
0.00190965301845
0.00193642682809
0.00197890703906
0.0022006118511
0.00331798860984
0.00121920333533
0.00178419585611
0.00182364625027
0.00183519127457
0.00183826231569
0.00183457250259
0.00180768776669
0.001244768562
0.00126902718924
0.0018199564407
0.00186478478067
0.00189664074017
0.0019268309727
0.00196695413475
0.00210757344727
0.00294157621696
0.00121920340798
0.00178419588507
0.00182364620221
0.00183519114227
0.00183826210184
0.00183457223192
0.00180768743722
0.00124476849415
0.00126902877906
0.00181996071063
0.00186479169533
0.00189664873302
0.00192684088249
0.00196696651076
0.00210758552367
0.00294157540111
0.00122085945439
0.00178533834199
0.00182467700887
0.00183633543474
0.00183986019875
0.00183793562692
0.00181737546926
0.00127012895474
0.00133517658768
0.0018434786396
0.0018808836507
0.00190966608826
0.0019364416622
0.00197892347833
0.0022006251749
0.00331798618409
0.00122314337437
0.00178717046576
0.00182659804622
0.00183869968396
0.00184343696468
0.00184549893645
0.00184017423561
0.00180610031167
0.00132031116317
0.0013099568843
0.00131326288802
0.00132807200573
0.00182781183942
0.00187007267865
0.00189871451768
0.00192047457432
0.00194205528884
0.00198661360801
0.00226763364741
0.00348733241406
0.00122575162456
0.00178970562993
0.00182918243917
0.00184149036509
0.00184669356625
0.00185040255002
0.00185334625093
0.00185291447888
0.00185535188813
0.0018599843337
0.0018672233131
0.0018772300622
0.00189009629244
0.00190347660358
0.0019160704322
0.00192801406071
0.001943872005
0.0019887781065
0.00227314854227
0.00349496379746
0.00122851862787
0.00179278200908
0.00183220416807
0.00184451740454
0.0018497907294
0.00185378258255
0.00185808472996
0.00186303872946
0.00186901956646
0.00187579331644
0.00188321205197
0.00189130905355
0.00190001909208
0.00190884520939
0.00191797391676
0.0019278592179
0.00194265459803
0.00198205239514
0.00220787514189
0.00327051838067
0.00123131004928
0.00179621963603
0.00183546016451
0.00184760718743
0.00185274249253
0.00185658871728
0.0018607550366
0.00186570491413
0.00187151259499
0.00187793363394
0.00188477418572
0.00189198332139
0.00189955088064
0.00190740764289
0.00191593038697
0.00192630008808
0.00194354225968
0.00198618689062
0.0021570442675
0.00298867097267
0.0012340070691
0.00179981544647
0.00183875486385
0.00185059858648
0.00185548161587
0.00185906107552
0.00186287274225
0.00186732170586
0.00187247368006
0.00187819886077
0.00188436064358
0.00189089594178
0.00189780487636
0.00190512971432
0.00191331768751
0.00192399204003
0.00194440018779
0.00199833734123
0.00223854143459
0.00332935005524
0.00123651791139
0.00180338855236
0.00184192930741
0.00185337073814
0.00185793850263
0.0018612158729
0.00186466223198
0.00186863529112
0.00187319623742
0.00187828482808
0.00188381854461
0.00188974787194
0.0018960720402
0.00190287534363
0.00191069735638
0.00192171453459
0.00194505934096
0.00200833617475
0.00226558255903
0.00343821738318
0.00123878037798
0.00180679892385
0.0018448687571
0.00185584478965
0.00186006765376
0.00186303850315
0.00186614089832
0.0018696947069
0.0018737544899
0.00187829285173
0.0018832628845
0.00188863232775
0.00189440595318
0.00190069674433
0.00190816412803
0.00191966982999
0.00194610584401
0.00201595642098
0.00224891207639
0.00326404708256
0.00124075890777
0.00180994873388
0.00184749953186
0.00185797747784
0.00186184898132
0.00186452407566
0.00186730983844
0.00187049244568
0.00187412003372
0.00187818051949
0.00188264820861
0.00188750448706
0.00189276180978
0.00189856373699
0.00190573347073
0.00191791853451
0.00194809331655
0.00202678690693
0.00224869833027
0.00318631117886
0.00124244060991
0.00181277747589
0.00184978134996
0.00185975232436
0.0018632817216
0.00186568005629
0.00186817772475
0.00187102988078
0.00187427866846
0.00187791916872
0.00188193817756
0.00188632659922
0.00189110587961
0.0018964582792
0.00190341281647
0.00191651601946
0.0019511663388
0.00204100109303
0.00226415798298
0.00309169765276
0.00124383093933
0.00181525367822
0.00185169831272
0.00186117133144
0.00186437813249
0.00186652292799
0.00186876066666
0.0018713180716
0.00187423164038
0.00187749998427
0.00188111684815
0.00188507970272
0.00188941908122
0.0018943626003
0.0019011743912
0.00191537834832
0.00195512367556
0.00205970342601
0.00232111037317
0.00330054628093
0.00124494700231
0.00181736386455
0.00185325048187
0.00186224852072
0.00186515874696
0.00186707490587
0.00186907960964
0.00187137390629
0.00187398908009
0.00187692562293
0.00188018112581
0.00188375762073
0.0018876950699
0.00189227284426
0.00189901605002
0.00191449135488
0.00195963337592
0.00207804756431
0.0023484400536
0.00317144540918
0.00124581124025
0.0018191053986
0.0018544482843
0.001863005396
0.00186564881456
0.0018673610689
0.00186915762639
0.00187121708852
0.00187356590718
0.00187620567677
0.00187913590723
0.00188236179819
0.00188593268154
0.0018901845972
0.00189692481135
0.00191381283445
0.00196463069556
0.00209730205421
0.00238374090809
0.00309015240353
0.00124644964646
0.00182048387751
0.00185530926972
0.00186346781386
0.00186587584971
0.00186740786011
0.00186901889699
0.00187086876543
0.00187297964114
0.00187535341782
0.0018779905237
0.00188089857946
0.00188413723612
0.00188810395087
0.00189490707937
0.00191332659412
0.00196992595295
0.00211654834636
0.00242128466017
0.00308782301635
0.00124689148744
0.00182151398117
0.00185585702705
0.00186366378318
0.00186586773956
0.00186724170748
0.00186868799365
0.0018703506588
0.00187224882956
0.00187438395553
0.00187675720512
0.00187937767839
0.00188231668978
0.00188603801684
0.00189296598049
0.00191300605143
0.00197533515265
0.00213519123668
0.00245753029446
0.00311460391343
0.00124716549602
0.00182221705997
0.0018561188158
0.0018636223113
0.00186565179779
0.0018668879281
0.00186818833025
0.00186968416306
0.00187139223724
0.00187331375729
0.00187545006004
0.00187781133973
0.00188048174244
0.00188399712204
0.00189110986662
0.00191280139069
0.00198077026912
0.00215449425257
0.00249472282508
0.00313023332839
0.00124729862314
0.00182261549727
0.00185612288615
0.00186337154939
0.00186525415366
0.00186637052601
0.00186754187859
0.00186888945966
0.00187042810383
0.00187215889556
0.00187408278037
0.00187621169645
0.00187864279705
0.00188199035954
0.00188939746339
0.00191311495375
0.00198710656293
0.00217083102011
0.00252324716775
0.00314221749226
0.00124731628728
0.00182273208359
0.00185589637458
0.00186293794038
0.00186469918805
0.00186571207552
0.00186676956135
0.00186798557683
0.00186937353015
0.00187093420897
0.00187266938156
0.00187459439596
0.00187681850603
0.00188004906942
0.00188774874863
0.00191303767245
0.00199158404858
0.00218379003404
0.00254594691194
0.00315250385478
0.00124724123691
0.00182259454977
0.00185546756157
0.00186234661593
0.00186400946187
0.00186493345843
0.00186589130232
0.00186699134195
0.00186824611097
0.00186965595685
0.00187122140696
0.00187295867773
0.00187499597832
0.00187810628774
0.00188599516661
0.00191243356868
0.00199435744276
0.0021932464426
0.00256315061811
0.00316076434958
0.00124711969287
0.00182219637938
0.00185485276406
0.00186161692042
0.00186320493554
0.00186405349551
0.00186492303766
0.001865920016
0.00186705617838
0.00186833158257
0.00186974672058
0.0018713192742
0.00187318788047
0.00187617238407
0.00188414127955
0.00191130671576
0.00199553512735
0.00219946322542
0.00257551650499
0.00316705457659
0.00124688917291
0.00182161850979
0.00185410478245
0.00186078025366
0.0018623057703
0.00186308855908
0.00186388082941
0.00186478727787
0.00186581917844
0.00186697630327
0.00186825901328
0.00186968588374
0.00187140181723
0.00187425327991
0.00188219746617
0.00190969613826
0.00199526283131
0.00220275228396
0.0025837291865
0.00317156443311
0.00124652378587
0.00182091853313
0.00185325870103
0.00185985787248
0.00186132916924
0.00186205467857
0.00186277956953
0.00186360700725
0.00186454782675
0.00186560151491
0.00186676823017
0.00186806684406
0.00186964467455
0.00187235666426
0.00188018376998
0.00190767285891
0.00199375352078
0.00220359167257
0.00258863180179
0.00317456145618
0.00124604014425
0.00182011548439
0.0018523314314
0.00185886521285
0.00186028981449
0.00186096583668
0.00186163242848
0.0018623914222
0.00186325324474
0.00186421710202
0.00186528289382
0.00186646924486
0.00186792256915
0.00187049094781
0.00187812459643
0.00190531724392
0.00199121453564
0.00220238017105
0.00259090657279
0.00317619361051
0.00124545443356
0.00181922587843
0.00185133770467
0.00185781596609
0.00185920073746
0.00185983441762
0.00186045103631
0.00186115126524
0.00186194514928
0.00186283161834
0.00186381026731
0.00186489902623
0.00186624074077
0.00186866442404
0.00187604588416
0.00190271105913
0.00198784050731
0.00219943879492
0.00259108741067
0.00317631527406
0.00124478161549
0.00181826456476
0.00185029049934
0.00185672219235
0.00185807341624
0.00185867131896
0.00185924560824
0.00185989594365
0.00186063200772
0.00186145245636
0.00186235653773
0.00186336113533
0.00186460350722
0.00186688441443
0.00187397217915
0.00189993601446
0.00198383751636
0.00219509936314
0.0025895099357
0.00317413036808
0.00124403529675
0.00181724480672
0.00184920122316
0.00185559445851
0.00185691790645
0.00185748608653
0.00185802508247
0.00185863366627
0.00185932117039
0.0018600859736
0.00186092694597
0.00186185967951
0.00186301443273
0.00186515724463
0.00187192484218
0.00189706025788
0.00197936716322
0.00218965614257
0.00258720742099
0.00316772320696
0.0012432279476
0.0018161786809
0.00184808017443
0.00185444227583
0.00185574325476
0.00185628732071
0.00185679754555
0.00185737191923
0.00185801942725
0.00185873815743
0.00185952656908
0.00186039879562
0.00186147719319
0.00186348893084
0.00186992303536
0.00189414652853
0.00197458842815
0.00218324560856
0.00258416919228
0.00317597830028
0.0012423704826
0.00181507641911
0.00184693591491
0.00185327348836
0.00185455688664
0.00185508203529
0.00185556951708
0.00185611662021
0.00185673197683
0.0018574133664
0.00185815881296
0.00185898089902
0.00185999361785
0.00186188312211
0.00186798175107
0.00189124977379
0.00196966753519
0.00217620549936
0.00257903483943
0.00318459038395
0.00124147267272
0.00181394705134
0.00184577593542
0.00185209494734
0.00185336529005
0.0018538763692
0.00185434671658
0.00185487297578
0.00185546341067
0.00185611547002
0.00185682671966
0.00185760814651
0.0018585652441
0.00186034247236
0.00186611138401
0.00188840500407
0.00196468960808
0.00216880004908
0.00257223747341
0.00318331660399
0.00124054315594
0.00181279842313
0.00184460667485
0.00185091253473
0.00185217402955
0.00185267559482
0.00185313406289
0.00185364546719
0.00185421768017
0.00185484779278
0.00185553288868
0.00185628233919
0.00185719322662
0.00185886884002
0.00186432000018
0.00188564355774
0.00195975024337
0.00216128423611
0.0025649904249
0.00318037503753
0.0012395895111
0.00181163729071
0.00184343360706
0.00184973115994
0.00185098779145
0.00185148417418
0.00185193573167
0.00185243790347
0.00185299813728
0.00185361313971
0.00185427949054
0.00185500487844
0.00185587832956
0.00185746332455
0.00186261322378
0.00188298799926
0.00195490799412
0.00215374028966
0.00255753612521
0.00317713000646
0.00123861832044
0.00181046932626
0.00184226119237
0.0018485549522
0.00184981051739
0.00185030587497
0.00185075525862
0.00185125350511
0.00185180759383
0.00185241382541
0.00185306816512
0.00185377683055
0.00185462096202
0.00185612637413
0.00186099462434
0.00188045545822
0.00195021739016
0.00214630574499
0.00255007623256
0.00317394150255
0.001237635178
0.00180929927347
0.00184109323951
0.00184738729584
0.00184864550147
0.00184914388648
0.00184959566365
0.00185009503108
0.00185064845119
0.00185125170386
0.00185190034924
0.00185259892707
0.00185342130919
0.00185485790859
0.00185946600209
0.00187805706008
0.00194571623158
0.00213904585215
0.00254267995492
0.00317088424118
0.0012366449182
0.00180813110736
0.00183993283823
0.00184623098392
0.00184749554732
0.00184800098171
0.00184845961442
0.00184896495248
0.00184952284598
0.00185012854883
0.0018507769785
0.00185147142357
0.001852279232
0.00185365744945
0.0018580278187
0.00187579971926
0.00194143115813
0.00213202016605
0.00253543233615
0.00316798200537
0.0012356515859
0.00180696800434
0.0018387826361
0.00184508883577
0.00184636337915
0.0018468799137
0.00184734988324
0.00184786601969
0.0018484334724
0.00184904689197
0.00184970035598
0.00185039613799
0.00185119574891
0.00185252572681
0.00185668087484
0.00187368809977
0.00193738333616
0.00212528458588
0.00252841123009
0.00316525054286
0.0012346586991
0.00180581293079
0.00183764486452
0.00184396276457
0.00184525105937
0.00184578286223
0.00184626868813
0.00184680038656
0.00184738231659
0.00184800836487
0.00184867205244
0.00184937439593
0.00185017131501
0.00185146227737
0.0018554244294
0.00187172416177
0.00193358777822
0.00211888040731
0.00252167444719
0.00316269668445
0.00123366902503
0.0018046679319