/*--------------------------------*- C++ -*----------------------------------*\
| =========                 |                                                 |
| \\      /  F ield         | OpenFOAM: The Open Source CFD Toolbox           |
|  \\    /   O peration     | Version:  v2012                                 |
|   \\  /    A nd           | Website:  www.openfoam.com                      |
|    \\/     M anipulation  |                                                 |
\*---------------------------------------------------------------------------*/
FoamFile
{
    version     2.0;
    format      ascii;
    class       volScalarField;
    location    "1.4";
    object      nut;
}
// * * * * * * * * * * * * * * * * * * * * * * * * * * * * * * * * * * * * * //

dimensions      [0 2 -1 0 0 0 0];


internalField   nonuniform List<scalar> 
164
(
0.000845200043718
0.00124618434149
0.00128006448266
0.00129134741845
0.00129552733208
0.00129774956024
0.00129961477357
0.0013015744622
0.000846311479704
0.00124809320867
0.00128164588875
0.00129253826406
0.0012964295008
0.00129844571739
0.0013001366764
0.00130192274125
0.00130390211499
0.00130608750949
0.00130847893075
0.000847216492356
0.00124969824621
0.00128292774015
0.00129345327
0.00129708346076
0.00129891864826
0.00130045792844
0.00130209248911
0.00130390974937
0.00130592291001
0.00130813398818
0.00131056839866
0.00131337277125
0.000847931981188
0.00125101771787
0.00128393102897
0.00129411521736
0.00129751129768
0.00129918838852
0.00130059606634
0.00130209868812
0.00130377426878
0.00130563497654
0.00130768484692
0.00130995814809
0.00131264150481
0.00131654534056
0.000848474813231
0.00125207072484
0.00128467731954
0.00129454652963
0.00129773429112
0.00129927414902
0.00130056804343
0.00130195585653
0.00130350720481
0.00130523290363
0.00130713842566
0.0013092668439
0.00131184490563
0.00131586025091
0.000848861503101
0.00125287645978
0.00128518745703
0.00129476835267
0.00129777221743
0.00129919383003
0.00130038995833
0.00130167839873
0.00130312137012
0.001304728287
0.00130650558107
0.00130850838771
0.00131101632017
0.00131522699313
0.000849108349375
0.00125345364204
0.00128548120746
0.00129480018944
0.00129764314291
0.00129896383927
0.00130007679914
0.00130128013616
0.00130262975532
0.00130413479245
0.00130580357255
0.00130769989488
0.00131016270329
0.00131462079617
0.000849231590743
0.00125381929627
0.0012855760727
0.00129465950519
0.00129736335143
0.0012985990541
0.00129964259221
0.0013007749268
0.00130204670331
0.0013034647583
0.00130503999484
0.00130685207007
0.0013093054773
0.00131406107885
0.000849248487669
0.00125398816677
0.00128548752259
0.00129436149572
0.00129694726369
0.00129811335364
0.00129910022892
0.00130017385174
0.00130138091071
0.00130272731031
0.00130422831821
0.00130598197088
0.00130846784055
0.00131359139441
0.000849197819482
0.00125396772905
0.00128521836187
0.00129391490089
0.00129640629972
0.00129751788998
0.00129846004035
0.00129948691167
0.0013006426521
0.00130193280477
0.00130337848911
0.00130510066109
0.00130766791535
0.00131325252457
0.0013285434227
0.00136947795729
0.000849105943279
0.00125376113299
0.00128478003683
0.00129333212563
0.00129575190169
0.00129682308334
0.00129773154382
0.00129872302474
0.00129983970419
0.00130108865885
0.00130249735166
0.00130421674434
0.0013069229354
0.00131308874686
0.00133002573376
0.00137441531131
0.00084898790608
0.00125337884891
0.00128418535975
0.0012926239679
0.00129499341041
0.00129603678214
0.00129692145675
0.00129788793307
0.00129897706871
0.00130019853315
0.00130158808937
0.00130333436451
0.00130624165582
0.00131313447602
0.00133203026053
0.00138050943092
)
;

boundaryField
{
    back
    {
        type            nutkWallFunction;
        blending        stepwise;
        Cmu             0.09;
        kappa           0.41;
        E               9.8;
        value           nonuniform List<scalar> 
164
(
0.000111267511092
0.000121882327485
0.000124871160023
0.000125857989225
0.000126221657341
0.000126415661546
0.000126579585234
0.000126752330165
0.000111399700548
0.000122051148169
0.000125010181834
0.000125962337609
0.00012630065462
0.000126476612965
0.000126625217122
0.000126782636501
0.000126957180245
0.000127149800756
0.000127360417976
0.000111507316827
0.000122193057322
0.000125122768254
0.000126042412382
0.000126357844782
0.000126517971908
0.000126653259784
0.00012679732629
0.000126957547372
0.000127134951012
0.000127329609141
0.000127543553321
0.000127789088165
0.000111592384115
0.000122309680383
0.000125210775569
0.000126100218356
0.000126395163158
0.000126541489155
0.000126665244526
0.000126797709633
0.000126945457994
0.000127109437406
0.000127289887866
0.000127489568411
0.000127724153424
0.0001280628122
0.000111656922328
0.000122402721759
0.000125276116037
0.000126137732969
0.000126414478216
0.000126548846753
0.000126662652599
0.000126785051278
0.000126921903522
0.000127074050453
0.000127241856481
0.000127428807056
0.000127653895724
0.000127999996381
0.000111702903447
0.000122473887244
0.000125320631921
0.000126156816066
0.000126417521545
0.000126541606946
0.000126646884248
0.000126760598188
0.000126887985114
0.000127029776339
0.0001271864263
0.000127362255312
0.000127580367865
0.000127940608363
0.000111732271674
0.000122524832078
0.0001253460648
0.000126159178764
0.000126405870445
0.000126521196634
0.000126619236005
0.000126725535943
0.000126844803974
0.000126977696232
0.000127124833234
0.000127291451894
0.000127505358864
0.000127884971433
0.00011174696215
0.000122557055256
0.000125353951673
0.000126146351257
0.000126380943172
0.000126488904313
0.000126580899169
0.000126680997098
0.0001267934782
0.000126918899731
0.000127058065403
0.000127217443805
0.000127430250592
0.000127834422642
0.000111748980981
0.000122571858954
0.000125345662553
0.000126119688163
0.000126344003593
0.000126445908548
0.000126532976684
0.000126627995259
0.000126734902979
0.000126854175304
0.000126987017846
0.000127141388612
0.000127356801858
0.000127792181956
0.000111741519491
0.000122570312406
0.000125321929275
0.000126080134647
0.000126296097556
0.000126393221053
0.000126476398251
0.000126567366332
0.000126669858635
0.000126784314792
0.000126912448795
0.000127064123686
0.000127286389984
0.000127761437323
0.000129058899709
0.000132552800422
0.000111729103018
0.000122552434685
0.000125283196626
0.000126028514666
0.0001262381386
0.000126331723128
0.000126411965645
0.000126499863133
0.000126598987414
0.000126709914679
0.000126834884018
0.00012698627946
0.000127220334772
0.000127745764045
0.000129189971679
0.000133005268966
0.000111714547349
0.000122518469848
0.000125230341862
0.000125965676472
0.000126170920362
0.000126262086105
0.000126340250912
0.000126425969971
0.000126522700833
0.000126631250859
0.000126754545672
0.000126908150155
0.000127159342654
0.00012774810651
0.000129366908455
0.000133557011899
)
;
    }
    sides
    {
        type            nutkWallFunction;
        blending        stepwise;
        Cmu             0.09;
        kappa           0.41;
        E               9.8;
        value           nonuniform List<scalar> 0();
    }
    bottom
    {
        type            nutkWallFunction;
        blending        stepwise;
        Cmu             0.09;
        kappa           0.41;
        E               9.8;
        value           nonuniform List<scalar> 
12
(
5.92182653641e-05
5.92886095271e-05
5.93458767921e-05
5.93911445325e-05
5.94254877865e-05
5.94499560275e-05
5.9465583908e-05
5.94734012247e-05
5.94744755149e-05
5.94705049959e-05
5.94638977546e-05
5.94561521656e-05
)
;
    }
    front
    {
        type            nutkWallFunction;
        blending        stepwise;
        Cmu             0.09;
        kappa           0.41;
        E               9.8;
        value           nonuniform List<scalar> 
164
(
0.000111267511092
0.000121882327485
0.000124871160023
0.000125857989225
0.000126221657341
0.000126415661546
0.000126579585234
0.000126752330165
0.000111399700548
0.000122051148169
0.000125010181834
0.000125962337609
0.00012630065462
0.000126476612965
0.000126625217122
0.000126782636501
0.000126957180245
0.000127149800756
0.000127360417976
0.000111507316827
0.000122193057322
0.000125122768254
0.000126042412382
0.000126357844782
0.000126517971908
0.000126653259784
0.00012679732629
0.000126957547372
0.000127134951012
0.000127329609141
0.000127543553321
0.000127789088165
0.000111592384115
0.000122309680383
0.000125210775569
0.000126100218356
0.000126395163158
0.000126541489155
0.000126665244526
0.000126797709633
0.000126945457994
0.000127109437406
0.000127289887866
0.000127489568411
0.000127724153424
0.0001280628122
0.000111656922328
0.000122402721759
0.000125276116037
0.000126137732969
0.000126414478216
0.000126548846753
0.000126662652599
0.000126785051278
0.000126921903522
0.000127074050453
0.000127241856481
0.000127428807056
0.000127653895724
0.000127999996381
0.000111702903447
0.000122473887244
0.000125320631921
0.000126156816066
0.000126417521545
0.000126541606946
0.000126646884248
0.000126760598188
0.000126887985114
0.000127029776339
0.0001271864263
0.000127362255312
0.000127580367865
0.000127940608363
0.000111732271674
0.000122524832078
0.0001253460648
0.000126159178764
0.000126405870445
0.000126521196634
0.000126619236005
0.000126725535943
0.000126844803974
0.000126977696232
0.000127124833234
0.000127291451894
0.000127505358864
0.000127884971433
0.00011174696215
0.000122557055256
0.000125353951673
0.000126146351257
0.000126380943172
0.000126488904313
0.000126580899169
0.000126680997098
0.0001267934782
0.000126918899731
0.000127058065403
0.000127217443805
0.000127430250592
0.000127834422642
0.000111748980981
0.000122571858954
0.000125345662553
0.000126119688163
0.000126344003593
0.000126445908548
0.000126532976684
0.000126627995259
0.000126734902979
0.000126854175304
0.000126987017846
0.000127141388612
0.000127356801858
0.000127792181956
0.000111741519491
0.000122570312406
0.000125321929275
0.000126080134647
0.000126296097556
0.000126393221053
0.000126476398251
0.000126567366332
0.000126669858635
0.000126784314792
0.000126912448795
0.000127064123686
0.000127286389984
0.000127761437323
0.000129058899709
0.000132552800422
0.000111729103018
0.000122552434685
0.000125283196626
0.000126028514666
0.0001262381386
0.000126331723128
0.000126411965645
0.000126499863133
0.000126598987414
0.000126709914679
0.000126834884018
0.00012698627946
0.000127220334772
0.000127745764045
0.000129189971679
0.000133005268966
0.000111714547349
0.000122518469848
0.000125230341862
0.000125965676472
0.000126170920362
0.000126262086105
0.000126340250912
0.000126425969971
0.000126522700833
0.000126631250859
0.000126754545672
0.000126908150155
0.000127159342654
0.00012774810651
0.000129366908455
0.000133557011899
)
;
    }
    atmosphere
    {
        type            calculated;
        value           nonuniform List<scalar> 0();
    }
    floatingObject
    {
        type            nutkWallFunction;
        blending        stepwise;
        Cmu             0.09;
        kappa           0.41;
        E               9.8;
        value           nonuniform List<scalar> 0();
    }
    procBoundary7to6
    {
        type            processor;
        value           nonuniform List<scalar> 
11
(
0.00132462064701
0.00132495879805
0.00132552175013
0.00132609888093
0.00132668610493
0.00132747492512
0.00132747492512
0.00136544198304
0.00146384412134
0.00147357199798
0.00148592086545
)
;
    }
    procBoundary7to8
    {
        type            processor;
        value           nonuniform List<scalar> 
17
(
0.000843864148821
0.00124395354058
0.00127816202583
0.00128985625804
0.0012943522106
0.00129680712773
0.00129887168298
0.00130102983311
0.00130373846049
0.00130373846049
0.00130611826286
0.00130871288963
0.00131109154268
0.00131109154268
0.00131403268073
0.00131721375856
0.00131721375856
)
;
    }
    procBoundary7to9
    {
        type            processor;
        value           nonuniform List<scalar> 
16
(
0.000848776555584
0.0012528468403
0.00128346835768
0.00129181186683
0.00129414247247
0.00129516648111
0.00129603567717
0.00129698608328
0.00129805828214
0.00129926426014
0.00130065052186
0.00130244884352
0.00130560992244
0.0013133621316
0.00133456508873
0.00138787829105
)
;
    }
}


// ************************************************************************* //
