/*--------------------------------*- C++ -*----------------------------------*\
| =========                 |                                                 |
| \\      /  F ield         | OpenFOAM: The Open Source CFD Toolbox           |
|  \\    /   O peration     | Version:  v2012                                 |
|   \\  /    A nd           | Website:  www.openfoam.com                      |
|    \\/     M anipulation  |                                                 |
\*---------------------------------------------------------------------------*/
FoamFile
{
    version     2.0;
    format      ascii;
    class       volScalarField;
    location    "1.4";
    object      p;
}
// * * * * * * * * * * * * * * * * * * * * * * * * * * * * * * * * * * * * * //

dimensions      [1 -1 -2 0 0 0 0];


internalField   nonuniform List<scalar> 
164
(
8648.53698713
8159.54368282
7670.8957281
7182.73812237
6695.06042362
6207.84793488
5721.08188838
5234.73885292
8639.5071519
8150.46888649
7661.77380873
7173.54340846
6685.77032965
6198.44284363
5711.54607713
5225.06165542
4738.96601289
4253.23002108
3767.82040644
8629.99980673
8140.91875078
7652.17905874
7163.8802031
6676.01865799
6188.58610946
5701.57212861
5214.96383617
4728.74452231
4242.89313704
3757.3849995
3272.19419429
2787.29799778
8620.04211112
8130.9199476
7642.13700003
7153.77216578
6665.82630146
6178.29479559
5691.17209325
5204.45126101
4718.12252161
4232.17204237
3746.58152721
3261.32974505
2776.38015866
2291.67867068
8609.65982909
8120.49746213
7631.67119637
7143.24052644
6655.2111591
6167.58235707
5680.35390428
5193.52545138
4707.09481459
4221.05554072
3735.39419412
3250.10575097
2765.14289781
2280.42229192
8598.87807346
8109.67553123
7620.8042885
7132.30511882
6644.18928388
6156.45991427
5669.12252305
5182.18423429
4695.65242864
4209.53026636
3723.79269135
3238.50238012
2753.58673024
2269.01869054
8587.72198315
8098.4788237
7609.55938501
7120.98542389
6632.77618025
6144.93769402
5657.48103094
5170.42135325
4683.78043648
4197.59365487
3711.7035324
3226.44438929
2741.64863156
2257.331229
8576.21761199
8086.93380458
7597.96195976
7109.30083538
6620.98827527
6133.02693943
5645.43303129
5158.22649336
4671.43330689
4185.08914061
3699.20142433
3213.88697983
2729.17253232
2245.12109536
8564.39283911
8075.06662742
7586.04443433
7097.26898197
6608.84519804
6120.74235226
5632.98529856
5145.60242919
4658.62899967
4172.11052078
3686.10168727
3200.69346146
2715.98038648
2232.09416673
8552.27835657
8062.90691977
7573.80170298
7084.94489259
6596.37730105
6108.106532
5620.15637106
5132.55920849
4645.35751532
4158.6065724
3672.37913489
3186.77509132
2701.92161055
2217.99702683
1735.25464562
1253.95109607
8539.90974955
8050.48898245
7561.30253492
7072.33375382
6583.60937394
6095.14567827
5606.96827933
5119.11253343
4631.62466329
4144.56582449
3658.01608807
3172.08321178
2686.90688931
2202.68632631
1719.68419653
1238.17649888
8527.32904273
8037.85050325
7548.58016189
7059.47953304
6570.57860467
6081.89456603
5593.45350101
5105.29118248
4617.45463981
4130.00539519
3643.02420063
3156.61718269
2670.92241381
2186.13623923
1702.49371892
1220.23163132
)
;

boundaryField
{
    back
    {
        type            calculated;
        value           nonuniform List<scalar> 
164
(
8648.53698713
8159.54368282
7670.8957281
7182.73812237
6695.06042362
6207.84793488
5721.08188838
5234.73885292
8639.5071519
8150.46888649
7661.77380873
7173.54340846
6685.77032965
6198.44284363
5711.54607713
5225.06165542
4738.96601289
4253.23002108
3767.82040644
8629.99980673
8140.91875078
7652.17905874
7163.8802031
6676.01865799
6188.58610946
5701.57212861
5214.96383617
4728.74452231
4242.89313704
3757.3849995
3272.19419429
2787.29799778
8620.04211112
8130.9199476
7642.13700003
7153.77216578
6665.82630146
6178.29479559
5691.17209325
5204.45126101
4718.12252161
4232.17204237
3746.58152721
3261.32974505
2776.38015866
2291.67867068
8609.65982909
8120.49746213
7631.67119637
7143.24052644
6655.2111591
6167.58235707
5680.35390428
5193.52545138
4707.09481459
4221.05554072
3735.39419412
3250.10575097
2765.14289781
2280.42229192
8598.87807346
8109.67553123
7620.8042885
7132.30511882
6644.18928388
6156.45991427
5669.12252305
5182.18423429
4695.65242864
4209.53026636
3723.79269135
3238.50238012
2753.58673024
2269.01869054
8587.72198315
8098.4788237
7609.55938501
7120.98542389
6632.77618025
6144.93769402
5657.48103094
5170.42135325
4683.78043648
4197.59365487
3711.7035324
3226.44438929
2741.64863156
2257.331229
8576.21761199
8086.93380458
7597.96195976
7109.30083538
6620.98827527
6133.02693943
5645.43303129
5158.22649336
4671.43330689
4185.08914061
3699.20142433
3213.88697983
2729.17253232
2245.12109536
8564.39283911
8075.06662742
7586.04443433
7097.26898197
6608.84519804
6120.74235226
5632.98529856
5145.60242919
4658.62899967
4172.11052078
3686.10168727
3200.69346146
2715.98038648
2232.09416673
8552.27835657
8062.90691977
7573.80170298
7084.94489259
6596.37730105
6108.106532
5620.15637106
5132.55920849
4645.35751532
4158.6065724
3672.37913489
3186.77509132
2701.92161055
2217.99702683
1735.25464562
1253.95109607
8539.90974955
8050.48898245
7561.30253492
7072.33375382
6583.60937394
6095.14567827
5606.96827933
5119.11253343
4631.62466329
4144.56582449
3658.01608807
3172.08321178
2686.90688931
2202.68632631
1719.68419653
1238.17649888
8527.32904273
8037.85050325
7548.58016189
7059.47953304
6570.57860467
6081.89456603
5593.45350101
5105.29118248
4617.45463981
4130.00539519
3643.02420063
3156.61718269
2670.92241381
2186.13623923
1702.49371892
1220.23163132
)
;
    }
    sides
    {
        type            calculated;
        value           nonuniform List<scalar> 0();
    }
    bottom
    {
        type            calculated;
        value           nonuniform List<scalar> 
12
(
8893.34553621
8884.31567813
8874.80829935
8864.85056596
8854.46825592
8843.68650049
8832.53043367
8821.02610866
8809.20134939
8797.08687923
8784.71827957
8772.13757557
)
;
    }
    front
    {
        type            calculated;
        value           nonuniform List<scalar> 
164
(
8648.53698713
8159.54368282
7670.8957281
7182.73812237
6695.06042362
6207.84793488
5721.08188838
5234.73885292
8639.5071519
8150.46888649
7661.77380873
7173.54340846
6685.77032965
6198.44284363
5711.54607713
5225.06165542
4738.96601289
4253.23002108
3767.82040644
8629.99980673
8140.91875078
7652.17905874
7163.8802031
6676.01865799
6188.58610946
5701.57212861
5214.96383617
4728.74452231
4242.89313704
3757.3849995
3272.19419429
2787.29799778
8620.04211112
8130.9199476
7642.13700003
7153.77216578
6665.82630146
6178.29479559
5691.17209325
5204.45126101
4718.12252161
4232.17204237
3746.58152721
3261.32974505
2776.38015866
2291.67867068
8609.65982909
8120.49746213
7631.67119637
7143.24052644
6655.2111591
6167.58235707
5680.35390428
5193.52545138
4707.09481459
4221.05554072
3735.39419412
3250.10575097
2765.14289781
2280.42229192
8598.87807346
8109.67553123
7620.8042885
7132.30511882
6644.18928388
6156.45991427
5669.12252305
5182.18423429
4695.65242864
4209.53026636
3723.79269135
3238.50238012
2753.58673024
2269.01869054
8587.72198315
8098.4788237
7609.55938501
7120.98542389
6632.77618025
6144.93769402
5657.48103094
5170.42135325
4683.78043648
4197.59365487
3711.7035324
3226.44438929
2741.64863156
2257.331229
8576.21761199
8086.93380458
7597.96195976
7109.30083538
6620.98827527
6133.02693943
5645.43303129
5158.22649336
4671.43330689
4185.08914061
3699.20142433
3213.88697983
2729.17253232
2245.12109536
8564.39283911
8075.06662742
7586.04443433
7097.26898197
6608.84519804
6120.74235226
5632.98529856
5145.60242919
4658.62899967
4172.11052078
3686.10168727
3200.69346146
2715.98038648
2232.09416673
8552.27835657
8062.90691977
7573.80170298
7084.94489259
6596.37730105
6108.106532
5620.15637106
5132.55920849
4645.35751532
4158.6065724
3672.37913489
3186.77509132
2701.92161055
2217.99702683
1735.25464562
1253.95109607
8539.90974955
8050.48898245
7561.30253492
7072.33375382
6583.60937394
6095.14567827
5606.96827933
5119.11253343
4631.62466329
4144.56582449
3658.01608807
3172.08321178
2686.90688931
2202.68632631
1719.68419653
1238.17649888
8527.32904273
8037.85050325
7548.58016189
7059.47953304
6570.57860467
6081.89456603
5593.45350101
5105.29118248
4617.45463981
4130.00539519
3643.02420063
3156.61718269
2670.92241381
2186.13623923
1702.49371892
1220.23163132
)
;
    }
    atmosphere
    {
        type            calculated;
        value           nonuniform List<scalar> 0();
    }
    floatingObject
    {
        type            calculated;
        value           nonuniform List<scalar> 0();
    }
    procBoundary7to6
    {
        type            processor;
        value           nonuniform List<scalar> 
11
(
1807.1722453
1795.84283305
1784.6365824
1773.44879216
1761.82086859
1749.22744347
1749.22744347
1267.55234616
774.911899389
759.008373042
740.170821604
)
;
    }
    procBoundary7to8
    {
        type            processor;
        value           nonuniform List<scalar> 
17
(
8657.05996169
8168.11391796
7679.51623123
7191.43697156
6703.86356539
6216.77907629
5730.16173062
5243.9837932
4748.78836448
4748.78836448
4263.1921273
3777.90486878
3282.70288641
3282.70288641
2797.85045989
2302.70021515
2302.70021515
)
;
    }
    procBoundary7to9
    {
        type            processor;
        value           nonuniform List<scalar> 
16
(
8514.57871713
8025.03818417
7535.67512824
7046.42824764
6557.32975589
6068.39734331
5579.65584807
5091.13910551
4602.89144413
4114.97042275
3627.45067664
3140.42867685
2654.0296203
2168.42361064
1683.80719155
1200.32761593
)
;
    }
}


// ************************************************************************* //
