/*--------------------------------*- C++ -*----------------------------------*\
| =========                 |                                                 |
| \\      /  F ield         | OpenFOAM: The Open Source CFD Toolbox           |
|  \\    /   O peration     | Version:  v2012                                 |
|   \\  /    A nd           | Website:  www.openfoam.com                      |
|    \\/     M anipulation  |                                                 |
\*---------------------------------------------------------------------------*/
FoamFile
{
    version     2.0;
    format      ascii;
    class       surfaceVectorField;
    location    "3.2";
    object      Uf_0;
}
// * * * * * * * * * * * * * * * * * * * * * * * * * * * * * * * * * * * * * //

dimensions      [0 1 -1 0 0 0 0];


internalField   nonuniform List<vector> 
302
(
(0.0397141739907 -0.0181626576101 7.67746790129e-24)
(0.0408327388915 -0.0168029792036 8.74375463335e-24)
(0.0399073319961 -0.0206766672958 9.23956940809e-24)
(0.0410678676716 -0.0192838127392 1.30808045551e-23)
(0.0400646421336 -0.0232538476976 2.13906349266e-24)
(0.0412817172516 -0.0218327661386 1.24906913619e-23)
(0.0401571422497 -0.0259054882992 -1.99279588038e-23)
(0.0414478676976 -0.024460052859 -6.70304274877e-24)
(0.0401276894703 -0.0286322001419 -3.32556413844e-23)
(0.0415362754758 -0.0271735501394 -2.270204694e-23)
(0.0398237187044 -0.0314473549556 -1.44607279736e-22)
(0.0414714210434 -0.0300120067791 -4.23684483439e-23)
(0.0389049026657 -0.0343656211154 -7.06120960474e-22)
(0.0410360318046 -0.032939085736 -3.1110792624e-22)
(0.0369679654084 -0.037328580342 -1.28736279449e-21)
(0.0397441048827 -0.0358044336708 -1.44715695848e-21)
(0.0342975099472 -0.0398822385535 -3.99994701028e-21)
(0.0369907702877 -0.0396898092694 -3.53126057778e-21)
(0.033409042561 -0.0416122538273 -4.04158348379e-21)
(0.0336267548629 -0.0435134522001 -7.83205103266e-21)
(0.0240600349338 -0.042108604541 3.97156154753e-23)
(0.0337856302243 -0.0394829443847 -9.97374321564e-21)
(0.0168101922761 -0.0411739328401 1.89090235421e-21)
(0.0144022266922 -0.0454165433077 -1.23780477181e-20)
(0.020164348601 -0.0475963245336 -6.19333071109e-21)
(0.0416572110268 -0.0130846042125 -7.51770728411e-24)
(0.0426772855305 -0.0117829195886 -1.02430126093e-23)
(0.0419286585489 -0.0154679301808 5.14142943391e-24)
(0.0429723739656 -0.0141175773873 -1.88170659257e-24)
(0.0422044614075 -0.0179183750809 1.41470912872e-23)
(0.0432831825818 -0.0165237685021 3.59927554682e-24)
(0.0424692466559 -0.0204407517289 1.6331926509e-23)
(0.0435902727489 -0.0190071676223 1.21395106994e-23)
(0.0427060430487 -0.0230459351134 3.64858512051e-24)
(0.0438869574303 -0.0215729006769 8.19005713748e-24)
(0.0428918576623 -0.025755087855 -9.47713088499e-24)
(0.0441571045374 -0.0242359717435 7.13853752214e-25)
(0.0429779557121 -0.0285741882425 -3.18148538994e-23)
(0.0443554779228 -0.0270080068268 -1.15440164587e-23)
(0.0428272468828 -0.0315501865971 -2.08869094848e-22)
(0.0444475285033 -0.029934524352 -1.16511414879e-22)
(0.042067458797 -0.0347301277039 -1.05214392425e-21)
(0.0442160731318 -0.0330237090579 -7.37690120809e-22)
(0.0400411419668 -0.0381180705549 -3.69105474177e-21)
(0.0431321286276 -0.0361134912517 -2.92354697399e-21)
(0.0367214014072 -0.0413716271279 -7.36336460016e-21)
(0.040244377497 -0.0401612599266 -6.19011647088e-21)
(0.0346813190649 -0.0439461877265 -1.37642107645e-20)
(0.0362013323634 -0.0446701769137 -7.41168941206e-21)
(0.0253398427236 -0.0457265144086 -2.23915065492e-20)
(0.035565955355 -0.0396524430264 -2.13471765241e-20)
(0.0184621623634 -0.0504191385899 -2.04622807834e-20)
(0.0190948224621 -0.0503188748229 -3.42929815599e-20)
(0.022835954752 -0.0589973031808 -1.82508551273e-20)
(0.040953849187 -0.00196963205796 1.96430509235e-22)
(0.0413056915317 -0.000995078989032 5.11157238507e-23)
(0.0426055573823 -0.00292460413762 3.39891925851e-22)
(0.0436647568013 -0.01050929245 1.61215864862e-24)
(0.0446132557133 -0.00925001155415 6.80928551886e-24)
(0.0439915854088 -0.0127963841065 -4.60701191773e-24)
(0.0449643388552 -0.0114808347799 -3.65783757164e-24)
(0.0443354566406 -0.015154351943 -3.42386047967e-24)
(0.0453303199726 -0.013780571934 -2.31326191112e-24)
(0.0446941993249 -0.0175916180479 1.59169495904e-24)
(0.0457204448476 -0.0161627743592 -4.67945260341e-24)
(0.0450532155421 -0.0201272930908 3.99764132791e-24)
(0.0461259656235 -0.0186390416976 -1.18086501094e-23)
(0.0453917284729 -0.0227436337748 5.25532576918e-24)
(0.0465033386768 -0.0212179552916 -1.56214078258e-23)
(0.0456911648463 -0.0254934933766 -1.35303182148e-24)
(0.0469070258548 -0.0239078879364 -1.7774582387e-23)
(0.0459155342392 -0.0283790999407 -9.6240577438e-23)
(0.047241161009 -0.0267156077214 -9.16664095806e-25)
(0.0459490090043 -0.031392535825 -6.4533244084e-22)
(0.0474610467265 -0.0296794174015 -2.34910573007e-22)
(0.0454207400959 -0.0346069199958 -2.60909317056e-21)
(0.0474305352184 -0.0328244835689 -1.26313381954e-21)
(0.0435256979811 -0.0380608134268 -5.4226087031e-21)
(0.046586086501 -0.0359871148495 -4.03534901724e-21)
(0.0400262254557 -0.0416742573017 -6.23844128278e-21)
(0.0438578630876 -0.0399354644634 -3.28929299383e-21)
(0.037603447309 -0.0453237934643 -1.49946551716e-20)
(0.0398508829118 -0.0451050354135 -1.33210281223e-21)
(0.030076412063 -0.0491509463703 -3.32486515347e-20)
(0.0393931094849 -0.0393660668451 -2.09225252974e-20)
(0.0235274952059 -0.0584691684135 -3.20815559037e-20)
(0.028413049576 -0.0542327762398 -3.90703805749e-20)
(0.0276102756039 -0.0666075531863 -2.17304053781e-20)
(0.0429299955999 -0.00189251119583 1.94577140466e-22)
(0.0431981651756 -0.000955014688323 -2.05499628981e-22)
(0.0441224285569 -0.00388072528961 2.26055570202e-22)
(0.04459372853 -0.00280877234457 9.60124054652e-23)
(0.0449569964678 -0.0059230219857 1.27724660827e-22)
(0.0456544854054 -0.00479648899455 1.21981569558e-23)
(0.0454894100427 -0.00802765717304 6.30819859166e-23)
(0.0463246142991 -0.00682085875637 8.16606373944e-23)
(0.0458954804977 -0.0101974209485 1.53928929861e-24)
(0.0467829779017 -0.00893221221815 -3.26499365367e-24)
(0.0462930418316 -0.0124362801364 -1.36408756502e-24)
(0.0472031649568 -0.0111063031546 -1.01391887456e-23)
(0.0467176708858 -0.0147574319666 -3.56885403487e-24)
(0.0476514499289 -0.0133593629588 -2.66051991903e-24)
(0.0471682227971 -0.0171727725864 -1.80797976719e-23)
(0.0481357773574 -0.0157082857038 -6.64435260489e-24)
(0.0476338829774 -0.0196917008053 -3.14276992631e-23)
(0.048644902704 -0.0181654132483 -1.79636851663e-23)
(0.0480922397068 -0.0223460740258 -3.8651315982e-23)
(0.0491577386402 -0.0207467624935 -2.44182593446e-23)
(0.0485193759694 -0.0251022383162 -1.73382146613e-23)
(0.0496632338737 -0.0234574684381 -3.24686867993e-23)
(0.0488775362676 -0.0279985449426 -1.39586659665e-22)
(0.0501375234406 -0.0262979008677 -9.51913612569e-24)
(0.0490655028273 -0.0310439087123 -8.52711951707e-22)
(0.0505064722472 -0.0292899793877 -2.54825185971e-22)
(0.0487460020398 -0.0342434677258 -2.68938966622e-21)
(0.0506301544359 -0.0324613346055 -1.1414631544e-21)
(0.0471293591069 -0.0376850254244 -1.90203330796e-21)
(0.0500276958235 -0.0356773880718 -3.36169860199e-21)
(0.0439621114254 -0.041568346824 1.61704547672e-21)
(0.0477412190599 -0.0395320259675 -5.05647316402e-22)
(0.041925793175 -0.0460391460113 -7.25997293798e-21)
(0.0443216944331 -0.0452119416302 -1.75035522086e-21)
(0.0376282574182 -0.0510689414327 -2.67442543375e-20)
(0.0444229064212 -0.0390602664457 -1.41843625235e-20)
(0.032150336699 -0.0614483471801 -2.87192300493e-20)
(0.0387924623142 -0.0565878301941 -2.73973829417e-20)
(0.0330429592762 -0.0703495570183 -1.63526638026e-20)
(0.0448252732247 -0.00182168189516 -3.04064363982e-22)
(0.0450198169052 -0.000906961554348 -6.17438233695e-22)
(0.0460907978571 -0.00370808849229 -1.17845007781e-22)
(0.0464801009803 -0.00267158195014 -2.1367033742e-22)
(0.0469938763331 -0.00567543451884 -3.38658664771e-23)
(0.0476217937641 -0.00457473819552 -9.95796956106e-23)
(0.0475924909504 -0.00770813567762 1.53136578241e-23)
(0.0483572770049 -0.00651391468872 5.86018462917e-23)
(0.0480688867914 -0.00981133283042 -1.49434716979e-23)
(0.0488861385907 -0.00854619707255 -1.10583524303e-24)
(0.0485473200293 -0.0119898384542 -1.14356210996e-23)
(0.0493816386609 -0.0106490740614 -1.563557249e-24)
(0.0490657562943 -0.0142666984763 -5.73601848905e-24)
(0.0499282854839 -0.0128425589093 -8.7102257943e-25)
(0.04962103379 -0.0166499597672 -6.52824009934e-24)
(0.0505190245053 -0.0151488112345 -6.64557696715e-25)
(0.0502012671491 -0.0191588341903 -1.09542452478e-23)
(0.0511537759653 -0.0175776446338 1.30078542984e-23)
(0.0507904313669 -0.021801367696 -1.82356301619e-23)
(0.05180028515 -0.0201458496575 -3.33429267664e-24)
(0.0513607290192 -0.0245903625053 -2.46496082637e-23)
(0.0524522552651 -0.0228657411881 -1.38987797697e-23)
(0.0518608484837 -0.0275205280197 -1.24757662432e-22)
(0.0530677262403 -0.0257425361287 -3.34105994824e-23)
(0.0521879158968 -0.0305990107767 -5.43576388664e-22)
(0.053584998808 -0.0287807487562 -2.39562762342e-22)
(0.0520624361779 -0.0338176863705 -1.81377209018e-21)
(0.053848875377 -0.0319924764065 -8.29950539715e-22)
(0.0508429807445 -0.0372912481777 -1.96531261043e-21)
(0.0535012988039 -0.0352861111837 -2.65249899154e-21)
(0.0482969222197 -0.0414614767822 -3.87304801398e-21)
(0.0519114766707 -0.0392023397611 -1.31274200696e-21)
(0.0470178293362 -0.0463527373008 -8.67474480634e-21)
(0.0492129658464 -0.0451590516079 -7.59478388756e-21)
(0.0460512562116 -0.0523181082682 -1.48374911276e-20)
(0.0503882789365 -0.0389474274765 -8.13544428328e-21)
(0.0401599564045 -0.0642320244332 -1.5030816695e-20)
(0.0507063854928 -0.0580502276778 -1.08118651384e-20)
(0.0382725575289 -0.071660338112 -6.49198366472e-21)
(0.0466301470424 -0.00171086283068 -5.27044207133e-22)
(0.0467306524142 -0.000849530164245 -7.07961815635e-22)
(0.0479712672516 -0.00351185665542 -1.9540502525e-22)
(0.0482810638886 -0.00250983374054 -2.62963445346e-22)
(0.048947702527 -0.00538242479618 -7.11198284184e-24)
(0.0494923282566 -0.00431066928403 -9.09090141355e-24)
(0.0496199926559 -0.00732732653992 4.21823532245e-23)
(0.0503021435685 -0.00614651135856 7.79264939315e-23)
(0.0501781677711 -0.00935023201898 1.22740792058e-23)
(0.0509090089938 -0.00808166519735 1.09557151628e-23)
(0.050747987792 -0.0114479419859 9.00104127116e-24)
(0.0514793156535 -0.0101010704265 9.95110743379e-24)
(0.0513707323065 -0.013669344705 4.20043821291e-24)
(0.0521496598237 -0.0122221571059 7.40426890803e-24)
(0.0520481417075 -0.0160091564994 1.8871536701e-23)
(0.0528588151562 -0.0144677604948 8.93190095795e-24)
(0.0527641908634 -0.0184861551755 2.06278068695e-23)
(0.0536307631156 -0.0168541692627 2.98804441504e-23)
(0.0534996139926 -0.0211231319236 1.00255771562e-24)
(0.0544372613471 -0.0193989715627 1.7072892867e-23)
(0.0542250590165 -0.0239265771975 -2.26597709884e-23)
(0.0552557110755 -0.0221193937015 5.38135181402e-25)
(0.0548842865468 -0.0269025477 -1.48215699392e-22)
(0.0560437172896 -0.0250305229831 -2.32293894567e-23)
(0.055365377714 -0.0300490148546 -5.25936913393e-22)
(0.0567314944106 -0.028131453698 -1.74957706084e-22)
(0.0554332605179 -0.0333486377647 -1.66867744107e-21)
(0.0571485316291 -0.0314197510989 -5.75915652779e-22)
(0.054679784583 -0.0368979161265 -1.99992838807e-21)
(0.0570506107156 -0.0348321514405 -1.71237771669e-21)
(0.0529826440217 -0.0410767817038 -5.03447788055e-21)
(0.0560903680224 -0.0389815866985 -1.20932936253e-21)
(0.052755053406 -0.0465294201971 -7.0554833645e-21)
(0.0546656149919 -0.0450912548482 -3.08877177388e-21)
(0.0547526427653 -0.0532226244546 -4.10981829408e-21)
(0.0570814848516 -0.039000309542 -5.79423784581e-21)
(0.0484703121452 -0.0636553616578 -2.2730321081e-21)
(0.0611391283866 -0.0590659728038 -1.02700317398e-20)
(0.0438339383965 -0.070124135542 -5.82709566456e-21)
(0.0483276278858 -0.00160659154846 -4.43881053847e-22)
(0.0483372119776 -0.000781788520431 -5.90349346776e-22)
(0.0497460185937 -0.00328189074211 -7.66493215094e-23)
(0.0499563289094 -0.00232016870596 -1.61972266376e-22)
(0.0507982097762 -0.00503727518619 7.59475753598e-23)
(0.0512476763914 -0.00400145464535 6.78874959525e-23)
(0.0515483436623 -0.00687070269301 4.66998558698e-23)
(0.0521355328593 -0.00571438569993 1.13748586685e-22)
(0.0521961466069 -0.00878595103 8.63274339078e-24)
(0.0528242177782 -0.0075314223288 2.67437856339e-23)
(0.0528716112873 -0.0108175315996 8.35433507066e-24)
(0.0535108566572 -0.00944798309231 6.25802217016e-24)
(0.0536173931979 -0.0129523591319 1.21357316531e-23)
(0.054284449793 -0.0114779354128 5.15823155226e-24)
(0.0544360555379 -0.0152310949051 1.99408084074e-23)
(0.0551375179123 -0.0136442925214 4.33837270434e-24)
(0.0553092644034 -0.0176694903889 2.6325530148e-23)
(0.0560691328166 -0.0159725543288 1.46815711059e-23)
(0.0562144298028 -0.02028955854 1.66084703328e-23)
(0.0570573129433 -0.0184812110571 1.63442826145e-23)
(0.0571189557008 -0.0231001441326 -3.14832868903e-26)
(0.0580662908521 -0.021193454297 1.09312367533e-23)
(0.057964284036 -0.0261177742824 -4.99713961482e-23)
(0.0590613532491 -0.0241341534326 9.97646928042e-24)
(0.0586353890603 -0.0293475839671 -2.2493644547e-22)
(0.0599613218011 -0.0273070930507 -3.8636854008e-23)
(0.0589259181942 -0.0328041033097 -6.19615928391e-22)
(0.0606050796899 -0.0307135283183 -1.92014292726e-22)
(0.0586533353033 -0.0364985997701 -9.2177869115e-22)
(0.0607451431009 -0.0343101697112 -7.10131221388e-22)
(0.0579930293988 -0.0409262070701 7.3637674414e-22)
(0.0605180084445 -0.0388213244286 -7.43385021312e-22)
(0.0592021985383 -0.0467673180915 -1.82752625519e-21)
(0.0605067432797 -0.0451082935084 1.55717663117e-22)
(0.0627788454415 -0.0542932509412 -1.19544512916e-20)
(0.0646074201593 -0.0391062567807 -4.70050862946e-21)
(0.05600749573 -0.0616051035337 -1.38240952963e-20)
(0.0684509944248 -0.0592588941231 -1.2501667149e-20)
(0.0501596905075 -0.0667994949159 -8.80465084895e-21)
(0.0498990320756 -0.00147343431587 -3.08440559305e-22)
(0.0498106078674 -0.000709231269503 -4.11900229305e-22)
(0.0513922341572 -0.00301302095579 -1.74354489145e-23)
(0.0514958746217 -0.00210101020612 -5.60091731371e-23)
(0.0525255200325 -0.00463372675391 1.05688507277e-22)
(0.0528683388207 -0.00363706685397 4.3049432199e-23)
(0.0533588630628 -0.00633831805779 9.37925164489e-23)
(0.0538400778818 -0.00520984459669 1.23176708495e-22)
(0.0540997544378 -0.00813564213897 2.43690644133e-23)
(0.0546214925991 -0.00689022815973 3.66701194826e-23)
(0.0548912040718 -0.0100471860099 3.06191865175e-24)
(0.0554223492563 -0.008677353489 3.9711025963e-24)
(0.0557784429003 -0.0120864686368 -2.63912739647e-24)
(0.0563236810816 -0.0105901882707 -6.67061603933e-24)
(0.0567593640045 -0.0142880172578 -9.20864597098e-25)
(0.0573390149648 -0.0126572899059 -8.43925148082e-24)
(0.0578171391428 -0.0166710084463 4.70032357248e-24)
(0.0584520804794 -0.0149052626411 -3.67131675218e-24)
(0.0589256552291 -0.0192611510553 1.0667049035e-23)
(0.0596474231135 -0.0173586539782 -2.77882279238e-24)
(0.0600455557977 -0.0220759057039 2.09391893206e-23)
(0.0608810266315 -0.0200506839046 1.07025261939e-23)
(0.0611163776887 -0.0251454627595 2.13110114206e-23)
(0.0621309078418 -0.0230136492714 3.68487753094e-23)
(0.0620242430023 -0.0284799489971 -5.71470126429e-24)
(0.0632958249724 -0.026260830535 5.32245173191e-23)
(0.0625965547244 -0.0321048185756 -2.82529585723e-22)
(0.0642299865086 -0.0298100055656 1.4219043339e-22)
(0.0628448767244 -0.036140757183 -5.3173755155e-22)
(0.0647811334573 -0.0336520745473 -4.7415267111e-22)
(0.063264801083 -0.0409100752763 -1.32404410234e-21)
(0.0652873752582 -0.0386140312246 -9.57400022512e-22)
(0.065959984216 -0.0470422086686 -2.71726471115e-21)
(0.066638898864 -0.0450480818723 -1.20053143183e-21)
(0.069464972443 -0.0540260740102 -5.24772448688e-21)
(0.0715912895784 -0.0391015005396 -5.64252024486e-21)
(0.0622360071762 -0.0578888563306 -7.48222270165e-21)
(0.072313822869 -0.0587070332975 -1.26436646399e-20)
(0.056645876676 -0.0672252576488 -9.51265966125e-21)
(0.051329158613 -0.00130703057093 -1.59468843137e-22)
(0.0528970739389 -0.00269673239423 4.47570797649e-24)
(0.0541118537045 -0.00416426981698 6.05376334169e-23)
(0.05503542522 -0.00571846905614 6.6054311529e-23)
(0.0558815620965 -0.00737228566838 1.62721576656e-23)
(0.0568000019769 -0.00914656126333 -5.76143209479e-24)
(0.0578383560864 -0.0110673713062 -1.24707401237e-23)
(0.0589980242671 -0.0131622183835 -1.11897036359e-23)
(0.060265562267 -0.0154614761157 -1.1150463117e-23)
(0.0616125435671 -0.0179990628816 -2.74334563345e-24)
(0.0629985474074 -0.0208113698832 2.66121121828e-23)
(0.0643634186223 -0.0239325030603 6.87622812079e-23)
(0.0655851245448 -0.0273665783555 2.01129651974e-22)
(0.0665300786517 -0.0312241067262 -4.94326519973e-23)
(0.0673913014092 -0.0355884542725 -8.99815142073e-22)
(0.0688529238374 -0.0408101471597 -8.33887352004e-22)
(0.0724145941201 -0.0471922236998 -4.12578696554e-21)
(0.0754176325818 -0.0534438858575 -1.30384603979e-20)
(0.0675912788192 -0.0614388406932 -1.46741015996e-20)
)
;

boundaryField
{
    back
    {
        type            calculated;
        value           uniform (0 0 0);
    }
    sides
    {
        type            calculated;
        value           nonuniform List<vector> 0();
    }
    bottom
    {
        type            calculated;
        value           uniform (0 0 0);
    }
    front
    {
        type            calculated;
        value           uniform (0 0 0);
    }
    atmosphere
    {
        type            calculated;
        value           nonuniform List<vector> 9((0 -0.0421048741965 0) (0 -0.0530907528857 0) (0 -0.0632434922351 0) (0 -0.066881024588 0) (0 -0.0694616106425 0) (0 -0.0692167232215 0) (0 -0.0679307677098 0) (0 -0.0643749037578 0) (0 -0.0675012865081 0));
    }
    floatingObject
    {
        type            calculated;
        value           nonuniform List<vector> 0();
    }
    procBoundary0to1
    {
        type            processor;
        value           nonuniform List<vector> 10((0.0387960263838 -0.0245767228242 -2.11343203346e-24) (0.038809335169 -0.0272020379919 -3.31223239103e-23) (0.0386560192803 -0.0298928208519 -6.68141433317e-23) (0.0381175421227 -0.0325417486177 -2.83212852021e-22) (0.0367809618335 -0.0349859526038 -8.21831344565e-22) (0.0344369979593 -0.0382591128175 -4.70840860947e-22) (0.0318966954413 -0.0413594457222 -4.26695141469e-21) (0.0332892893113 -0.0389547120932 7.25735786186e-22) (0.0153370036805 -0.0414171225962 4.70261412623e-21) (0.0192336060055 -0.0361494819337 4.07248227263e-21));
    }
    procBoundary0to2
    {
        type            processor;
        value           nonuniform List<vector> 
14
(
(0.038380971457 -0.0170190582798 5.34585003649e-24)
(0.0385537729847 -0.019487680656 8.68909320456e-24)
(0.0387044029814 -0.022005167551 1.18751007689e-23)
(0.0403608670946 -0.0120311353087 -1.16858396e-23)
(0.0395070204702 -0.0157108784482 1.17808976487e-23)
(0.0405890885967 -0.0143866017118 8.17857244923e-24)
(0.0393361486279 -0.0010294455124 -2.3858739285e-22)
(0.0405662393084 -0.00302034722587 1.31178823272e-22)
(0.0413927393206 -0.0107680710574 -2.9014261892e-23)
(0.0423901045119 -0.00951008443781 -1.71590906341e-23)
(0.04207490274 -0.00400904522987 2.86785460655e-22)
(0.0436122763325 -0.00498099000829 1.72949105006e-22)
(0.0433217114684 -0.00828602119996 8.20403033644e-23)
(0.0442200591212 -0.0070745686729 1.38313003762e-22)
)
;
    }
    procBoundary0to4
    {
        type            processor;
        value           nonuniform List<vector> 8((0.0511175976011 -0.000621830607362 -2.95894114019e-22) (0.0528855324599 -0.0018462980864 -3.0121378425e-23) (0.0543358294321 -0.00321377490835 -1.96271032378e-23) (0.0553942267609 -0.00462323936509 8.60451849481e-23) (0.0562752549925 -0.00614398127768 2.26716530252e-23) (0.0571965675518 -0.00777781325838 -1.06348247204e-24) (0.0582444260135 -0.00954897649589 -1.03993398112e-23) (0.0594337996095 -0.0114892538412 -1.10147936843e-23));
    }
    procBoundary0to5
    {
        type            processor;
        value           nonuniform List<vector> 
12
(
(0.0607512819639 -0.0136268214528 -4.08107962422e-24)
(0.0621849714607 -0.0159973932544 -9.46805600815e-24)
(0.0636933110174 -0.0186423756019 9.56418196531e-25)
(0.0652520391486 -0.0216016462916 3.7273913546e-23)
(0.0667299239015 -0.0249152468871 1.05276120418e-22)
(0.0680875644658 -0.0286124741608 2.20003676728e-22)
(0.0691455474181 -0.0327173789085 -4.01671271845e-22)
(0.0705091272115 -0.0381128820683 -1.80337106609e-21)
(0.0730210028459 -0.0443648485285 -3.20986675631e-21)
(0.0778429624786 -0.0384615162268 -6.36045340871e-21)
(0.080308843367 -0.0592775781562 -1.28072570887e-20)
(0.0627084676748 -0.0816299664023 -6.97247322048e-21)
)
;
    }
}


// ************************************************************************* //
