/*--------------------------------*- C++ -*----------------------------------*\
| =========                 |                                                 |
| \\      /  F ield         | OpenFOAM: The Open Source CFD Toolbox           |
|  \\    /   O peration     | Version:  v2012                                 |
|   \\  /    A nd           | Website:  www.openfoam.com                      |
|    \\/     M anipulation  |                                                 |
\*---------------------------------------------------------------------------*/
FoamFile
{
    version     2.0;
    format      ascii;
    class       surfaceScalarField;
    location    "0.8";
    object      phi;
}
// * * * * * * * * * * * * * * * * * * * * * * * * * * * * * * * * * * * * * //

dimensions      [0 3 -1 0 0 0 0];
oriented        oriented;


internalField   nonuniform List<scalar> 
300
(
-0.000127639985209
0.000891903033236
-0.000149258909393
0.000919629110523
-0.000173408858603
0.000950486903332
-0.000200460001383
0.000984485344845
-0.000230827609279
0.00102161851872
-0.000264986626799
0.00106188037463
-0.000303468805408
0.00110518891332
-0.000346923433313
0.00115088982049
-0.000396261730234
0.00119780226821
-0.000449700246176
0.00123065936201
-0.000508672235534
0.00122890439266
0.00111157210041
-0.000100024848231
-0.000118532027823
-0.000139563461404
0.00097151825495
-0.000163492751931
0.00100841453419
-0.000190741589036
0.00104886724038
-0.000221792844175
0.00109293151107
-0.000257188559134
0.00114058451969
-0.000297605009548
0.00119130618493
-0.00034398953463
0.00124418674348
-0.000394837834168
0.0012815076494
-0.00045182670245
0.00128589281056
0.00115415113196
-0.00010282520578
0.000989060042479
-0.000123215552506
0.00102880475996
-0.000146872702181
0.00107252426187
-0.000174275040253
0.00112033372368
-0.000205950277681
0.00117225964618
-0.000242515410175
0.00122787123176
-0.00028479262537
0.00128646391054
-0.000331998890962
0.00132871390484
-0.000385517196885
0.00133941050206
0.00119400614138
-6.32426189826e-05
0.00100274662831
-7.96810311076e-05
0.00104524303263
-9.92769807821e-05
0.00109212007437
-0.000122504394371
0.00114356101033
-0.00014988607646
0.00119964122043
-0.000181890608581
0.00125987568291
-0.000218764810784
0.00132333806848
-0.000261120299337
0.00137106938514
-0.000309259104181
0.00138754858874
0.00123067775337
-2.09086237968e-05
0.00101222840285
-3.29975649661e-05
0.00105733182515
-4.80696727962e-05
0.00110719204622
-6.66052832177e-05
0.0011620965019
-8.92138165539e-05
0.00122224965638
-0.000116378668597
0.00128704046292
-0.000146282518932
0.00135324187957
-0.000182854470071
0.00140764133006
-0.000223534953803
0.00142822825628
0.00126446820618
2.41198679622e-05
0.0010172180399
1.67385077504e-05
0.00106471304083
6.61682412949e-06
0.00111731360698
-6.67520556128e-06
0.00117538842988
-2.3881085411e-05
0.00123945545454
-4.66653106623e-05
0.00130982462665
-6.81941272319e-05
0.0013747706612
-9.94963818531e-05
0.00143894357962
-0.000131731477469
0.00146046245979
0.00129616552906
7.14460645654e-05
0.00101734591962
6.91122799305e-05
0.00106704669876
6.44342479006e-05
0.00112199153912
5.72160583214e-05
0.00118260654015
4.71244682087e-05
0.00124954697949
3.4405868785e-05
0.00132254317304
6.93519161154e-06
0.00140224130499
-1.86193866752e-05
0.00146449815505
-4.22798133037e-05
0.00148412170495
0.00132572218858
0.000120943701519
0.00101251982801
0.000123853377531
0.00106413692495
0.000124741380821
0.00112110346419
0.000123625062943
0.00118372280096
0.000120614356441
0.00125255763348
0.000114726011959
0.00132843146785
0.000104641863749
0.00141232541794
8.93898521699e-05
0.00147975016297
8.15230907865e-05
0.00149198761973
0.00138805067186
0.000172420745785
0.00100253149318
0.000180631701718
0.00105592590598
0.000187108459842
0.00111462666213
0.000192057414838
0.00117877380589
0.000195943029572
0.00124867197147
0.00019914035373
0.00132523409104
0.000204625541177
0.00140684019298
0.000208997875371
0.00147537780829
0.000219160374156
0.00148182440505
0.00154581190626
0.000225694523138
0.000987336677813
0.000239173874685
0.00104244652505
0.000251022108249
0.00110277840601
0.000261549414886
0.00116824646713
0.000271518800655
0.00123870253524
0.000282348832422
0.00131440399755
0.000296584094184
0.00139260488152
0.000317405331896
0.00145455661283
0.000346763547517
0.0014524576115
0.00193092724747
0.000280707466688
0.000966866421366
0.000299367807327
0.00102378617978
0.000316293758851
0.00108585244181
0.000331750134747
0.00115279005577
0.000346332850214
0.00122411975692
0.000360750273465
0.00129998649757
0.000375769234198
0.00137758585947
0.000402951225509
0.00142737477299
0.000448622608052
0.00140675085196
0.00160382800941
0.000337542955558
0.000941043534604
0.000361324027027
0.00100000511219
0.000383040750665
0.0010641356999
0.000402859933784
0.0011329708212
0.00042101852924
0.00120596107736
0.000436897018029
0.001284107912
0.000446865981642
0.00136761682016
0.000446980583536
0.00142726018782
0.000399059494219
0.00145466758322
0.00260413706845
0.000396481633818
0.000909681596791
0.000425378705067
0.000971108031636
0.000451716855656
0.00103779750872
0.000475644857313
0.00110904273914
0.000497466316257
0.00118413950461
0.000516465676757
0.00126510842994
0.000528033566233
0.00135604883992
0.000516969682281
0.00143832404571
0.000143231514245
0.00182840585916
0.00435037399771
0.000457905143843
0.000872490223951
0.000492013919938
0.000936999187815
0.000522810434945
0.00100700088885
0.000550568346667
0.00108128468233
0.00057668162566
0.00115802604462
0.000601222319619
0.00124056755992
0.000615975123571
0.00134129590334
0.000593985364556
0.00146031379901
-0.000164611283592
0.00258699786394
0.0100131682089
0.000522444135101
0.000828944748965
0.000562052228021
0.000897390950155
0.000597111989794
0.000971940945819
0.000627494686662
0.00105090173295
0.000655822825946
0.00112969764298
0.000698221759066
0.00119816836603
0.000802626314498
0.0012368911864
0.00111878184244
0.00114415813092
0.00302936935257
0.000676411216204
-0.00362574824662
0.000590902271671
0.000636625877236
0.000676162847401
0.000707599298405
0.000727883960896
0.000727665653048
0.000666470770082
0.000437643072891
-2.54007746567e-05
)
;

boundaryField
{
    back
    {
        type            calculated;
        value           uniform 0;
    }
    sides
    {
        type            calculated;
        value           nonuniform List<scalar> 0();
    }
    bottom
    {
        type            calculated;
        value           nonuniform List<scalar> 0();
    }
    front
    {
        type            calculated;
        value           uniform 0;
    }
    atmosphere
    {
        type            calculated;
        value           nonuniform List<scalar> 
16
(
-0.000553230378872
-0.000494405301499
-0.000425371613574
-0.00034593001817
-0.000257324608596
-0.000163427927181
-7.18353256695e-05
1.91954349474e-05
6.13938647957e-05
-3.83697125039e-05
0.000775815718003
-0.000601254075269
-0.00160301271093
-0.00582739792023
0.0166682850659
-0.00255190175333
)
;
    }
    floatingObject
    {
        type            calculated;
        value           nonuniform List<scalar> 0();
    }
    procBoundary5to0
    {
        type            processor;
        value           nonuniform List<scalar> 
12
(
-0.000872480362303
-0.000898010224573
-0.000926337043563
-0.000957434332664
-0.000991251069523
-0.00102772152602
-0.00106670689346
-0.0011074353221
-0.00114846405186
-0.00117722087196
-0.00116993272972
-0.00106701367414
)
;
    }
    procBoundary5to3
    {
        type            processor;
        value           nonuniform List<scalar> 10(0.000778270811805 0.000851667165902 0.000932403720642 0.00101946499926 0.00110941266028 0.00119838641896 0.00129808589177 0.00137298583183 0.00113945429057 -0.00109925453282);
    }
    procBoundary5to4
    {
        type            processor;
        value           nonuniform List<scalar> 
18
(
0.00010821737076
8.37062916426e-05
0.000908221623351
0.000938136236914
8.52832811528e-05
4.95558504302e-05
1.14266289929e-05
-2.91097445463e-05
-7.15741791064e-05
-0.000116117814853
-0.000162432564824
-0.000210499799075
-0.000260237242425
-0.000311720063417
-0.000365119692362
-0.000420713836057
-0.000478898756311
-0.000540228605582
)
;
    }
}


// ************************************************************************* //
