/*--------------------------------*- C++ -*----------------------------------*\
| =========                 |                                                 |
| \\      /  F ield         | OpenFOAM: The Open Source CFD Toolbox           |
|  \\    /   O peration     | Version:  v2012                                 |
|   \\  /    A nd           | Website:  www.openfoam.com                      |
|    \\/     M anipulation  |                                                 |
\*---------------------------------------------------------------------------*/
FoamFile
{
    version     2.0;
    format      ascii;
    class       volVectorField;
    location    "0.8";
    object      U;
}
// * * * * * * * * * * * * * * * * * * * * * * * * * * * * * * * * * * * * * //

dimensions      [0 1 -1 0 0 0 0];


internalField   nonuniform List<vector> 
164
(
(0.17652340204 -0.02350210062 -2.07432763048e-23)
(0.181835408676 -0.0275970567302 -1.12125413276e-24)
(0.187738251265 -0.0321648688154 3.11281013537e-23)
(0.194230112939 -0.0372788355785 3.30731640348e-24)
(0.201305221576 -0.0430190623672 1.15155720016e-22)
(0.208956446304 -0.0494447433514 7.74856337385e-23)
(0.217161948444 -0.0566461567122 2.74046268138e-22)
(0.225777478415 -0.0647860446433 2.79585096807e-22)
(0.234543008457 -0.0744538256805 -1.17298640829e-21)
(0.240681381264 -0.0897587772505 -4.32408048374e-21)
(0.239731391983 -0.103741630971 -1.06159907955e-20)
(0.217938135218 -0.105931889619 -9.83917578549e-21)
(0.180114241423 -0.0182766679583 -3.09101680968e-23)
(0.185864229717 -0.0217479611908 -1.845964042e-23)
(0.192271892574 -0.0256905488367 3.8415771025e-23)
(0.199342705372 -0.0301778720971 -5.25919845336e-23)
(0.207080222397 -0.0352908557292 9.17535912675e-23)
(0.215489480546 -0.041094494865 3.30767155532e-23)
(0.22456010378 -0.0476771953952 2.11578075452e-22)
(0.234172731467 -0.0551155257858 5.80214000081e-23)
(0.24412196561 -0.0640424604765 -4.97707506473e-21)
(0.251119371187 -0.0802679833592 -4.84923225412e-21)
(0.251369142434 -0.0935609518261 -4.27022127262e-21)
(0.226683201272 -0.0936525693874 -5.85058017814e-21)
(0.19614765706 -0.0186733999388 -3.53151337702e-24)
(0.203792312402 -0.0224549232767 -7.96736398917e-23)
(0.212187389055 -0.0268514854006 1.61411023653e-23)
(0.221350135483 -0.0319317351805 -4.60018858512e-23)
(0.231281035866 -0.037776555995 3.0135650923e-23)
(0.241882857545 -0.0443599550577 -5.44770034684e-22)
(0.252996728199 -0.0522800865475 -7.50867819355e-21)
(0.260939853188 -0.0691868323191 -9.34507699885e-21)
(0.262470006764 -0.0811324149313 -3.48141398421e-21)
(0.234990837307 -0.079408719428 -4.26922203055e-21)
(0.199292338122 -0.0111226053435 -6.75255885071e-24)
(0.207496374944 -0.0141200599374 -1.42130543694e-22)
(0.216532929698 -0.0177117454543 1.92937871247e-23)
(0.226432048095 -0.0219691694308 2.06663120002e-23)
(0.237204388677 -0.0269664247741 5.24739211414e-23)
(0.248758973338 -0.0325632559361 -3.49941143533e-22)
(0.260926057602 -0.0391549418786 -5.24959098875e-21)
(0.269921356712 -0.0563724484674 -1.5880387791e-20)
(0.272688306568 -0.0663511565573 -1.22648723169e-20)
(0.242706612985 -0.0631926585433 -1.26397436615e-20)
(0.201634519068 -0.00305607141549 1.30452862289e-23)
(0.210374249601 -0.00519385593566 -1.18094053393e-22)
(0.220024074953 -0.00789390303834 5.18110243244e-23)
(0.230631191384 -0.0112306792408 -1.99193271487e-23)
(0.242224448555 -0.0152870347234 1.64176862245e-22)
(0.254697760561 -0.0198423821212 -7.05603072872e-22)
(0.267635324067 -0.0247035495877 -6.26893876787e-21)
(0.27784345216 -0.0417142361323 8.65102134714e-22)
(0.281612000812 -0.0490545749873 -7.87735325972e-21)
(0.249745479361 -0.0453075808799 -9.39146749912e-21)
(0.203111020704 0.00549909580114 7.46932625113e-24)
(0.21235088789 0.00429178882549 -6.90511670157e-23)
(0.222572759528 0.00256745288573 2.42601805146e-22)
(0.233841795424 0.000256824909223 5.5713998853e-23)
(0.246230908074 -0.00275606573165 4.49179179078e-22)
(0.259704107195 -0.00641022912486 -4.10826155701e-22)
(0.272830301519 -0.00902985716879 -5.14316390123e-21)
(0.284647039053 -0.0251545299812 -1.49687693924e-21)
(0.288906534801 -0.0293584122806 1.18353350073e-22)
(0.256249863277 -0.0267293174611 -4.59165604096e-22)
(0.203657526803 0.0145111747503 -3.73047938966e-23)
(0.213357235036 0.0142921082836 -1.12753900042e-22)
(0.224088203549 0.0136190555782 -7.78918951076e-23)
(0.235928944407 0.0124463168475 -2.16692417289e-22)
(0.248993116889 0.010690803905 3.08844184886e-23)
(0.263287266584 0.00746980511148 1.36728692879e-21)
(0.277732872056 0.00769133019101 -1.03688723126e-20)
(0.290341619718 -0.00675308888881 -2.69185823536e-20)
(0.294475221438 -0.00797274626656 -7.46981165677e-21)
(0.262299657257 -0.00960041497446 -4.40882450921e-21)
(0.203226338911 0.0239389696993 -6.35861546666e-23)
(0.213340132072 0.0247477158141 -1.04467271e-22)
(0.224508961008 0.0251612668269 -1.40148237056e-22)
(0.236805279923 0.0251722003842 -2.3174765551e-22)
(0.250348958592 0.0246801484329 -7.15480965564e-23)
(0.265194258818 0.0229988594733 -1.5747683258e-21)
(0.281457519246 0.0256228706807 -3.26057701135e-21)
(0.294390895266 0.0120461761017 -4.09181506115e-21)
(0.297557359324 0.0144519683605 -1.35122174695e-21)
(0.27014390246 0.0125287408894 -1.05014702379e-21)
(0.20178926569 0.03374510422 7.26355840153e-24)
(0.21227489567 0.0356014097091 -1.56008707065e-22)
(0.223820777887 0.0371079579908 -1.30363859647e-22)
(0.236472597935 0.0382958018249 -2.05622136087e-22)
(0.25031895534 0.0391322054375 -3.01636279311e-22)
(0.265515736489 0.0390570215884 4.21517349768e-21)
(0.282016830107 0.0441050398335 1.39423536653e-21)
(0.295519338154 0.0313021895428 -1.15015277337e-20)
(0.297144565845 0.0362992428476 4.78109012993e-21)
(0.296232995328 0.0294816521744 5.94711818705e-21)
(0.199321904516 0.0439013252097 -1.46986609612e-22)
(0.210158430876 0.0468087623435 -1.09742686085e-22)
(0.222042721032 0.0493843794345 -2.93351794269e-22)
(0.234980466904 0.0516760115796 -1.51358808084e-22)
(0.248990167236 0.0537263364725 -3.38422859179e-22)
(0.264187884201 0.0549280123902 -1.00594734464e-21)
(0.280178349468 0.0618043680591 -7.87530815842e-21)
(0.293161336976 0.0501502328602 -4.47478197811e-21)
(0.292825150786 0.0575413170758 1.53104927608e-20)
(0.352176805736 0.0369891944864 1.56989234392e-20)
(0.195811987382 0.0543989810792 -1.08514403828e-22)
(0.20700430841 0.0583551300133 -6.15165123611e-24)
(0.219228352632 0.0619598659181 -4.13252225627e-22)
(0.232447700081 0.0652473840136 9.76856094388e-23)
(0.246604371816 0.0683052245355 -1.78925794892e-22)
(0.261742823717 0.0702248556976 -5.71033631912e-21)
(0.277299470388 0.0777785839776 -1.80540407817e-20)
(0.288433770232 0.0668002784524 7.87156813281e-21)
(0.284358270845 0.0756186348497 5.96936702579e-21)
(0.347705901813 0.116959632095 3.0450656733e-21)
(0.191245602531 0.0652542331478 3.14587212703e-22)
(0.202827655411 0.0702620643923 1.08315952193e-22)
(0.215433269941 0.074861669977 5.89420717962e-22)
(0.228987220847 0.0790551480777 -1.42355517925e-22)
(0.243388525626 0.0829588470232 -1.43214241257e-21)
(0.258750690105 0.0852633719252 4.84736783442e-21)
(0.27483937877 0.092620456604 -7.09039825048e-21)
(0.285718988322 0.0799399916156 -3.67831168859e-20)
(0.284821655835 0.0877552626144 -6.57227775853e-20)
(0.407333964738 -0.0395539174984 -1.84172409717e-20)
(0.18559821114 0.0765099531364 -1.69617703893e-22)
(0.197635729001 0.0825882426072 1.20877451721e-22)
(0.210708903023 0.0881677957739 -4.15065367151e-22)
(0.224701948733 0.0932243065654 -2.47234232592e-22)
(0.239487913436 0.0979692883299 1.32939726909e-22)
(0.255365972529 0.100825215909 5.71964319581e-22)
(0.272647544892 0.108729515799 -2.06206744293e-20)
(0.285863529615 0.0930994039168 -1.31772994696e-20)
(0.319072919378 0.114814621254 -4.19458896566e-20)
(0.694271051138 -0.189499632211 -2.87319629441e-19)
(0.178824036687 0.0882364551926 4.91362027827e-22)
(0.191419498993 0.0954262226396 -1.69869731483e-22)
(0.205081987173 0.101980062564 5.46305034359e-23)
(0.219618754137 0.1078465958 1.8931870311e-22)
(0.234779026325 0.113437242454 -6.0773850241e-22)
(0.251026564222 0.117034763423 -1.14405279529e-21)
(0.270625881656 0.127047755481 -1.52213633268e-20)
(0.29360137205 0.116791826732 -3.60489773019e-20)
(0.502818014701 0.101848866559 -1.18063330676e-19)
(2.18279948238 -0.664789217749 -1.77132847933e-19)
(0.170842935419 0.100537021671 4.37762064942e-23)
(0.184144459949 0.108916407103 1.64720274257e-22)
(0.198598755611 0.116452218394 -4.0935422619e-22)
(0.213918586703 0.122992156978 -7.59376891637e-23)
(0.22947977894 0.129157417539 2.51487565105e-22)
(0.244910582647 0.134405758099 -5.49134031367e-21)
(0.257369892688 0.151912884996 -5.57627370181e-21)
(0.258210678741 0.206966856356 -8.96436666429e-21)
(0.319417506706 0.119706599068 -6.31645142413e-20)
(0.317309881436 2.23554841628 4.13409882186e-20)
(0.161528001386 0.113550655421 1.38440179067e-22)
(0.175719023085 0.123263500995 3.90000373474e-23)
(0.191246448516 0.131863711734 6.51088000027e-23)
(0.207821253409 0.138860261648 -4.90561122535e-22)
(0.224590413986 0.144195225136 3.55500111764e-22)
(0.239990506698 0.144167913848 -2.91688467729e-21)
(0.253434770361 0.141107385415 -2.13547272161e-20)
(0.244007224087 0.117586014793 -1.56864097689e-20)
(0.0848320486057 0.0862500643941 7.36578787422e-20)
(-1.08759976293 -0.305508579028 -5.14711642091e-21)
)
;

boundaryField
{
    back
    {
        type            noSlip;
    }
    sides
    {
        type            noSlip;
    }
    bottom
    {
        type            noSlip;
    }
    front
    {
        type            noSlip;
    }
    atmosphere
    {
        type            pressureInletOutletVelocity;
        value           nonuniform List<vector> 
16
(
(0 -0.105931889619 0)
(0 -0.0936525693874 0)
(0 -0.079408719428 0)
(0 -0.0631926585433 0)
(0 -0.0453075808799 0)
(0 -0.0267293174611 0)
(0 -0.00960041497446 0)
(0.27014390246 0.0125287408894 -1.05014702379e-21)
(0.296232995328 0.0294816521744 5.94711818705e-21)
(0 0.0369891944864 0)
(0.347705901813 0.116959632095 3.0450656733e-21)
(0 -0.0395539174984 0)
(0 -0.189499632211 0)
(0 -0.664789217749 0)
(0.317309881436 2.23554841628 4.13409882186e-20)
(0 -0.305508579028 0)
)
;
    }
    floatingObject
    {
        type            movingWallVelocity;
        value           nonuniform List<vector> 0();
    }
    procBoundary5to0
    {
        type            processor;
        value           nonuniform List<vector> 
12
(
(0.172344470421 -0.0283180188999 -1.9900337921e-23)
(0.17721994708 -0.0329728239665 -2.72613298695e-23)
(0.182620285886 -0.0380955789348 -8.545635603e-24)
(0.188536966457 -0.0437579125174 -9.43287567948e-23)
(0.194955734045 -0.0500375913016 3.51468882311e-23)
(0.201858112162 -0.0569858445051 5.84701411851e-23)
(0.209211714925 -0.0646881891079 3.21194025337e-22)
(0.216851852975 -0.07338077048 3.19631974347e-22)
(0.224470328995 -0.0835721469418 -2.10027958891e-21)
(0.229827835757 -0.0978793046153 -4.91598764748e-21)
(0.227891028898 -0.111764729022 -1.00331507612e-20)
(0.208887325655 -0.116397173564 -1.01064419989e-20)
)
;
    }
    procBoundary5to3
    {
        type            processor;
        value           nonuniform List<vector> 10((0.150685072668 0.127436568842 1.80248442735e-22) (0.165949764643 0.138726323194 3.05596419495e-22) (0.182855701602 0.148708606519 7.17056490457e-22) (0.201423611496 0.156557124511 5.78228887103e-22) (0.22139154498 0.16205112286 -1.30927896121e-21) (0.242900415456 0.159370999643 9.11301940072e-21) (0.267735314327 0.152826646317 -1.86615319395e-20) (0.287428284888 0.109771778476 -2.9841084573e-21) (0.270848634809 0.129240737245 6.1699685825e-20) (0.250326108924 -0.402800373922 4.28527797838e-19));
    }
    procBoundary5to4
    {
        type            processor;
        value           nonuniform List<vector> 
18
(
(0.171803198022 -0.0198160696567 5.34921783711e-24)
(0.175017083071 -0.0152126317306 -9.16953738911e-24)
(0.183056541954 -0.0126430241629 -3.92677320737e-23)
(0.189240124431 -0.0154267552686 -4.36071425445e-23)
(0.189240124431 -0.0154267552686 -4.36071425445e-23)
(0.191897474135 -0.00864143849551 -4.0382270915e-23)
(0.193773107915 -0.00140703487787 -6.71418353053e-23)
(0.194806169267 0.00625279157387 -5.69318418975e-23)
(0.194941323977 0.0143204462352 -3.58449791767e-23)
(0.194130859468 0.0227602824125 -3.61102176226e-24)
(0.192338903352 0.031546581615 -3.7087574455e-23)
(0.189534475332 0.0406605012134 -2.52890057594e-23)
(0.185684886778 0.0500940009161 9.18027264106e-24)
(0.180755122476 0.0598554232276 -1.48890788013e-22)
(0.174700345425 0.069970312158 1.72549194736e-22)
(0.167448735848 0.0804803875774 -4.37035522154e-23)
(0.158894603694 0.0914469859735 2.08358955508e-22)
(0.148886748221 0.102950187055 -1.94622045016e-23)
)
;
    }
}


// ************************************************************************* //
