/*--------------------------------*- C++ -*----------------------------------*\
| =========                 |                                                 |
| \\      /  F ield         | OpenFOAM: The Open Source CFD Toolbox           |
|  \\    /   O peration     | Version:  v2012                                 |
|   \\  /    A nd           | Website:  www.openfoam.com                      |
|    \\/     M anipulation  |                                                 |
\*---------------------------------------------------------------------------*/
FoamFile
{
    version     2.0;
    format      ascii;
    class       volScalarField;
    location    "0.3";
    object      ddt0(epsilon);
}
// * * * * * * * * * * * * * * * * * * * * * * * * * * * * * * * * * * * * * //

dimensions      [0 2 -4 0 0 0 0];


internalField   nonuniform List<scalar> 
164
(
-0.365533923833
-0.295832261952
-0.292179330631
-0.290631496227
-0.290274496585
-0.290405685261
-0.291862582672
-0.293309936988
-0.359704063421
-0.35808888879
-0.361463105016
-0.367790794354
-0.294373104552
-0.299360710816
-0.365440504446
-0.295729267153
-0.292033477692
-0.290453793915
-0.290046931836
-0.289916937369
-0.290077162899
-0.291089584345
-0.290324309727
-0.290723362562
-0.291446608865
-0.292509339453
-0.294232570897
-0.294744901541
-0.365315362917
-0.29557018139
-0.291839817949
-0.29025290972
-0.289835581979
-0.289657227029
-0.289532342168
-0.289550918735
-0.289615317734
-0.289732755082
-0.290004419179
-0.290540659365
-0.291324849908
-0.292154037062
-0.365165022305
-0.295360379761
-0.291607511521
-0.290036695585
-0.289627186415
-0.289447281184
-0.289294425788
-0.289165501222
-0.289097698189
-0.289074344686
-0.289190350038
-0.289510046072
-0.290059067974
-0.290825425095
-0.364996293599
-0.295112579225
-0.291351038832
-0.289815850658
-0.289423774577
-0.289250473758
-0.289098977571
-0.288952476626
-0.288835762918
-0.288759709406
-0.288776376917
-0.288928409484
-0.289246889383
-0.289755085854
-0.364815299627
-0.294840253546
-0.291084325253
-0.289599275809
-0.289229870745
-0.289064504962
-0.288915543011
-0.288764117819
-0.288623246712
-0.288506997086
-0.288443634731
-0.288460778787
-0.288584084974
-0.288839032995
-0.36462772954
-0.294555762355
-0.290819398212
-0.289393978717
-0.289049734731
-0.288892468925
-0.288745601404
-0.28859015711
-0.288432504135
-0.288283387735
-0.288156739238
-0.288072152292
-0.288046201945
-0.288097011131
-0.364438631215
-0.294269659048
-0.290565785349
-0.289205066793
-0.288886516226
-0.288737260989
-0.28859270628
-0.288434479378
-0.288264973756
-0.288091638322
-0.287918901295
-0.287763681534
-0.287628056307
-0.287498753129
-0.364251695298
-0.29399118944
-0.290330765434
-0.289036072805
-0.288742424901
-0.288600999547
-0.28845954577
-0.288300613993
-0.28812386366
-0.2879348922
-0.28773662735
-0.287532498855
-0.287334097876
-0.287004272855
-0.36407062759
-0.293729445924
-0.290120179214
-0.288889492347
-0.288619013701
-0.288485231815
-0.288347599859
-0.288190499662
-0.28801313334
-0.287816635947
-0.287606614808
-0.287371218792
-0.287039394823
-0.286636487429
-0.363904856848
-0.293484016238
-0.289937006763
-0.288766680567
-0.28851707417
-0.288391258748
-0.288258932944
-0.288106280735
-0.287933402304
-0.287737559229
-0.287489658542
-0.287219223109
-0.286902261485
-0.286477396035
-0.287868046744
-0.287665810426
-0.287433583926
-0.287165886962
-0.286851679247
-0.2864359159
-0.28716346876
-0.286864453759
-0.286476580707
-0.286573100634
)
;

boundaryField
{
    back
    {
        type            calculated;
        value           nonuniform List<scalar> 
164
(
-0.365533923833
-0.295832261952
-0.292179330631
-0.290631496227
-0.290274496585
-0.290405685261
-0.291862582672
-0.293309936988
-0.359704063421
-0.35808888879
-0.361463105016
-0.367790794354
-0.294373104552
-0.299360710816
-0.365440504446
-0.295729267153
-0.292033477692
-0.290453793915
-0.290046931836
-0.289916937369
-0.290077162899
-0.291089584345
-0.290324309727
-0.290723362562
-0.291446608865
-0.292509339453
-0.294232570897
-0.294744901541
-0.365315362917
-0.29557018139
-0.291839817949
-0.29025290972
-0.289835581979
-0.289657227029
-0.289532342168
-0.289550918735
-0.289615317734
-0.289732755082
-0.290004419179
-0.290540659365
-0.291324849908
-0.292154037062
-0.365165022305
-0.295360379761
-0.291607511521
-0.290036695585
-0.289627186415
-0.289447281184
-0.289294425788
-0.289165501222
-0.289097698189
-0.289074344686
-0.289190350038
-0.289510046072
-0.290059067974
-0.290825425095
-0.364996293599
-0.295112579225
-0.291351038832
-0.289815850658
-0.289423774577
-0.289250473758
-0.289098977571
-0.288952476626
-0.288835762918
-0.288759709406
-0.288776376917
-0.288928409484
-0.289246889383
-0.289755085854
-0.364815299627
-0.294840253546
-0.291084325253
-0.289599275809
-0.289229870745
-0.289064504962
-0.288915543011
-0.288764117819
-0.288623246712
-0.288506997086
-0.288443634731
-0.288460778787
-0.288584084974
-0.288839032995
-0.36462772954
-0.294555762355
-0.290819398212
-0.289393978717
-0.289049734731
-0.288892468925
-0.288745601404
-0.28859015711
-0.288432504135
-0.288283387735
-0.288156739238
-0.288072152292
-0.288046201945
-0.288097011131
-0.364438631215
-0.294269659048
-0.290565785349
-0.289205066793
-0.288886516226
-0.288737260989
-0.28859270628
-0.288434479378
-0.288264973756
-0.288091638322
-0.287918901295
-0.287763681534
-0.287628056307
-0.287498753129
-0.364251695298
-0.29399118944
-0.290330765434
-0.289036072805
-0.288742424901
-0.288600999547
-0.28845954577
-0.288300613993
-0.28812386366
-0.2879348922
-0.28773662735
-0.287532498855
-0.287334097876
-0.287004272855
-0.36407062759
-0.293729445924
-0.290120179214
-0.288889492347
-0.288619013701
-0.288485231815
-0.288347599859
-0.288190499662
-0.28801313334
-0.287816635947
-0.287606614808
-0.287371218792
-0.287039394823
-0.286636487429
-0.363904856848
-0.293484016238
-0.289937006763
-0.288766680567
-0.28851707417
-0.288391258748
-0.288258932944
-0.288106280735
-0.287933402304
-0.287737559229
-0.287489658542
-0.287219223109
-0.286902261485
-0.286477396035
-0.287868046744
-0.287665810426
-0.287433583926
-0.287165886962
-0.286851679247
-0.2864359159
-0.28716346876
-0.286864453759
-0.286476580707
-0.286573100634
)
;
    }
    sides
    {
        type            calculated;
        value           nonuniform List<scalar> 0();
    }
    bottom
    {
        type            calculated;
        value           nonuniform List<scalar> 
11
(
-0.365533923833
-0.365440504446
-0.365315362917
-0.365165022305
-0.364996293599
-0.364815299627
-0.36462772954
-0.364438631215
-0.364251695298
-0.36407062759
-0.363904856848
)
;
    }
    front
    {
        type            calculated;
        value           nonuniform List<scalar> 
164
(
-0.365533923833
-0.295832261952
-0.292179330631
-0.290631496227
-0.290274496585
-0.290405685261
-0.291862582672
-0.293309936988
-0.359704063421
-0.35808888879
-0.361463105016
-0.367790794354
-0.294373104552
-0.299360710816
-0.365440504446
-0.295729267153
-0.292033477692
-0.290453793915
-0.290046931836
-0.289916937369
-0.290077162899
-0.291089584345
-0.290324309727
-0.290723362562
-0.291446608865
-0.292509339453
-0.294232570897
-0.294744901541
-0.365315362917
-0.29557018139
-0.291839817949
-0.29025290972
-0.289835581979
-0.289657227029
-0.289532342168
-0.289550918735
-0.289615317734
-0.289732755082
-0.290004419179
-0.290540659365
-0.291324849908
-0.292154037062
-0.365165022305
-0.295360379761
-0.291607511521
-0.290036695585
-0.289627186415
-0.289447281184
-0.289294425788
-0.289165501222
-0.289097698189
-0.289074344686
-0.289190350038
-0.289510046072
-0.290059067974
-0.290825425095
-0.364996293599
-0.295112579225
-0.291351038832
-0.289815850658
-0.289423774577
-0.289250473758
-0.289098977571
-0.288952476626
-0.288835762918
-0.288759709406
-0.288776376917
-0.288928409484
-0.289246889383
-0.289755085854
-0.364815299627
-0.294840253546
-0.291084325253
-0.289599275809
-0.289229870745
-0.289064504962
-0.288915543011
-0.288764117819
-0.288623246712
-0.288506997086
-0.288443634731
-0.288460778787
-0.288584084974
-0.288839032995
-0.36462772954
-0.294555762355
-0.290819398212
-0.289393978717
-0.289049734731
-0.288892468925
-0.288745601404
-0.28859015711
-0.288432504135
-0.288283387735
-0.288156739238
-0.288072152292
-0.288046201945
-0.288097011131
-0.364438631215
-0.294269659048
-0.290565785349
-0.289205066793
-0.288886516226
-0.288737260989
-0.28859270628
-0.288434479378
-0.288264973756
-0.288091638322
-0.287918901295
-0.287763681534
-0.287628056307
-0.287498753129
-0.364251695298
-0.29399118944
-0.290330765434
-0.289036072805
-0.288742424901
-0.288600999547
-0.28845954577
-0.288300613993
-0.28812386366
-0.2879348922
-0.28773662735
-0.287532498855
-0.287334097876
-0.287004272855
-0.36407062759
-0.293729445924
-0.290120179214
-0.288889492347
-0.288619013701
-0.288485231815
-0.288347599859
-0.288190499662
-0.28801313334
-0.287816635947
-0.287606614808
-0.287371218792
-0.287039394823
-0.286636487429
-0.363904856848
-0.293484016238
-0.289937006763
-0.288766680567
-0.28851707417
-0.288391258748
-0.288258932944
-0.288106280735
-0.287933402304
-0.287737559229
-0.287489658542
-0.287219223109
-0.286902261485
-0.286477396035
-0.287868046744
-0.287665810426
-0.287433583926
-0.287165886962
-0.286851679247
-0.2864359159
-0.28716346876
-0.286864453759
-0.286476580707
-0.286573100634
)
;
    }
    atmosphere
    {
        type            calculated;
        value           nonuniform List<scalar> 0();
    }
    floatingObject
    {
        type            calculated;
        value           nonuniform List<scalar> 4(-0.359704063421 -0.35808888879 -0.361463105016 -0.367790794354);
    }
    procBoundary8to3
    {
        type            processor;
        value           nonuniform List<scalar> 8(-0.365585119671 -0.295876084606 -0.292269940043 -0.290772013997 -0.290497330896 -0.290992872002 -0.292482254658 -0.360374817847);
    }
    procBoundary8to6
    {
        type            processor;
        value           nonuniform List<scalar> 
16
(
-0.374645325319
-0.297755005616
-0.29905797115
-0.295176591001
-0.293360609309
-0.292016283665
-0.290616725865
-0.289268507631
-0.28814557037
-0.287227669124
-0.286173397326
-0.285703493757
-0.285525968646
-0.285543474126
-0.285679549139
-0.285881571723
)
;
    }
    procBoundary8to7
    {
        type            processor;
        value           nonuniform List<scalar> 
17
(
-0.363793660372
-0.29323805876
-0.289778982985
-0.288668082564
-0.288437476794
-0.288319941905
-0.288194989502
-0.288044669901
-0.288044669901
-0.287835741548
-0.287642385345
-0.287419800818
-0.287419800818
-0.287200648914
-0.286924071172
-0.286924071172
-0.286706018342
)
;
    }
}


// ************************************************************************* //
