/*--------------------------------*- C++ -*----------------------------------*\
| =========                 |                                                 |
| \\      /  F ield         | OpenFOAM: The Open Source CFD Toolbox           |
|  \\    /   O peration     | Version:  v2012                                 |
|   \\  /    A nd           | Website:  www.openfoam.com                      |
|    \\/     M anipulation  |                                                 |
\*---------------------------------------------------------------------------*/
FoamFile
{
    version     2.0;
    format      ascii;
    class       surfaceScalarField;
    location    "4.2";
    object      alphaPhi0.water;
}
// * * * * * * * * * * * * * * * * * * * * * * * * * * * * * * * * * * * * * //

dimensions      [0 3 -1 0 0 0 0];
oriented        oriented;


internalField   nonuniform List<scalar> 
3840
(
2.03700554422e-05
-2.03708593379e-05
3.94520568423e-05
-1.90831416568e-05
5.79359444872e-05
-1.84853146082e-05
7.64701016808e-05
-1.85358033661e-05
9.52695263566e-05
-1.88010434085e-05
0.00011436713688
-1.9097729351e-05
0.00013370668552
-1.93370716073e-05
0.000153251627079
-1.95401743634e-05
0.000172937757012
-1.96765885773e-05
0.000192670562546
-1.97224140565e-05
0.000212261705149
-1.95815995893e-05
0.00023153287245
-1.92588941164e-05
0.000250240955345
-1.86912625411e-05
0.000267756154492
-1.75020219704e-05
0.000281699101399
-1.39332343099e-05
0.000286972007608
-5.2683689101e-06
0.000286607134943
-8.34498099841e-08
2.16834357647e-05
-4.71899193532e-06
1.14021391075e-07
-5.30303309128e-07
-3.89271499387e-08
1.88622726937e-05
-3.92343520127e-05
3.74866327655e-05
-3.77091599183e-05
5.60102244227e-05
-3.70108937264e-05
7.45050079794e-05
-3.70327576028e-05
9.30953317503e-05
-3.73933768153e-05
0.000111864319407
-3.78671276057e-05
0.000130851399964
-3.8321331853e-05
0.000150042766351
-3.87251760386e-05
0.000169405873065
-3.90264969194e-05
0.000188868314731
-3.91712476106e-05
0.000208329557021
-3.90300712626e-05
0.000227576842376
-3.84906917607e-05
0.000246353829021
-3.74513056318e-05
0.000264437719488
-3.55691679204e-05
0.000281954181647
-3.14384917452e-05
0.000296986988403
-2.02986112267e-05
0.000309266990037
-7.92999709574e-06
2.3010616922e-05
-3.24997636474e-06
5.11315440211e-08
-2.27189787733e-07
1.29798620831e-08
1.7989458888e-05
-5.72256353124e-05
3.62288931705e-05
-5.59509768919e-05
5.44673960575e-05
-5.52521684743e-05
7.27061614092e-05
-5.52744547527e-05
9.10335724404e-05
-5.57234289995e-05
0.000109537701358
-5.63719657644e-05
0.00012829819201
-5.70797360384e-05
0.000147302989546
-5.77213770627e-05
0.000166519619147
-5.82246037736e-05
0.000185943754115
-5.85751550108e-05
0.000205473351075
-5.85421096238e-05
0.000224989963052
-5.79885385938e-05
0.000244187943734
-5.66323439263e-05
0.000263083608425
-5.44478924971e-05
0.00028184189727
-5.01805739779e-05
0.000299866544048
-3.83170670805e-05
0.000320272687087
-2.28496322059e-05
2.48635212419e-05
-6.7965433691e-06
7.63287227703e-08
-1.11998220624e-07
8.96206382614e-08
1.76818392495e-05
-7.49100985673e-05
3.55607710793e-05
-7.38332032408e-05
5.3445464784e-05
-7.31405908535e-05
7.14033491849e-05
-7.32361774575e-05
8.95071197628e-05
-7.38305565563e-05
0.000107854278464
-7.47207306839e-05
0.000126482659976
-7.57053025663e-05
0.000145460077444
-7.66904688521e-05
0.000164806766803
-7.75471372358e-05
0.000184419531813
-7.81517215687e-05
0.000204257820256
-7.83536990484e-05
0.000224303301293
-7.80091425718e-05
0.000244462024129
-7.67687938803e-05
0.00026453489357
-7.45018946674e-05
0.000284871685228
-7.05019928753e-05
0.000306367615072
-5.98054692771e-05
0.000331515795603
-4.24208256645e-05
2.73789155015e-05
-1.54238785254e-05
1.88080670307e-07
4.2528141285e-07
1.8969860466e-07
1.7529282016e-05
-9.24429186527e-05
3.5114676156e-05
-9.14228830956e-05
5.26849970103e-05
-9.07156333909e-05
7.03597720415e-05
-9.09156682057e-05
8.82647927473e-05
-9.17394893471e-05
0.000106463189154
-9.29209825172e-05
0.000125038815229
-9.42791544964e-05
0.000144054254286
-9.56959803291e-05
0.000163538832795
-9.70092308428e-05
0.0001835212534
-9.80931575756e-05
0.000204025969516
-9.88056206984e-05
0.000224845135389
-9.87983244984e-05
0.000246274033646
-9.81726975888e-05
0.000268230715265
-9.6437239311e-05
0.000291336649123
-9.35907213244e-05
0.000315466794054
-8.39268594063e-05
0.00034283659132
-6.57609501178e-05
3.12032280697e-05
-3.15178893494e-05
6.93870139205e-07
-4.35698664868e-07
1.47863041542e-07
1.73479055686e-05
-0.00010979527415
3.45860924679e-05
-0.000108666289934
5.18578336205e-05
-0.000107992980448
6.92666343524e-05
-0.000108329876352
8.69492335179e-05
-0.000109426312926
0.000104981131237
-0.000110954460433
0.000123482343187
-0.000112778094662
0.000142514754764
-0.00011471640111
0.000162182841764
-0.000116652710994
0.000182535633817
-0.000118410196958
0.000203646017142
-0.0001198616354
0.000225627947894
-0.000120745148447
0.000248491557629
-0.000121008527386
0.000272542357307
-0.000120464384796
0.000297539580078
-0.000118569344101
0.000325265932648
-0.000111644023666
0.000358421929902
-9.47719106495e-05
3.50879291297e-05
-5.29756715929e-05
8.32356203402e-07
-2.14865244212e-06
-1.51879337725e-07
1.70641390912e-05
-0.000126864644243
3.39443900928e-05
-0.000125552497207
5.08591065831e-05
-0.000124913930274
6.79368450589e-05
-0.000125413425347
8.53192545309e-05
-0.00012681291648
0.000103159022688
-0.000128795339183
0.000121514614328
-0.000131130226216
0.000140519381064
-0.000133707906324
0.000160311166457
-0.000136415908008
0.000180977974978
-0.000139037694016
0.000202653017405
-0.000141482276635
0.000225513889521
-0.000143566922892
0.000249746494341
-0.000145211342356
0.000275615513481
-0.00014630872691
0.000303225295181
-0.000146160476692
0.000334163773611
-0.000142574029097
0.000373491380048
-0.00012853807603
3.74554572161e-05
-7.32566723609e-05
4.69824886531e-07
-1.40315778714e-06
1.39969243625e-07
1.66541989731e-05
-0.000143524592932
3.31219207163e-05
-0.000142026574866
4.96029584881e-05
-0.000141401447881
6.62747783825e-05
-0.000142091044019
8.32910933596e-05
-0.00014383309412
0.000100804332484
-0.000146308826505
0.00011892980938
-0.000149251270299
0.000137813378272
-0.000152576108354
0.000157574968305
-0.000156148490622
0.000178414351119
-0.000159837312286
0.0002005318343
-0.00016353686497
0.000224118088819
-0.000167116822817
0.000249460311585
-0.000170523766616
0.000276831052102
-0.000173656020152
0.000306697960976
-0.000176010348584
0.000339838715986
-0.000175709555605
0.000385011864604
-0.00016646286554
4.14692392537e-05
-9.62305278052e-05
3.13090984519e-07
-1.2528445286e-06
4.53375709884e-07
1.61120808003e-05
-0.000159642559283
3.2085897539e-05
-0.000158006697844
4.80549070833e-05
-0.000157376686496
6.42255876315e-05
-0.000158267034848
8.07789244933e-05
-0.000160389494817
9.7846100402e-05
-0.000163375580796
0.000115609495004
-0.000167008969994
0.000134193272518
-0.000171144402533
0.000153826504413
-0.000175751311917
0.000174659872042
-0.000180634446593
0.000196951836006
-0.000185766102504
0.000220985526465
-0.000191118228959
0.000247158252178
-0.000196671645863
0.000275824211961
-0.000202302458277
0.000307208553184
-0.000207382096781
0.000341900435717
-0.000210397250887
0.000386526437331
-0.000206116578856
4.647674616e-05
-0.000126027900051
1.28528212914e-06
-2.29760264645e-06
1.6553581758e-06
1.54699831522e-05
-0.000175118091372
3.08377293987e-05
-0.000173380167486
4.61856045474e-05
-0.000172729987659
6.17522463129e-05
-0.000173837955696
7.77096351492e-05
-0.00017634878204
9.4226537223e-05
-0.000179890803513
0.000111453111326
-0.000184229147777
0.000129588440299
-0.000189263699223
0.00014879944837
-0.000194936015308
0.000169425146692
-0.000201225949705
0.000191614208652
-0.000207905275971
0.000215777828929
-0.000215256117849
0.000242336242069
-0.000223213335541
0.00027181569258
-0.000231770718759
0.000304359431409
-0.000239920134244
0.000340067200127
-0.000246105508425
0.000380702404974
-0.000244853322773
5.39332990006e-05
-0.000165154348674
6.6990826733e-07
-7.27877523523e-06
-7.70039083373e-07
1.47864026362e-05
-0.000189909196392
2.93829362179e-05
-0.000187981295554
4.39885709192e-05
-0.000187339682091
5.88345579993e-05
-0.000188686669243
7.40680893482e-05
-0.000191582631157
8.98767559621e-05
-0.000195696761103
0.000106419867131
-0.000200765259174
0.000123871599162
-0.000206701600497
0.00014247770242
-0.000213519676448
0.000162414370193
-0.000221138848242
0.000184246065766
-0.000229701203396
0.000208105508246
-0.000239100280245
0.000234536369548
-0.00024963817638
0.000264124341212
-0.000261358650563
0.000297530412387
-0.000273330667178
0.00033558019621
-0.00028415913528
0.000378326137334
-0.000289414553379
5.81853611586e-05
-0.000201534381814
-2.62752936083e-06
-8.95741745847e-06
-1.18504135648e-06
1.39097328245e-05
-0.000203822301705
2.77072935604e-05
-0.000201781828398
4.1495167469e-05
-0.000201129765252
5.54584195605e-05
-0.000202650685072
6.98455023762e-05
-0.00020596866287
8.47833378555e-05
-0.000210630568878
0.000100452651687
-0.000216427650989
0.000117047643398
-0.000223284801921
0.000134765956039
-0.000231226553138
0.000153954734843
-0.000240315788441
0.000174768203126
-0.000250500023384
0.000197755694485
-0.000262086698193
0.000223352261333
-0.000275241428052
0.000252164495028
-0.000290182903737
0.000285437846278
-0.000306615864248
0.000325169698809
-0.000323901224492
0.000370836608034
-0.000336992777591
6.3414923162e-05
-0.000236831781831
5.37052290465e-07
-1.10728986396e-05
-6.48422132549e-07
1.29953034616e-05
-0.000216819285162
2.58362615057e-05
-0.000214623818333
3.86597181171e-05
-0.000213953296292
5.16584192841e-05
-0.000215648367945
6.50557995244e-05
-0.000219363156365
7.8976596307e-05
-0.000224546879661
9.35970983778e-05
-0.000231041801821
0.000109090105105
-0.000238772487807
0.000125660591441
-0.00024779571172
0.000143612231541
-0.00025827246292
0.000163227535559
-0.000270122286467
0.000184850124354
-0.000283721731566
0.000208971933849
-0.00029938226187
0.000236309939819
-0.000317543864536
0.000268210809892
-0.000338538189016
0.000306463107996
-0.000362169413921
0.000353727588934
-0.000383151746162
6.92601450373e-05
-0.000275673318659
-7.86363351449e-07
-1.54106420406e-05
-1.27792791412e-06
1.19368614843e-05
-0.000228756004639
2.37456624768e-05
-0.000226431675384
3.55235696507e-05
-0.000225729246587
4.74593284944e-05
-0.000227581128173
5.97018137298e-05
-0.000231601710109
7.24576868199e-05
-0.000237298179102
8.58307495259e-05
-0.000244411254797
0.000100049177866
-0.000252991397835
0.000115265691726
-0.000263023593945
0.000131680985693
-0.000274707442286
0.000149645989694
-0.000288118788336
0.000169438842367
-0.000303546990462
0.000191637504731
-0.000321619094643
0.000216872383162
-0.000342818896198
0.000246568010531
-0.000368268504434
0.000282429672436
-0.000398054375626
0.000325506057245
-0.00042625995281
7.33161973145e-05
-0.0003159223329
-1.13549741659e-07
-2.18638123957e-05
6.02696294148e-07
1.085109075e-05
-0.000239605329518
2.15086300651e-05
-0.000237086653629
3.21190608743e-05
-0.000236336485003
4.28640954452e-05
-0.000238321969005
5.38769013821e-05
-0.000242609806498
6.53223381798e-05
-0.000248738660411
7.73556806022e-05
-0.000256442652895
9.005555306e-05
-0.000265698490645
0.000103616719094
-0.000276608720894
0.00011822824426
-0.000289353240469
0.000134178252147
-0.0003041296255
0.000151841127124
-0.000321264055808
0.000171554189133
-0.000341391742538
0.00019411809393
-0.000365439141349
0.000220733373644
-0.000394929950763
0.000252747112882
-0.000430096419201
0.000291927127486
-0.000465471662101
7.45460523013e-05
-0.000358899073158
-2.21387282296e-06
-3.7017042583e-05
-2.20317488609e-06
9.63242008814e-06
-0.000249234720889
1.91147244736e-05
-0.000246565507258
2.84886644037e-05
-0.000245706147626
3.79452371265e-05
-0.000247772262445
4.76442850852e-05
-0.000252300652103
5.76718808851e-05
-0.000258760283935
6.81639243383e-05
-0.000266933827554
7.92269534711e-05
-0.000276771841446
9.09439517873e-05
-0.000288348963745
0.000103467637241
-0.000301920556541
0.000117195534432
-0.000317927177529
0.000132125058836
-0.000336259005115
0.000148715744876
-0.00035805056062
0.000167628181572
-0.000384416302098
0.000189797689369
-0.000417149899468
0.000215851014286
-0.000456182372436
0.000246319284
-0.000496000860569
6.88014601799e-05
-0.000390067359094
8.65639021287e-07
-4.82163045123e-05
-1.41680065508e-06
8.34691783047e-06
-0.000257578086375
1.65581983282e-05
-0.000254772527343
2.46663926305e-05
-0.000253809214312
3.28004127132e-05
-0.000255896994097
4.10939864534e-05
-0.000260585752129
4.96295077448e-05
-0.000267285148189
5.84391484051e-05
-0.00027573978571
6.77557599712e-05
-0.000286094166569
7.74583526598e-05
-0.000298081966806
8.77964452969e-05
-0.000312307070592
9.87587443675e-05
-0.000328958495165
0.000110727949691
-0.000348307702559
0.000123679815135
-0.000371087952949
0.000138020988192
-0.000398836248336
0.00015460812239
-0.000433800496933
0.000174794233764
-0.000476408413976
0.000199498633222
-0.000520675920292
5.88389273963e-05
-0.00041658051795
1.75717573451e-06
-5.87924414812e-05
-2.4857822094e-07
7.05441125171e-06
-0.000264628512032
1.39285675929e-05
-0.000261641880784
2.06746011726e-05
-0.000260546640508
2.74137516e-05
-0.000262628448759
3.42427311455e-05
-0.000267401513792
4.12118865881e-05
-0.000274240671238
4.83617795145e-05
-0.00028288395247
5.56307311607e-05
-0.000293366883372
6.33644266556e-05
-0.000305828212916
7.13927101997e-05
-0.000320357561848
7.97480089249e-05
-0.000337345308313
8.86403323144e-05
-0.000357238076989
9.79602330669e-05
-0.000380448396368
0.000107551817796
-0.000408465736618
0.000118652924356
-0.000444932469661
0.000132567786502
-0.000490343505653
0.000151798218962
-0.000539919670021
5.32573712155e-05
-0.000443847348119
-5.04490708197e-07
-7.03706100986e-05
-2.48628681309e-07
5.7108930522e-06
-0.000270334555739
1.12208257643e-05
-0.00026714553337
1.65657942019e-05
-0.000265883869301
2.18552082672e-05
-0.000267908532439
2.71617442672e-05
-0.000272694576887
3.247860117e-05
-0.000279550487835
3.78686949078e-05
-0.000288271125608
4.33466017988e-05
-0.000298846345279
4.88945626555e-05
-0.000311383868757
5.46680403912e-05
-0.00032614621778
6.04677206593e-05
-0.000343167330769
6.61683637511e-05
-0.00036296634886
7.22423291898e-05
-0.000386552224593
7.79338600914e-05
-0.000414185956425
8.29433837514e-05
-0.000449966052529
8.86847624785e-05
-0.000496101070797
9.54348259719e-05
-0.000546678206963
3.50030122698e-05
-0.000457786403869
4.95744634286e-07
-8.18794809718e-05
2.41668642835e-07
4.34806508054e-06
-0.000274680942967
8.45967722123e-06
-0.000271254881698
1.23927366342e-05
-0.000269809592983
1.6205528046e-05
-0.000271713013566
1.99154548134e-05
-0.000276397560282
2.36114560156e-05
-0.00028324129968
2.72786397811e-05
-0.000291934023724
3.08872943173e-05
-0.00030245399229
3.44111586318e-05
-0.000314911171489
3.77384347867e-05
-0.000329482702916
4.10622353401e-05
-0.000346506027474
4.40705163668e-05
-0.000365993873515
4.64243974722e-05
-0.00038892767259
4.85527596112e-05
-0.000416335700902
4.90102317427e-05
-0.000450442289151
4.62585843639e-05
-0.000493362079102
3.68677239285e-05
-0.000537253840242
1.26902099484e-05
-0.000457166937012
-4.71061845823e-07
-8.57188058811e-05
-1.43664103771e-07
2.94753816739e-06
-0.000277627618758
5.69659623859e-06
-0.000274002543592
8.20516243295e-06
-0.000272315650614
1.05385364964e-05
-0.000274041892818
1.27501168237e-05
-0.000278604419603
1.48453306076e-05
-0.000285331344334
1.67725152387e-05
-0.000293856819781
1.85006681043e-05
-0.000304178785541
1.99544162128e-05
-0.000316365459612
2.1086382344e-05
-0.000330618985355
2.17210277988e-05
-0.000347149447408
2.19097985208e-05
-0.000366195231006
2.13877753363e-05
-0.000388420635758
1.98428452043e-05
-0.000414806364518
1.66317515194e-05
-0.000447245157312
1.06214327421e-05
-0.000487359677529
3.35302603515e-07
-0.000526978695185
-1.46171476387e-05
-0.000445803393251
2.91935386498e-07
-8.20204150248e-05
5.87416340029e-08
1.58620916913e-06
-0.000279213853685
2.97546811777e-06
-0.000275391212567
4.099841303e-06
-0.000273438409601
5.0069656779e-06
-0.000274946179683
5.72467174575e-06
-0.00027931787645
6.24558610513e-06
-0.000285846461381
6.47080695446e-06
-0.000294076125038
6.34951997845e-06
-0.000304053142119
5.7954712951e-06
-0.000315809458377
4.71048316928e-06
-0.000329534987636
2.96585947677e-06
-0.000345409198443
3.4009615654e-07
-0.000363577208495
-3.22044742375e-06
-0.00038487035917
-7.96545229929e-06
-0.000410072726042
-1.5110171341e-05
-0.000440111032097
-2.69761944844e-05
-0.000475469552618
-4.07333751519e-05
-0.000513219027781
-2.77300819755e-05
-0.000434522853426
-1.16142353799e-07
-7.91172089512e-05
-9.0937272602e-10
2.64616159726e-07
-0.000279479539126
3.32434815192e-07
-0.00027545971104
1.10005679997e-07
-0.000273215594311
-3.69015178234e-07
-0.000274465376064
-1.08713177674e-06
-0.000278596373239
-2.12908517394e-06
-0.000284800554246
-3.51695481995e-06
-0.000292684829229
-5.38400086964e-06
-0.000302182812996
-7.84434678622e-06
-0.00031334665227
-1.10779905813e-05
-0.000326301225671
-1.52523053391e-05
-0.000341237246993
-2.0418199851e-05
-0.000358416668894
-2.69310358213e-05
-0.000378365542141
-3.51984831047e-05
-0.000401814912033
-4.58309789196e-05
-0.000429487117025
-6.09946395863e-05
-0.000460293130487
-8.21959698653e-05
-0.000492012992432
-4.6679642013e-05
-0.000418571760227
-1.97439324717e-07
-7.23307682231e-05
3.78996851742e-08
-9.55240128882e-07
-0.000278526534813
-2.21718882873e-06
-0.000274199542881
-3.7373068058e-06
-0.000271696520781
-5.53327321376e-06
-0.000272669177664
-7.63553656288e-06
-0.000276492598103
-1.00973116516e-05
-0.000282336313074
-1.30057739102e-05
-0.000289772389268
-1.65062506259e-05
-0.000298678615565
-2.07304589819e-05
-0.000309120074058
-2.59133467691e-05
-0.000321118118451
-3.22694905634e-05
-0.000334884053706
-3.98817965038e-05
-0.000350809987895
-4.92435136403e-05
-0.00036901232683
-6.08346246466e-05
-0.000390234071305
-7.55024158039e-05
-0.000414825707609
-9.47909186991e-05
-0.000441017071249
-0.000118591988947
-0.000468216903505
-6.33613121461e-05
-0.000399385459813
-4.40907302025e-07
-6.32442581684e-05
5.62238167916e-08
-2.20893693898e-06
-0.000276320550324
-4.65267462839e-06
-0.000271758392232
-7.39501286905e-06
-0.00026895604035
-1.04381226491e-05
-0.000269627212413
-1.3814334228e-05
-0.000273116179895
-1.75919481914e-05
-0.000278557029473
-2.18870491079e-05
-0.000285473968463
-2.68423744812e-05
-0.000293719223545
-3.26506063843e-05
-0.000303308475205
-3.95034366665e-05
-0.000314265782699
-4.76802182862e-05
-0.000326710492136
-5.76968095433e-05
-0.000340800366543
-6.98908981253e-05
-0.000356826603341
-8.47557818416e-05
-0.0003753804373
-0.000103395808643
-0.00039618835664
-0.000128106195374
-0.000416303103486
-0.000158048899528
-0.000438275498634
-8.07862801152e-05
-0.000371672978249
-4.01601474738e-08
-5.26561307957e-05
1.74893959202e-08
-3.35034916197e-06
-0.000272974080389
-6.93681082757e-06
-0.000268175495885
-1.082748973e-05
-0.000265068198958
-1.50303822815e-05
-0.000265425940292
-1.95852414736e-05
-0.000268561994359
-2.45715346852e-05
-0.000273570151591
-3.01092399427e-05
-0.000279935404945
-3.63510405515e-05
-0.000287476192476
-4.35106943717e-05
-0.000296148835771
-5.18122572432e-05
-0.000305966456571
-6.15932857852e-05
-0.000316935301325
-7.33003179708e-05
-0.00032910273829
-8.7530214042e-05
-0.000342610690021
-0.000105273410954
-0.000357652821562
-0.000128035361718
-0.000373438146179
-0.00015782092847
-0.000386523345414
-0.000198335642735
-0.000397759409388
-9.98357730185e-05
-0.000330287093423
-8.33258587135e-08
-3.8140083708e-05
-7.81941510501e-09
-4.41200700739e-06
-0.000268563978787
-9.07044626064e-06
-0.000263518807196
-1.40257872847e-05
-0.00026011434198
-1.9305471407e-05
-0.000260147376387
-2.49451656748e-05
-0.000262923023141
-3.10253433353e-05
-0.000267490764506
-3.76619852904e-05
-0.000273300127995
-4.50123053893e-05
-0.000280127912269
-5.32757865437e-05
-0.000287888110554
-6.27099565972e-05
-0.00029653520172
-7.36325155853e-05
-0.000306017382256
-8.65242974684e-05
-0.000316216767173
-0.000102110188329
-0.000327032433444
-0.000121511925215
-0.000338259109784
-0.00014667480929
-0.000348284485498
-0.000180496614936
-0.000352705849674
-0.000227776758886
-0.000350478660068
-0.000109462330901
-0.000280558435994
-8.18315754269e-07
-2.64141672396e-05
6.65836355721e-09
-5.42842871939e-06
-0.000263136835669
-1.10765307878e-05
-0.000257871871782
-1.70121158572e-05
-0.000254179775965
-2.32623697142e-05
-0.000253897965143
-2.98671801928e-05
-0.000256318891936
-3.69028806337e-05
-0.000260455706022
-4.44756698571e-05
-0.000265728452278
-5.27181480308e-05
-0.000271887836509
-6.18094675882e-05
-0.000278802474365
-7.20012031806e-05
-0.0002863477728
-8.36037389208e-05
-0.0002944222229
-9.70289709715e-05
-0.000302797090112
-0.000112936769521
-0.000311131028068
-0.000132472174472
-0.000318729910401
-0.000157504637919
-0.000323258139083
-0.000190804511583
-0.000319406868761
-0.000234704832003
-0.0003065752057
-0.00010368743807
-0.000236340642386
-4.97004856611e-07
-1.72110723311e-05
2.27931416474e-08
-6.36628393367e-06
-0.000256771265794
-1.29441233265e-05
-0.000251294647721
-1.97826476517e-05
-0.000247341787598
-2.69155708724e-05
-0.000246765509829
-3.43815514886e-05
-0.000248853349199
-4.22529731685e-05
-0.000252584788571
-5.06165324008e-05
-0.000257365777715
-5.95961175576e-05
-0.000262910207033
-6.93209239349e-05
-0.000269081402988
-7.99597552523e-05
-0.000275713211924
-9.17624378199e-05
-0.000282623113327
-0.000105004733562
-0.000289560016776
-0.000120229227656
-0.000295911964641
-0.000138512357468
-0.000300451515443
-0.000162005018033
-0.000299770496582
-0.000195321919379
-0.000286086445898
-0.000237777553518
-0.000264116693403
-9.70588436907e-05
-0.000198250787744
-8.29224647446e-07
-1.20003137189e-05
2.80715789806e-08
-7.21696355587e-06
-0.000249554519417
-1.46712496183e-05
-0.00024384049532
-2.23574159181e-05
-0.000239655714986
-3.02880607061e-05
-0.00023883494918
-3.85232809291e-05
-0.000240618246074
-4.71258101206e-05
-0.000243982489652
-5.6170207932e-05
-0.000248321844525
-6.57204133063e-05
-0.000253361520299
-7.58890645599e-05
-0.000258915156867
-8.67602051039e-05
-0.000264844810565
-9.84352962264e-05
-0.00027095009319
-0.000111061839001
-0.000276932083969
-0.000124826559732
-0.000282151292164
-0.000140491668668
-0.000284789852814
-0.000160513834059
-0.000279752152117
-0.000188733144108
-0.000257863475317
-0.000225278819029
-0.000227569883048
-8.48582453881e-05
-0.000169857251442
-1.34718404423e-07
-9.24206218815e-06
1.90336123462e-08
-8.06349484887e-06
-0.000241490857019
-1.63042569276e-05
-0.000235599497446
-2.47443520283e-05
-0.000231215366456
-3.34165820267e-05
-0.000230162482771
-4.23504272753e-05
-0.000231684220146
-5.15903081742e-05
-0.000234742538643
-6.12013659649e-05
-0.000238710880065
-7.12388485159e-05
-0.000243325018213
-8.17697772633e-05
-0.000248385566181
-9.28018803417e-05
-0.000253813333612
-0.000104287375545
-0.00025946619107
-0.000116175805468
-0.000265049731948
-0.000128333612505
-0.000269994075088
-0.000141127165937
-0.000271995704304
-0.000156516711753
-0.000264362792035
-0.000177421904803
-0.000236953405483
-0.000199439760521
-0.000205549480347
-7.16624234821e-05
-0.000149011128086
-8.46797280081e-07
-4.69707797954e-06
3.10904130916e-08
-8.86956727155e-06
-0.000232620869203
-1.78367626735e-05
-0.00022663183019
-2.69584662654e-05
-0.000222093186574
-3.6285743802e-05
-0.000220834755567
-4.58453095102e-05
-0.000222124261484
-5.56787238792e-05
-0.000224908822245
-6.58254008979e-05
-0.000228564017125
-7.63425150176e-05
-0.000232808396417
-8.72169665521e-05
-0.000237511917359
-9.84523522317e-05
-0.000242578242489
-0.000109958773401
-0.000247960876959
-0.00012150578255
-0.000253502796325
-0.000132876121769
-0.000258621515038
-0.000144106866471
-0.000260759958102
-0.000156402804036
-0.000252061839548
-0.000170291535006
-0.000223064180194
-0.000182645337657
-0.000193195146921
-6.20548958883e-05
-0.000133116812132
-4.70287761663e-07
-1.86434896172e-06
1.01376196561e-08
-9.58140949317e-06
-0.000223038912107
-1.92410098101e-05
-0.000216971649626
-2.90103391747e-05
-0.000212323282968
-3.89448960699e-05
-0.000210899656708
-4.90837299487e-05
-0.000211984939337
-5.94589147267e-05
-0.000214533230313
-7.01152002579e-05
-0.000217907412092
-8.10712946323e-05
-0.000221852486602
-9.23681027696e-05
-0.000226215550721
-0.000103953591905
-0.000230993017625
-0.000115801819633
-0.000236114047496
-0.000127730554253
-0.000241572892066
-0.000139586488289
-0.000246766590609
-0.000151558123928
-0.000248790287365
-0.000163341716454
-0.000240282754219
-0.00017266433341
-0.000213740444148
-0.0001774680493
-0.000188390645531
-5.44009608651e-05
-0.000128013802131
-7.51853257201e-08
-1.12386282904e-06
2.68213677041e-09
-1.02275650673e-05
-0.000212810775784
-2.05367874212e-05
-0.000206661845305
-3.09141501929e-05
-0.000201945356513
-4.1417884843e-05
-0.000200395403039
-5.20870980651e-05
-0.00020131527469
-6.29577365051e-05
-0.000203662230526
-7.41267803369e-05
-0.000206738072737
-8.55140396323e-05
-0.000210465314408
-9.72040542328e-05
-0.000214525800562
-0.00010924734687
-0.000218949841823
-0.000121656098973
-0.000223706346002
-0.00013447999142
-0.000228748063331
-0.000147796629989
-0.000233450928521
-0.000161328855124
-0.000235259315126
-0.000173186377603
-0.000228425479096
-0.000177905527647
-0.000209019412166
-0.000174556380922
-0.000191737826174
-5.0287956403e-05
-0.000128200651858
-5.24079364401e-07
-1.06343600512e-06
1.34312518731e-08
-1.08533706126e-05
-0.00020195688483
-2.17449667814e-05
-0.000195769743922
-3.2682629003e-05
-0.000191007231042
-4.37149839284e-05
-0.00018936265861
-5.48808348342e-05
-0.000190149132022
-6.62767696084e-05
-0.000192266103138
-7.777765828e-05
-0.000195237038098
-8.95884220211e-05
-0.000198654694814
-0.000101698056012
-0.000202416413981
-0.000114172189441
-0.000206475429103
-0.000127160594276
-0.000210717448868
-0.00014084191888
-0.000215065855211
-0.000155350248554
-0.000218941162322
-0.000170129073023
-0.000220482221118
-0.000181881894738
-0.000216673633461
-0.000183569589482
-0.00020733000644
-0.00017639437169
-0.000198911479063
-4.82742725017e-05
-0.000132594776939
-9.35851036039e-07
-9.59988181434e-07
7.4061776084e-08
-1.14606494762e-05
-0.000190495819983
-2.29023430401e-05
-0.000184327676038
-3.43381216222e-05
-0.000179571161065
-4.58822307935e-05
-0.000177818368046
-5.75129473308e-05
-0.000178518358675
-6.92506697661e-05
-0.000180528424587
-8.11937014154e-05
-0.000183294085079
-9.33405282201e-05
-0.000186508133758
-0.000105727820421
-0.000190029320132
-0.000118499906607
-0.000193703250209
-0.00013176966774
-0.000197448420985
-0.000145612441312
-0.000201224141116
-0.000160239610944
-0.000204315080632
-0.000174996058881
-0.000205726585339
-0.000185510302729
-0.000206159857742
-0.000185952867646
-0.000206887753074
-0.000178859733873
-0.000206003270302
-4.76329419219e-05
-0.00013731039938
-2.05207178255e-07
-1.24432204852e-06
1.45429124012e-08
-1.20446733078e-05
-0.000178450881323
-2.40107910822e-05
-0.000172361358331
-3.59339022473e-05
-0.00016764796779
-4.78711964746e-05
-0.000165881135286
-5.99271240952e-05
-0.00016646263543
-7.2090441112e-05
-0.00016836540327
-8.43862821692e-05
-0.000170998560004
-9.68164168602e-05
-0.0001740783671
-0.000109364980233
-0.000177480967307
-0.000122317645141
-0.000180750715823
-0.000135218380311
-0.000184548072383
-0.000148609366979
-0.00018783364807
-0.000162410171961
-0.000190514838629
-0.000175580646944
-0.000192555909676
-0.00018519071886
-0.00019654961491
-0.000186844340251
-0.000205234229973
-0.000183171298306
-0.000209675420247
-4.88191513411e-05
-0.000138297404961
-2.03851435454e-08
-1.02927914933e-06
3.74433287997e-10
-1.26038688575e-05
-0.000165846908578
-2.50431094403e-05
-0.000159922103211
-3.74069779276e-05
-0.0001552842222
-4.9778720232e-05
-0.000153509680969
-6.22343352106e-05
-0.000154007451253
-7.47767098314e-05
-0.000155823531637
-8.7414184973e-05
-0.000158361568922
-0.000100115859639
-0.00016137708386
-0.000112958130981
-0.000164638788336
-0.000125592996668
-0.00016811533899
-0.000138385371335
-0.000171754844999
-0.00015110491093
-0.000175113210594
-0.000163865327858
-0.000177752174216
-0.00017555277695
-0.0001808675789
-0.00018456168368
-0.000187540178995
-0.000188410584536
-0.000201384809718
-0.000190304681876
-0.000207779974335
-5.1643915761e-05
-0.000133049302633
-1.98842554894e-07
5.12088795522e-08
9.12026977351e-11
-1.30726718582e-05
-0.000152774270473
-2.60188475788e-05
-0.000146976057334
-3.88083486578e-05
-0.000142494993411
-5.1584298501e-05
-0.0001407341635
-6.44247220825e-05
-0.000141167567171
-7.73413985555e-05
-0.000142907415527
-9.02949190066e-05
-0.000145408508653
-0.000103299638415
-0.000148372544407
-0.000116241377441
-0.000151696284207
-0.000129005413236
-0.000155349620863
-0.000141646775875
-0.000159111004165
-0.000154055962889
-0.000162701676012
-0.000166203701099
-0.000165602067408
-0.000177300781617
-0.000169767131674
-0.000185979001725
-0.000178859637648
-0.000192670961525
-0.000194691266695
-0.000200315925486
-0.000200132070484
-5.48527362538e-05
-0.000121208400607
-5.50697571375e-08
1.12462685869e-06
1.6977501202e-09
-1.36085217185e-05
-0.000139165842387
-2.69203623355e-05
-0.000133664420787
-4.01099508668e-05
-0.000129305770487
-5.32751222836e-05
-0.000127569527235
-6.65101862672e-05
-0.000127933033429
-7.98081426728e-05
-0.000129609903414
-9.3122268976e-05
-0.000132094608884
-0.000106488472269
-0.000135005792559
-0.000119496541108
-0.000138685986359
-0.000132302956255
-0.00014254024665
-0.000144655883186
-0.000146753322992
-0.000156466496985
-0.000150885797955
-0.00016757143271
-0.000154490156267
-0.000178402447626
-0.000158931050319
-0.000187892420856
-0.000169365383769
-0.000197816087079
-0.00018476321819
-0.00021238068069
-0.000185562189576
-5.74402739187e-05
-0.00010325204748
-3.87428035329e-07
1.5702207052e-06
2.14058537676e-09
-1.39619584416e-05
-0.00012520400132
-2.77227536427e-05
-0.000119903872644