/*--------------------------------*- C++ -*----------------------------------*\
| =========                 |                                                 |
| \\      /  F ield         | OpenFOAM: The Open Source CFD Toolbox           |
|  \\    /   O peration     | Version:  v2012                                 |
|   \\  /    A nd           | Website:  www.openfoam.com                      |
|    \\/     M anipulation  |                                                 |
\*---------------------------------------------------------------------------*/
FoamFile
{
    version     2.0;
    format      ascii;
    class       volVectorField;
    location    "4.2";
    object      ddtCorrDdt0(U);
}
// * * * * * * * * * * * * * * * * * * * * * * * * * * * * * * * * * * * * * //

dimensions      [0 1 -2 0 0 0 0];


internalField   nonuniform List<vector> 
1984
(
(-0.00324125576117 0.00321143681032 2.8818872873e-23)
(-0.00360712489751 0.00902656398168 -1.14525718552e-22)
(-0.00367858583542 0.0155156473257 1.58327270357e-22)
(-0.00374947744045 0.0220721815626 1.83558629205e-22)
(-0.00386592516815 0.0288024760274 1.42348861825e-22)
(-0.00402968899996 0.0358063223787 -1.39317836212e-23)
(-0.00422365652726 0.0431693555663 -1.44720253337e-22)
(-0.00443464482721 0.0509644936296 -6.01767435632e-22)
(-0.0046573967626 0.0592225952378 -3.72066787229e-22)
(-0.00484499326143 0.0679218542244 -3.51891627255e-22)
(-0.00496895410971 0.0770206955193 2.38481042243e-22)
(-0.005021036309 0.0864157392705 1.94811777076e-23)
(-0.00493913440369 0.0958917413732 4.58815828429e-22)
(-0.0047672961036 0.105557568165 1.05087464669e-21)
(-0.00400267486604 0.116512763059 2.08590390431e-22)
(-0.00383629873119 0.123294744696 -7.63523762157e-22)
(-0.00504187539114 0.13568293071 -9.82420894701e-21)
(-0.0162185640121 0.10925267801 -9.16384500601e-21)
(0.0106210004787 0.24263224834 7.54910858312e-20)
(0.537091146714 -0.112772328469 -1.67112037553e-20)
(-0.00901402825359 0.00353446052872 6.56251570727e-23)
(-0.00948007657188 0.00929342190266 8.30495843595e-24)
(-0.00965374230671 0.0156712920751 1.48683604898e-22)
(-0.00989943731994 0.0222146577744 3.01541465352e-22)
(-0.0102577188184 0.0289604344312 4.9881713314e-22)
(-0.0107272854445 0.0360001760182 1.58565166339e-22)
(-0.0112853629739 0.0434217506318 7.44877498038e-23)
(-0.0119152368976 0.0512927083892 -1.71724698604e-22)
(-0.0125638127144 0.0596729867304 -1.5366985514e-22)
(-0.0131661365081 0.0685541268651 2.59127404127e-22)
(-0.0136421213855 0.0778338809811 1.29875012435e-22)
(-0.0139756944743 0.0874223294598 1.60377855513e-22)
(-0.0141358914356 0.097202625226 4.4949295799e-22)
(-0.014150517178 0.107105826069 1.41776517041e-21)
(-0.0138780831027 0.117540721283 -9.04165141103e-23)
(-0.0142955401641 0.12336886056 3.35159047228e-23)
(-0.0115521591906 0.136595953344 -3.28722628286e-21)
(-0.00663855865222 0.111822034449 -2.91465301312e-22)
(-0.354773619715 0.273788434619 -2.12012159005e-20)
(0.554689402629 0.765875520204 -2.32062848735e-19)
(-0.0152701768302 0.00350995853221 -5.85019066398e-23)
(-0.015748233785 0.00910443335032 -2.6000242966e-22)
(-0.0160702787467 0.0153901700028 1.053735521e-22)
(-0.0165303961681 0.0218103094759 2.65833816319e-22)
(-0.0171483588819 0.0284456732759 2.39502837326e-22)
(-0.0179257482243 0.0353837227929 1.07003277813e-22)
(-0.0188483111557 0.0427111830763 -2.63082033794e-23)
(-0.0198812974008 0.0505378639492 -9.31535108302e-23)
(-0.0209882004318 0.058950807239 -1.47548587835e-23)
(-0.0220439107096 0.0679422748165 1.11642398775e-22)
(-0.0229439418258 0.077398116362 7.53998885859e-23)
(-0.0235976497088 0.0872017313157 1.15072484912e-22)
(-0.0239516836442 0.0972890565045 5.97552779325e-22)
(-0.0239692932771 0.107573548421 -8.04915556071e-22)
(-0.0232837772418 0.118756799446 3.33251257944e-21)
(-0.0221210713664 0.126899415304 1.16900207991e-21)
(-0.0215917393978 0.143699622637 -3.02591536968e-20)
(-0.0190229181115 0.12164926288 4.1612915637e-20)
(-0.953211023083 0.440550687286 -1.19160263418e-19)
(-0.15998370112 1.12334589405 -1.78306334807e-20)
(-0.021333141626 0.00340673254054 -1.89169627156e-22)
(-0.0219090409024 0.00879318329087 -2.02057803697e-22)
(-0.0223650913081 0.0149149431044 5.7578398624e-23)
(-0.0230276693818 0.0211477691433 1.8193983169e-22)
(-0.0239112250982 0.0276086095138 1.79563740045e-22)
(-0.0250092178237 0.034379078665 9.60674689436e-23)
(-0.0263037264941 0.0415695481392 1.09497276339e-23)
(-0.027756477704 0.049279860038 -7.02748081e-23)
(-0.0293212309377 0.0576794249673 -4.47704638931e-25)
(-0.0309095594254 0.0668117119819 1.84420100844e-23)
(-0.0323487686842 0.07650076673 5.13806708681e-23)
(-0.0334624711816 0.0866136775776 6.16403564923e-23)
(-0.0341928782308 0.0970902017667 2.22363863645e-22)
(-0.0343957567929 0.107930381418 -7.8851784045e-23)
(-0.0336498342501 0.119607783669 1.36077061958e-21)
(-0.0322436609564 0.129091225446 5.5963889187e-21)
(-0.0319955116649 0.148646232365 4.0243893012e-21)
(-0.0237727893176 0.127344292948 1.36195453038e-20)
(-1.26184802583 0.522630191678 1.41957473559e-20)
(-2.51694133316 1.50892875434 1.03357041217e-19)
(-0.0271436341913 0.00327014046769 3.47195413557e-23)
(-0.0278220554141 0.00838111471967 -3.97903293668e-22)
(-0.028412219496 0.0142597860416 -2.210558309e-23)
(-0.0292746369467 0.0202424210802 1.32537904666e-22)
(-0.0304251087508 0.0264632694083 1.24565859904e-22)
(-0.0318544818266 0.033014724084 5.750565986e-23)
(-0.0335325128647 0.0400012860555 1.16560298888e-23)
(-0.0354408286988 0.0475638747184 -2.38833713861e-23)
(-0.0374778547444 0.0558576948828 -1.28615641605e-23)
(-0.0396082458844 0.0650166610738 3.38106721903e-23)
(-0.0417189659613 0.0749773945518 2.51111255658e-23)
(-0.0434972778102 0.0854636830866 1.2778190623e-22)
(-0.0448782875865 0.0964129480059 4.30473988021e-22)
(-0.0455513911705 0.107934317908 -4.2079823944e-23)
(-0.0450061117066 0.120325219888 -5.48625368175e-22)
(-0.0429772994818 0.131646126016 -1.74403119873e-21)
(-0.0423278806005 0.155024351168 -3.17647534789e-20)
(-0.0307331790945 0.128422894887 7.84094664625e-21)
(-0.653769134691 -0.227373091923 4.03292531849e-19)
(-0.478773126466 -1.30011361582 -1.04305356803e-20)
(-0.0326478560218 0.00312066721903 4.77619041633e-23)
(-0.0334551689529 0.00785589683032 -2.9594954375e-22)
(-0.0341723364011 0.0134265319826 -4.39593185817e-23)
(-0.0352368382616 0.0190956175687 9.2916390675e-23)
(-0.0366604781941 0.0250073135528 6.04583912955e-23)
(-0.0384385259477 0.0312704707135 5.72093879869e-23)
(-0.0405387672744 0.0379948713948 1.07516719205e-23)
(-0.0429294208421 0.045348325962 -5.4798820414e-24)
(-0.0455467082 0.0535118653024 2.18940831574e-23)
(-0.0483087088051 0.0625725044721 2.74457495684e-23)
(-0.051187435067 0.0726366431163 3.87250131326e-23)
(-0.0538702122013 0.0834523913987 2.0719099861e-22)
(-0.0561737806661 0.0949334919676 7.2339934065e-22)
(-0.0577248287424 0.107449951818 2.83888636762e-22)
(-0.0579426827125 0.120953352047 3.23237519258e-22)
(-0.056012778161 0.135575014857 -5.25446101043e-21)
(-0.0557707447921 0.164917809812 -8.75013001917e-21)
(-0.0572626058852 0.141904879272 4.90348298802e-21)
(-0.219673939659 -0.468406603102 6.01294172254e-19)
(0.867277381237 -2.27422363572 -8.41951424518e-20)
(-0.0377765356872 0.0029365283752 6.52731605856e-23)
(-0.0387312296836 0.00722714146752 -6.35195428267e-23)
(-0.0395758057592 0.0124241552781 4.86940281675e-23)
(-0.0408445258852 0.0176996639724 1.17104436682e-22)
(-0.0425518466516 0.023227889505 1.72472900587e-22)
(-0.0446932667144 0.0291258702684 4.60050660013e-23)
(-0.047249315103 0.0355143116301 2.30957789074e-23)
(-0.0501811778111 0.0425653157464 2.07810733636e-23)
(-0.0534590506409 0.0504762899993 -2.97586788999e-23)
(-0.0570290158893 0.0593541057308 9.85545628709e-23)
(-0.0608145127392 0.0693789947339 5.59161647347e-23)
(-0.0646334371708 0.0804003956805 2.97588963022e-22)
(-0.0681780824949 0.0923753689132 7.51484651212e-22)
(-0.0710934007718 0.10575362192 1.9461302562e-21)
(-0.0728910195765 0.120404139122 3.06202341965e-21)
(-0.0724137307873 0.138341884326 -1.4227005626e-21)
(-0.0746336499463 0.171672062117 -3.1018479242e-20)
(-0.0770287108649 0.156193424327 -1.09827595202e-20)
(0.351266478535 0.55590313562 -3.67846663238e-19)
(2.09997411879 2.58519980624 4.56513903084e-19)
(-0.0424643313854 0.00268622812162 7.88612275918e-23)
(-0.0435657004438 0.00652261974041 -2.63181068673e-22)
(-0.0445478740564 0.0112434589918 1.12378052401e-23)
(-0.0460249188588 0.0160506949647 1.11850808779e-22)
(-0.0480240614115 0.021116635696 9.68277859429e-23)
(-0.0505476176377 0.0265580198887 5.03543643432e-23)
(-0.053585259085 0.0325067731131 2.78341993083e-23)
(-0.0571186422386 0.0391439064715 6.8209098352e-23)
(-0.0611342173615 0.0466667020211 -4.95696181811e-23)
(-0.0656130763267 0.0552082805538 4.59845960879e-23)
(-0.0704923298844 0.0649914233578 1.4153752728e-22)
(-0.0756641616432 0.0759845000971 4.0736796009e-22)
(-0.0808275770727 0.0882581719337 7.07846748704e-22)
(-0.0856513445872 0.102344037247 1.5639596928e-21)
(-0.0897414992737 0.118053736403 8.19706593726e-21)
(-0.0919804740136 0.138652017291 6.08994216293e-21)
(-0.0980709754345 0.176527132397 -4.68678458807e-20)
(-0.0894559136409 0.165939967753 -4.88636733008e-20)
(-0.108469936087 0.723798889489 -2.52680801289e-19)
(-1.17711452658 2.69006867174 -1.67872994265e-20)
(-0.0466423374373 0.0023955811437 -1.02494251216e-22)
(-0.0478907866949 0.00571107271007 -2.60504124093e-22)
(-0.0490074892281 0.00988581478308 -7.33519765479e-23)
(-0.0506960356865 0.0141426253771 8.38548087443e-23)
(-0.0529923310625 0.0186553705879 7.13213635873e-23)
(-0.0559150866021 0.0235456700497 -2.38555043343e-23)
(-0.0594612257523 0.0289401384245 1.1789727666e-22)
(-0.06363742167 0.0350197736873 -1.58528339048e-23)
(-0.0684583397235 0.0419828374668 2.97310834825e-23)
(-0.0739462736144 0.0499828060368 2.46664139724e-23)
(-0.08006483582 0.0592815255605 4.82458167724e-23)
(-0.0867838701629 0.0699529319277 2.26834493204e-22)
(-0.0938385058856 0.0821657601184 4.54885287997e-22)
(-0.100993602938 0.0964906227265 9.12672663209e-22)
(-0.107989097037 0.112747793884 2.62017294743e-21)
(-0.11386844323 0.134732090757 -2.33504427199e-21)
(-0.124053970556 0.176168527575 5.12383371295e-21)
(-0.106358796067 0.165818636374 1.19769946838e-20)
(-0.417673104291 0.39914130329 2.03567401478e-20)
(-5.63752221979 3.62404034432 4.66862568537e-20)
(-0.0502460707744 0.00206742315868 -1.42310388894e-22)
(-0.0516211718232 0.00479753573189 -4.87391418971e-22)
(-0.0528761716294 0.00835066162663 -1.66751396684e-22)
(-0.0547722161999 0.0119753290041 1.24830607199e-23)
(-0.0573652770741 0.0158419055942 5.04247829444e-23)
(-0.060686537185 0.0200672745208 6.72082905381e-23)
(-0.0647579632022 0.0247792615365 3.88847645663e-24)
(-0.0696017607339 0.0301466854631 -2.20287320014e-24)
(-0.0752705057932 0.0363544733693 -8.9059357359e-23)
(-0.0818176775519 0.0435785194349 9.15761906276e-24)
(-0.0892809904262 0.0520949916095 5.58450489559e-23)
(-0.0976672586027 0.0620913113847 2.04872453031e-22)
(-0.106801958591 0.0738309613698 1.73329942539e-22)
(-0.116535274156 0.0878723202507 5.37746366566e-22)
(-0.126776169199 0.104052471988 1.01350918897e-21)
(-0.136584627064 0.126613554811 1.42873890483e-21)
(-0.150649956915 0.170508321243 -2.09278067908e-20)
(-0.137868802352 0.155885192722 3.1610140802e-21)
(-0.00231745655667 -0.60626754231 1.25787808054e-18)
(-0.0562279403671 -10.7512250227 1.18238444914e-19)
(-0.0531944258537 0.00170987250666 -9.89264934246e-23)
(-0.054696308461 0.0037904148472 -6.76871859124e-23)
(-0.0560796261969 0.00664003705404 -2.72546739184e-23)
(-0.0581751980827 0.00955532142535 8.57579650261e-23)
(-0.0610474968291 0.0126811324988 5.63441264916e-23)
(-0.0647509418666 0.0161292056894 4.99387989473e-23)
(-0.0693296771798 0.0200177632915 4.01698546513e-24)
(-0.0748370960919 0.0245026608438 -7.02565046812e-24)
(-0.0813547933443 0.0297555515671 8.93467045931e-23)
(-0.0889709532475 0.0359417184764 9.61175784778e-23)
(-0.0977777654792 0.0433642847199 5.38222451933e-23)
(-0.107874758597 0.0523058952869 2.14463789756e-22)
(-0.11918575351 0.0630957309796 -2.33107836655e-23)
(-0.131686031926 0.0763340832706 2.73337294848e-22)
(-0.145571147916 0.0919986983523 -3.17311247993e-21)
(-0.160254567525 0.115222481986 7.97948901166e-21)
(-0.180005807829 0.162136398903 -6.95434936028e-21)
(-0.180332870127 0.15984185041 2.33225245265e-20)
(0.275256332165 0.130066388236 1.16604054448e-19)
(5.06802472508 4.44931732388 4.33534735446e-20)
(-0.0554248565067 0.00131514442508 1.73036757919e-22)
(-0.0570515896171 0.00269086173182 -1.73599638555e-22)
(-0.0585417996902 0.00477343130124 1.05656488713e-23)
(-0.0608126527788 0.00690188714877 6.03588249511e-23)
(-0.0639348193896 0.00919954240485 8.58957494202e-23)
(-0.0679852536627 0.0117567930977 2.2994438584e-23)
(-0.0730253341397 0.01468281739 3.49711361866e-23)
(-0.0791396269547 0.0181127483461 8.62609656853e-23)
(-0.0864471442394 0.0221998633245 5.57387284775e-23)
(-0.095079315139 0.0271178115665 1.52607188791e-22)
(-0.10515327451 0.0331181748882 -1.23319919521e-22)
(-0.116895443994 0.0405563469307 2.51353921578e-22)
(-0.130366382143 0.0498509955246 1.65855752906e-22)
(-0.145743942037 0.0615801043431 6.60160632461e-22)
(-0.163570049589 0.0757825741499 4.25202365522e-22)
(-0.18381896858 0.0969301800637 -9.84515569071e-22)
(-0.210727462463 0.141817829627 -3.51840484046e-20)
(-0.217658821873 0.144774878777 -3.91753433451e-21)
(0.140518759037 0.230748295123 -8.28734947036e-20)
(0.497225241846 1.00040408591 1.69754432121e-19)
(-0.0568861740645 0.000895618266056 8.50461810383e-23)
(-0.0586200237563 0.00151813998352 -4.23674404479e-22)
(-0.0601981821321 0.00277694124454 -1.67519251093e-22)
(-0.0626055810239 0.00405022157246 -1.38374691015e-23)
(-0.0659352033701 0.00543563695961 1.12045815978e-22)
(-0.0702650051978 0.00700567658641 4.63021551376e-23)
(-0.0756831829719 0.00884884462863 5.15975719125e-24)
(-0.0823060593117 0.0110673747904 6.07466905927e-23)
(-0.0902742028764 0.0137900266013 2.31872549721e-22)
(-0.0997675274751 0.0171870956403 1.13542016069e-22)
(-0.110974466301 0.021466015475 3.43375378837e-23)
(-0.124160842055 0.0269698514291 4.71647605875e-22)
(-0.13960401691 0.034115019023 7.9047835096e-23)
(-0.157662737711 0.0434386517676 1.1682728439e-21)
(-0.179201656331 0.0552151779143 3.50074651483e-21)
(-0.203326090762 0.071877088761 8.7348407238e-21)
(-0.239116470676 0.11278564091 -4.30751798731e-20)
(-0.251785184947 0.116350286021 -1.42253149234e-20)
(-0.142971406679 0.109463174309 -8.52431907763e-20)
(-0.42882266178 0.322603797291 -2.92909037983e-19)
(-0.0575438054795 0.000450206064012 -4.65541013512e-24)
(-0.0593583311337 0.000288109432191 -3.94686330421e-22)
(-0.0609999888519 0.000682393392406 -2.92811555174e-22)
(-0.0634978759527 0.00104734738599 -1.08438548993e-22)
(-0.066961886997 0.0014637301162 1.73696489858e-23)
(-0.0714825070711 0.00197282064966 3.40951865463e-23)
(-0.0771632090653 0.00262591659729 5.14182674326e-23)
(-0.0841417633524 0.00350651686662 -4.33143443826e-23)
(-0.0925836717856 0.00471144435847 9.71189239169e-23)
(-0.102699317697 0.0063654811447 1.32354039342e-22)
(-0.114763537232 0.00863429142488 -6.4352107572e-23)
(-0.129091573441 0.011797425178 1.32269195307e-22)
(-0.146094794227 0.0162124268381 -3.82354475606e-22)
(-0.166309467308 0.0222936565616 6.87530006538e-22)
(-0.190780694653 0.0301364987698 1.17173692597e-21)
(-0.219058487311 0.040627982641 1.38836559379e-20)
(-0.258592033178 0.0760858427516 4.09031534593e-20)
(-0.280122728951 0.0813085302612 1.94220667494e-20)
(-0.116243829543 0.0648984712979 3.18641028578e-20)
(-1.32349410341 0.318065217458 -6.28698523651e-19)
(-0.0573720809668 -8.0227086366e-07 -1.36276190488e-22)
(-0.0592471243984 -0.000969093895187 -4.60472001541e-22)
(-0.060910267248 -0.00146863129545 -2.25715491862e-22)
(-0.0634415339397 -0.00203417145186 -1.46335372557e-22)
(-0.0669542901976 -0.00262658731448 -8.99087428278e-23)
(-0.0715589851092 -0.0032267166395 -2.2528816452e-24)
(-0.077360568422 -0.00381917873825 7.89089887697e-24)
(-0.0844940819898 -0.00436534137151 -1.31326462905e-23)
(-0.0931597078955 -0.00479311902734 2.81521019156e-23)
(-0.103609070885 -0.00504538208406 1.38551779739e-22)
(-0.116122624733 -0.00501483962852 1.87125410914e-23)
(-0.131110345824 -0.00449630581775 1.6480441459e-22)
(-0.149050917984 -0.00328538812449 -2.18639299049e-22)
(-0.170630506419 -0.00116436713811 -9.97021871431e-23)
(-0.196976495537 0.00171076086991 -1.3195323219e-21)
(-0.227978973737 0.00555169871661 5.31060147692e-21)
(-0.270744385026 0.0349949147445 -1.84714675513e-20)
(-0.307658705488 0.044472008603 5.88489004447e-21)
(-0.463208099172 -0.0609133471326 -3.96701828097e-19)
(-4.16757944155 2.22320793428 -7.23671984438e-19)
(-0.0563530010945 -0.000458678840685 4.23134426493e-23)
(-0.0582789488662 -0.00222736105369 -2.79634987985e-23)
(-0.0599195021023 -0.00361689960974 -4.6458261628e-23)
(-0.0624199157768 -0.00511670411901 -5.04121421429e-23)
(-0.0658983223599 -0.00671996652506 -1.97206653871e-23)
(-0.07045784429 -0.00844527146482 2.04371911954e-23)
(-0.0762100411208 -0.0103002240464 4.04030246442e-23)
(-0.0832769975455 -0.0122849458939 1.99021650519e-23)
(-0.0919065962443 -0.0144076588291 2.55153904806e-23)
(-0.102322170092 -0.0166282679904 8.42990433414e-23)
(-0.114858337154 -0.018938169753 -1.99080372142e-22)
(-0.129888664502 -0.0212498591524 6.80320189159e-23)
(-0.148010669055 -0.0234946412449 -1.18513999343e-22)
(-0.169893762294 -0.0257257770676 -1.86099156447e-22)
(-0.196702723611 -0.0283938472229 -4.00191373567e-21)
(-0.228835111521 -0.0326967029021 -2.65465542792e-21)
(-0.27109787148 -0.0171696729048 1.49074309336e-20)
(-0.315043816956 -0.00723148755605 1.63261304245e-20)
(-0.346228156115 -0.0624073894463 5.94810757287e-19)
(-4.98066361245 -0.896765424458 1.80557470865e-18)
(-0.0545191433471 -0.000908793267823 5.09138913109e-22)
(-0.0564512825855 -0.0034562777701 2.35585752576e-22)
(-0.0580387646765 -0.00570837613862 1.42595934663e-22)
(-0.0604495462733 -0.00812898584576 7.61174150599e-23)
(-0.0637967863124 -0.0107258542532 -1.77229144191e-23)
(-0.0681849966596 -0.0135380307626 1.09838800791e-23)
(-0.0737249083179 -0.0166124570305 2.12086373669e-23)
(-0.0805541818283 -0.0200424475557 -1.27042041656e-23)
(-0.0888404234917 -0.0238253418716 1.30905270984e-23)
(-0.0988477130435 -0.0279814506229 1.84343107226e-23)
(-0.110910074463 -0.0325822022882 2.72792694806e-23)
(-0.125376956612 -0.0376703279783 1.17571489585e-22)
(-0.142855194953 -0.0433508729392 3.92239930088e-23)
(-0.164019062035 -0.0497673690222 -1.57213248028e-22)
(-0.189920286155 -0.0573662055707 -1.0036054313e-21)
(-0.221829579138 -0.0670171369324 -4.89524757492e-21)
(-0.262696977008 -0.0588817860705 -1.42327468795e-20)
(-0.295428689908 -0.0400339312144 -1.07150283631e-20)
(-0.286402251816 -0.0884158982204 9.4495939981e-20)
(-2.06732924582 -2.34299165311 2.23176822131e-19)
(-0.0518903819415 -0.00132856654124 5.32754633412e-22)
(-0.0538082839337 -0.0046166352513 2.58387260741e-22)
(-0.0553023589655 -0.00770793152746 2.05741031869e-22)
(-0.0575567148036 -0.0109975869926 1.17160818522e-22)
(-0.0606803954426 -0.0145310785059 4.54844607831e-23)
(-0.0647842838364 -0.0184005959537 6.99714719991e-24)
(-0.0699545111551 -0.0226730027572 -9.80060045077e-24)
(-0.0763297422038 -0.0273995265151 -2.41266511095e-23)
(-0.0840363433608 -0.0326913311948 -1.9221073268e-23)
(-0.0933388805199 -0.0386589024547 1.40657874066e-23)
(-0.104520442703 -0.0453973649456 2.16320253177e-23)
(-0.117974461397 -0.053111457406 1.11023634244e-22)
(-0.134137241727 -0.0620289023414 -1.49465036323e-22)
(-0.153757831163 -0.0724659777161 -6.88338549808e-22)
(-0.177873324576 -0.085408005336 2.71717607709e-23)
(-0.208235860868 -0.102309906782 -9.4136914656e-22)
(-0.250148914345 -0.105959512096 -9.96365644773e-21)
(-0.289019216482 -0.0854886712778 -2.05066918454e-20)
(-0.0912051871842 -0.116858764413 8.06139975724e-20)
(2.8325015951 -0.141285358234 -6.54565087129e-19)
(-0.0485114422359 -0.00172742586696 2.10795562023e-22)
(-0.050406697668 -0.00569505172586 -7.18372710551e-23)
(-0.0517601057455 -0.00954632398474 4.06797574852e-23)
(-0.05379495105 -0.0136411224127 3.88007852037e-23)
(-0.0566163673833 -0.0180579781849 4.07533482217e-23)
(-0.0603110838717 -0.0228823837743 1.38786247872e-23)
(-0.0649577160142 -0.0282048846888 8.2730954382e-24)
(-0.0706767953291 -0.0341448908135 -1.88566602417e-23)
(-0.0776313941178 -0.0408313746877 -3.75196393723e-23)
(-0.085993785632 -0.0484435617269 -2.12314092162e-23)
(-0.0960106136445 -0.057165205491 -3.43222461878e-23)
(-0.108030618338 -0.0672127512356 3.13908215282e-24)
(-0.122416465881 -0.0790844785431 -1.88094069283e-22)
(-0.139572677081 -0.0933697150508 -5.97545216009e-22)
(-0.160249677845 -0.111336824639 -1.66276585459e-21)
(-0.185444281576 -0.136602855607 8.53480767368e-21)
(-0.221248182574 -0.156073046077 1.72492301076e-20)
(-0.27078669895 -0.13542811996 -1.50196607637e-20)
(-0.21161389586 -0.244158457443 -1.68823139962e-19)
(-1.10795902099 -0.0355027861606 -1.16430840925e-18)
(-0.0444666677794 -0.00209438061719 -2.14235296125e-22)
(-0.0463037995134 -0.00666143745028 -4.66004049996e-22)
(-0.0474852102101 -0.0111852254585 -1.44130451579e-22)
(-0.0492434085647 -0.0159979048028 -5.17932963352e-23)
(-0.0516765056323 -0.021172563121 -2.88054180139e-24)
(-0.0548604030669 -0.026822625496 1.23940526549e-24)
(-0.0588756801961 -0.0330753967378 -1.32065428658e-23)
(-0.063809954267 -0.0400806920549 2.52440103166e-23)
(-0.0697928252294 -0.0480042179446 -2.66163502735e-23)
(-0.0769885860113 -0.0570326637955 -1.99483346493e-23)
(-0.0855810903912 -0.0674383209539 2.56024498856e-23)
(-0.0958030300399 -0.0795242518323 -1.19616445857e-22)
(-0.107924901687 -0.0936142268029 1.28783199022e-22)
(-0.121957335573 -0.110533096416 -2.09112763026e-22)
(-0.137560002777 -0.131785620148 2.34178617259e-21)
(-0.153601940582 -0.162765033039 -6.57499230384e-21)
(-0.170148998777 -0.20137144381 4.25889617218e-20)
(-0.220272128581 -0.188746668367 2.21893316217e-20)
(-0.171200848685 -0.313405265784 1.28736629147e-19)
(-0.799611934388 -1.22509874298 3.80372891258e-19)
(-0.0398143343436 -0.00241391577956 -1.58324184636e-22)
(-0.0415782224416 -0.0074887827841 -1.25544667487e-22)
(-0.0425622407837 -0.0125763945682 -6.24003557335e-23)
(-0.0439988240166 -0.0179814327709 -3.51265941959e-23)
(-0.0459874057885 -0.0237881726006 1.31529471708e-23)
(-0.0485981224529 -0.0301318572995 3.42572795558e-23)
(-0.0518809239991 -0.0371626469858 -3.95670596939e-24)
(-0.0559024804872 -0.0450553321185 1.29902177897e-23)
(-0.0607642264179 -0.0540030478641 2.73358549643e-23)
(-0.0665964556238 -0.0642240906466 -4.69464819586e-26)
(-0.073559802383 -0.0759666574656 1.07098254353e-22)
(-0.0817932459859 -0.08955182304 -5.1645208356e-23)
(-0.0915099004571 -0.105262421486 2.96930960279e-22)
(-0.102640772845 -0.123334057135 5.72198611312e-22)
(-0.113934815028 -0.144017155692 7.08029820474e-22)
(-0.122189566799 -0.170206552928 -2.8507011424e-21)
(-0.116051195665 -0.229558964045 -6.21297630691e-21)
(-0.164373963898 -0.229527708718 1.49685903155e-20)
(-0.0683435719662 -0.309560104753 -2.90211805082e-20)
(-0.615966534195 -0.675803297473 1.40198035609e-20)
(-0.0346755860463 -0.00269477654737 2.07911510457e-22)
(-0.0363388474854 -0.00815354672066 -9.04963049714e-24)
(-0.037105565568 -0.013669812442 4.02692383403e-23)
(-0.0381938984321 -0.0195489596318 -2.69565180888e-23)
(-0.0397002175852 -0.0258539420022 -2.17870199853e-24)
(-0.0416768460683 -0.0327477437265 -2.25121230068e-23)
(-0.0441484483085 -0.0403901436507 1.24612819028e-23)
(-0.0471632422973 -0.0489642105444 4.92952883462e-23)
(-0.0507931478812 -0.0586894042262 -8.50873101173e-23)
(-0.0551371236941 -0.0698153564368 2.75151783638e-23)
(-0.060313921361 -0.0826091967147 2.10340923813e-23)
(-0.0664009931557 -0.0974257905099 -1.08639300601e-22)
(-0.0738563041831 -0.114454481163 3.18734989888e-22)
(-0.082807037417 -0.133321587334 7.98857657271e-23)
(-0.0929762562677 -0.152699980959 2.9596381163e-21)
(-0.104304479418 -0.167844462593 2.26104975155e-21)
(-0.111345511937 -0.2562367377 -2.10461726393e-20)
(-0.137987821669 -0.279257740343 5.09707568534e-21)
(0.069802813186 -0.345345011068 6.6387822361e-21)
(0.506495152434 -0.31108815852 -1.6856088962e-20)
(-0.029116700079 -0.00292178953396 2.8158317835e-22)
(-0.0307033800593 -0.00860878654613 -2.07632610946e-23)
(-0.0312429882775 -0.0144531563558 3.30689812157e-23)
(-0.0319619248284 -0.0206761885986 1.32963614593e-23)
(-0.0329589260459 -0.0273423662875 1.39990746282e-23)
(-0.0342619224636 -0.0346134162437 1.7946212042e-24)
(-0.0358750183666 -0.0426664497442 -3.50284334997e-23)
(-0.0378196266484 -0.051706795634 -5.20937969235e-23)
(-0.0401367954012 -0.0619702979767 -3.1567121073e-23)
(-0.0429031522996 -0.0737225909096 -3.6213037594e-23)
(-0.0462524703586 -0.0871855862375 1.6106702854e-23)
(-0.0497432017294 -0.103039085034 -4.18978948192e-24)
(-0.0548073088305 -0.121647757764 1.05836313224e-22)
(-0.0614396800669 -0.142844784361 3.18973029795e-22)
(-0.0706740919882 -0.167161204065 2.50100356751e-21)
(-0.0870144657401 -0.193176168806 1.26813306847e-21)
(-0.113603325194 -0.271432332872 1.80194557775e-20)
(-0.103292429564 -0.279660654434 1.245498708e-21)
(0.119219412472 -0.351614161648 3.56218600708e-20)
(0.236439300989 -0.372586525982 4.0202599895e-20)
(-0.0232991651473 -0.00295285700701 1.4768112103e-22)
(-0.0248180629536 -0.00889799274652 6.07016864735e-23)
(-0.0250945837359 -0.0149264954166 -1.75083569869e-23)
(-0.0254382704889 -0.0213637020868 -4.59789808438e-23)
(-0.025915725352 -0.028231252937 -1.7481058653e-23)
(-0.0265289516927 -0.0356973880389 2.46407897824e-24)
(-0.0272631148285 -0.0439521931231 -9.32887983586e-24)
(-0.028101310712 -0.0532142429837 -1.41839911123e-23)
(-0.0290300081206 -0.0637509516793 -8.17025887786e-23)
(-0.0300500124628 -0.0758954017844 -4.50164906711e-24)
(-0.0311852859542 -0.0894059943467 -2.227194317e-23)
(-0.0325443637624 -0.105928068884 -8.83440220954e-23)
(-0.0343323815087 -0.126121381756 7.07823432209e-23)
(-0.0370504358459 -0.14959225936 -9.72491191803e-22)
(-0.0415887917947 -0.179396388305 -6.74753700889e-22)
(-0.0498867912189 -0.215781891694 4.36044014441e-21)
(-0.0662182808156 -0.264785874692 -6.25693869042e-22)
(-0.0537963186478 -0.25338763151 -1.3099435746e-20)
(0.185261942054 -0.319785719651 -7.83826101184e-21)
(0.139328186401 -0.454134160319 3.33524424366e-20)
(-0.0174370111059 -0.00313493761859 1.79114218863e-22)
(-0.018715829878 -0.00904173215217 -1.38343391512e-22)
(-0.0187958262412 -0.0151019501061 -5.47752288594e-23)
(-0.0187796238193 -0.0216097298598 -6.63465455805e-23)
(-0.0187444233013 -0.0285126553716 -6.52538868486e-23)
(-0.0186820019937 -0.0359910770921 -2.67255685688e-24)
(-0.0185519869778 -0.0442318902744 -2.7539444524e-23)
(-0.0182951763262 -0.0534432406635 3.59410558844e-23)
(-0.0178443229424 -0.0638740482717 4.23138011097e-24)
(-0.01710534849 -0.0758290423951 -8.79737819716e-23)
(-0.0159692244556 -0.0896333789509 4.06291739869e-24)
(-0.0149849526837 -0.10613127095 -1.21847799451e-22)
(-0.0129810133929 -0.126123250063 2.10366608777e-23)
(-0.0105622060956 -0.150688969049 -1.2436331537e-21)
(-0.00756768725404 -0.180661456453 1.98556735183e-21)
(-0.00380127597975 -0.223042695689 -2.05908199224e-21)
(-0.00223475834133 -0.262759803612 2.45268887907e-20)
(-0.00752952066634 -0.252178935343 -6.75227088013e-21)
(0.271742713958 -0.344497663727 2.18461617513e-20)
(0.230240435356 -0.546695686662 3.57222956276e-20)
(-0.0114803792993 -0.00307436364106 9.80319245856e-23)
(-0.0126103538496 -0.00893813941587 3.26213186991e-23)
(-0.0124929754986 -0.0150137731396 -1.48809663457e-23)
(-0.0121318892971 -0.0214250026357 -7.94113698377e-23)
(-0.011611810713 -0.0282154145116 -5.68621559108e-23)
(-0.0109124221959 -0.0355442804158 4.87404442912e-23)
(-0.00996845989297 -0.0435747573571 2.75799183184e-24)
(-0.00868822958809 -0.0524938270658 8.92055944856e-24)
(-0.00696341037758 -0.0625334879131 -6.37622237909e-23)
(-0.00464531700487 -0.0739892291842 2.13544319525e-23)
(-0.00155971661073 -0.0872455313336 8.51109539834e-23)
(0.00246363912469 -0.102901944264 4.91729068791e-23)
(0.00802852012648 -0.121686958614 1.84371093832e-22)
(0.0156215623539 -0.14495981988 -1.74040151621e-22)
(0.026731577651 -0.172651379342 1.18020874471e-21)
(0.0411942102732 -0.215431294479 1.98027863389e-21)
(0.0607199481923 -0.25377036129 -1.58565812397e-20)
(0.0604455386991 -0.260425462672 -9.0954247002e-21)
(0.409821961139 -0.379413089437 -1.70259794212e-20)
(0.273485401964 -0.583072167011 -6.37035009649e-22)
(-0.00558858543731 -0.00300532182534 8.38806688164e-23)
(-0.00666393564979 -0.00868535532215 -7.25955772314e-23)
(-0.0063213609678 -0.014619578425 3.35068151574e-23)
(-0.00563647471771 -0.0208344729887 -2.46208046287e-23)
(-0.00467251012616 -0.027384181311 -4.39598584506e-23)
(-0.00339231717082 -0.0344127079876 -7.674172451e-23)
(-0.00171266250849 -0.04205614767 -2.39080326219e-23)
(0.000481209826459 -0.0504670789868 1.12312726513e-23)
(0.00334126940961 -0.0598332579812 1.68681249294e-23)
(0.0070735016773 -0.0704069375081 -1.52555114462e-22)
(0.0119567678653 -0.0824976519749 1.61075603502e-22)
(0.0184264725246 -0.0965141575006 -1.65819306682e-22)
(0.0271731897669 -0.112951352608 2.31284781301e-22)
(0.0391885469538 -0.13284460851 -7.20961696366e-22)
(0.056684601179 -0.154895114595 -5.59528505488e-23)
(0.0808884724177 -0.192088003294 8.17014819378e-22)
(0.111727413088 -0.218469612784 5.00136901874e-20)
(0.129207100991 -0.23524799182 -7.38185678868e-21)
(0.511909435974 -0.335710024558 -3.65424385801e-20)
(0.328415572881 -0.343885663287 3.65943979625e-21)
(7.67748113297e-05 -0.00289654073332 8.17891142679e-23)
(-0.000920153438611 -0.00829000631381 6.85911687953e-23)
(-0.000396841833445 -0.013959357787 7.12402856644e-23)
(0.000573088579513 -0.0198668033973 5.15141210705e-23)
(0.00193006538181 -0.0260530914097 2.89575907771e-23)
(0.00371866868018 -0.0326432725967 -8.71181708707e-24)
(0.00603181359162 -0.0397443398085 8.25068591808e-24)
(0.00900080758275 -0.0474694030819 8.85961214794e-24)