/*--------------------------------*- C++ -*----------------------------------*\
| =========                 |                                                 |
| \\      /  F ield         | OpenFOAM: The Open Source CFD Toolbox           |
|  \\    /   O peration     | Version:  v2012                                 |
|   \\  /    A nd           | Website:  www.openfoam.com                      |
|    \\/     M anipulation  |                                                 |
\*---------------------------------------------------------------------------*/
FoamFile
{
    version     2.0;
    format      ascii;
    class       surfaceVectorField;
    location    "4.2";
    object      ddtCorrDdt0(Uf);
}
// * * * * * * * * * * * * * * * * * * * * * * * * * * * * * * * * * * * * * //

dimensions      [0 1 -2 0 0 0 0];


internalField   nonuniform List<vector> 
3840
(
(-0.00342419032934 0.0059383513626 -4.28534228396e-23)
(-0.00595376686764 0.00337294866952 4.72220149728e-23)
(-0.00364285536647 0.0122899249727 2.19007759025e-23)
(-0.00637277308597 0.00915999294217 -5.31103800581e-23)
(-0.00371403163793 0.018768726414 1.70942949781e-22)
(-0.00650603791303 0.0155934697004 1.53505437627e-22)
(-0.0038077013043 0.0253847713137 1.62953745515e-22)
(-0.00664935221568 0.0221434196685 2.42550047278e-22)
(-0.00394780708406 0.0322276129432 6.42085391021e-23)
(-0.00688108565085 0.0288814552293 3.20582997483e-22)
(-0.00412667276361 0.0393938211882 -7.93260184791e-23)
(-0.0071901911203 0.0359032491984 7.23166913589e-23)
(-0.00432915067723 0.0469611681661 -3.73243844485e-22)
(-0.00756892107554 0.0432955530991 -3.51162517666e-23)
(-0.0045460207949 0.0549825831549 -4.8691711143e-22)
(-0.0079841198982 0.0511286010094 -3.86746067118e-22)
(-0.00475119501201 0.0634792276946 -3.61979207242e-22)
(-0.00842639865106 0.0594477909841 -2.62868321184e-22)
(-0.00490697368557 0.0723953169392 -5.6705292506e-23)
(-0.00881623956008 0.0682379905447 -4.63821115643e-23)
(-0.00499499520935 0.0816647844227 1.28981109975e-22)
(-0.00913715138005 0.0774272882502 1.84178027339e-22)
(-0.00498008535634 0.0911602181663 2.39148503069e-22)
(-0.0093538716181 0.0869190343651 8.99295166103e-23)
(-0.00485321525365 0.100706516539 7.54845237558e-22)
(-0.00942820966586 0.0965471832996 4.5415439321e-22)
(-0.00438498548482 0.110285983375 6.29732518558e-22)
(-0.00949545597373 0.106331697117 1.23431990855e-21)
(-0.00391948679862 0.120155996606 -2.77466685863e-22)
(-0.00982774178905 0.117026742171 5.90869381602e-23)
(-0.00443908706117 0.129781116081 -5.29386635458e-21)
(-0.00960448043576 0.123331802628 -3.65003928717e-22)
(-0.0106302197016 0.139827978554 -9.49402697651e-21)
(-0.0100408829585 0.136139442027 -6.55571761493e-21)
(-0.00279878176669 0.15538068514 3.31636204126e-20)
(-0.0155014790099 0.11053735623 -4.72765515366e-21)
(0.273856073597 0.238893710847 2.93899410379e-20)
(-0.0845866167991 0.258210341479 2.71449349653e-20)
(0.794856847552 0.326551595867 -1.24387026245e-19)
(-0.00924705241273 0.00622923941505 3.69650577543e-23)
(-0.0122045951834 0.00352220953046 3.56162521642e-24)
(-0.00956690943929 0.0125192936443 7.84942816668e-23)
(-0.0126915568618 0.00919892762649 -1.25848735612e-22)
(-0.00977658981333 0.0189243291888 2.25112535125e-22)
(-0.0129461080075 0.0155307310389 1.27028578499e-22)
(-0.0100785780692 0.0255343253093 4.00179299246e-22)
(-0.0132997601904 0.0220124836251 2.83687640835e-22)
(-0.0104925021315 0.0324036593043 3.28691149739e-22)
(-0.0137929311148 0.0287030538536 3.69159985233e-22)
(-0.0110063242092 0.0396152934173 1.16526458071e-22)
(-0.0144207308429 0.0356919494055 1.32784222076e-22)
(-0.0116002999357 0.0472504062146 -4.86184744003e-23)
(-0.0151603194987 0.0430664668541 2.40897732122e-23)
(-0.012239524806 0.0553559185723 -1.62697276872e-22)
(-0.0160101765889 0.0509152861692 -1.32439104717e-22)
(-0.0128649746112 0.0640103026824 5.27287744934e-23)
(-0.0168731710494 0.0593118969847 -8.42123569618e-23)
(-0.0134041289468 0.0731127145612 1.94501208281e-22)
(-0.0177013692798 0.0682482008408 1.85384901451e-22)
(-0.0138089079299 0.0825639986794 1.45126433974e-22)
(-0.018387010346 0.0776159986715 1.02637450511e-22)
(-0.014055792955 0.09228549674 3.04935406751e-22)
(-0.0188834499937 0.0873120303877 1.37725170212e-22)
(-0.0141432043068 0.102160157684 9.33629064201e-22)
(-0.0191371943295 0.0972458408653 5.23522868657e-22)
(-0.0140143001403 0.111957188596 6.63674328151e-22)
(-0.0191782732966 0.107339687245 3.06424807171e-22)
(-0.0140868116334 0.120881042291 -2.84503046937e-23)
(-0.018682158383 0.118148760364 1.62104803266e-21)
(-0.0129238496774 0.128740243081 -1.62685518907e-21)
(-0.0174329242714 0.125134137932 6.01258992314e-22)
(-0.00909535892143 0.135472930844 -1.78934579208e-21)
(-0.0167655182492 0.14014778799 -1.67731899898e-20)
(-0.180706089184 0.133116921052 -1.07463406009e-20)
(-0.0131796887025 0.116735648665 2.06607251678e-20)
(0.0999578914571 0.607869557055 -1.26632032318e-19)
(-0.55986405839 0.357169560952 -7.01807396592e-20)
(0.37683972559 0.944610707128 -1.24946741108e-19)
(-0.0155092053076 0.00612701605345 -1.5925216815e-22)
(-0.0183603252344 0.00345834553638 -1.23835766898e-22)
(-0.0159092562658 0.0122881747911 -7.73144387799e-23)
(-0.0188890482193 0.00894880832059 -2.31030116678e-22)
(-0.0163003374574 0.0185792271337 1.85603684209e-22)
(-0.0192790940644 0.0151525565536 8.14759753619e-23)
(-0.016839377525 0.0250745342025 2.52668326822e-22)
(-0.0198390873134 0.0214790393096 2.23886824005e-22)
(-0.0175370535531 0.0318367301807 1.73253057569e-22)
(-0.0205953896479 0.0280271413949 2.09533288686e-22)
(-0.01838702969 0.0389562646073 4.03475372166e-23)
(-0.0215358198566 0.0348814007289 1.01535373378e-22)
(-0.0193648042783 0.0464961447587 -5.97308571048e-23)
(-0.0226520498643 0.0421403656078 -7.67923787274e-24)
(-0.0204347489163 0.0546087173469 -5.39541848069e-23)
(-0.0238829904962 0.0499088619936 -8.17141594651e-23)
(-0.0215160555707 0.0633235202299 4.84437699956e-23)
(-0.0252597580778 0.0583151161031 -7.60128171123e-24)
(-0.0224939262677 0.0725911890106 9.35211436803e-23)
(-0.026556211932 0.0673769933992 6.50422044296e-23)
(-0.0232707957673 0.0822362759037 9.5236186749e-23)
(-0.0277014496391 0.076949441546 6.3390279727e-23)
(-0.0237746666765 0.0922142437525 3.56312632118e-22)
(-0.0285723947192 0.0869077044466 8.83564207022e-23)
(-0.0239604884606 0.102442729646 -1.03681388373e-22)
(-0.0291354622132 0.0971896291356 4.09958321485e-22)
(-0.0236265352594 0.112637838844 1.26379851168e-21)
(-0.0292062901364 0.10775196492 -4.41883670058e-22)
(-0.0227024243041 0.122562300255 2.25075732967e-21)
(-0.0285121403687 0.119182291558 2.34664159951e-21)
(-0.0218564053821 0.132874627338 -1.45450758084e-20)
(-0.0277002292716 0.127995320375 3.38269549931e-21)
(-0.0203073287547 0.143690347745 5.67688097012e-21)
(-0.0275704573101 0.146172927501 -1.31173821978e-20)
(-0.486116970597 0.154125768714 -3.87736738904e-20)
(-0.0236360998844 0.124496777914 2.76162304704e-20)
(-0.556597362102 0.893750768552 -6.84954484492e-20)
(-1.30024242413 0.481590439482 -5.24822580309e-20)
(-0.13990160243 1.31613732419 4.27632038683e-20)
(-0.0216210912642 0.00590395084828 -1.95613715426e-22)
(-0.024300867416 0.00333843650412 -7.72250428999e-23)
(-0.0221370661052 0.0118906157699 -7.22397025365e-23)
(-0.0249196450253 0.00858714900527 -2.99980548683e-22)
(-0.0226963803449 0.0180067511946 1.19759115157e-22)
(-0.0254428942028 0.014587364573 1.7736407767e-23)
(-0.02346944724 0.0243238280505 1.80751785868e-22)
(-0.0262016876371 0.0206950951118 1.57238868178e-22)
(-0.0244602214609 0.0309171071446 1.37815604495e-22)
(-0.0272227484973 0.0270359394611 1.52064799975e-22)
(-0.0256564721589 0.0378691122095 5.35085982887e-23)
(-0.028483897955 0.0336969013745 7.67865644018e-23)
(-0.027030102099 0.0453043379112 -2.96625402331e-23)
(-0.0299641930409 0.0407854170974 1.13028787613e-23)
(-0.0285388543209 0.0532936665901 -3.53612563695e-23)
(-0.031647384432 0.0484218673782 -4.7079089743e-23)
(-0.0301153951816 0.0621089338347 8.99715272274e-24)
(-0.0334198167187 0.056768559925 -6.65463439974e-24)
(-0.0316291640548 0.0715608704078 3.49113404762e-23)
(-0.0353213622921 0.0659141865278 2.61263411374e-23)
(-0.0329056199329 0.0814887794589 5.65105136802e-23)
(-0.03710034425 0.0757390806409 3.82458982169e-23)
(-0.0338276747062 0.0918025034716 1.42002110069e-22)
(-0.038485737716 0.0860386803321 9.47111313614e-23)
(-0.0342943175118 0.102488866272 7.17560397999e-23)
(-0.0395152401551 0.0967515748863 3.26418925833e-22)
(-0.0340227955215 0.113424392458 6.40959417768e-22)
(-0.0399353215609 0.107932349663 -6.04658039945e-23)
(-0.0329467476033 0.12448751967 3.47857976914e-21)
(-0.0394565151249 0.119966501778 4.06072625703e-22)
(-0.0321195863107 0.134841608193 4.81038910995e-21)
(-0.0380017826297 0.130368675731 1.92617885999e-21)
(-0.0278841504912 0.145996822467 8.82196730253e-21)
(-0.0387135956098 0.151835291767 -1.38701820889e-20)
(-0.642810407574 0.151279936374 1.39076463299e-20)
(-0.0289211000256 0.127883593917 1.0730245975e-20)
(-1.8893946795 -0.0613628687069 5.87763942866e-20)
(-1.08843076046 0.147628549878 2.08744139603e-19)
(-4.42114426557 0.104407569259 4.64632527685e-20)
(-0.0274828448027 0.00562603967347 -1.81591876156e-22)
(-0.0299710342067 0.00319540384336 4.12407227595e-23)
(-0.028117137455 0.0113578034494 -2.10004438379e-22)
(-0.0307017770234 0.008118505775 -3.46926418709e-22)
(-0.0288434282213 0.0172223197138 5.52161607881e-23)
(-0.031358917649 0.0138431590121 -3.30324508358e-23)
(-0.0298498728488 0.0232968484202 1.28551882285e-22)
(-0.0323205802507 0.0196690193245 1.12727147671e-22)
(-0.0311397952887 0.0296581278912 9.10357598819e-23)
(-0.033608214838 0.0257352914805 9.25121255997e-23)
(-0.0326934973457 0.0364018904705 3.45808448744e-23)
(-0.0352093101687 0.0321425973987 5.73575239235e-23)
(-0.0344866707817 0.0436396188986 -6.11367074865e-24)
(-0.0370932881242 0.0389980787251 1.12038509047e-23)
(-0.0364593417216 0.0515325101268 -1.83724677733e-23)
(-0.0392308415833 0.0464561003402 -1.46816267138e-23)
(-0.0385430503144 0.0602352141898 1.04745540149e-23)
(-0.041547946442 0.0546847800926 4.51625949841e-24)
(-0.0406636059229 0.069857712804 2.94608988781e-23)
(-0.0439387759207 0.063794582773 3.06282108793e-23)
(-0.0426081218857 0.0801639669883 7.64465158981e-23)
(-0.046432633072 0.0738070188341 3.19180693492e-23)
(-0.0441877826983 0.0908397216038 2.79127947126e-22)
(-0.0486764490532 0.0844580372426 1.6748645242e-22)
(-0.0452148393785 0.102110879298 1.94197082038e-22)
(-0.0504358151987 0.0956732199868 5.76936664336e-22)
(-0.0452787514385 0.11390102334 -2.9535259606e-22)
(-0.0514969146799 0.107692134863 1.20904406409e-22)
(-0.0439917055942 0.1257531053 -1.14632828345e-21)
(-0.0511864887288 0.120639285967 -1.12693924459e-22)
(-0.0426525900411 0.137250118791 -1.67543923388e-20)
(-0.0494501711056 0.133610570436 -3.49924610458e-21)
(-0.0365305298475 0.147448627126 -1.19619034163e-20)
(-0.0489018414429 0.15997108049 -2.0257441749e-20)
(-0.342251156893 0.159324263494 2.05566739248e-19)
(-0.0409450006856 0.13516388708 6.37221481714e-21)
(-0.566271130579 -0.677372075185 1.96430998085e-19)
(-0.252755839815 -0.347889847513 5.02293352052e-19)
(-2.21316413149 -1.78716862577 -4.73128390661e-20)
(-0.0330515124874 0.00528011917097 -1.24093819793e-22)
(-0.0353009539174 0.00302859779711 5.65175323745e-23)
(-0.033813752677 0.0106946401042 -1.69954431166e-22)
(-0.0361707561613 0.00754151914892 -1.79734543288e-22)
(-0.0347045873313 0.016235324289 2.44785360466e-23)
(-0.036952678393 0.0129253436304 2.36735479287e-24)
(-0.0359486582278 0.0219927954288 7.66873909853e-23)
(-0.0381195947547 0.0183976407705 1.05010413678e-22)
(-0.0375495020709 0.0280537879425 5.88338896412e-23)
(-0.0396828399517 0.0241176015289 1.16465645941e-22)
(-0.039488646611 0.0345246081203 3.39805299537e-23)
(-0.0416432323016 0.0301981704909 5.16072269941e-23)
(-0.0417340940582 0.0415153853653 2.63589493957e-24)
(-0.043962603366 0.0367545915124 1.6923725414e-23)
(-0.0442380645211 0.0492372045512 8.20710055798e-24)
(-0.0466150632805 0.0439568208542 7.65059566112e-24)
(-0.0469277085025 0.0578471410529 2.46699163629e-23)
(-0.0495504004462 0.0519940776509 -3.93229787128e-24)
(-0.049748071936 0.067371315373 3.30853813505e-23)
(-0.0527003485388 0.0609633051015 6.30001562197e-23)
(-0.0525288236342 0.0779769666195 1.22958005871e-22)
(-0.0559897931382 0.0710078189251 4.73205889337e-23)
(-0.0550219964337 0.0890198425181 4.6529516963e-22)
(-0.059212675002 0.0819263935396 2.52389980816e-22)
(-0.0569493047043 0.101012763532 5.03643988706e-22)
(-0.0620757610497 0.0936544304404 7.37441995931e-22)
(-0.0578337557274 0.113947007181 3.0356307801e-22)
(-0.0642181153922 0.106601786869 1.11500944648e-21)
(-0.0569777304367 0.127995282583 -2.46561174559e-21)
(-0.0651352296168 0.120678745584 1.69263046945e-21)
(-0.0558917614766 0.142503748548 -7.0022955148e-21)
(-0.0639282135543 0.136958449592 -3.33858078652e-21)
(-0.0565166753386 0.158408712925 -1.92332351557e-21)
(-0.0648047142805 0.168294935965 -1.98843046306e-20)
(-0.138468272772 0.188637327453 3.03098827621e-19)
(-0.0711862919447 0.1490491518 -3.03963826609e-21)
(0.323801720789 -0.0397271594301 2.58549514901e-19)
(-0.025770655982 0.0437482662591 1.16723754508e-19)
(6.53188979057 0.155488085261 1.86159380316e-19)
(-0.0382538826854 0.00486884230391 8.76808879457e-25)
(-0.0402220910214 0.00281137824841 7.20671940887e-23)
(-0.0391535177214 0.00988329027455 -7.41275732962e-24)
(-0.0412405080524 0.00687488060396 -1.6335030575e-22)
(-0.0402101658222 0.0150334282979 8.28992324245e-23)
(-0.0421551179567 0.011833807135 2.99659167038e-23)
(-0.0416981862684 0.020403493686 1.44788668634e-22)
(-0.0435284032234 0.0168751794685 1.1447762273e-22)
(-0.043622556683 0.0260931464844 1.09238983294e-22)
(-0.0453799319307 0.0221722626005 1.34650343265e-22)
(-0.0459712909087 0.0322049984931 3.45504224543e-23)
(-0.0477084346451 0.0278419450785 4.81797151722e-23)
(-0.0487152464571 0.0388742601483 2.19384261355e-23)
(-0.0505015867725 0.0340105423716 2.54649891078e-23)
(-0.051820114226 0.0463167795871 -4.48880276814e-24)
(-0.0537264296996 0.0408546111089 4.44950858578e-23)
(-0.0552440332651 0.0547075888882 3.43979419855e-23)
(-0.0573525294061 0.0485714960102 -3.96641485405e-23)
(-0.0589217643143 0.0640864714984 7.72353638028e-23)
(-0.061363774478 0.0572811931423 7.22695794794e-23)
(-0.062723974955 0.0747664693838 1.76752563878e-22)
(-0.0656618046453 0.0671852090459 9.87268460076e-23)
(-0.0664057598328 0.0861353502114 5.24536807117e-22)
(-0.0701167875904 0.0781924478888 3.52478461556e-22)
(-0.0696357416334 0.0987808919035 1.3488074537e-21)
(-0.0744169161653 0.0903167704235 7.29665699958e-22)
(-0.0719922101742 0.112932525486 2.50407683792e-21)
(-0.078207861753 0.104048829583 1.7550449745e-21)
(-0.0726523751819 0.128957523068 8.19661428524e-22)
(-0.0811059037776 0.119228937763 5.62954467846e-21)
(-0.0735236903668 0.146697897471 -1.62205899023e-20)
(-0.0816664782724 0.138496950809 2.33362080016e-21)
(-0.0758311804056 0.167584820559 -2.10006193811e-20)
(-0.0856984572366 0.174099597257 -3.89431625614e-20)
(0.137118883835 0.176965015292 -1.89414711379e-19)
(-0.0805797387106 0.16106669604 -2.99232164105e-20)
(1.22562029866 -0.29020459507 4.4333619923e-20)
(0.440649746743 0.639851012555 -3.10263732263e-19)
(-0.0378911357356 2.63763423899 2.19863301829e-19)
(-0.0430150159146 0.00439525390455 -9.21599205405e-23)
(-0.0446681559984 0.00254090463266 -1.18165118119e-23)
(-0.0440567872501 0.00893893442986 -1.25971631716e-22)
(-0.0458367136421 0.00611684622524 -2.61842596383e-22)
(-0.0452863964576 0.0136190394488 6.15443070095e-23)
(-0.046884616997 0.0105646368874 -3.10570856539e-23)
(-0.0470244901351 0.0185220260931 1.04339297361e-22)
(-0.0484681904718 0.0150966601709 9.78528087616e-23)
(-0.0492858395246 0.0237502267884 7.35910751431e-23)
(-0.0506162990176 0.0198860031419 8.40745747651e-23)
(-0.0520664383613 0.0294179013896 3.90942818257e-23)
(-0.0533340229995 0.0250518449692 1.32494300045e-23)
(-0.0553519506618 0.0356596228976 4.80216488301e-23)
(-0.0566268074822 0.0307234557688 7.28657379841e-23)
(-0.0591264298001 0.0426969282685 9.31974008546e-24)
(-0.0604728806505 0.0370818400794 2.61781322236e-23)
(-0.0633736468441 0.0507177876648 -1.79251104663e-24)
(-0.0648801673418 0.0443247697439 -9.9192673493e-24)
(-0.0680527031056 0.05979881468 9.37610616841e-23)
(-0.0698495073213 0.0525955432953 3.53255050301e-23)
(-0.0730782457638 0.0703021350324 2.74452743685e-22)
(-0.0753240162386 0.0621364744592 9.48916720264e-23)
(-0.0782458693579 0.0817933015292 5.57607354397e-22)
(-0.0812437092688 0.0729687160124 3.17101226647e-22)
(-0.08323946083 0.0949028145264 1.13590322075e-21)
(-0.0873110236133 0.085211966026 5.81366018351e-22)
(-0.0876964219305 0.110030794403 4.88051281503e-21)
(-0.09324958229 0.0994173299867 1.238316178e-21)
(-0.0908609866437 0.127698885751 7.14350405009e-21)
(-0.0987754393464 0.115400765144 5.40861944235e-21)
(-0.0950257247241 0.148860262259 -2.03889518589e-20)
(-0.102854783778 0.136692054024 1.87744894547e-21)
(-0.0937634445377 0.174351622698 -4.78657595907e-20)
(-0.111204658874 0.176347829986 -2.08720060839e-20)
(-0.0989629248639 0.193927188642 -1.50772237295e-19)
(-0.100098439706 0.165879302064 -1.84433393085e-20)
(-0.642792231333 1.24132327541 -1.34734050358e-19)
(-0.607888493604 0.561470096389 -1.1616203057e-19)
(-2.82380080414 3.15705450803 1.49494787136e-20)
(-0.0472665620661 0.00386044063564 -1.81499187654e-22)
(-0.0485738794012 0.00223150215119 -1.22402320055e-22)
(-0.0484491379615 0.00785460639239 -1.66928050321e-22)
(-0.0498772878001 0.00525430422098 -3.73947771532e-22)
(-0.0498517624573 0.0119870018069 5.25141609818e-24)
(-0.0510616867954 0.00911823820486 -1.20051686616e-22)
(-0.0518441833745 0.0163393572112 7.75880861658e-23)
(-0.0528566040105 0.0130589771906 4.81689347321e-23)
(-0.0544537088323 0.0210119020434 2.37329296265e-23)
(-0.0553034715059 0.017248638091 6.08730732658e-23)
(-0.0576881561772 0.0261276971851 4.70208861629e-23)
(-0.0584263472272 0.0218064722852 2.16763931019e-23)
(-0.0615493237112 0.0318177198466 5.10222213776e-23)
(-0.0622344703991 0.0268596999805 6.08928765583e-23)
(-0.0660478806968 0.0383033311998 6.93912478885e-24)
(-0.0667467527398 0.0325832295752 -9.02785355248e-24)
(-0.071202306669 0.0457581935248 2.71987487274e-23)
(-0.0719799453682 0.039168655418 -2.96641369382e-23)
(-0.0770055547172 0.0543195982597 3.64561153724e-23)
(-0.0780004606662 0.0467806627359 1.69120165176e-23)
(-0.0834243529915 0.0643729500667 1.37540154988e-22)
(-0.0847800576845 0.055688258585 5.20454328642e-23)
(-0.0903111880243 0.0756810183629 3.408598906e-22)
(-0.0923211251216 0.0660221216562 2.15853473117e-22)
(-0.0974160544119 0.0888656233476 6.83778975603e-22)
(-0.100386126584 0.0779983607441 3.14107615268e-22)
(-0.104491349988 0.10441870038 1.76642280532e-21)
(-0.108793650243 0.0921814714886 7.25209514888e-22)
(-0.110928770134 0.122983353519 1.42564337725e-22)
(-0.11738732883 0.108400132936 1.8168410682e-21)
(-0.118961206893 0.145417985519 1.39439472048e-21)
(-0.125332374366 0.130672822784 -4.53152683578e-22)
(-0.115206383312 0.172099030589 8.55041419838e-21)
(-0.137899292061 0.173338424409 -7.90198653892e-21)
(-0.262015950179 0.189307312453 1.61668674158e-20)
(-0.117467325684 0.160851914548 7.569004382e-21)
(-3.02759766204 0.158026813644 3.35214985007e-20)
(-0.576661088293 -0.10356311951 6.39117410344e-19)
(-10.9993496719 -3.56359233921 8.24623508839e-20)
(-0.0509336212988 0.00325636846119 -3.14850903932e-22)
(-0.0518667426513 0.00188864783267 -1.20618441159e-22)
(-0.0522486717263 0.00662951869795 -3.27071407828e-22)
(-0.0532883318512 0.00429397528955 -2.77539302442e-22)
(-0.0538241939146 0.0101390009839 -7.7134167982e-23)
(-0.0546101243576 0.00749534934034 -9.70030353012e-23)
(-0.056068746637 0.0138538851575 3.14539218322e-23)
(-0.0566078181787 0.0107653252147 4.9120512873e-23)
(-0.0590259071296 0.017873514401 5.88165367412e-23)
(-0.0593488068538 0.0142615190465 5.3384454718e-23)
(-0.0627222501936 0.0223124612126 3.55483834973e-23)
(-0.0628679763172 0.0180982401051 5.85735447427e-23)
(-0.067179861968 0.0273120779319 8.42801628246e-25)
(-0.0671996386654 0.022398512414 3.95273096088e-24)
(-0.0724361332635 0.0330637259258 -4.56311152795e-23)
(-0.0723808316726 0.0273246731534 -4.61426183413e-24)
(-0.0785440916725 0.0397549963971 -3.99508691481e-23)
(-0.0784818884002 0.0330550124682 1.43673617062e-25)
(-0.085549333989 0.0475346574947 3.25013340093e-23)
(-0.0855624550106 0.0397601189557 5.26375987703e-23)
(-0.0934741245144 0.0567977070735 1.30358750993e-22)
(-0.0937222137025 0.0477296381647 5.48336470746e-23)
(-0.102234608597 0.0675401584636 1.89101197785e-22)
(-0.102965604953 0.0571986033358 2.09668121394e-22)
(-0.111668616373 0.0803508812704 3.55538154553e-22)
(-0.113178694514 0.0684633461747 7.50095794367e-23)
(-0.121655721678 0.0957647136721 7.75627777769e-22)
(-0.124248540176 0.0821032017606 4.05541830707e-22)
(-0.131680398132 0.114521635791 1.2211240469e-21)
(-0.136203713586 0.0980255851699 -1.07980164548e-21)
(-0.143617291989 0.137384527421 -9.74953394298e-21)
(-0.148227327391 0.120918018398 4.70411395824e-21)
(-0.144259379633 0.163658217705 -8.88339635529e-21)
(-0.164175682973 0.166322360073 -1.39410780755e-20)
(-0.0700931294542 0.204742755285 6.3051954731e-19)
(-0.15881903726 0.157863521566 1.32417693034e-20)
(-0.0292726984619 -0.581717439989 6.88058262727e-19)
(0.209384884957 -0.238100577037 6.87241067494e-19)
(10.0408300382 -3.15095384943 8.07959592293e-20)
(-0.0539453671573 0.00256648560239 -8.33068396685e-23)
(-0.0544592576698 0.00151250846587 3.70551322471e-23)
(-0.055387967329 0.00526761743824 -4.74709299154e-23)
(-0.0560179923218 0.00324063828951 -1.20643412233e-22)
(-0.0571274121398 0.00808117261189 2.92516455539e-23)
(-0.0574568448996 0.00570673417764 -8.34451252356e-24)
(-0.0596113474559 0.0110721322002 7.10510457589e-23)
(-0.0596364111231 0.00822860428706 7.30583949886e-23)
(-0.0628992193478 0.0143360814456 5.31414627194e-23)
(-0.062651081594 0.0109403374518 7.11199379559e-23)
(-0.0670403095232 0.0179761902387 2.69778922062e-23)
(-0.066540253801 0.0139429993936 3.64666187656e-23)
(-0.0720833866359 0.0221262540913 -1.5043325015e-24)
(-0.0713647772227 0.0173502903407 1.94940608259e-23)
(-0.0780959447181 0.0269622994778 4.11605270625e-23)
(-0.0771955602777 0.0213077045949 3.96176576086e-23)
(-0.0851628732959 0.0326509207083 9.27321415355e-23)
(-0.0841241707484 0.0259777074458 7.25427165353e-23)
(-0.0933743593633 0.0394170627031 7.49699118356e-23)
(-0.092280439643 0.0315297650215 1.24362383635e-22)
(-0.102826262038 0.0475198362533 1.34143017475e-22)
(-0.10173798957 0.0382412298041 -3.47488371641e-23)
(-0.113530256053 0.0572506440237 9.55765030454e-23)
(-0.112693237465 0.0464311211088 2.32908855667e-22)
(-0.125435892718 0.0691544782889 1.25013255591e-22)
(-0.125109120221 0.0564733632521 7.12724846204e-23)
(-0.138628589921 0.0839138620685 -1.44988759254e-21)
(-0.139045415607 0.0689570938068 4.66748963655e-22)
(-0.15291285772 0.102563536964 2.40318826586e-21)
(-0.154872697687 0.0838906362511 -1.37395505721e-21)
(-0.170130187677 0.126787931813 5.12569825688e-22)
(-0.172437234161 0.106076331025 3.49748672129e-21)
(-0.180169338978 0.158616345549 8.18408758313e-21)
(-0.19598972513 0.151977114265 -2.10691988825e-20)
(0.0474617310193 0.200359466319 6.99632894873e-20)
(-0.200269261064 0.152308364594 9.70249509602e-21)
(2.67164052862 0.251513192907 7.99787639964e-20)
(0.157761899675 0.18040734168 1.68652798722e-20)
(1.10281392604 2.72486070489 1.06553952833e-19)
(-0.0562382230619 0.00184359711917 -2.81440317853e-25)
(-0.0563187222784 0.00110538134557 1.29041469479e-22)
(-0.0577966946537 0.00378774243482 -8.15169948416e-23)
(-0.0579821302581 0.00210450085767 -2.98637021517e-22)
(-0.0596772262345 0.00582491589306 3.54622369112e-23)
(-0.0595224136486 0.00377518627289 -7.8476801111e-23)
(-0.0623737360842 0.0080175031362 7.31272871857e-23)
(-0.061868471714 0.00547605436061 2.32606779248e-23)
(-0.0659600365261 0.0104238969239 5.44450940021e-23)
(-0.0651080684211 0.00731758968223 9.89707826993e-23)
(-0.0705052939012 0.0131445712352 2.89827873853e-23)
(-0.0693182936426 0.00938123484205 3.46482968608e-23)
(-0.0760824805472 0.0162940017876 6.06160509359e-23)
(-0.0745713638046 0.0117658310093 2.00654466889e-23)
(-0.0827933855971 0.0200177125379 7.09998470814e-23)
(-0.0809696457945 0.0145900615683 7.3503828139e-23)
(-0.0907632296892 0.0244808310984 1.04172958634e-22)
(-0.0886423065891 0.0179949449629 1.43805639099e-22)
(-0.100116294824 0.0298815583286 1.4643634635e-23)
(-0.0977338187724 0.0221524536034 1.3307460243e-22)
(-0.111024359252 0.0365279006668 6.40170010281e-23)
(-0.108445909795 0.0272920951816 -4.44911908189e-23)
(-0.123630913069 0.0447724242418 2.08604837242e-22)
(-0.120966767357 0.0337630991799 3.61500763726e-22)
(-0.13805516209 0.0551508804018 4.13008192684e-22)
(-0.135493143066 0.0419830072738 1.22451794001e-22)
(-0.154656995813 0.06843049908 5.42681498992e-22)
(-0.152291979724 0.0525093780553 9.14216738181e-22)
(-0.173694509085 0.0857274685584 -2.79656601774e-22)
(-0.172091839285 0.0654988760321 1.96297444017e-21)
(-0.197273215522 0.107376665424 -1.80842819869e-20)
(-0.19399239875 0.0844036344123 3.87516257737e-21)
(-0.214193142168 0.137451766303 -1.95507913696e-20)
(-0.226017097096 0.127301735269 -3.91296141389e-20)
(-0.0385700314179 0.17336413361 -4.33955145191e-20)
(-0.236054985994 0.130562582399 -9.07142462893e-21)
(0.318872000441 0.31028626625 4.34404687085e-20)
(0.0203809241426 0.170105734716 -8.405834274e-20)
(-0.528832941478 0.661503941599 -6.15773029312e-20)
(-0.0577530989104 0.0010539918425 -1.6931411172e-22)
(-0.0573805683411 0.000672912165034 4.01953854516e-23)
(-0.0594091029442 0.00220117391307 -2.95596827786e-22)
(-0.0591430848011 0.000903124707855 -4.0918036745e-22)
(-0.061401881578 0.00341177538225 -9.06783600973e-23)
(-0.0607583331214 0.00172966731847 -2.30165403134e-22)
(-0.064270392197 0.00472462561148 4.91041734385e-23)
(-0.0632228292945 0.00254878447923 -6.11380090472e-23)
(-0.068100104284 0.00618597590045 7.9173985558e-23)
(-0.0666288822042 0.00344968353791 6.47077324821e-23)
(-0.0729740940848 0.00787533422526 2.57309561644e-23)
(-0.071082629465 0.00448924861803 4.01986708419e-23)
(-0.0789946211418 0.00988343935976 3.2953223892e-23)
(-0.0766621712165 0.00573738061296 2.8289012312e-23)
(-0.0862901310941 0.0123272321696 1.46309620157e-22)
(-0.083503687349 0.00728694582851 8.71617310509e-24)
(-0.0950208651757 0.015356420277 1.72707282895e-22)
(-0.0917588135606 0.00925073547987 1.64495736819e-22)
(-0.105370996888 0.0191491591551 7.39397769761e-23)
(-0.101609234246 0.0117762883925 1.22948027705e-22)
(-0.117567654178 0.0239403429977 2.52992571879e-22)
(-0.113330814294 0.0150501534499 -1.50072848442e-23)
(-0.131882429482 0.0301684368552 2.75347720486e-22)
(-0.127184532528 0.0193836383036 3.01958400591e-22)
(-0.14863337731 0.0382908725973 6.23660339499e-22)
(-0.143530549533 0.0251637229306 -1.51653320255e-22)
(-0.168432197021 0.0489866798114 2.33450967936e-21)
(-0.162821892413 0.0328661541646 9.2790142522e-22)
(-0.191263873547 0.0631677221797 6.11779361931e-21)
(-0.186050771894 0.042675838342 2.3362417204e-21)
(-0.221221280719 0.0821115983395 -1.71701695746e-20)
(-0.212733101201 0.056252535701 1.13092483309e-20)
(-0.245450827812 0.106988688707 -2.86502473982e-20)
(-0.250802661742 0.0944357418309 -1.08601320689e-21)
(-0.197378295813 0.138827396227 -4.97342528498e-20)
(-0.267718726088 0.0988294081413 2.59837591301e-21)
(-0.28589703423 0.342475237436 -1.8907611438e-19)
(-0.183816075165 0.0871808228037 -2.66895439592e-20)
(-1.05473715762 0.320334507374 -4.60803780817e-19)
(-0.0584510683066 0.000245693015726 -1.99670870278e-22)
(-0.0576293881872 0.000224701896574 -7.04658003113e-23)
(-0.0601791599928 0.000547456405026 -3.43748942797e-22)
(-0.0594553481612 -0.000340492231498 -4.27579165981e-22)
(-0.0622489324023 0.000877834468466 -2.00625052083e-22)
(-0.061112812358 -0.000393118951524 -2.59263523518e-22)
(-0.0652298814748 0.00125314307981 -4.55344500035e-23)
(-0.0636409910489 -0.000493412032931 -1.27386960775e-22)
(-0.0692221970341 0.00170909504053 2.57324177661e-23)
(-0.0671484095138 -0.000581428599138 -3.6269546921e-23)
(-0.0743228580682 0.00228035277383 4.27567269895e-23)
(-0.0717339321573 -0.000626947994918 1.59211524505e-23)
(-0.0806524862089 0.00304132845261 4.05196152505e-24)
(-0.0775116783275 -0.000596631070477 2.96545831548e-23)
(-0.088362717569 0.00405432673393 2.69022897672e-23)
(-0.084611482541 -0.000429412252447 -2.82234953365e-23)
(-0.0976414947411 0.00545102579643 1.1473648163e-22)
(-0.0932317269006 -4.08373344342e-05 6.26355129163e-23)
(-0.108731427464 0.00738717752039 3.40009658852e-23)
(-0.103575293004 0.000660049530318 1.3545290954e-22)
(-0.121927555337 0.0100185999243 3.39585438677e-23)
(-0.115979825485 0.00180972589818 -2.28197832403e-23)
(-0.137593183834 0.0137452416334 -1.25042640149e-22)
(-0.130762839549 0.00365055968014 1.48536804949e-22)
(-0.156202130767 0.0188904240439 1.52587765466e-22)
(-0.148385268462 0.00646351935683 -3.00496887327e-22)
(-0.17854508098 0.0259961790206 9.29633466253e-22)
(-0.169487443621 0.0105646447117 2.93913909698e-22)
(-0.204919590982 0.0356051108028 7.52769643195e-21)
(-0.195141041299 0.0159236298199 -7.38976979685e-23)
(-0.238825260245 0.0483619906044 2.73934046986e-20)
(-0.225025018073 0.0230898406788 9.59712870743e-21)
(-0.269357381065 0.0638589143467 3.01626101044e-20)
(-0.266079621238 0.055540378748 1.1215842954e-20)
(-0.198183279247 0.0888032436732 2.56430848036e-20)
(-0.292565368349 0.0628902694321 1.26534783969e-20)
(-0.719868966474 0.0869216040957 -2.98417210396e-19)
(-0.180903620204 0.00199256208263 -1.8241886262e-19)
(-2.01163887401 1.27063657587 -6.76185254045e-19)
(-0.0583096026826 -0.000607344304381 -2.98374096014e-22)
(-0.0570237919504 -0.000229740555774 -4.69813739191e-23)
(-0.0600786958232 -0.00115887151672 -3.43093746702e-22)
(-0.0589137166571 -0.00159822747444 -2.4421775017e-22)
(-0.0621759005938 -0.00172652389172 -1.8602543221e-22)
(-0.0605691438464 -0.0025427654526 -1.36086876745e-22)