/*--------------------------------*- C++ -*----------------------------------*\
| =========                 |                                                 |
| \\      /  F ield         | OpenFOAM: The Open Source CFD Toolbox           |
|  \\    /   O peration     | Version:  v2012                                 |
|   \\  /    A nd           | Website:  www.openfoam.com                      |
|    \\/     M anipulation  |                                                 |
\*---------------------------------------------------------------------------*/
FoamFile
{
    version     2.0;
    format      ascii;
    class       volScalarField;
    location    "3.7";
    object      nut;
}
// * * * * * * * * * * * * * * * * * * * * * * * * * * * * * * * * * * * * * //

dimensions      [0 2 -1 0 0 0 0];


internalField   nonuniform List<scalar> 
164
(
0.000459849431274
0.000695656197265
0.000772924751623
0.000868005788
0.00099217928221
0.00123661500194
0.0019070384909
0.00302197159319
0.000480989591132
0.000745173736852
0.000828463279645
0.000913871588969
0.00102235500838
0.00124364032641
0.00187821298928
0.0031445663496
0.000481074080096
0.00074537942774
0.00082876123799
0.000914451233217
0.00102569275983
0.00124743673932
0.00177016205514
0.00272051762285
0.000459883715119
0.000695760443757
0.000773283228388
0.000869040631799
0.000993520146098
0.00123958854093
0.00191098959076
0.00299908910123
0.00072361133208
0.000822579467351
0.000958842964999
0.00122218216327
0.00196049506662
0.00306272668589
0.000706361499782
0.000796187859819
0.000941077768548
0.001238481198
0.00196859800091
0.00305396308289
0.000696287955222
0.000779422778548
0.000937853268688
0.00128168816182
0.00198845781119
0.00305384357351
0.000688851295864
0.000766652696809
0.000924461387481
0.00129038765025
0.00207198435863
0.00307189135464
0.000684596544187
0.000758340354937
0.000910490077514
0.00126427718358
0.00206610395645
0.00307965457069
0.000683916525768
0.000754345604754
0.000896429965172
0.00122508613864
0.00201734333573
0.00307673009293
0.000687187050045
0.000756021291197
0.000890198941812
0.001210254125
0.00200178874205
0.00307455850019
0.000692622158993
0.000761522099497
0.0008912487093
0.00121036475853
0.00199288401989
0.0030751965438
0.000696530958947
0.000764720416864
0.000886154483783
0.00119379551489
0.00202995337766
0.00309226590084
0.000696925789636
0.000764768606888
0.000879399940276
0.00115827236022
0.00200766840219
0.00314520239301
0.000695851474997
0.000763520153836
0.000874868998883
0.0011264060058
0.00198344280097
0.00315167671064
0.000695005406502
0.000762357772172
0.000873636837373
0.00111114860879
0.00191059118872
0.00311248772551
0.000693138671977
0.000758765023654
0.000870699290682
0.00109731921273
0.00170584424798
0.0030634097177
0.000689126689701
0.000751989612004
0.000864931908282
0.00109430336212
0.00165251041155
0.00259474134826
0.000683313363395
0.000743527112475
0.000860688115288
0.00109058607262
0.00162745844733
0.00261190611717
0.000677655929996
0.000736403105578
0.000861328378767
0.0010894140472
0.00150803929598
0.00222367757309
0.000673817074577
0.00073255388983
0.00086809129331
0.0011150202213
0.00148199424561
0.00216146263017
0.000672143620782
0.00073175998939
0.000877904759957
0.00115961260842
0.00160830483849
0.00250145364569
0.000671888333276
0.000732363369474
0.000886460959405
0.00119786699185
0.00176093815499
0.00294228665256
0.000672337971126
0.000734138508583
0.000896266335512
0.00122521887587
0.00175674842482
0.00255984866174
0.000911096832783
0.00125152037732
0.0017423925764
0.0025132124361
0.000931189604148
0.00128260467588
0.00172993557734
0.00216137973123
0.000951208935279
0.00131145764009
0.00177066591499
0.00216924568554
)
;

boundaryField
{
    back
    {
        type            nutkWallFunction;
        blending        stepwise;
        Cmu             0.09;
        kappa           0.41;
        E               9.8;
        value           nonuniform List<scalar> 
164
(
6.36900909262e-05
7.13113680448e-05
7.86173357016e-05
8.76674593017e-05
9.87601138105e-05
0.000117137551859
0.00016751915387
0.000342723482279
6.62806788595e-05
7.60918959285e-05
8.40507442481e-05
9.21691295183e-05
0.000101593400017
0.000117714647179
0.000160684076068
0.000325866635633
6.62905480748e-05
7.61063033207e-05
8.40586676426e-05
9.21843716693e-05
0.000101723231235
0.000117843639541
0.000156089809755
0.000293944738229
6.3693536645e-05
7.1323881638e-05
7.86482941135e-05
8.77190227406e-05
9.87500309268e-05
0.000116627499842
0.000163591403679
0.00033918245945
7.40814699871e-05
8.33813717624e-05
9.56119065511e-05
0.000115292702362
0.000167858172347
0.000342717849668
7.26849204375e-05
8.09546758679e-05
9.36505853906e-05
0.000115909972083
0.000172306938407
0.000344621050834
7.18082760939e-05
7.93158998597e-05
9.27301747421e-05
0.000118866943904
0.000179327439058
0.000345282879587
7.11419960603e-05
7.81095305166e-05
9.13811330739e-05
0.000118119161902
0.000180766309084
0.000345775250122
7.07706125094e-05
7.73779362263e-05
9.02682722359e-05
0.000116210259182
0.000178401045322
0.000345489662236
7.07443723371e-05
7.71167588896e-05
8.93746240524e-05
0.000113989477706
0.000175029177063
0.000344879480303
7.10877810579e-05
7.73782605268e-05
8.90129021907e-05
0.000112959524222
0.000175116316701
0.000344837537569
7.16269370992e-05
7.79463648755e-05
8.90530785876e-05
0.000112373655886
0.000174090829943
0.000344559497647
7.20170978646e-05
7.83275433739e-05
8.87824263932e-05
0.000110458061071
0.000171639907476
0.000342986777496
7.20618754875e-05
7.83852865988e-05
8.84616114743e-05
0.00010820986583
0.00016587733828
0.000337714839639
7.19940071975e-05
7.8362209165e-05
8.84346490201e-05
0.000107241042741
0.00016126596836
0.000335583902227
7.19687689694e-05
7.83547438404e-05
8.86604614265e-05
0.000108065376885
0.000161030384756
0.000335812760374
7.18441175967e-05
7.81009801364e-05
8.85268858965e-05
0.000108486290557
0.000156574904095
0.000320466345525
7.14703606829e-05
7.74875604221e-05
8.8095209775e-05
0.000108672429194
0.00015604483444
0.000314085454305
7.09157743617e-05
7.67130055885e-05
8.79062938596e-05
0.000109128057455
0.000153222589744
0.000307224291102
7.03799989174e-05
7.60731848282e-05
8.82197538297e-05
0.000110297133054
0.000145244297275
0.000256721050506
7.00294662147e-05
7.5749409672e-05
8.90264174836e-05
0.000113558861573
0.000147712086603
0.000262719497179
6.98908440431e-05
7.57081142364e-05
9.00045638291e-05
0.000117765965218
0.000160936281594
0.000301808160481
6.98837128903e-05
7.57786266352e-05
9.07905153257e-05
0.000121137348868
0.000173196098746
0.00034095612891
6.99357169557e-05
7.59376162731e-05
9.16860048135e-05
0.000123994495305
0.000178178207399
0.000321554732297
9.30836607428e-05
0.000126885021917
0.000181522001984
0.000303042327433
9.49908725184e-05
0.000130009701584
0.000187318787909
0.000279863588294
9.6895084176e-05
0.000132602414206
0.000196838118852
0.00028868554203
)
;
    }
    sides
    {
        type            nutkWallFunction;
        blending        stepwise;
        Cmu             0.09;
        kappa           0.41;
        E               9.8;
        value           nonuniform List<scalar> 0();
    }
    bottom
    {
        type            nutkWallFunction;
        blending        stepwise;
        Cmu             0.09;
        kappa           0.41;
        E               9.8;
        value           nonuniform List<scalar> 0();
    }
    front
    {
        type            nutkWallFunction;
        blending        stepwise;
        Cmu             0.09;
        kappa           0.41;
        E               9.8;
        value           nonuniform List<scalar> 
164
(
6.36900909262e-05
7.13113680448e-05
7.86173357016e-05
8.76674593017e-05
9.87601138105e-05
0.000117137551859
0.00016751915387
0.000342723482279
6.62806788595e-05
7.60918959285e-05
8.40507442481e-05
9.21691295183e-05
0.000101593400017
0.000117714647179
0.000160684076068
0.000325866635633
6.62905480748e-05
7.61063033207e-05
8.40586676426e-05
9.21843716693e-05
0.000101723231235
0.000117843639541
0.000156089809755
0.000293944738229
6.3693536645e-05
7.1323881638e-05
7.86482941135e-05
8.77190227406e-05
9.87500309268e-05
0.000116627499842
0.000163591403679
0.00033918245945
7.40814699871e-05
8.33813717624e-05
9.56119065511e-05
0.000115292702362
0.000167858172347
0.000342717849668
7.26849204375e-05
8.09546758679e-05
9.36505853906e-05
0.000115909972083
0.000172306938407
0.000344621050834
7.18082760939e-05
7.93158998597e-05
9.27301747421e-05
0.000118866943904
0.000179327439058
0.000345282879587
7.11419960603e-05
7.81095305166e-05
9.13811330739e-05
0.000118119161902
0.000180766309084
0.000345775250122
7.07706125094e-05
7.73779362263e-05
9.02682722359e-05
0.000116210259182
0.000178401045322
0.000345489662236
7.07443723371e-05
7.71167588896e-05
8.93746240524e-05
0.000113989477706
0.000175029177063
0.000344879480303
7.10877810579e-05
7.73782605268e-05
8.90129021907e-05
0.000112959524222
0.000175116316701
0.000344837537569
7.16269370992e-05
7.79463648755e-05
8.90530785876e-05
0.000112373655886
0.000174090829943
0.000344559497647
7.20170978646e-05
7.83275433739e-05
8.87824263932e-05
0.000110458061071
0.000171639907476
0.000342986777496
7.20618754875e-05
7.83852865988e-05
8.84616114743e-05
0.00010820986583
0.00016587733828
0.000337714839639
7.19940071975e-05
7.8362209165e-05
8.84346490201e-05
0.000107241042741
0.00016126596836
0.000335583902227
7.19687689694e-05
7.83547438404e-05
8.86604614265e-05
0.000108065376885
0.000161030384756
0.000335812760374
7.18441175967e-05
7.81009801364e-05
8.85268858965e-05
0.000108486290557
0.000156574904095
0.000320466345525
7.14703606829e-05
7.74875604221e-05
8.8095209775e-05
0.000108672429194
0.00015604483444
0.000314085454305
7.09157743617e-05
7.67130055885e-05
8.79062938596e-05
0.000109128057455
0.000153222589744
0.000307224291102
7.03799989174e-05
7.60731848282e-05
8.82197538297e-05
0.000110297133054
0.000145244297275
0.000256721050506
7.00294662147e-05
7.5749409672e-05
8.90264174836e-05
0.000113558861573
0.000147712086603
0.000262719497179
6.98908440431e-05
7.57081142364e-05
9.00045638291e-05
0.000117765965218
0.000160936281594
0.000301808160481
6.98837128903e-05
7.57786266352e-05
9.07905153257e-05
0.000121137348868
0.000173196098746
0.00034095612891
6.99357169557e-05
7.59376162731e-05
9.16860048135e-05
0.000123994495305
0.000178178207399
0.000321554732297
9.30836607428e-05
0.000126885021917
0.000181522001984
0.000303042327433
9.49908725184e-05
0.000130009701584
0.000187318787909
0.000279863588294
9.6895084176e-05
0.000132602414206
0.000196838118852
0.00028868554203
)
;
    }
    atmosphere
    {
        type            calculated;
        value           nonuniform List<scalar> 
27
(
0.009
0.009
0.009
0.009
0.009
0.009
0.009
0.009
0.009
0.009
0.009
0.009
0.009
0.009
0.009
0.009
0.009
0.00259474134826
0.00261190611717
0.00222367757309
0.00216146263017
0.00250145364569
0.009
0.00255984866174
0.0025132124361
0.00216137973123
0.00216924568554
)
;
    }
    floatingObject
    {
        type            nutkWallFunction;
        blending        stepwise;
        Cmu             0.09;
        kappa           0.41;
        E               9.8;
        value           nonuniform List<scalar> 4(3.38605075337e-05 3.52437375538e-05 3.52490064778e-05 3.38623475991e-05);
    }
    procBoundary6to3
    {
        type            processor;
        value           nonuniform List<scalar> 8(0.00061421090523 0.000658968442838 0.000722725318371 0.000820870717512 0.000957535755057 0.00121888996228 0.00192898102787 0.00306132281535);
    }
    procBoundary6to7
    {
        type            processor;
        value           nonuniform List<scalar> 
11
(
0.000655006667829
0.000652543484916
0.00065082056441
0.000649987028756
0.000649775105337
0.000649865539713
0.000673379786787
0.000738202263949
0.000738202263949
0.000745291713098
0.000753721671322
)
;
    }
    procBoundary6to8
    {
        type            processor;
        value           nonuniform List<scalar> 
16
(
0.000614366739844
0.000659228217575
0.000659228217575
0.000656169788686
0.000656554484617
0.000655122917373
0.000653969969214
0.000654111724405
0.000655936262874
0.000658741698726
0.00066080067279
0.000660874624447
0.000660172858654
0.0006597904678
0.000659132166415
0.000657487191425
)
;
    }
    procBoundary6to9
    {
        type            processor;
        value           nonuniform List<scalar> 4(0.000967140170463 0.00133108159442 0.00179222371127 0.00221388595909);
    }
}


// ************************************************************************* //
