/*--------------------------------*- C++ -*----------------------------------*\
| =========                 |                                                 |
| \\      /  F ield         | OpenFOAM: The Open Source CFD Toolbox           |
|  \\    /   O peration     | Version:  v2012                                 |
|   \\  /    A nd           | Website:  www.openfoam.com                      |
|    \\/     M anipulation  |                                                 |
\*---------------------------------------------------------------------------*/
FoamFile
{
    version     2.0;
    format      ascii;
    class       volScalarField;
    location    "1";
    object      alpha.water;
}
// * * * * * * * * * * * * * * * * * * * * * * * * * * * * * * * * * * * * * //

dimensions      [0 0 0 0 0 0 0];


internalField   nonuniform List<scalar> 
1984
(
1.00000006715
1.0000000736
1.00000007202
1.00000006936
1.00000007777
1.00000012801
1.00000018208
1.00000023089
1.00000026646
1.00000024073
1.00000027055
1.00000027281
1.00000020731
1
0.999999999862
0.999999990042
0.999999623433
0.980708495605
0.371361620342
0
1.00000007537
1.00000008032
1.00000007785
1.00000007358
1.00000008042
1.00000012938
1.00000019336
1.00000023258
1.00000033546
1.00000026945
1.00000028948
1.000000286
1.0000002119
1
0.999999999854
0.999999988254
0.999999567564
0.980683425518
0.37611859483
-5.02502302401e-25
1.00000008078
1.00000008539
1.00000008131
1.00000007508
1.00000007804
1.00000011966
1.00000016875
1.00000029091
1.00000029868
1.00000034394
1.00000030734
1.00000029094
1.00000020721
1
0.999999999845
0.99999998842
0.999999571765
0.980007057421
0.371595986991
-3.19462171447e-26
1.00000008605
1.00000009016
1.00000008385
1.00000007375
1.00000006922
1.00000009661
1.00000017041
1.00000026543
1.0000004694
1.00000036009
1.000000342
1.00000029057
1.00000019835
1
0.999999999847
0.99999998846
0.999999569841
0.979026532209
0.367153523208
-1.14735289456e-27
1.00000009243
1.00000009579
1.00000008677
1.00000007229
1.00000006017
1.00000007007
1.00000013006
1.00000024727
1.00000039433
1.00000051987
1.00000040614
1.00000028059
1.0000001809
1
0.999999999848
0.999999988609
0.999999569676
0.977867334207
0.361804139736
-3.59204879536e-29
1.00000010016
1.00000010251
1.00000009045
1.0000000716
1.00000005427
1.00000005304
1.00000009663
1.00000020813
1.00000033091
1.00000041938
1.00000041244
1.00000026125
1.00000016073
1
0.999999999855
0.999999988768
0.999999569135
0.976367911992
0.355036733032
-1.1026657223e-30
1.000000109
1.00000011018
1.00000009488
1.00000007149
1.00000004954
1.0000000429
1.0000000759
1.00000017729
1.00000028984
1.00000037213
1.000000388
1.00000023842
1.00000014009
1
0.999999999864
0.999999988918
0.999999566808
0.974400504212
0.347227177586
-3.48049024557e-32
1.0000001185
1.00000011854
1.00000010008
1.00000007209
1.00000004539
1.00000003407
1.00000006065
1.00000015063
1.00000026109
1.00000033408
1.00000036009
1.00000021703
1.00000012372
1
0.999999999873
0.999999989154
0.999999564726
0.972085504556
0.338433782536
-1.14872476813e-33
1.00000012816
1.00000012724
1.00000010604
1.00000007389
1.00000004236
1.00000002702
1.00000004791
1.00000013027
1.00000023279
1.00000030584
1.00000032977
1.00000019818
1.00000011079
1
0.999999999881
0.999999989467
0.999999564316
0.969442847565
0.328707632193
-3.98429676354e-35
1.00000013764
1.00000013605
1.00000011272
1.00000007716
1.00000004149
1.00000002322
1.00000003937
1.00000011288
1.00000021373
1.00000027847
1.00000030774
1.00000018351
1.00000009953
1
0.999999999885
0.999999989828
0.999999564597
0.966312576726
0.318302361812
-1.45515809285e-36
1.00000014679
1.00000014495
1.00000012027
1.0000000824
1.00000004329
1.0000000211
1.00000003479
1.00000010287
1.00000019524
1.00000026185
1.00000028678
1.00000017268
1.00000009331
1
0.999999999888
0.999999990331
0.999999568178
0.962892201888
0.307368525884
-2.95178141682e-33
1.00000015576
1.00000015416
1.00000012914
1.00000009031
1.00000004969
1.00000002326
1.00000003426
1.0000000964
1.00000018771
1.00000024552
1.00000027724
1.00000016692
1.00000009106
1
0.999999999891
0.999999992075
0.999999575257
0.95901371523
0.296097761287
-5.54552668219e-34
1.00000016482
1.00000016399
1.00000013965
1.00000010126
1.00000006016
1.00000003108
1.00000003823
1.0000000969
1.00000017836
1.00000024039
1.00000026853
1.00000016575
1.00000009452
1
0.999999999925
0.999999992696
0.999999587906
0.954817718235
0.28462896627
-6.58062470516e-43
1.00000017398
1.00000017415
1.0000001513
1.0000001143
1.00000007333
1.00000004119
1.00000004439
1.00000010418
1.00000019031
1.00000025071
1.0000002811
1.00000018621
1.00000011339
1
0.999999999899
0.999999994627
0.999999605283
0.950370930766
0.273210451518
-1.07712417817e-49
1.00000018226
1.00000018305
1.0000001618
1.00000012561
1.00000008411
1.00000006441
1.00000008598
1.0000001282
1.00000021681
1.00000026281
1.00000035314
1.00000022902
1.00000016509
1
0.999999999903
0.999999994542
0.999999629592
0.945662296473
0.262027664396
-1.47497055364e-37
1.00000021147
1.00000020796
1.00000017207
1.00000013366
1.00000015015
1.00000011409
1.00000007787
1.00000015109
1.00000020386
1.00000030585
1.00000036316
1.00000028289
1.00000019797
1
1.00000000003
0.999999995852
0.999999658891
0.940834313162
0.251299305895
-3.18337041734e-37
1.00000025372
1.00000022906
1.00000019879
1.00000024339
1.0000001578
1.00000012199
1.0000001006
1.00000019433
1.0000002615
1.00000033981
1.00000041825
1.00000037228
1.00000030312
1.00000000092
1.00000000003
1.00000000301
0.999999707777
0.936054699075
0.241280228013
-1.20883572705e-45
1.00000028095
1.00000027171
1.0000002923
1.00000021765
1.00000021664
1.00000023361
1.00000011929
1.00000013427
1.00000021235
1.00000027931
1.00000034391
1.00000033779
1.00000028222
1.00000000514
1.00000000002
1.00000000402
0.999999747464
0.931491158308
0.232220124912
-6.73888484711e-45
1.00000036173
1.00000036551
1.00000035475
1.00000025491
1.00000030401
1.00000014958
1.00000010241
1.00000012965
1.00000018837
1.00000024573
1.00000029821
1.0000003092
1.00000026239
1.00000001662
1.00000000001
1.00000000301
0.999999787515
0.927343580558
0.224383383868
-1.49872814951e-43
1.00000027356
1.00000028607
1.00000037801
1.00000027976
1.00000019794
1.00000012406
1.00000011342
1.0000001408
1.00000018382
1.0000002336
1.00000028
1.00000029692
1.0000002584
1.00000004257
1.00000000001
1.00000000161
0.999999831113
0.923807701264
0.217973443513
-9.24166705067e-32
1.00000021506
1.0000002244
1.0000002558
1.00000020115
1.0000001517
1.00000012338
1.00000012263
1.00000014675
1.00000018255
1.00000022883
1.00000027248
1.00000029338
1.00000026151
1.00000007183
1.00000000001
1.00000000202
0.999999873954
0.921105333456
0.213224760974
-1.29212690605e-31
1.00000018562
1.00000019134
1.00000019256
1.00000016026
1.00000013326
1.00000011838
1.00000012067
1.00000014362
1.00000017654
1.00000022133
1.00000026485
1.00000028999
1.00000026612
1.00000010467
1
1.00000000194
0.999999913843
0.919545628869
0.210458798851
-1.52861018263e-39
1.00000019048
1.00000018921
1.00000017667
1.00000014971
1.00000012629
1.00000011165
1.00000011515
1.00000013631
1.00000016835
1.00000021481
1.00000026458
1.00000030022
1.00000029082
1.00000015865
1
1.00000000238
0.999999947997
0.919378589551
0.210079933058
-5.51097804609e-39
1.00000021752
1.00000020948
1.00000018683
1.00000015439
1.00000012472
1.00000010564
1.00000011004
1.00000013377
1.00000016719
1.0000002204
1.00000028472
1.00000033881
1.00000035063
1.0000002465
1
1.00000000594
0.999999977315
0.920825634902
0.212441663391
-2.39510470436e-38
1.00000023555
1.00000022278
1.00000019241
1.00000015148
1.00000011244
1.0000000905
1.00000008951
1.00000011028
1.00000016457
1.00000022805
1.00000029964
1.00000037088
1.00000040357
1.00000032347
1
1.00000000137
1.00000000131
0.923976084126
0.217831501779
-8.26297260256e-22
1.00000029824
1.00000028166
1.00000024181
1.00000018598
1.00000012302
1.0000000802
1.00000006635
1.00000009939
1.00000020953
1.00000027429
1.00000036704
1.0000004656
1.00000053004
1.00000047803
1.00000004652
1
1.00000000045
0.928990775785
0.226850074315
-7.84389009354e-22
1.00000021961
1.00000020366
1.00000016568
1.00000011416
1.00000004956
1.00000000147
0.999999979566
1.00000001396
1.00000013504
1.00000023826
1.0000003253
1.00000041413
1.00000047711
1.00000043179
1.00000011622
1
1
0.935780963892
0.239899912586
0
1.00000015762
1.0000001399
1.00000010305
1.00000005682
1.00000000145
0.999999900667
0.999999882612
0.999999925053
1.00000012813
1.00000028845
1.00000037946
1.00000040614
1.00000047427
1.00000043919
1.00000020599
1
1
0.943990523528
0.257161908762
-6.65722270742e-33
1.00000011084
1.00000008996
1.00000005448
1.00000001215
0.999999975919
0.999999919269
0.999999882292
0.999999932936
1.00000011458
1.00000026946
1.00000042492
1.00000042959
1.00000050496
1.00000047915
1.00000027866
1.0000000415
1
0.954131546549
0.279171697992
-1.13977652812e-21
1.00000006895
1.00000004579
1.00000001059
0.999999985952
0.999999950697
0.999999948042
0.999999917539
0.999999993305
1.00000012633
1.00000027771
1.00000046743
1.00000046817
1.00000054972
1.00000052969
1.0000003432
1.00000015216
1
0.96637797673
0.308742169076
-4.31086830593e-20
1.00000002927
1.0000000033
0.999999985132
0.999999946627
0.99999991383
0.999999918363
0.999999925196
0.999999997519
1.00000014179
1.00000029848
1.00000050711
1.00000050975
1.00000059481
1.00000057739
1.00000038719
1.00000021317
1.00000000294
0.979712046056
0.345251918038
3.40377830796e-06
0.999999997134
0.999999981617
0.999999945319
0.999999904988
0.999999873756
0.999999870558
0.999999875637
0.999999989468
1.00000015446
1.00000032076
1.00000054119
1.00000054641
1.00000063065
1.00000061344
1.00000041521
1.00000026572
1.00000006287
0.99461565601
0.38859845158
7.00378441188e-06
0.999999972907
0.999999943584
0.999999905751
0.999999861272
0.999999844713
0.99999976813
0.999999826991
0.999999983356
1.00000016412
1.00000033989
1.00000056788
1.00000057426
1.00000065184
1.00000063262
1.00000043107
1.00000028823
1.00000010596
1
0.442284661665
0.000668334115345
0.999999936474
0.999999901978
0.999999863741
0.999999830573
0.999999690522
0.999999690672
0.999999830931
0.999999981363
1.00000017171
1.00000035535
1.00000058741
1.00000059283
1.00000065704
1.0000006336
1.00000043163
1.00000028568
1.00000012957
1
0.484085617575
0.00141434914434
0.999999898035
0.999999861212
0.999999816086
0.999999709024
0.999999689891
0.999999709276
0.999999846644
0.999999983078
1.00000018038
1.00000036826
1.00000060108
1.00000060378
1.0000006481
1.00000061762
1.00000042103
1.00000027672
1.00000013346
1
0.492869172719
1.69406589451e-22
0.999999879052
0.999999819237
0.999999726859
0.999999690005
0.999999689891
0.999999760281
0.999999862183
0.999999988367
1.00000019017
1.00000037984
1.00000061034
1.00000060941
1.00000062849
1.00000058652
1.00000040182
1.0000002623
1.00000011854
1
0.786634077136
0.0466268596043
0.999999781603
0.999999731559
0.999999690153
0.999999689891
0.999999714888
0.999999791332
0.99999987824
0.999999998661
1.00000020252
1.00000039206
1.0000006177
1.00000061198
1.00000060195
1.00000054159
1.00000036823
1.00000022728
1.00000009015
1
0.616695846647
0
0.999999691863
0.999999690969
0.999999690676
0.999999690153
0.999999727222
0.999999804424
0.99999989797
1.00000001408
1.00000022294
1.00000041178
1.00000063079
1.00000061588
1.00000057309
1.00000048724
1.00000031516
1.00000015957
1.00000004264
1.00000000254
0.563507252189
0
0.99999980238
0.999999754614
0.99999972047
0.999999712809
0.999999779144
0.999999838921
0.999999919685
1.00000005332
1.00000028677
1.00000049396
1.00000072542
1.00000070345
1.00000061363
1.00000046942
1.00000022358
1.00000002064
0.999999907308
1
0.579417037669
0
0.999999811646
0.999999812113
0.999999812346
0.999999812343
0.999999812194
0.999999834932
0.999999949845
1.00000015423
1.00000042987
1.00000067308
1.00000098478
1.00000085212
1.00000069894
1.00000040439
1.00000007107
0.999999751439
0.999999677122
0.999999999867
0.991607905608
0.190325523732
0.999999799566
0.999999774358
0.999999720136
0.999999791424
0.999999686909
0.999999859446
1.00000002416
1.00000026124
1.00000055081
1.00000080689
1.00000118082
1.00000100158
1.00000072961
1.00000035803
0.99999987914
0.99999954463
0.999999517255
0.999999999585
0.915960530283
0.00648921827572
0.999999731113
0.999999674578
0.999999628281
0.999999430607
0.999999725576
0.999999784669
1.000000043
1.00000034729
1.00000073408
1.00000108096
1.00000138058
1.00000129608
1.0000009477
1.0000003321
0.999999684903
0.999998990851
0.999999082804
0.999999995229
0.665345957081
-1.19582593936e-42
0.999999405007
0.999999321946
0.999999248848
0.999999313053
0.999999203371
0.999999587859
1.0000000885
1.0000004239
1.00000075116
1.00000105056
1.00000124679
1.00000118323
1.0000007974
1.0000002112
0.999999611688
0.999998926001
0.999999260339
0.999999978836
0.664221988781
0
0.999999632958
0.999999539717
0.999999455439
0.999999375386
0.999999396562
0.99999980455
1.00000021807
1.00000056572
1.00000091485
1.00000121407
1.00000138215
1.0000013146
1.00000091589
1.00000023896
0.999999422959
0.999998925998
0.999999132362
0.999999941246
0.670021667427
4.92887969049e-24
0.999999636137
0.999999627071
0.999999610949
0.999999622098
0.999999697953
0.999999982052
1.0000003294
1.000000697
1.00000108601
1.00000142369
1.00000156904
1.00000143271
1.00000102056
1.00000035258
0.999999649298
0.999998926049
0.999999238551
0.999999882394
0.888773895504
-7.94093388051e-21
0.99999963092
0.999999592335
0.999999604531
0.999999683481
0.999999834549
1.00000006761
1.00000041195
1.00000081373
1.00000129793
1.00000162446
1.0000017154
1.00000150592
1.00000115393
1.00000062567
1
0.99999934492
0.999999215731
0.999999829658
0.999999805809
0.3224933292
0.999999599716
0.999999592356
0.999999608896
0.999999693989
0.999999867067
1.0000001319
1.0000004718
1.00000101187
1.00000148974
1.00000176098
1.00000182317
1.00000198305
1.00000177957
1.00000088929
1
0.999998854588
0.999998861649
0.999999807131
0.99999980389
0.208417549428
0.999999641522
0.999999632483
0.999999660434
0.999999734529
0.999999893364
1.00000014741
1.00000056077
1.0000008527
1.0000008173
1.00000091121
1.00000117465
1.00000132589
1.00000207469
1.00000121567
0.999999529623
0.999997591293
0.999998503228
0.999999817621
0.703562414529
-4.46263114143e-38
0.999999702758
0.999999700369
0.999999717985
0.999999775857
0.999999903515
1.00000012199
1.00000027469
1.00000009831
1.00000320376
1.00000204098
0.999999281747
0.999997591293
0.99999807396
0.999999851189
0.918577352358
0
0.99999974863
0.999999741461
0.999999733593
0.999999757832
0.999999847155
1
1.00000011458
1.00000017421
1.00000205224
1.00000112986
1
0.999998031052
0.999998414048
0.999999870867
0.999999862959
0.316671075135
0.999999768646
0.999999730773
0.99999969063
0.999999689213
0.999999782776
0.999999956814
1.00000025774
1.00000017419
1.00000232511
1.00000125545
1.00000016581
0.99999848933
0.999998732402
0.999999915365
0.999999900192
0.316668491231
0.999999770435
0.999999699283
0.999999630512
0.999999636356
0.99999974248
0.99999996126
1.0000001609
1.00000025123
1.00000256949
1.00000131516
1.00000016341
0.999999309682
0.999999515925
0.999999981377
0.918579811154
0
0.999999634194
0.999999521344
0.999999421174
0.999999421339
0.999999584603
0.999999944236
1.0000003919
1.00000085765
1.00000113931
1.00000160188
1.00000223927
1.00000268856
1.00000350418
1.00000230296
1.00000095594
0.999999865378
0.999999635282
1
0.703562493396
0
0.999999643026
0.999999582467
0.999999522908
0.999999531071
0.999999708903
1.00000009165
1.00000049075
1.00000092798
1.00000133661
1.00000177198
1.00000218565
1.0000022972
1.00000184116
1.00000109484
1.0000009199
1.00000003948
0.999999719287
1
1
0.20841795713
0.999999545453
0.999999463259
0.99999942239
0.999999475156
0.999999696959
1.00000004667
1.00000046526
1.00000080853
1.00000129354
1.00000180154
1.00000217791
1.00000208573
1.0000015716
1.00000093275
1.00000073087
1.0000001695
1
1.00000001309
1
0.322492583235
0.999999378118
0.999999262433
0.999999154255
0.999999284964
0.99999955536
0.999999805287
1.00000015774
1.0000007211
1.0000013166
1.0000018383
1.00000205003
1.00000186657
1.00000138967
1.00000086501
1.00000067227
1.0000003343
1.00000013395
1.00000027333
0.888772542616
0
0.999999043106
0.999999028091
0.999999028091
0.999999028091
0.999999163213
0.999999487639
1.00000019467
1.000000765
1.00000130711
1.00000169488
1.00000181789
1.00000163513
1.00000123755
1.00000082364
1.00000064261
1.0000004249
1.0000002294
1.00000023582
0.67002063495
6.46234853557e-24
0.999999028297
0.999999028104
0.999999028091
0.999999106231
0.999999210526
0.999999714044
1.00000028981
1.00000071953
1.00000114863
1.0000014497
1.0000015517
1.0000014103
1.00000110612
1.00000078941
1.0000006285
1.00000044934
1.00000020982
1.00000012533
0.664221572651
0
0.999999275836
0.999999279549
0.999999379268
0.999999513617
0.999999698865
0.999999933762
1.00000025861
1.00000059244
1.00000093146
1.00000118801
1.00000128878
1.00000119679
1.00000098262
1.00000074629
1.00000060388
1.00000041969
1.00000015157
1.00000004047
0.665344881141
1.19163507142e-43
0.999999646578
0.999999657282
0.999999662838
0.999999732121
0.999999815512
0.99999998159
1.0000001865
1.00000044427
1.00000071931
1.00000094162
1.00000104451
1.000000999
1.00000086197
1.00000068783
1.00000055617
1.00000034523
1.00000008205
1.00000000242
0.915959036996
0.00648919792198
0.999999753467
0.999999751273
0.999999749985
0.999999781619
0.999999814418
0.999999884396
1.00000008777
1.00000030164
1.00000052957
1.0000007285
1.00000083607
1.00000082957
1.00000075407
1.00000062604
1.00000050021
1.00000025209
1.00000001824
1.00000000156
0.991606808187
0.190324516304
0.999999860678
0.999999850077
0.999999819803
0.999999730627
0.999999730627
0.999999762731
1.00000000094
1.00000018802
1.00000038491
1.00000057311
1.00000068674
1.00000071094
1.00000068242
1.00000058643
1.00000047139
1.00000019067
1.00000000584
1.00000000065
0.579416069107
0
0.999999945687
0.999999907049
0.999999820729
0.999999733599
0.999999730627
0.999999820691
0.999999998442
1.00000012644
1.00000030245
1.00000047628
1.00000058277
1.0000006586
1.00000067684
1.00000059774
1.0000004927
1.0000001772
1.00000002492
1.00000000107
0.563507583989
0
1.00000001409
0.999999988194
0.999999957479
0.999999881538
0.999999860122
0.999999945888
1.00000001755
1.00000013193
1.00000026838
1.0000003915
1.00000053691
1.00000066096
1.00000069778
1.0000006753
1.00000056314
1.00000020681
1.00000006653
1
0.616696177042
0
1.00000000459
0.999999997334
0.999999975726
0.999999964953
0.999999948847
0.999999943733
0.999999954175
1.00000003287
1.00000020464
1.00000037776
1.00000049499
1.00000071255
1.00000076929
1.00000077835
1.0000006891
1.00000026859
1.0000001179
1
0.786634279194
0.0466269479602
0.999999985983
0.999999961468
0.999999937224
0.999999922084
0.999999898492
0.999999871095
0.999999888984
0.999999992892
1.00000008487
1.00000018539
1.00000033016
1.00000060872
1.00000079572
1.00000096279
1.00000077105
1.00000032159
1.00000015432
1
0.492869389222
1.69406589451e-22
0.999999949579
0.999999923483
0.999999895997
0.999999860957
0.999999857326
0.999999857326
0.999999901193
0.999999982744
1.00000007601
1.00000017856
1.00000029843
1.00000047379
1.00000070766
1.00000090388
1.0000008304
1.00000036936
1.00000016413
1
0.484085389399
0.00141440681226
0.999999926747
0.999999905338
0.999999883124
0.999999859136
0.999999857328
0.999999861836
0.999999933401
0.999999998295
1.00000008545
1.00000019295
1.00000031235
1.00000049537
1.00000072684
1.00000078522
1.00000087152
1.00000038927
1.00000014143
1
0.442284256831
0.000668338011642
0.999999913741
0.9999998984
0.999999882383
0.999999874595
0.999999864063
0.999999900827
0.99999993886
1.00000000561
1.00000009379
1.00000020616
1.00000032658
1.00000051314
1.00000073939
1.00000079508
1.00000091255
1.00000037248
1.00000009173
0.994615660065
0.388598121431
7.00401272049e-06
0.999999916441
0.99999990274
0.999999887967
0.99999987785
0.999999881926
0.9999999046
0.99999994081
1.00000000621
1.00000009652
1.00000020788
1.0000003252
1.00000050649
1.00000071477
1.00000076634
1.00000092321
1.00000033882
1.00000002177
0.979711950142
0.345251562248
3.40501309477e-06
0.999999932858
0.999999919798
0.999999903375
0.999999890499
0.999999888296
0.999999905426
0.999999940807
1.00000000177
1.00000009035
1.00000019743
1.00000030873
1.00000047605
1.0000006517
1.0000007144
1.00000087987
1.00000028166
1
0.966377874051
0.308741778967
-4.37704275494e-20
0.999999957122
0.999999945254
0.999999926144
0.999999908293
0.999999901437
0.999999905339
0.999999936083
0.999999993055
1.00000007851
1.00000018108
1.00000028677
1.00000043162
1.00000054492
1.00000061227
1.00000074175
1.0000001977
1
0.954131608063
0.279171273696
1.8768578657e-22
0.99999998349
0.9999999739
0.999999951801
0.9999999254
0.999999904423
0.99999989283
0.99999991721
0.999999980075
1.00000006547
1.00000016756
1.00000027329
1.00000037778
1.00000047162
1.0000005267
1.00000057345
1
1
0.943990954827
0.257161515241
-4.66554883336e-33
1.00000001028
0.999999998261
0.999999973734
0.999999939557
0.999999905035
0.99999989283
0.999999901981
0.999999973721
1.00000005991
1.00000016531
1.00000027664
1.00000037869
1.00000045444
1.00000046245
1.0000002098
1
1
0.935782150513
0.239899447633
0
1.00000003176
1.00000001878
0.999999989339
0.999999954095
0.999999921481
0.99999989283
0.999999923349
0.999999979723
1.00000006322
1.00000016996
1.0000002849
1.00000038986
1.00000045648
1.00000042687
1.00000003811
1
1.0000000004
0.928992369583
0.226849620067
-7.84395305507e-22
1.00000003622
1.00000002662
0.999999999225
0.999999970209
0.999999951027
0.999999946107
0.999999961604
0.999999997704
1.00000007844
1.00000018848
1.00000030921
1.0000004194
1.00000048384
1.00000042681
1
1.0000000002
0.999999989683
0.923976317929
0.217831148227
-8.26244623801e-22
1.00000006093
1.00000005787
1.00000004092
1.00000001921
1.0000000025
1.00000000008
1.00000001536
1.00000005461
1.00000011482
1.00000019048
1.00000026987
1.00000033498
1.00000034981
1.0000002384
1
1.00000000099
0.999999972114
0.920825378999
0.21244127502
0
1.00000007779
1.00000007744
1.00000006402
1.00000004645
1.00000003349
1.00000003408
1.0000000531
1.00000009419
1.0000001549
1.00000022916
1.00000030422
1.00000036003
1.00000035596
1.00000020681
1
1.0000000005
0.999999946337
0.919378290907
0.210079447541
-2.4445079328e-41
1.00000009391
1.00000009566
1.00000008507
1.00000007098
1.00000006034
1.00000006377
1.00000008635
1.00000013131
1.00000019553
1.00000027315
1.00000035015
1.00000040061
1.00000037754
1.00000018787
1
1.00000000128
0.999999913428
0.919545365705
0.210458215078
-2.5454545624e-39
1.00000010956
1.00000011411
1.00000010673
1.0000000963
1.00000008642
1.00000009163
1.0000001179
1.00000016737
1.00000023847
1.00000032543
1.00000041467
1.00000046478
1.00000042008
1.00000018338
1.00000000002
1.00000000911
0.999999873421
0.921105065023
0.213224073462
-1.29220246837e-31
1.0000001279
1.0000001394
1.00000013729
1.00000013058
1.00000011823
1.00000012393
1.00000015463
1.00000020959
1.00000029284
1.00000039959
1.00000052129
1.00000057577
1.00000050053
1.00000020386
1.00000000001
1.00000000162
0.999999830438
0.923807407781
0.217972622237
-9.24200685303e-32
1.00000016027
1.00000018777
1.00000018585
1.00000017684
1.00000015316
1.00000015654
1.00000019283
1.00000025201
1.00000035462
1.00000049962
1.0000006931
1.00000072433
1.00000059042
1.00000022809
1.00000000002
1.00000000293
0.999999787039
0.927343381547
0.224382401829
-1.40738824384e-43
1.0000002251
1.00000026278
1.00000020842
1.00000023205
1.00000017902
1.00000018746
1.00000021482
1.0000002886
1.00000040292
1.00000063883
1.0000007889
1.00000092137
1.00000067457
1.00000026254
1.00000000002
1.00000000406
0.999999744697
0.931491562551
0.232219057163
0
1.00000027517
1.00000033038
1.00000025685
1.00000026584
1.0000002064
1.00000020108
1.00000023969
1.00000029682
1.00000045161
1.00000061041
1.00000102794
1.00000102496
1.00000080144
1.00000025124
1.00000000003
1.00000000436
0.999999707416
0.93605500336
0.241279168145
-4.96963467588e-46
1.00000034891
1.00000048121
1.00000026919
1.00000018156
1.00000016116
1.00000015585
1.00000017304
1.00000021475
1.00000033642
1.00000057318
1.00000081006
1.00000099263
1.00000071149
1.00000010603
1.00000000003
1.00000000494
0.999999672912
0.940833899032
0.251298210312
-3.18312266113e-37
1.00000039955
1.00000047913
1.00000023638
1.00000019201
1.00000016787
1.00000016093
1.00000017535
1.00000022174
1.00000035585
1.00000064585
1.00000075389
1.00000086924
1.00000059888
1.00000008117
1.00000000003
1.00000000521
0.999999645649
0.945662047335
0.262026429186
-1.47487514291e-37
1.00000043195
1.00000043562
1.00000023798
1.00000019627
1.00000017218
1.00000016444
1.00000018255
1.00000024665
1.00000042476
1.00000067797
1.00000085599
1.00000095376
1.00000045621
1.00000006412
1.00000000003
1.0000000052
0.999999625549
0.950370731674
0.273209092821
0
1.00000045379
1.00000026869
1.00000022776
1.00000019317
1.00000017049
1.00000016553
1.00000019167
1.00000029111
1.0000005343
1.00000078708
1.00000076954
1.00000084348
1.00000045084
1.00000005916
1.00000000003
1.00000000584
0.999999610052
0.954817554653
0.28462751521
-6.58004754233e-43
1.00000025684
1.00000024125
1.00000021299
1.00000018428
1.00000016542
1.00000016462
1.0000002114
1.00000037923
1.00000072502
1.00000072543
1.0000008767
1.00000071814
1.0000004448
1.00000005024
1.00000000003
1.00000000508
0.999999600099
0.959013557232
0.296096210911
-1.26481401811e-35
1.00000022461
1.00000021863
1.0000001974
1.0000001739
1.00000015849
1.00000016563
1.00000024606
1.00000051123
1.00000063859
1.00000092548
1.00000087822
1.0000005483
1.00000042652
1.00000004172
1.00000000003
1.00000000452
0.999999594178
0.962892041352
0.30736692111
-4.57787802586e-34
1.0000002027
1.00000020092
1.00000018377
1.00000016391
1.00000015212
1.00000016778
1.00000028181
1.00000047942
1.00000069392
1.00000095541
1.00000057587
1.00000051064
1.00000040389
1.00000002539
1.00000000002
1.00000000397
0.99999959109
0.966312408298
0.31830073345
-1.12922628259e-32
1.00000018758
1.00000018765
1.00000017276
1.00000015529
1.00000014604
1.00000016376
1.0000002739
1.00000040273
1.00000065803
1.00000072327
1.0000005965
1.00000048481
1.00000038088
1.0000000084
1.00000000002
1.0000000034
0.999999590986
0.969442674402
0.328706010497
-2.89454678632e-31
1.00000017714
1.00000017804
1.00000016433
1.0000001483
1.00000014064
1.00000015239
1.00000022618
1.00000038502
1.00000054953
1.00000082791
1.0000006727
1.00000045837
1.00000035917
1
0.99999999985
1.0000000016
0.99999958971
0.972085340291
0.338432202607
-7.69071330208e-30
1.00000016992
1.00000017126
1.00000015827
1.00000014319
1.0000001368
1.0000001449
1.00000019305
1.00000032406
1.00000044627
1.00000055215
1.00000062466
1.0000004364
1.00000034777
1
0.999999999837
0.999999998658
0.999999586966
0.974400349981
0.347225653087
-2.0995147301e-28
1.00000016492
1.00000016662
1.00000015419
1.00000013983
1.00000013394
1.00000014214
1.00000018095
1.00000029874
1.00000044321
1.00000054512
1.00000059706
1.00000042637
1.0000003443
1
0.999999999845
0.99999999861
0.99999958912
0.976367759434
0.355035216269
-5.79074532632e-27
1.00000016182
1.00000016393
1.00000015217
1.00000013862
1.00000013288
1.00000014179
1.00000018422
1.00000032351
1.00000053059
1.00000049723
1.00000066327
1.00000043746
1.00000035564
1
0.999999999853
0.999999999667
0.99999959177
0.977867188231
0.361802660679
-1.55119076796e-25
1.0000001614
1.00000016348
1.00000015283
1.00000014062
1.00000013578
1.00000014744
1.00000020792
1.00000041204
1.00000044329
1.00000060259
1.00000057682
1.00000045266
1.00000037262
1.00000001274
1
1.00000000044
0.999999594137
0.97902641705
0.367152149155
-3.65250473261e-24
1.00000017075
1.0000001665
1.00000015542
1.00000014504
1.00000014192
1.00000015837
1.00000024068
1.00000038817
1.00000057343
1.00000071016
1.00000046627
1.00000046438
1.00000039364
1.0000000272
1
1.00000000016
0.999999595761
0.980006948317
0.371594652465
-5.67166877422e-23
1.00000017314
1.00000016527
1.00000015541
1.00000014695
1.00000014674
1.00000016707
1.00000026346
1.0000004316
1.00000046825
1.00000064335
1.00000047488
1.00000047287
1.00000039761
1.00000003361
1
1.00000000002
0.999999591486
0.980683334261
0.376117296046
-4.54356417944e-25
1.00000008731
1.00000008276
1.00000007743
1.00000007555
1.00000007928
1.000000103
1.00000020963
1.00000021165
1.00000030662
1.00000037464
1.00000024989
1.00000024295
1.00000019134
1
0.999999999936
0.999999989696
0.999999622521
0.980708302193
0.371360368157
0
)
;

boundaryField
{
    back
    {
        type            zeroGradient;
    }
    sides
    {
        type            zeroGradient;
    }
    bottom
    {
        type            zeroGradient;
    }
    front
    {
        type            zeroGradient;
    }
    atmosphere
    {
        type            inletOutlet;
        inletValue      uniform 0;
        value           nonuniform List<scalar> 
100
(
0
0
0
0
0
0
0
0
0
0
0
0
0
0
0
0
0
0
0
0
0
0
0
0
0
0
0
0
-1.13977652812e-21
-4.31086830593e-20
3.40377830796e-06
0
0
0
0
0.0466268596043
0
0
0
0.190325523732
0
0
0
0
0
0.3224933292
0.208417549428
0
0
0.316671075135
0.316668491231
0
0
0.20841795713
0.322492583235
0
0
0
0
0
0.190324516304
0
0
0
0.0466269479602
0
0
0
0
3.40501309477e-06
-4.37704275494e-20
1.8768578657e-22
0
0
0
0
0
0
0
0
0
0
0
0
0
0
0
0
0
0
0
0
0
0
0
0
0
0
0
0
)
;
    }
    floatingObject
    {
        type            zeroGradient;
    }
}


// ************************************************************************* //
