/*--------------------------------*- C++ -*----------------------------------*\
| =========                 |                                                 |
| \\      /  F ield         | OpenFOAM: The Open Source CFD Toolbox           |
|  \\    /   O peration     | Version:  v2012                                 |
|   \\  /    A nd           | Website:  www.openfoam.com                      |
|    \\/     M anipulation  |                                                 |
\*---------------------------------------------------------------------------*/
FoamFile
{
    version     2.0;
    format      ascii;
    class       volScalarField;
    location    "1";
    object      epsilon;
}
// * * * * * * * * * * * * * * * * * * * * * * * * * * * * * * * * * * * * * //

dimensions      [0 2 -3 0 0 0 0];


internalField   nonuniform List<scalar> 
1984
(
0.0177046864501
0.0190602488347
0.0198396956096
0.0200487356423
0.0201496948789
0.020234354856
0.0203173417673
0.0204005514022
0.0204841444694
0.0205681407903
0.0206530616537
0.0207425741329
0.0208579360622
0.0211017614631
0.0218862929388
0.0245783242899
0.0329757623933
0.0561346409744
0.112981401323
0.236538326385
0.0191420816668
0.0188413466859
0.0199102712139
0.020184317716
0.0202842019524
0.0203534372448
0.0204185789882
0.0204835962883
0.02054892638
0.0206146465076
0.0206815721919
0.020754685234
0.0208603999729
0.0211158944413
0.0219540975316
0.0246940656773
0.032650905043
0.0526560964707
0.0957671180469
0.180830225535
0.0201052267796
0.0201444110432
0.0213860845069
0.0217007725528
0.0218070793136
0.0218768932085
0.0219425522783
0.0220087288373
0.0220757512119
0.0221435466057
0.0222129271319
0.0222893401039
0.022401330693
0.0226731448834
0.0235561781104
0.026403752176
0.034557249408
0.0547932119597
0.0983947966544
0.182869645977
0.0204032906457
0.0205452666635
0.0218416329256
0.0221664248135
0.0222711498041
0.0223379254202
0.0224011712714
0.0224657002761
0.0225316861152
0.0225988548487
0.0226679194328
0.0227444242681
0.0228573381237
0.0231323392002
0.0240238450343
0.0268878887836
0.0350605975749
0.0553125216076
0.0989004748379
0.18346202638
0.0205289430047
0.0206891068602
0.0219995717865
0.0223238927103
0.0224244292693
0.0224869223058
0.0225465502599
0.0226081707769
0.022671838155
0.022737216728
0.0228047902847
0.0228801290317
0.0229923929575
0.0232677506349
0.0241615903006
0.0270301209051
0.0352050139927
0.0554490560853
0.0990509878914
0.18364003664
0.020614291159
0.0207675098346
0.0220807870785
0.0224021006078
0.0224981335614
0.0225562299935
0.0226119803909
0.0226702774745
0.0227311461115
0.0227941857921
0.0228598808309
0.0229336741813
0.0230448995832
0.0233202825608
0.0242164476702
0.0270909231209
0.0352736202517
0.0555176517989
0.0991207576673
0.183720452614
0.0206910326189
0.0208310553132
0.0221448705976
0.022463173547
0.0225551442157
0.0226091655285
0.0226611709627
0.0227161483518
0.0227741332606
0.022834701515
0.0228983154619
0.0229704182197
0.0230805415906
0.0233561424261
0.0242556203512
0.0271389488715
0.0353349790998
0.0555804214377
0.099136502847
0.183703857139
0.0207659955437
0.0208917201508
0.022206095542
0.0225219700332
0.0226104821435
0.0226608849629
0.0227094397319
0.02276126244
0.0228164358903
0.0228745457915
0.0229360557126
0.0230064494779
0.0231155075845
0.0233915716963
0.0242951955439
0.0271893456352
0.0354012117511
0.0556457370645
0.0991478634565
0.183670368149
0.0208404289872
0.0209520040945
0.0222674057153
0.0225814675989
0.0226670978711
0.0227143535965
0.0227598108322
0.0228087263188
0.0228612521332
0.0229170080487
0.0229764802841
0.0230452193233
0.0231532946756
0.0234300383083
0.0243383822979
0.0272444575208
0.0354728564225
0.0557118443403
0.0991414998639
0.183629761556
0.0209144257425
0.0210122885454
0.0223292004436
0.0226419842018
0.0227252379801
0.022769789233
0.0228125132989
0.0228588074642
0.0229089032684
0.0229624688714
0.0230200295113
0.0230872192562
0.0231944203093
0.023471998656
0.0243852919284
0.0273032895798
0.0355462915311
0.055771632875
0.0991071794537
0.183545593005
0.0209878522592
0.021072522979
0.0223913779252
0.0227033335315
0.0227846447056
0.0228268929238
0.0228672377788
0.0229112105314
0.0229591240062
0.0230107029805
0.0230665206175
0.0231323055107
0.0232387581114
0.0235172677897
0.0244354708815
0.0273646571947
0.0356185741764
0.0558178058929
0.0990461741852
0.18345408353
0.0210605263558
0.0211325775694
0.0224537630058
0.0227652741945
0.0228450162613
0.0228853214621
0.0229236218473
0.022965573549
0.0230115685011
0.0230613897897
0.0231156646367
0.0231802174893
0.0232860532326
0.023565506574
0.0244882117787
0.0274267700388
0.0356857782067
0.0558444599826
0.098935732334
0.183321253043
0.0211322443162
0.0211923068278
0.0225161811451
0.0228275837897
0.022906082202
0.0229447674883
0.0229813365725
0.023021561556
0.023065908106
0.0231142181442
0.0231671719214
0.0232306864673
0.0233360344467
0.0236163500941
0.0245428065515
0.0274881570406
0.0357453960233
0.0558472914646
0.0987728726274
0.183151789111
0.0212027811687
0.0212515560375
0.0225784627589
0.0228900596529
0.0229676028831
0.0230049603083
0.0230400909373
0.023078874822
0.0231218459602
0.0231689006089
0.0232207727096
0.0232834567516
0.0233884355753
0.0236694191913
0.0245984445832
0.0275467402225
0.0357922068217
0.0558161964565
0.0985520610999
0.182952231344
0.0212718875086
0.0213101582802
0.0226404369258
0.022952509185
0.0230293580719
0.0230656552092
0.0230996239963
0.0231372487552
0.0231791151683
0.0232251792218
0.0232762195027
0.0233382921732
0.0234430034029
0.0237243292158
0.0246542489073
0.0276002015295
0.0358204230803
0.0557397598047
0.0982538660156
0.182701195322
0.0213392870737
0.0213679309713
0.0227019252348
0.0230147413213
0.0230911379494
0.0231266313562
0.0231597215947
0.0231964624213
0.0232374967689
0.023282839013
0.0233333221011
0.0233950084044
0.0234995333381
0.0237807334164
0.0247093694213
0.0276464127469
0.0358254348254
0.0556079352244
0.0978556814472
0.182384144358
0.021404675731
0.0214246767442
0.0227627383098
0.0230765618303
0.0231527599459
0.0231877066039
0.023220155537
0.0232563371305
0.0232967989059
0.0233417309262
0.0233919169202
0.0234534759939
0.0235578766384
0.02383830997
0.0247628888988
0.0276829397223
0.0358017109417
0.0554101626312
0.0973412479299
0.181994649828
0.0214677236847
0.0214801752426
0.0228226796729
0.0231377984921
0.0232139976181
0.0232486090541
0.0232806123187
0.0233162136077
0.0233563733758
0.0234010931298
0.0234512339681
0.0235128687979
0.0236171475791
0.0238960797422
0.0248135036083
0.0277073093709
0.0357434291858
0.0551338703665
0.0966907511055
0.181521672368
0.0215280678195
0.0215342149298
0.0228815475442
0.0231981620051
0.0232746105024
0.0233088985746
0.0233407037085
0.0233762558381
0.0234163929022
0.0234612091202
0.023511597258
0.0235735421536
0.0236777006939
0.0239541865323
0.0248605849096
0.0277169081393
0.0356436669956
0.0547634762412
0.0958747216627
0.180948522646
0.0215851998975
0.0215863893178
0.0229390458675
0.0232574652999
0.0233341522623
0.0233685858883
0.0234004488372
0.0234361557051
0.023476545256
0.0235217576543
0.0235726903971
0.0236351904897
0.023739206424
0.0240121649101
0.0249031656159
0.027709381912
0.0354973658255
0.054289928987
0.0948759293299
0.18026538635
0.0216387527626
0.0216364531309
0.0229947376147
0.0233152495976
0.0233926194044
0.0234273623979
0.0234595167519
0.0234956203817
0.0235365434572
0.0235824535165
0.023634235988
0.0236975442142
0.0238013778466
0.0240696102816
0.0249403978546
0.0276827089609
0.03530027143
0.053705708877
0.0936753179569
0.17946052646
0.0216882348931
0.0216841172517
0.0230485370051
0.0233714392227
0.0234496711663
0.0234849181113
0.02351760043
0.0235543620901
0.0235961084789
0.0236430267041
0.0236959760775
0.023760357192
0.0238639642034
0.0241261838166
0.0249715314539
0.0276347171142
0.0350459656701
0.0529929518141
0.0922427696966
0.178518284993
0.021733100437
0.0217289904048
0.0231000560104
0.0234256619879
0.0235049668139
0.0235409324985
0.0235743869038
0.0236120798854
0.0236549508976
0.0237032013752
0.0237576512275
0.0238233883656
0.023926736921
0.0241816149689
0.0249959837745
0.0275635318682
0.0347286377118
0.0521377256534
0.0905395167048
0.177417475171
0.0217727640846
0.0217706598234
0.0231489027263
0.0234775462315
0.0235581562263
0.0235950684171
0.023629549619
0.0236684601655
0.0237127730379
0.0237626961108
0.0238190000857
0.0238864018589
0.0239894967527
0.0242357527758
0.0250136172362
0.0274688003006
0.0343468930529
0.05113432827
0.0885490646177
0.176147198198
0.0218065999004
0.0218086837504
0.0231946628569
0.023526702734
0.0236088686289
0.0236469694563
0.0236827468895
0.023723181913
0.0237692767138
0.023821228336
0.0238797642325
0.0239491737885
0.0240520818607
0.0242885653802
0.0250246640729
0.0273512233996
0.0339014035518
0.049979156422
0.0862340363766
0.174690591893
0.0218339458878
0.0218425832024
0.0232368825987
0.0235727077848
0.0236566989626
0.0236962467434
0.0237336110169
0.0237759036477
0.0238241581953
0.0238785118071
0.0239396879353
0.0240114960877
0.024114375449
0.0243401440791
0.0250296623038
0.0272121660394
0.0333939005754
0.0486717978453
0.0835746321794
0.173047976212
0.0218540206682
0.0218716236056
0.023274859604
0.023614899512
0.0237009973812
0.023742257748
0.0237815026932
0.0238259781666
0.0238767437983
0.023933917617
0.0239981443728
0.0240727452559
0.0241758187925
0.0243901794071
0.0250289567117
0.0270536145677
0.0328281404243
0.0472206342531
0.0805761684098
0.171245748233
0.0218678878736
0.0218943783696
0.0233077096572
0.0236527850796
0.0237414127486
0.0237847089268
0.0238261692915
0.0238732126707
0.0239269529382
0.0239873953792
0.0240551095878
0.0241329877331
0.0242366327624
0.0244392958838
0.0250240380553
0.0268788676388
0.032215097808
0.0456522300233
0.077280954854
0.169178693458
0.0218790202087
0.0219083891989
0.0233336023546
0.0236852206016
0.0237772446623
0.0238230602369
0.0238671233291
0.0239170966862
0.0239741320979
0.024038360975
0.0241101917677
0.0241919712021
0.0242970681549
0.0244892791264
0.025021224696
0.0267026231503
0.0315885696833
0.0440347730621
0.0737561416382
0.15570392397
0.0218857659936
0.021913600164
0.0233518690299
0.0237115537347
0.0238078677534
0.0238567250619
0.0239038334536
0.0239572162763
0.0240180931437
0.0240866427164
0.0241631467084
0.0242495491017
0.0243572861466
0.0245417913
0.0250276479096
0.0265491169853
0.0310050586629
0.0424436993539
0.0696811727528
0.134638931214
0.0218867683143
0.0219094855402
0.0233618314721
0.0237310815989
0.0238325974435
0.0238850665367
0.0239357096379
0.0239930309395
0.0240583207108
0.0241317678437
0.0242135992909
0.0243053826584
0.0244168258967
0.0245959820368
0.025041393774
0.0264146666658
0.0304575166803
0.0408980561175
0.0656179579319
0.119517717455
0.0218806721602
0.0218953650372
0.0233626249656
0.0237429750295
0.0238506785795
0.0239073963658
0.0239621247683
0.0240239478908
0.024094277743
0.0241733027656
0.0242611788079
0.0243591518347
0.0244754149632
0.0246513942922
0.025061558668
0.0262979596373
0.0299459778642
0.039418053569
0.0618173322448
0.111749224271
0.0218662241768
0.0218705165133
0.0233533773781
0.0237463423747
0.0238612864142
0.0239229620354
0.0239823900606
0.0240493530285
0.0241254230697
0.0242107790937
0.0243055097333
0.0244105737698
0.0245328232128
0.0247077230036
0.025087530788
0.026198247825
0.0294745157104
0.0380821907616
0.0603460894207
0.150567924267
0.0218422055551
0.0218340810068
0.0233330797035
0.0237401961229
0.0238635194337
0.0239309460383
0.0239957651239
0.0240685886432
0.0241511850658
0.0242437236981
0.0243462291198
0.024459386001
0.0245888688412
0.024764785571
0.0251189642381
0.026115262223
0.0290431496314
0.036843081991
0.0591067301937
0.175169786108
0.0218073771725
0.0217852129638
0.0233007015808
0.0237234834115
0.0238564049056
0.0239304681036
0.024001458059
0.0240809546297
0.0241709629017
0.0242716489629
0.0243829614782
0.0245053368809
0.0246434066825
0.0248224795841
0.0251556649393
0.0260486016032
0.0286544021108
0.0357786664979
0.0613996549138
0.20516045465
0.021760459999
0.0217230995891
0.0232551949573
0.0236950988849
0.0238389042942
0.0239205895959
0.0239986313353
0.0240857134524
0.0241841253029
0.0242940463206
0.0244153312783
0.0245481866856
0.0246963186872
0.0248807535715
0.0251974687457
0.0259970817254
0.0282948510233
0.0345549163334
0.0552091150863
0.177832347452
0.0217001438662
0.021646983232
0.0231955542083
0.0236539122434
0.0238099307057
0.0239003181736
0.023986395104
0.0240820828494
0.0241900186995
0.0243104021202
0.0244429729402
0.0245877046565
0.0247474797571
0.0249395287936
0.0252443178771
0.025961651424
0.0279962707698
0.0339532985903
0.0634715406008
0.217003375845
0.0216251410832
0.0215563046706
0.0231209198539
0.0235988479637
0.0237683845782
0.0238686215189
0.0239638169587
0.0240692612633
0.0241880000369
0.0243202362021
0.0244655638321
0.0246237005082
0.0247967926886
0.0249987722
0.0252964870774
0.0259439948814
0.0277446298069
0.0333261513383
0.0642060710653
0.220363050908
0.0215343176349
0.0214508436591
0.0230306945865
0.0235289573775
0.0237132052908
0.0238244686098
0.0239299620485
0.0240464600715
0.0241774589822
0.0243231384038
0.024482884123
0.024656098717
0.0248441998713
0.0250581256577
0.0253524902476
0.0259384889227
0.0275226701158
0.03279577137
0.0660131176925
0.229031658015
0.0214268085827
0.0213307898205
0.0229246512299
0.0234435299157
0.0236434536198
0.023766886941
0.0238839482303
0.0240129408611
0.0241578698382
0.0243188049118
0.0244949194249
0.0246850552808
0.024889932192
0.025117526628
0.0254106261662
0.0259381486544
0.0272554181219
0.0314982384429
0.0543428557301
0.177210649924
0.0213021151854
0.0211968372815
0.022803078484
0.0233422618223
0.0235584464706
0.0236950836922
0.0238249686639
0.0239680691527
0.0241288195839
0.0243072453714
0.0245019126486
0.0247111365165
0.0249348209436
0.025177955738
0.025471522997
0.0259459528497
0.0270700831432
0.0309572750931
0.054480032773
0.199937340229
0.0211603836489
0.0210504472292
0.0226670632446
0.0232254304617
0.023457987079
0.0236084802136
0.023752438928
0.0239114652371
0.0240903771439
0.0242888601318
0.0245046406141
0.0247354490767
0.0249806280733
0.0252434779797
0.0255487742377
0.0260011210878
0.0270572314932
0.031532810782
0.0742834656362
0.214581963665
0.0210028100206
0.0208943170269
0.0225187773719
0.0230943667938
0.0233423957056
0.0235071295299
0.0236661400846
0.0238428198696
0.0240428253773
0.0242645467339
0.0245043562987
0.0247593697242
0.02502891787
0.0253158190119
0.0256418495128
0.0260906093027
0.0270853890707
0.031441203239
0.0691858776115
0.219626294536
0.0208318950179
0.02073262898
0.022361963042
0.0229513749656
0.0232131234708
0.023391185538
0.02356603748
0.0237626747336
0.0239873514442
0.0242360113865
0.0245028000449
0.0247841909951
0.0250801279101
0.0253929393767
0.0257423626623
0.0261925778505
0.027119977367
0.0313289601155
0.0703858981875
0.232790671688
0.0206520048075
0.0205716451405
0.0222023860276
0.0228009340645
0.0230726855641
0.0232621109096
0.0234515195991
0.023667911978
0.0239192180005
0.0241970978634
0.0244928247585
0.0248029476975
0.0251275296045
0.0254666330996
0.0258374284149
0.0262936956358
0.0271118304175
0.0304765751787
0.0595405053203
0.21904015785
0.0204692006148
0.0204192394574
0.0220476914193
0.0226492196376
0.0229251183284
0.023119166265
0.0233111064439
0.0235214762892
0.0237781384801
0.0240702377851
0.0243893558532
0.024734317547
0.0251039423059
0.0254861314447
0.0258882964558
0.026347986595
0.0270367339053
0.0293492037646
0.0460506008765
0.15797867098
0.020291185244
0.0202842668591
0.0219069928384
0.022504031351
0.0227736876966
0.0229504693263
0.0230736193446
0.023040077349
0.0231633005836
0.0233726535296
0.0236794630981
0.0240874840446
0.0246106833514
0.0251689725288
0.0256983168902
0.026214873006
0.0268419362737
0.0289602985661
0.0476829407973
0.198242925159
0.0201265048887
0.020174541777
0.0217893706446
0.0223735086168
0.0226183210909
0.0227154687522
0.022483599027
0.0211814362929
0.0261607582289
0.0255691131547
0.0257895580003
0.0266736806898
0.0220567995158
0.0236551245245
0.0247942162773
0.0256879235717
0.0266032041206
0.0300560603483
0.0775589337453
0.246262449136
0.0199854490182
0.0200965781835
0.0217041821727
0.0222662035036
0.0224550783123
0.0223810973342
0.021560269088
0.0231142350991
0.0268123681025
0.022468090215
0.023950351897
0.0251105647292
0.0262433480456
0.029195649785
0.0563576541521
0.238764770655
0.019885993585
0.0200486698276
0.0216585539085
0.0222134731965
0.0223792077709
0.022224154974
0.0211472102635
0.0215855595146
0.0227891373484
0.0217678243971
0.0233988145326
0.0246111327005
0.0258257738326
0.0281984190008
0.043402198636
0.170332306657
0.0198860006051
0.0200486732765
0.021658550751
0.0222134633846
0.0223791940982
0.0222241437825
0.0211472189627
0.0215855639081
0.0227893146213
0.021768125977
0.0233994113289
0.0246117034816
0.0258264447651
0.0281990438748
0.0434022950714
0.170331558798
0.0199854687586
0.0200965914021
0.0217041802522
0.022266185147
0.0224550489701
0.0223810668541
0.0215602546429
0.0231142588915
0.026812613558
0.0224684884901
0.0239514344764
0.0251115346584
0.0262443406231
0.029196638468
0.0563575721749
0.23876166269
0.0201265185395
0.0201745489855
0.0217893572173
0.0223734750616
0.0226182753687
0.0227154294522
0.0224835772651
0.0211814618321
0.0261608725351
0.0255693284227
0.0257898808713
0.0266741422477
0.0220573181143
0.0236559432286
0.0247960070957
0.0256892911521
0.0266044683054
0.0300571926609
0.07755643437
0.246259937291
0.0202911966995
0.0202842761024
0.0219069910998
0.0225040196226
0.022773671134
0.0229504585365
0.023073627172
0.0230401095946
0.0231633774009
0.0233727950019
0.0236796995053
0.0240877624227
0.0246110359076
0.0251696760457
0.0257002596851
0.0262165233384
0.026843573001
0.0289617831982
0.0476835100017
0.198241636658
0.0204692058525
0.0204192474723
0.022047695467
0.0226492224656
0.0229251262417
0.023119193745
0.0233111659483
0.0235215795806
0.0237782936703
0.024070457398
0.0243896580075
0.0247347209801
0.0251044519381
0.0254870045553
0.0258904425389
0.0263499043183
0.0270387635808
0.0293513307421
0.0460550409807
0.158006492418
0.0206520097936
0.0205716566089
0.0222023986338
0.0228009511904
0.0230727058095
0.0232621712384
0.0234516260632
0.0236680742548
0.0239194438924
0.0241973951053
0.0244932032335
0.0248034261316
0.0251281525391
0.0254676422641
0.025839684253
0.0262957010936
0.0271139372783
0.0304786765532
0.0595414706855
0.219042130537
0.0208319043895
0.0207326443763
0.022361982014
0.0229513902012
0.023213058223
0.023391249199
0.0235661733269
0.0237628839214
0.0239876332226
0.0242363690283
0.0245032409715
0.0247847331342
0.025080816258
0.025394006505
0.0257446058543
0.0261945266854
0.0271219515524
0.0313306676433
0.0703867039825
0.232790815855
0.0210028042565
0.0208943141849
0.0225187948877
0.0230943510536
0.023342413664
0.0235070906276
0.0236662377098
0.0238430462064
0.0240431367778
0.0242649309231
0.0245048163211
0.0247599408469
0.0250296365507
0.0253169025728
0.0256440213355
0.0260924373831
0.0270871766064
0.0314429191617
0.0691868036553
0.219626465126
0.0211604462487
0.0210505334063
0.0226671532515
0.0232255619359
0.0234580931692
0.0236086417356
0.0237526433444
0.0239116282205
0.0240906408725
0.0242891714168
0.0245049900122
0.0247359621978
0.0249813110923
0.0252445376183
0.025550874141
0.0260028702302
0.0270589654932
0.0315344603588
0.0742842569621
0.214582473952
0.0213022379536
0.0211969963423
0.0228032636369
0.0233424592404
0.0235586816593
0.0236953292866
0.0238252609824
0.0239683923146
0.0241292256102
0.024307683329
0.0245023605375
0.0247117761981
0.0249356360375
0.0251791140914
0.0254736671864
0.0259477303317
0.027071887186
0.0309588831596
0.0544790953936
0.199934739978
0.021426990789
0.0213310181489
0.0229249067919
0.0234438073176
0.0236437578315
0.0237672278293
0.023884323367
0.0240133668364
0.0241583503538
0.024319338721
0.0244954602986
0.0246857784859
0.0248908058958
0.0251187331484
0.0254127637946
0.0259399474977
0.0272573192465
0.0314997233416
0.0543375950694
0.177203535743
0.0215345683642
0.0214511543034
0.0230310374909
0.0235293205866
0.0237135939835
0.0238248928422
0.0239304333723
0.0240469908216
0.0241781024507
0.0243237432386
0.0244835271826
0.0246569107804
0.0248451308047
0.0250593518525
0.0253545787591
0.025940214032
0.0275245217164
0.0327972640767
0.0660112508676
0.229030949238
0.0216254474966
0.0215566790555
0.0231213305557
0.0235992790928
0.0237688396057
0.0238691092472
0.0239643490468
0.0240698700113
0.0241887612813
0.0243209299287
0.0244663030043
0.024624679267
0.0247977992747
0.0250000608792
0.0252985423016
0.0259456602555
0.027746433577
0.0333278670853
0.0642054329581
0.220362350472
0.0217004841616
0.0216473961624
0.0231960055627
0.0236543834274
0.0238104241159
0.0239008415054
0.0239869597708
0.0240827229224
0.0241908323779
0.0243111395486
0.0244437781995
0.0245887999075
0.0247485798553
0.0249409849134
0.0252463779925
0.0259632883786
0.0279980773565
0.0339550583082
0.0634699195378
0.217001887511
0.021760789733
0.0217234917674
0.0232556240867
0.0236955482101
0.0238393752087
0.0239210873476
0.0239991630755
0.0240862947899
0.024184822442
0.0242947790169
0.0244161503388
0.0245493218141
0.0246974773939
0.0248823155255
0.0251995834739
0.0259987038348
0.0282966632862
0.0345569510646
0.0552094132396
0.177836016527
0.0218077245198
0.0217856233418
0.023301152
0.0237239561208
0.0238569005357
0.0239309908243
0.0240020124801
0.0240815434526
0.024171591869
0.0242723205036
0.0243836981254
0.0245063045733
0.0246445496931
0.0248240390987
0.0251577084909
0.0260501927359
0.0286562446282
0.0357810962678
0.0614036226146
0.205167181464
0.0218425664243
0.0218345061588
0.023333547441
0.0237406879902
0.0238640357668
0.0239314906667
0.0239963420735
0.0240691989156
0.0241518300353
0.0242444098302
0.0243469641176
0.0244602665383
0.0245899051955
0.0247661541449
0.0251208490353
0.0261168150824
0.0290450025798
0.0368458154192
0.0591119114607
0.175175535292
0.0218665939537
0.0218709515109
0.023353856656
0.0237468471213
0.0238618169527
0.0239235221762
0.0239829838151
0.0240499806091
0.0241260852797
0.0242114832466
0.0243062621826
0.0244114634342
0.024533853567
0.0247089730584
0.0250893186402
0.0261997694629
0.0294763500352
0.0380849954956
0.0603507625666
0.150571998939
0.0218810469922
0.0218958057179
0.0233631107843
0.0237434871092
0.0238512174173
0.0239079659395
0.0239627291101
0.0240245870952
0.02409495213
0.0241740212177
0.0242619482446
0.0243600554015
0.0244764559689
0.0246526355156
0.0250632856817
0.026299460547
0.0299477752279
0.0394206881313
0.0618211416918
0.111751741897
0.0218871452035
0.0219099285841
0.0233623199305
0.0237315968308
0.0238331401566
0.0238856409655
0.0239363198544
0.0239936769582
0.0240590026333
0.0241324973889
0.0242143854325
0.0243063007228
0.024417878543
0.0245972232938
0.0250430742504
0.0264161760041
0.0304592974579
0.0409004563248
0.0656207798527
0.119518832585
0.0218861429887
0.0219140440383
0.0233523584692
0.0237120704601
0.0238084128198
0.0238573030302
0.0239044480957
0.0239578666125
0.0240187773447
0.0240873809395
0.0241639534413
0.0242504872577
0.0243583556729
0.0245430429836
0.0250292953007
0.0265506911418
0.0310068963001
0.0424458845109
0.069683234374
0.134639750062
0.021879396988
0.0219088343622
0.0233340938025
0.0236857404124
0.0237777942158
0.0238236444207
0.0238677439432
0.0239177473822
0.0239748003706
0.0240390956368
0.0241110231174
0.0241929366551
0.0242981567308
0.0244905392852
0.0250228118179
0.0267042360888
0.0315904687257
0.0440367590276
0.0737579280714
0.155704508356
0.0218682659017
0.0218948275895
0.0233082066554
0.02365331182
0.0237419708713
0.023785303688
0.0238267975747
0.0238738528858
0.0239275554515
0.023988091136
0.024055964712
0.024133980681
0.0242377436841
0.0244405497967
0.0250255272734
0.0268804795582
0.0322170023458
0.0456540501114
0.0772825195501
0.16917915749
0.0218544027202
0.0218720841203
0.0232753700644
0.023615440914
0.023701571382
0.0237428704247
0.0237821569658
0.0238266614535
0.0238774507086
0.0239347280859
0.0239990570377
0.0240737667029
0.0241769473473
0.0243914148337
0.0250302793137
0.0270550246143
0.0328297924328
0.0472222378287
0.0805775721807
0.17124617651
0.0218342904795
0.0218429960008
0.0232373422663
0.0235731977643
0.023657220932
0.0236968063278
0.0237342122975
0.0237765408415
0.023824825236
0.023879282317
0.0239405456458
0.0240124451489
0.0241154196949
0.0243412728878
0.0250308313601
0.0272133197123
0.0333951163343
0.0486729688971
0.0835756172668
0.173048195114
0.0218069755987
0.0218091371585
0.0231951690456
0.0235272434782
0.0236094456062
0.0236475890785
0.0236834173285
0.0237239088091
0.0237700673512
0.0238221104753
0.0238807428752
0.0239502591456
0.0240532757912
0.0242898438082
0.0250259595399
0.0273524517232
0.0339025717329
0.0499802551324
0.0862348592762
0.174690835403
0.0217731038453
0.0217710653031
0.0231493585661
0.0234780376564
0.0235586850462
0.0235956402704
0.0236301715816
0.0236691404631
0.0237135199119
0.0237635224609
0.0238199163404
0.0238874174897
0.0239906097241
0.0242369287886
0.0250147675954
0.0274698116213
0.0343477450386
0.0511350575504
0.0885495303993
0.176147243484
0.0217334282378
0.0217293831055
0.0231004983698
0.0234261408608
0.0235054843691
0.0235414938116
0.0235749989173
0.0236127509083
0.0236556904425
0.0237040202541
0.023758560479
0.0238243959406
0.0239278366204
0.0241827630752
0.0249970735584
0.0275644255687
0.0347292947103
0.0521382109794
0.0905398077143
0.177417498125
0.0216885450572
0.0216844892384
0.0230489547565
0.0233718951018
0.0234501700766
0.0234854622745
0.0235181955317
0.0235550164062
0.0235968313808
0.0236438288332
0.0236968679988
0.0237613449448
0.023865036822
0.0241272893665
0.0249725479827
0.027635486868
0.0350464344989
0.0529932128123
0.0922429022383
0.178518306693
0.0216390388482
0.0216367926451
0.022995106364
0.0233156606387
0.0233930911949
0.0234278860346
0.0234600919156
0.0234962553475
0.0235372467013
0.0235832355416
0.0236351069888
0.0236985080454
0.0238024162508
0.0240706651314
0.0249413349922
0.0276833546687
0.0353005635515
0.0537057758778
0.093675323356
0.179460523821
0.0215854488667
0.0215866693678
0.0229392998061
0.0232577726
0.0233345723031
0.0233690841187
0.0234010007661
0.0234367720525
0.023477230233
0.0235225218552
0.023573545678
0.0236361399194
0.0237402138042
0.0240131714837
0.0249040297443
0.0277099178191
0.0354975069499
0.0542898395301
0.0948758399681
0.180265368097
0.0215282703814
0.0215344650296
0.0228818531913
0.0231985581675
0.0232749234819
0.0233093643354
0.0233412267439
0.0233768662847
0.0234170741899
0.0234619713254
0.0235124605491
0.0235745227094
0.0236786988514
0.0239551615826
0.0248613989582
0.0277173675808
0.0356436974837
0.0547632717767
0.0958745719357
0.180948499837
0.0214679570991
0.0214805100001
0.0228230716913
0.0231382280986
0.02321438343
0.0232489680201
0.0232810116908
0.0233167766649
0.023357011785
0.0234018089429
0.0234520829355
0.0235138558847
0.0236181112027
0.023896977271
0.0248142386328
0.027707694282
0.0357433809357
0.0551335903736
0.0966905734919
0.181521645475
0.0214049267265
0.0214250432571
0.022763121029
0.0230770174459
0.0231531734291
0.0231881158864
0.0232205731681
0.0232567158433
0.0232972456048
0.0233422260104
0.0233925518647
0.0234543046432
0.0235586212859
0.0238389448927
0.0247634103252
0.0276832047489
0.0358016269253
0.0554098615031
0.0973410595154
0.181994622622
0.0213395219818
0.0213682875653
0.0227022597173
0.0230150598631
0.0230914814554
0.0231270007749
0.0231601054207
0.0231968740331
0.0232379565342
0.0232833740261
0.0233339843277
0.023395905133
0.0235003571141
0.0237813890755
0.0247098405751
0.0276465375562
0.0358251882373
0.0556075713378
0.0978554795025
0.182384108621
0.0212720890772
0.0213104176723
0.0226406927294
0.022952789135
0.0230296685524
0.0230660000694
0.023100006423
0.0231376696967
0.0231795826037
0.02322571626
0.0232769074905
0.0233391259991
0.0234437760008
0.0237249799156
0.0246547051425
0.0276002902702
0.0358201157355
0.0557393403265
0.0982536439011
0.182701158051
0.0212029548985
0.0212517654562
0.0225786861989
0.0228903098296
0.022967882849
0.0230052737333
0.023040442185
0.0230792691745
0.0231222858012
0.0231694223325
0.0232214339855
0.0232842732123
0.0233890895682
0.0236700145147
0.0245988519069
0.0275467906327
0.035791876197
0.0558157678074
0.0985518391296
0.18295219239
0.0211323920263
0.0211924731328
0.0225163766801
0.0228278056148
0.0229063321941
0.022945049113
0.0229816545146
0.0230219218331
0.0230663138149
0.0231146988463
0.0231677712303
0.0232313506797
0.0233366211935
0.0236168864757
0.0245431626322
0.027488174693
0.0357450584599
0.0558468780726
0.0987726649442
0.183151754949
0.0210606359597
0.0211327197928
0.0224539332238
0.0227654687923
0.0228452369542
0.0228855717801
0.0229239070685
0.0229659022633
0.0230119526613
0.0230618962917
0.0231162074971
0.0231807861632
0.0232865779162
0.0235659848714
0.0244885198927
0.0274267625403
0.0356854454245
0.0558440746377
0.0989355506204
0.183321225029
0.0209879447262
0.0210726445378
0.022391524414
0.0227035020291
0.0227848369453
0.0228271125191
0.0228674910634
0.0229115116357
0.0229595267151
0.0230111888533
0.0230670242789
0.023132757931
0.0232392210641
0.0235176897385
0.0244357350558
0.0273646317295
0.0356182553163
0.055817452527
0.0990460174741
0.183454057487
0.0209145031292
0.0210123910414
0.0223293246427
0.0226421278354
0.0227254027334
0.0227699786547
0.0228127343095
0.0228590850323
0.0229092629033
0.0229629126869
0.0230203804134
0.0230876081922
0.0231948257378
0.0234723666332
0.0243855160931
0.0273032523067
0.0355459948253
0.0557713194417
0.0991070529085
0.183545578474
0.0208404925484
0.0209520889792
0.0222675091111
0.0225815877469
0.0226672362901
0.0227145133273
0.0227599970413
0.0228089557429
0.022861539862
0.0229173606181
0.022976797677
0.023045555992
0.0231536452018
0.023430355001
0.0243385704071
0.0272444141145
0.0354725875278
0.0557115718708
0.0991413975839
0.18362975093
0.0207660465348
0.020891788897
0.0222061797007
0.0225220682355
0.0226105956843
0.0226610163818
0.0227095935129
0.0227614525629
0.0228166758926
0.0228748591988
0.0229363642522
0.023006737353
0.0231158057173
0.0233918400017
0.0242953513759
0.0271893006841
0.0354009752115