/*--------------------------------*- C++ -*----------------------------------*\
| =========                 |                                                 |
| \\      /  F ield         | OpenFOAM: The Open Source CFD Toolbox           |
|  \\    /   O peration     | Version:  v2012                                 |
|   \\  /    A nd           | Website:  www.openfoam.com                      |
|    \\/     M anipulation  |                                                 |
\*---------------------------------------------------------------------------*/
FoamFile
{
    version     2.0;
    format      ascii;
    class       volScalarField;
    location    "1";
    object      p_rgh;
}
// * * * * * * * * * * * * * * * * * * * * * * * * * * * * * * * * * * * * * //

dimensions      [1 -1 -2 0 0 0 0];


internalField   nonuniform List<scalar> 
1984
(
8966.50020776
8966.24896961
8966.14114907
8966.0357739
8965.92351309
8965.81141792
8965.71138644
8965.6390316
8965.61376714
8965.6587142
8965.80072386
8966.06781584
8966.5027009
8967.15357636
8967.96862954
8968.87348887
8970.23705655
8811.93110929
3450.1105593
-0.433610071219
8966.65546906
8966.39693707
8966.30692427
8966.21186658
8966.09567931
8965.9715621
8965.85426674
8965.76019489
8965.70930839
8965.72396528
8965.83165449
8966.05935916
8966.44918837
8967.07242014
8967.91372663
8968.78996386
8970.20225365
8813.46389857
3495.40088129
0.0578096631175
8966.51471341
8966.22400207
8966.12173169
8966.01227809
8965.87443183
8965.72096589
8965.56633424
8965.42699092
8965.32152941
8965.27359271
8965.30899896
8965.45566342
8965.75564213
8966.28509287
8967.03192682
8967.78452582
8968.93195743
8805.72209996
3452.88404521
-0.128569666753
8966.23743401
8965.91733738
8965.79192192
8965.65263902
8965.47564603
8965.27238792
8965.05660616
8964.84370723
8964.65263897
8964.50389038
8964.42482528
8964.44176192
8964.59687034
8964.96555989
8965.53265016
8966.09548301
8967.05101629
8795.37726698
3411.60251919
-0.15417640618
8965.86852369
8965.52953959
8965.37723696
8965.1984728
8964.96898745
8964.69917073
8964.40174598
8964.09116102
8963.784753
8963.50348142
8963.27051654
8963.1122957
8963.06988371
8963.21620697
8963.53313156
8963.82130382
8964.47857079
8782.83057364
3361.85922905
-0.167342717073
8965.42336394
8965.06865656
8964.88516548
8964.65850733
8964.36459401
8964.01284733
8963.6147683
8963.1834684
8962.73461916
8962.28747787
8961.86422496
8961.48783383
8961.19786808
8961.06414637
8961.06643975
8961.00917756
8961.27928086
8766.7069834
3298.96341194
-0.172108585662
8964.92087159
8964.54987586
8964.33047361
8964.04800617
8963.67858864
8963.23056513
8962.71398932
8962.14028906
8961.52320021
8960.87983244
8960.23013743
8959.5943115
8959.00914308
8958.5406897
8958.16677418
8957.69874771
8957.50767638
8746.0177237
3226.39968447
-0.170237497037
8964.38477966
8963.99621524
8963.73652943
8963.39105458
8962.9360975
8962.37874613
8961.7273589
8960.9913226
8960.18208666
8959.31405751
8958.40440163
8957.47018639
8956.54471398
8955.68946724
8954.88058117
8953.9373135
8953.21244173
8721.83811098
3144.6997625
-0.165447340668
8963.84118338
8963.4337826
8963.12998735
8962.71519858
8962.16590675
8961.48773893
8960.68707489
8959.77091718
8958.74795703
8957.62948441
8956.4291547
8955.16049618
8953.85251671
8952.56114027
8951.26045404
8949.77753061
8948.443333
8694.37666533
3054.34077969
-0.158705738265
8963.3182584
8962.89098017
8962.53990296
8962.05053538
8961.39955031
8960.59089163
8959.62865851
8958.51709138
8957.26170297
8955.87004249
8954.35175305
8952.71602289
8950.98676826
8949.21311371
8947.36674782
8945.28335186
8943.26238679
8662.33727861
2957.66950147
-0.151203662527
8962.84632316
8962.39850767
8961.99777075
8961.42977815
8960.67139861
8959.72466068
8958.59108857
8957.27177121
8955.76852854
8954.08469284
8952.22506719
8950.19386597
8948.00887505
8945.71120497
8943.26992457
8940.52833358
8937.75071145
8627.49379651
2856.09059411
-0.142766936386
8962.45750136
8961.98897104
8961.53712461
8960.88786013
8960.01827809
8958.92826303
8957.61646175
8956.08042466
8954.31782052
8952.32706528
8950.10754956
8947.65746622
8944.98745059
8942.12894664
8939.04731255
8935.5931204
8931.98486459
8588.47925447
2751.38225051
-0.133762931109
8962.18520109
8961.69632646
8961.19296271
8960.46134836
8959.47887417
8958.24307434
8956.74941712
8954.99155514
8952.96247385
8950.65518356
8948.06271839
8945.17646663
8941.99859687
8938.54933924
8934.78934587
8930.57408997
8926.06640241
8546.58384005
2644.83605168
-0.123882284059
8962.0635387
8961.55528873
8961.00114201
8960.18782358
8959.09310415
8957.71198198
8956.03648339
8954.05603413
8951.75850168
8949.13078702
8946.1589112
8942.82641882
8939.12565486
8935.06402635
8930.59631604
8925.57928856
8920.10943064
8502.48692692
2538.75864333
-0.113503946996
8962.12670627
8961.60068818
8960.99771992
8960.10520229
8958.90141584
8957.37871672
8955.52546036
8953.32638562
8950.76402538
8947.81849371
8944.46852714
8940.68796388
8936.45873319
8931.77314063
8926.57879995
8920.72932048
8914.23871785
8456.19481008
2434.87197186
-0.103080919891
8962.4082889
8961.86678388
8961.21823944
8960.25099848
8958.94415027
8957.28698381
8955.26405479
8952.85574576
8950.03819871
8946.78514804
8943.06605587
8938.84594793
8934.09361308
8928.78566761
8922.86045126
8916.16458071
8908.61424734
8409.06109404
2335.20999388
-0.0921851959349
8962.94047168
8962.3864413
8961.69696059
8960.66167659
8959.26011846
8957.47933616
8955.29981771
8952.69703814
8949.64106557
8946.09801935
8942.02892629
8937.38832508
8932.13150546
8926.21739163
8919.5751085
8912.04148078
8903.42536186
8362.70230553
2242.14027317
-0.080946849151
8963.75329846
8963.19042566
8962.46603198
8961.37094988
8959.88662997
8957.9969516
8955.67810437
8952.90106753
8949.63010159
8945.82341087
8941.43296467
8936.40280915
8930.67387432
8924.1876155
8916.86142156
8908.52227325
8898.86972073
8318.74057031
2157.98130226
-0.0699023546348
8964.87392723
8964.3065375
8963.55444354
8962.41037461
8960.85762761
8958.87668835
8956.44129972
8953.51681943
8950.06154154
8946.02636931
8941.35407454
8935.9778461
8929.82416572
8922.81642931
8914.85866659
8905.76683143
8895.13289069
8279.0757695
2085.18725345
-0.0595484718432
8966.32565934
8965.75858867
8964.9875065
8963.8070972
8962.20257842
8960.15296038
8957.62785148
8954.58813747
8950.98650832
8946.76683683
8941.86299746
8936.19732451
8929.68201289
8922.22198678
8913.70532813
8903.9333259
8892.38838193
8245.53596475
2025.65163224
-0.0495646827201
8968.12784892
8967.56648227
8966.78591587
8965.58355708
8963.9472736
8961.85405164
8959.27029908
8956.15300791
8952.44984687
8948.09824776
8943.02385039
8937.1386704
8930.34120012
8922.5183198
8913.54052321
8903.19274606
8890.85706995
8220.17716782
1981.55562419
-0.0394399502184
8970.29454763
8969.74465162
8968.96555084
8967.75711731
8966.11076524
8964.00187046
8961.39433892
8958.24197966
8954.48831448
8950.06532924
8944.89153975
8938.86973215
8931.88597356
8923.81072688
8914.49746019
8903.71710264
8890.76343971
8205.85918535
1955.88400895
-0.029486934139
8972.83409046
8972.30155286
8971.53589485
8970.33845221
8968.70535575
8966.61099071
8964.01753662
8960.87656813
8957.1286706
8952.70178921
8947.5089215
8941.44526258
8934.38637899
8926.189014
8916.69283882
8905.66455726
8892.32488543
8204.95310918
1952.39361838
-0.0200409132125
8975.74862748
8975.23911135
8974.50007519
8973.33137837
8971.73580649
8969.68757478
8967.14804694
8964.0677385
8960.38578646
8956.0279438
8950.90389028
8944.9033223
8937.89344604
8929.72045979
8920.21509684
8909.15731061
8895.73784093
8219.5653573
1974.36795234
-0.0111669190099
8979.03389969
8978.55245783
8977.85488337
8976.73235125
8975.19852417
8973.2284517
8970.78352508
8967.81446366
8964.26084336
8960.04833473
8955.08644691
8949.26210719
8942.43549222
8934.44482639
8925.11581368
8914.26370855
8901.17236461
8250.61674517
2024.48302045
-0.00298133542643
8982.67898409
8982.2311855
8981.59090687
8980.52953209
8979.08081669
8977.22054432
8974.91054042
8972.10327558
8968.74022659
8964.74986981
8960.04647326
8954.51866863
8948.01736805
8940.37483935
8931.40921727
8920.99866741
8908.84675257
8299.83776755
2108.30993962
0.00257978587274
8986.66401732
8986.26350843
8985.68834305
8984.69979874
8983.35992325
8981.64051294
8979.5042637
8976.90738054
8973.79374278
8970.09831921
8965.74793723
8960.64566654
8954.61670839
8947.49591581
8939.07424634
8929.22703273
8918.8288245
8366.44561591
2229.5810105
0.00285692783467
8990.95240702
8990.64720457
8990.09587931
8989.21115421
8988.00591057
8986.45617858
8984.53048138
8982.18807759
8979.38027187
8976.03666292
8972.12232327
8967.60044671
8962.18480071
8955.77810438
8948.12345691
8938.77620132
8930.90379199
8447.23731984
2389.964721
-0.006370999009
8995.53961723
8995.29495963
8994.80742641
8994.03495376
8992.98112202
8991.62558986
8989.94200395
8987.89805689
8985.45410332
8982.56185573
8979.17742525
8975.23174956
8970.58930176
8965.13469197
8958.68687495
8950.93349627
8942.28575059
8546.57354881
2594.56574187
0.00277830084476
9000.3850109
9000.19542167
8999.78315572
8999.13095138
8998.24183555
8997.09921836
8995.68225721
8993.9664463
8991.92231128
8989.51633598
8986.71408518
8983.46423033
8979.69873803
8975.34573133
8970.30034903
8964.33306122
8957.599453
8667.51395485
2869.42350337
0.0098569173335
9005.4373816
9005.30655975
9004.97959772
9004.45404632
9003.73872686
9002.82162825
9001.68708158
9000.31842614
8998.69663523
8996.80183793
8994.6158723
8992.11698216
8989.28809627
8986.12288861
8982.62445576
8978.76052714
8974.86265363
8800.25132068
3208.60812412
-0.029611816565
9010.64938335
9010.58362451
9010.3468891
9009.952906
9009.41700238
9008.73214704
9007.88795823
9006.87492407
9005.68396531
9004.30809208
9002.74586303
9001.00338625
8999.10768036
8997.11600012
8995.14844001
8993.41357768
8992.62367056
8947.74459181
3611.14503541
-0.235739607764
9015.97312197
9015.97706867
9015.83289328
9015.57240893
9015.21787419
9014.76650322
9014.21334018
9013.55491661
9012.79024037
9011.92304463
9010.96599962
9009.94482361
9008.91467688
9007.97350854
9007.31087362
9007.26835092
9008.76717401
9013.00022907
4109.28805897
5.16891735507
9021.35861055
9021.4348202
9021.38321584
9021.25526337
9021.08012993
9020.85926574
9020.59128774
9020.27759159
9019.92383446
9019.54133872
9019.15150261
9018.78915192
9018.51769246
9018.43768227
9018.72514019
9019.65534531
9021.88344792
9026.31133157
4494.95614148
9.66085558753
9026.75363755
9026.90343199
9026.94215049
9026.94309607
9026.94289467
9026.94490466
9026.95061592
9026.96528382
9026.99927568
9027.06858716
9027.19845704
9027.42430779
9027.80143587
9028.40248134
9029.32718882
9030.66538564
9032.77842353
9035.35859637
4565.9840185
-10.7107653068
9032.10454304
9032.32832485
9032.45341343
9032.57789998
9032.74470118
9032.95858516
9033.22232657
9033.54418611
9033.937656
9034.42162551
9035.02280608
9035.773619
9036.71617278
9037.8899803
9039.31308914
9040.8285504
9041.99475337
9044.40235085
7103.25302522
392.77187212
9037.35684321
9037.6543152
9037.86078115
9038.10152515
9038.42536244
9038.83710899
9039.33998339
9039.94406194
9040.66514992
9041.52462346
9042.55118973
9043.7763781
9045.23483599
9046.95352604
9048.98489199
9051.52869751
9055.7335494
9067.39500174
5715.06301792
-12.1795436318
9042.4559297
9042.82616854
9043.10810669
9043.4565549
9043.92570381
9044.51917988
9045.23947036
9046.09734855
9047.11053682
9048.30364121
9049.70994267
9051.36563388
9053.3061332
9055.54633126
9058.08959071
9060.84758525
9063.20146763
9062.31118359
5222.32538425
-10.6039305778
9047.34774286
9047.78893418
9048.1397726
9048.58653422
9049.18809667
9049.94538373
9050.85870016
9051.93837664
9053.20342471
9054.68272358
9056.41757411
9058.45707922
9060.84863255
9063.59098396
9066.55022913
9069.25581284
9070.92113976
9069.92565402
5341.93234966
-23.8962090252
9051.97921539
9052.48847017
9052.90119925
9053.43634784
9054.15634435
9055.05806454
9056.13774443
9057.40393705
9058.87437081
9060.58274446
9062.58071704
9064.94211906
9067.75414895
9071.08671927
9074.86466655
9078.30273351
9078.91382133
9085.03806758
8890.73574886
1713.13475831
9056.29922825
9056.87215801
9057.33899655
9057.95221054
9058.77619322
9059.80278274
9061.02174222
9062.43413558
9064.05533713
9065.9186675
9068.09316921
9070.67841171
9073.82477211
9077.79238242
9083.24364345
9091.6237625
9105.30406534
9141.99407283
8492.65929623
45.4374406472
9060.25942784
9060.89005661
9061.40269121
9062.08331143
9062.99821388
9064.12996458
9065.45756153
9066.97236154
9068.67705231
9070.60501048
9072.83733937
9075.49983408
9078.78778635
9083.02838278
9088.76930713
9096.77131322
9105.6629506
9111.60734696
6167.07322773
-8.76860389083
9063.81573746
9064.49595218
9065.04575871
9065.78388202
9066.7742938
9067.98986938
9069.39638935
9070.96831841
9072.67488925
9074.55144794
9076.69692385
9079.23701099
9082.33420352
9086.18908148
9091.00284586
9096.61207413
9101.81737502
9104.09825783
6159.21411835
-7.86053876391
9066.93061723
9067.65020555
9068.22726573
9069.01211661
9070.06347922
9071.34275581
9072.78991339
9074.36446701
9075.96694039
9077.65912739
9079.56785289
9081.7858436
9084.36381093
9087.32968058
9090.83837321
9094.84427379
9099.77599222
9103.18916296
6208.26315392
-13.393090544
9069.57567875
9070.32014949
9070.91227382
9071.73071871
9072.82630399
9074.1424418
9075.58536227
9077.09435437
9078.42457088
9079.80362835
9081.36905516
9083.13759429
9084.94856587
9086.72809271
9088.69438176
9090.89824902
9095.84327965
9108.98062399
8174.8780657
-48.8138846667
9071.73541417
9072.48655845
9073.07940093
9073.91427817
9075.03347995
9076.36583809
9077.76400199
9079.10395297
9079.81463838
9080.77818497
9081.99126894
9083.23361438
9084.10324387
9084.7410678
9085.033877
9082.79977518
9071.95412271
9047.6460708
8876.67944276
2812.23502289
9073.41033604
9074.14805311
9074.72652604
9075.55590816
9076.67368928
9078.02771299
9079.48633458
9080.93009216
9080.86533457
9080.99442816
9081.86230939
9082.16606465
9080.97229229
9081.92817525
9082.01991706
9076.976339
9061.33760368
9027.39759586
8864.12292135
1794.03717989
9074.61829777
9075.32490466
9075.87473785
9076.66508756
9077.68438566
9078.77530336
9079.30031185
9078.55103445
9075.13951922
9079.4152884
9081.8655998
9081.56214055
9074.49540813
9081.84490345
9083.63394842
9081.29759113
9076.44995294
9072.05568955
6455.1384591
-59.6492926281
9075.39347176
9076.06590507
9076.59230353
9077.38301026
9078.51341848
9079.97181958
9081.4205615
9085.17126378
9052.54477404
9085.58448927
9088.24026781
9087.1927076
9087.45413214
9098.87204991
8427.89011689
-70.2355986407
9075.76723292
9076.41077799
9076.9075066
9077.6281605
9078.58889426
9079.71763532
9080.86038521
9082.95547615
9073.57532482
9088.73566505
9092.36783399
9092.00124631
9086.1274902
9069.63177846
8932.05319316
2771.81039561
9075.76972922
9076.41323866
9076.90973286
9077.62976087
9078.58932509
9079.71621391
9080.85726196
9082.95046943
9073.55774047
9088.72039448
9092.35566084
9091.99445071
9086.12393891
9069.63085325
8932.05720324
2771.81584906
9075.40073244
9076.07303774
9076.59872042
9077.38763982
9078.51470327
9079.96793482
9081.41030671
9085.15531353
9052.49230686
9085.53732626
9088.20872481
9087.17517045
9087.44597066
9098.86717727
8427.92167571
-70.2296104313
9074.62996711
9075.33621074
9075.88465486
9076.67191692
9077.68579179
9078.76859974
9079.28245898
9078.51830935
9075.08185781
9079.33850509
9081.77863985
9081.47767128
9074.42836096
9081.78801115
9083.58963585
9081.27487538
9076.43414389
9072.04769672
6455.14024212
-59.6477083101
9073.42467115
9074.16174891
9074.73828581
9075.56366107
9076.67475601
9078.01902698
9079.46441983
9080.89122237
9080.80633571
9080.91887811
9081.77772297
9082.08204002
9080.8975313
9081.86501333
9081.96992036
9076.94160487
9061.31587038
9027.38664723
8864.12517336
1794.04326991
9071.75233649
9072.5024011
9073.09253256
9073.9223761
9075.03367117
9076.35480014
9077.73854969
9079.06155132
9079.7552567
9080.70527307
9081.91134729
9083.15495722
9084.03280595
9084.68009887
9084.98440395
9082.76085989
9071.92822273
9047.62922305
8876.67565799
2812.20907773
9069.5947469
9070.33770529
9070.92637505
9071.73909304
9072.82599805
9074.12935249
9075.55684786
9077.04988405
9078.36532933
9079.73307002
9081.29253363
9083.06216117
9084.88029453
9086.66926997
9088.64711513
9090.86085216
9095.81417123
9108.96291643
8174.86092898
-48.8162498163
9066.95087326
9067.66881238
9068.24228974
9069.0211082
9070.06362198
9071.32909315
9072.7612247
9074.32022592
9075.909079
9077.59114215
9079.49468884
9081.71345044
9084.29713613
9087.27070376
9090.78987665
9094.80256789
9099.7436969
9103.17019715
6208.25271878
-13.3937737638
9063.83594315
9064.51460172
9065.06084126
9065.79314726
9066.77468593
9067.97882981
9069.3697777
9070.92609024
9072.61987786
9074.48705769
9076.62761319
9079.16741319
9082.26786216
9086.12705751
9090.9472927
9096.56394899
9101.7786103
9104.07668418
6159.20984849
-7.8607594269
9060.27804954
9060.90676331
9061.41576754
9062.09058155
9062.99650649
9064.11669159
9065.4310764
9066.93342527
9068.62626202
9070.54519049
9072.77209518
9075.4319441
9078.71934699
9082.96066272
9088.70534905
9096.71471718
9105.61973659
9111.58435339
6167.06281643
-8.76873837216
9056.31503343
9056.88592326
9057.34865355
9057.95550369
9058.77125407
9059.78747151
9060.99425206
9062.39537204
9064.00600335
9065.86233817
9068.03127316
9070.61329016
9073.75795542
9077.72503785
9083.17954559
9091.56644196
9105.26312404
9141.9824607
8492.64371431
45.4368932074
9051.99130825
9052.49844358
9052.90696959
9053.43585409
9054.14759054
9055.03965603
9056.10926557
9057.36513559
9058.82679353
9060.52805639
9062.52176177
9064.88000617
9067.69051187
9071.02318742
9074.80439193
9078.24956483
9078.87512757
9085.02028116
8890.72600415
1713.12543298
9047.35571826
9047.7949839
9048.14199249
9048.58289635
9049.17678443
9049.92505915
9050.82923437
9051.89987453
9053.15700263
9054.63030348
9056.36090073
9058.39857422
9060.79015701
9063.53391503
9066.49740411
9069.20949724
9070.88719057
9069.90958636
5341.92333424
-23.8961859894
9042.45984243
9042.82841615
9043.1069666
9043.45031903
9043.91284929
9044.4985426
9045.21056972
9046.06016079
9047.06603657
9048.25364845
9049.65607844
9051.3112542
9053.25303366
9055.49591008
9058.04430841
9060.80868036
9063.17359645
9062.29859555
5222.32833726
-10.6039757211
9037.35703722
9037.653154
9037.8568864
9038.09337018
9038.41159696
9038.81669298
9039.31214595
9039.90880492
9040.62331536
9041.47760852
9042.50089631
9043.72632728
9045.18658279
9046.90877394
9048.94586981
9051.49562965
9055.71059456
9067.38493269
5715.06594917
-12.1796283631
9032.10117128
9032.3238496
9032.44673835
9032.56784833
9032.7300982
9032.93832605
9033.19570972
9033.51114382
9033.89861252
9034.37798461
9034.97597755
9035.7279414
9036.67253626
9037.8501147
9039.27932796
9040.80004503
9041.97537516
9044.39356135
7103.25433028
392.772316547
9026.74734851
9026.89622954
9026.93308149
9026.93132132
9026.92736967
9026.92474703
9026.92505881
9026.93436378
9026.96298692
9027.02800842
9027.15504706
9027.38209797
9027.76156359
9028.3673805
9029.29724962
9030.64029786
9032.76166456
9035.35139713
4565.98570081
-10.710889774
9021.35006323
9021.42551837
9021.37234345
9021.2419927
9021.06399401
9020.83938404
9020.56693518
9020.24861959
9019.89032662
9019.50414621
9019.11166348
9018.74993033
9018.48071642
9018.40500676
9018.69827595
9019.63290522
9021.86860501
9026.30503878
4494.95381202
9.6613574427
9015.96298453
9015.96630502
9015.82081308
9015.55833729
9015.20118154
9014.74684795
9014.19021214
9013.5278113
9012.75927677
9011.88895194
9010.92955677
9009.9090086
9008.88076342
9007.94268867
9007.2864612
9007.24791888
9008.75379597
9012.994791
4109.28415813
5.16892416526
9010.63827354
9010.57198643
9010.33413901
9009.9384839
9009.40037448
9008.71294234
9007.86588216
9006.84959933
9005.65539832
9004.27687707
9002.71257565
9000.97070873
8999.07660909
8997.08769854
8995.12633274
8993.39484249
8992.61155508
8947.7400441
3611.14191892
-0.235753678113
9005.42582785
9005.29456729
9004.96664359
9004.43966209
9003.72249757
9002.80316816
9001.66618903
9000.29490428
8998.67042535
8996.77337663
8994.58558954
8992.08725666
8989.25967683
8986.09691825
8982.60447144
8978.7434903
8974.85169159
8800.24662927
3208.60478061
-0.0296176181429
9000.37343644
9000.18347591
8999.77040853
8999.11696885
8998.22628621
8997.0817867
8995.66289377
8993.94484967
8991.89846993
8989.4905702
8986.68675865
8983.43738754
8979.67289659
8975.32213164
8970.2823552
8964.31772868
8957.58961415
8667.50987326
2869.41985255
0.00984653363064
8995.52834548
8995.28337351
8994.79516357
8994.02167405
8992.96653506
8991.60954322
8989.92439527
8987.87867218
8985.43263866
8982.5387318
8979.15307535
8975.20779048
8970.56599126
8965.11342734
8958.67066825
8950.92021459
8942.27749516
8546.57155945
2594.56177953
0.00276956412466
8990.94166352
8990.63619213
8990.08430477
8989.19873709
8987.9924362
8986.44160294
8984.51458515
8982.17077086
8979.36109287
8976.01607438
8972.10101476
8967.57929818
8962.16424641
8955.75936959
8948.10900336
8938.7636014
8930.89787355
8447.23966516
2389.96102501
-0.00638102934478
8986.65390398
8986.25317641
8985.67755228
8984.68832929
8983.34760173
8981.62719696
8979.48984294
8976.89185693
8973.77692178
8970.08061677
8965.72975949
8960.62741286
8954.59897883
8947.47973159
8939.06073814
8929.21649956
8918.82309461
8366.45427735
2229.57667482
0.00285046933236
8982.66954739
8982.22155922
8981.58091629
8980.51901874
8979.06965012
8977.20856163
8974.89773977
8972.08956973
8968.72548131
8964.73460179
8960.03085256
8954.50300252
8948.00215702
8940.36088206
8931.39751993
8920.98999733
8908.8417175
8299.8500709
2108.30570487
0.00257477489592
8979.02536018
8978.54380789
8977.84599845
8976.72311934
8975.18884848
8973.21822931
8970.77267707
8967.80295821
8964.24876255
8960.03591723
8955.0739352
8949.24978984
8942.42378812
8934.43424955
8925.10616617
8914.25642424
8901.16796241
8250.61752937
2024.47972248
-0.00298602238622
8975.74093015
8975.23135755
8974.49219794
8973.32331455
8971.72749116
8969.67895215
8967.1390485
8964.0583537
8960.37608928
8956.01801154
8950.89384993
8944.89340112
8937.88394304
8929.71174113
8920.20776947
8909.15178562
8895.73451611
8219.5621217
1974.36433426
-0.0111705002722
8972.8273463
8972.29479624
8971.52910191
8970.33161062
8968.69843683
8966.60396934
8964.01038098
8960.86927688
8957.12129467
8952.69438882
8947.50160186
8941.43817936
8934.37969943
8926.18290843
8916.68743343
8905.66049335
8892.32239588
8204.94967009
1952.38910101
-0.0200432550526
8970.28881004
8969.73893289
8968.95986024
8967.75151295
8966.10525577
8963.9964527
8961.3890013
8958.23671579
8954.48316529
8950.06033608
8944.88677397
8938.86526076
8931.881809
8923.80687617
8914.49374689
8903.71428503
8890.76164578
8205.85619234
1955.87858069
-0.0294883694841
8968.12312706
8967.56179801
8966.78128195
8965.57915274
8963.94316024
8961.85024239
8959.26677467
8956.14975329
8952.44689523
8948.09563173
8943.02161529
8937.13676642
8930.33943505
8922.51654723
8913.53837533
8903.19112651
8890.85590996
8220.17425858
1981.54923391
-0.0394406261775
8966.32197067
8965.7549451
8964.98385808
8963.80383427
8962.19981481
8960.1507883
8957.62618666
8954.58692861
8950.98579007
8946.76667336
8941.86346346
8936.19819275
8929.68279106
8922.2223374
8913.70465098
8903.93272311
8892.38782431
8245.5329412
2025.64400146
-0.0495645293056
8964.87133788
8964.30402491
8963.5521371
8962.40856066
8960.85607069
8958.87607092
8956.44147744
8953.51762695
8950.06300816
8946.02867004
8941.35746531
8935.98156408
8929.82737766
8922.81876129
8914.8593288
8905.76720769
8895.13290239
8279.07362164
2085.1781309
-0.0595474744481
8963.75212918
8963.18942455
8962.4652221
8961.37072467
8959.8868051
8957.99767831
8955.67989168
8952.90368038
8949.633441
8945.8280856
8941.4385071
8936.40935391
8930.67914685
8924.19166417
8916.86320465
8908.52345662
8898.87014578
8318.74372232
2157.97138381
-0.0699008812773
8962.94076947
8962.38696111
8961.69777875
8960.66290061
8959.2619578
8957.48188857
8955.30322345
8952.70094879
8949.64591149
8946.10378792
8942.03692487
8937.39685748
8932.13881458
8926.22250417
8919.57775274
8912.04322899
8903.42606485
8362.70478754
2242.13042848
-0.0809456117485
8962.4100895
8961.86886865
8961.22049477
8960.25362486
8958.9472241
8957.29072095
8955.26855278
8952.86068824
8950.04394367
8946.79199885
8943.07426577
8938.85586399
8934.10200806
8928.79053828
8922.86360787
8916.16671303
8908.61525481
8409.05746248
2335.19981629
-0.0921843262988
8962.12994586
8961.6041261
8961.00123999
8960.1091356
8958.90590041
8957.38379272
8955.53106472
8953.33249632
8950.77076667
8947.8268182
8944.47723413
8940.69807216
8936.46714542
8931.77827585
8926.58227856
8920.73170351
8914.23990351
8456.19256928
2434.86049781
-0.103079624155
8962.06798504
8961.55991857
8961.0058607
8960.19294222
8959.09875087
8957.71821235
8956.04325869
8954.06326217
8951.76649605
8949.14002782
8946.1691191
8942.83775361
8939.13366309
8935.06921808
8930.59993007
8925.58176322
8920.11070648
8502.48510253
2538.74602311
-0.11350208657
8962.1907122
8961.70185291
8961.19872741
8960.46751195
8959.48554211
8958.25028232
8956.75712255
8954.99977264
8952.97166101
8950.66551114
8948.07279227
8945.18732185
8942.0066637
8938.55446562
8934.7929241
8930.576551
8926.06766644
8546.58229375
2644.82257471
-0.123879961449
8962.46380315
8961.99537944
8961.54379205
8960.8949181
8960.02581058
8958.9362861
8957.62496934
8956.08961218
8954.32831628
8952.3373309
8950.11821823
8947.66741948
8944.99528854
8942.13380153
8939.05070653
8935.59543448
8931.98605526
8588.47770901
2751.36785116
-0.133760318908
8962.85339655
8962.40570123
8962.00521775
8961.43758719
8960.67962968
8959.73331854
8958.60024639
8957.28187332
8955.77885063
8954.09592213
8952.23558299
8950.20240595
8948.01620042
8945.715648
8943.27301494
8940.530425
8937.75176632
8627.49217476
2856.07568919
-0.142764271973
8963.32604434
8962.89887772
8962.54802302
8962.05896032
8961.4083137
8960.59998909
8959.63823417
8958.52718309
8957.27215925
8955.88114998
8954.36005571
8952.72375477
8950.99340396
8949.21698573
8947.36944911
8945.28514989
8943.26326541
8662.33553135
2957.65437691
-0.151201153863
8963.84962147
8963.44230946
8963.13868382
8962.72411491
8962.17504525
8961.49706789
8960.69668325
8959.78053712
8958.75788068
8957.63883213
8956.43685719
8955.16737902
8953.85834948
8952.56436831
8951.26271212
8949.77899463
8948.44401389
8694.37482033
3054.32571649
-0.158703391731
8964.39380723
8964.00529956
8963.74571423
8963.40035287
8962.94547617
8962.38812034
8961.73667563
8961.00051167
8960.19094778
8959.32319135
8958.41171388
8957.47614721
8956.54970419
8955.69207895
8954.88237116
8953.9384204
8953.2129073
8721.83629319
3144.68508772
-0.165444996196
8964.93042356
8964.55944769
8964.34006801
8964.05759664
8963.68810762
8963.2398824
8962.72294239
8962.14874621
8961.5309111
8960.88674726
8960.23634026
8959.59934573
8959.01333695
8958.54274898
8958.16810796
8957.69949905
8957.50790993
8746.01594521
3226.38552353
-0.17023534803
8965.43337269
8965.0786473
8964.89509953
8964.66831986
8964.37418564
8964.02205929
8963.62337185
8963.19130041
8962.74158033
8962.29346683
8961.86947787
8961.4920474
8961.20133639
8961.06570085
8961.06735915
8961.00962783
8961.27933749
8766.70517077
3298.94932302
-0.172106669374
8965.87891821
8965.5398805
8965.38744729
8965.208453
8964.97860861
8964.70824161
8964.41001782
8964.09857632
8963.79134072
8963.50818714
8963.27559928
8963.11593131
8963.07281109
8963.21733426
8963.5337032
8963.82151209
8964.47850367
8782.82878616
3361.84548998
-0.167341004048
8966.2481377
8965.92795628
8965.80234737
8965.66274225
8965.48526992
8965.28130666
8965.06462706
8964.85110753
8964.6581683
8964.50950783
8964.42941408
8964.44503622
8964.59942215
8964.96644215
8965.53295194
8966.0955066
8967.05086522
8795.37573771
3411.58975514
-0.154174703442
8966.52564261
8966.23481918
8966.13230563
8966.02246032
8965.88404317
8965.72976424
8965.57431608
8965.43400488
8965.32814205
8965.27958013
8965.31292513
8965.45873237
8965.75800939
8966.28583598
8967.03203571
8967.78440762
8968.93172701
8805.72060834
3452.87165041
-0.128567767246
8966.66651342
8966.40785296
8966.31756671
8966.22207458
8966.10526399
8965.98027204
8965.86211662
8965.76743736
8965.71515681
8965.72984372
8965.83555146
8966.06233358
8966.45138812
8967.07305948
8967.9137074
8968.78974919
8970.20196383
8813.46254415
3495.3888155
0.0578104081414
8966.51122052
8966.25982227
8966.15168688
8966.0458327
8965.93289735
8965.81987605
8965.71899338
8965.64533863
8965.61912254
8965.66335671
8965.80346006
8966.06947657
8966.50359458
8967.1539285
8967.96853987
8968.87311405
8970.23651645
8811.92887252
3450.0989227
-0.433609928603
)
;

boundaryField
{
    back
    {
        type            fixedFluxPressure;
        gradient        uniform 0;
        value           nonuniform List<scalar> 
1984
(
8966.50020776
8966.24896961
8966.14114907
8966.0357739
8965.92351309
8965.81141792
8965.71138644
8965.6390316
8965.61376714
8965.6587142
8965.80072386
8966.06781584
8966.5027009
8967.15357636
8967.96862954
8968.87348887
8970.23705655
8811.93110929
3450.1105593
-0.433610071219
8966.65546906
8966.39693707
8966.30692427
8966.21186658
8966.09567931
8965.9715621
8965.85426674
8965.76019489
8965.70930839
8965.72396528
8965.83165449
8966.05935916
8966.44918837
8967.07242014
8967.91372663
8968.78996386
8970.20225365
8813.46389857
3495.40088129
0.0578096631175
8966.51471341
8966.22400207
8966.12173169
8966.01227809
8965.87443183
8965.72096589
8965.56633424
8965.42699092
8965.32152941
8965.27359271
8965.30899896
8965.45566342
8965.75564213
8966.28509287
8967.03192682
8967.78452582
8968.93195743
8805.72209996
3452.88404521
-0.128569666753
8966.23743401
8965.91733738
8965.79192192
8965.65263902
8965.47564603
8965.27238792
8965.05660616
8964.84370723
8964.65263897
8964.50389038
8964.42482528
8964.44176192
8964.59687034
8964.96555989
8965.53265016
8966.09548301
8967.05101629
8795.37726698
3411.60251919
-0.15417640618
8965.86852369
8965.52953959
8965.37723696
8965.1984728
8964.96898745
8964.69917073
8964.40174598
8964.09116102