/*--------------------------------*- C++ -*----------------------------------*\
| =========                 |                                                 |
| \\      /  F ield         | OpenFOAM: The Open Source CFD Toolbox           |
|  \\    /   O peration     | Version:  v2012                                 |
|   \\  /    A nd           | Website:  www.openfoam.com                      |
|    \\/     M anipulation  |                                                 |
\*---------------------------------------------------------------------------*/
FoamFile
{
    version     2.0;
    format      ascii;
    class       volVectorField;
    location    "1";
    object      U;
}
// * * * * * * * * * * * * * * * * * * * * * * * * * * * * * * * * * * * * * //

dimensions      [0 1 -1 0 0 0 0];


internalField   nonuniform List<vector> 
1984
(
(0.00424324231128 -0.00422218472033 1.79879904203e-22)
(0.00505602986098 -0.0111439442742 1.04126772587e-21)
(0.00513187221172 -0.0197329378952 -2.13983902163e-22)
(0.00509603259142 -0.0281090581669 -1.09945970834e-22)
(0.0050943884225 -0.0364373874677 -3.17202644339e-22)
(0.00512290629538 -0.0448256526077 -2.31074991696e-22)
(0.0051713700643 -0.0533164268707 -3.85166717502e-22)
(0.00523481238155 -0.0619368405275 1.13894747577e-21)
(0.00531073730401 -0.0707100818979 9.76847299112e-22)
(0.00539747239304 -0.0796556116983 1.60769308648e-21)
(0.00549332964688 -0.0887922021599 -5.64709590217e-23)
(0.00559617162004 -0.0981506140401 3.13116494838e-22)
(0.00569215005021 -0.107727916029 5.1317920339e-23)
(0.00569712326114 -0.117388203522 5.12757756492e-22)
(0.00540877580733 -0.127211210156 2.29655242213e-23)
(0.00481461638864 -0.137642861175 1.71171332882e-22)
(0.0046317984519 -0.147168629686 3.22910792252e-22)
(0.00926362703478 -0.154164700844 -6.08708941115e-21)
(0.0413757648525 -0.157586382991 -4.03083622917e-20)
(0.147776398079 -0.232127531664 -3.61280856299e-20)
(0.0111633982211 -0.00504077686345 1.15267196009e-22)
(0.0120755838656 -0.0119963176904 4.85033855559e-22)
(0.0122148351591 -0.0204386663116 -6.62638440549e-24)
(0.0122432540621 -0.0288877432792 -4.75427373649e-22)
(0.0123317263455 -0.0373455800874 -2.44317796788e-21)
(0.0124774251369 -0.0459028707647 -1.03192734219e-21)
(0.0126659460762 -0.0545806828987 -1.55847652031e-21)
(0.0128897481746 -0.0633956096105 -4.76523649126e-22)
(0.0131449115873 -0.0723665804745 8.20480657531e-22)
(0.013428778134 -0.0815112010684 -1.46927896704e-21)
(0.013738941778 -0.0908461368192 -4.32047713537e-22)
(0.0140737712656 -0.100402634896 -6.52692799684e-22)
(0.0144261836024 -0.110196574904 -6.54974357789e-22)
(0.0147528611376 -0.120099190774 2.30656925632e-22)
(0.0149985480306 -0.130227106873 2.42756181021e-22)
(0.0152874287423 -0.142040183124 -5.71218000547e-22)
(0.0154892431887 -0.155439447439 1.71377277648e-21)
(0.0147441858763 -0.163093930522 3.53232755714e-21)
(0.0134998803316 -0.165186463021 -1.76716392912e-20)
(0.00211265946947 -0.16467430947 -1.65944756846e-20)
(0.0196181008287 -0.00511436402567 2.83379189907e-22)
(0.0203999236076 -0.0120430291901 3.05025909168e-21)
(0.0206119621645 -0.0204803768775 3.7188871373e-22)
(0.0207559882373 -0.0289119097825 -9.24593074578e-23)
(0.0209452192341 -0.0373475175511 -4.04011295052e-22)
(0.0211937384505 -0.0458877692725 -9.81941067808e-23)
(0.0214988683714 -0.0545527105991 -2.14658528486e-22)
(0.0218572202754 -0.0633574894135 1.85398145103e-22)
(0.0222658056359 -0.0723204216825 1.73751587474e-22)
(0.0227215712937 -0.0814590815057 -3.23393651624e-22)
(0.023221125429 -0.0907901994849 -4.33810852782e-23)
(0.023761045516 -0.100346973147 6.02357174826e-23)
(0.0243346455993 -0.110153323546 8.55104705184e-23)
(0.0249262962414 -0.120071676232 6.93925702515e-22)
(0.0255433680529 -0.130122357817 -2.68699888833e-22)
(0.0262709059745 -0.141518384376 -1.48285200275e-21)
(0.0271855382801 -0.153870329839 -2.11584109939e-22)
(0.0283445583715 -0.16063103743 -9.26310850655e-21)
(0.0324541730951 -0.162257683003 -1.70869504693e-21)
(0.0389692626835 -0.180983944536 -2.18761761838e-21)
(0.027903032819 -0.00502782653564 6.58070312692e-22)
(0.0287462051814 -0.0118835031983 1.67757467296e-21)
(0.0290200186911 -0.0203224161108 2.89824128266e-22)
(0.0292600932246 -0.0287165136934 2.64396335363e-23)
(0.029554840331 -0.0370984380568 -2.30158607146e-23)
(0.0299209780321 -0.0455812450484 1.74340907239e-22)
(0.0303599537777 -0.0541894629677 1.8038754108e-22)
(0.0308701967334 -0.0629395779962 -6.78064595263e-23)
(0.0314492248105 -0.0718503818717 -7.22905578163e-23)
(0.0320939437819 -0.0809398146469 1.91364563116e-22)
(0.03280074063 -0.090225192994 -7.610237541e-23)
(0.0335658997281 -0.0997408874234 7.99839550745e-23)
(0.0343827535911 -0.109512154043 -3.69558661105e-23)
(0.0352405321374 -0.119398171015 1.57616411982e-22)
(0.0361421349002 -0.129409204124 1.2460020339e-22)
(0.0370494823788 -0.140702886219 4.03853235612e-22)
(0.0377905587943 -0.152756365929 -3.70328888163e-22)
(0.0382797903719 -0.159454820042 -1.3842774234e-21)
(0.0395812743393 -0.162273208758 -2.04932987039e-21)
(0.038696512328 -0.184800358135 -2.04259866782e-21)
(0.0359453351592 -0.00494228533183 -4.69496719832e-22)
(0.0369200279299 -0.0117016599033 2.80650957694e-21)
(0.0372462332842 -0.0200887065991 6.23042602341e-22)
(0.0375610546358 -0.0284132144987 6.65910237376e-23)
(0.0379513014139 -0.0367176315199 9.32079747168e-24)
(0.0384318378397 -0.0451199358462 3.37462641707e-23)
(0.0390042627221 -0.0536478595278 3.81554072091e-23)
(0.0396672821157 -0.0623194930753 -1.22464085725e-23)
(0.0404183793428 -0.0711546025415 -5.60455652846e-24)
(0.0412542827655 -0.0801716952719 2.98474081077e-23)
(0.0421712233648 -0.0893883439144 -8.61600999238e-24)
(0.0431653187809 -0.0988392620916 1.71525067037e-24)
(0.0442294333558 -0.108549054087 4.1771164582e-23)
(0.0453510043634 -0.118371973396 2.42822460691e-22)
(0.0465242138129 -0.128313405925 5.2163276053e-23)
(0.047664840793 -0.139526379727 1.23101819319e-22)
(0.0485121775199 -0.151482219501 1.41481149326e-22)
(0.0488722889513 -0.158191125225 -2.29944139622e-21)
(0.0487504567262 -0.161291824173 -1.42072999072e-20)
(0.0456982325576 -0.185348446456 -1.277957551e-20)
(0.043847136969 -0.00486476183616 -3.08936937318e-22)
(0.0449932468749 -0.0115111927204 2.07478024232e-21)
(0.0453765465696 -0.0198036432919 5.57092074536e-22)
(0.045759893168 -0.0280281873525 6.59186427542e-23)
(0.0462411636648 -0.0362311273763 1.71779766153e-23)
(0.046834473205 -0.0445312529594 -2.89258288321e-24)
(0.0475406134521 -0.0529578779068 7.21728028735e-24)
(0.0483578743798 -0.0615303031722 -2.98215845137e-24)
(0.0492833904472 -0.0702692515038 -8.24917158333e-24)
(0.0503133988129 -0.0791940198733 -2.6468345864e-24)
(0.0514436358822 -0.0883226552598 -2.00006712362e-24)
(0.0526695419191 -0.0976900382019 -1.80607424224e-23)
(0.0539820175938 -0.10732029944 5.40362011795e-23)
(0.0553642756829 -0.117065088174 2.47996468604e-22)
(0.0568014382206 -0.126927603794 2.28067342974e-23)
(0.0581715767643 -0.138056041187 8.46986810328e-23)
(0.0591593879423 -0.149931331762 2.59212086104e-22)
(0.0595249497667 -0.156707767658 -2.80161702927e-21)
(0.0589284975426 -0.160092528565 -1.86991620738e-20)
(0.0543768637121 -0.184808740234 -1.715014406e-20)
(0.051618236168 -0.00478500583765 -4.35746463087e-24)
(0.0529562019742 -0.011299781193 5.68071578259e-22)
(0.0534026422917 -0.0194672909053 1.30675099042e-23)
(0.0538547464795 -0.0275651267511 1.38515182838e-23)
(0.0544266567934 -0.0356426615582 -1.39669175682e-23)
(0.0551333712498 -0.0438182551128 3.14276132278e-24)
(0.0559750143404 -0.0521220592983 -5.58268579311e-24)
(0.05694931689 -0.060574307619 -9.68729618845e-24)
(0.0580529270352 -0.0691966549777 5.86899037909e-24)
(0.0592814776013 -0.0780092907861 -1.73143270434e-23)
(0.0606299185372 -0.0870310462858 1.20393821368e-24)
(0.0620925726559 -0.0962974566835 -3.71165758507e-24)
(0.0636577181745 -0.10583303785 5.51550743352e-23)
(0.065303958181 -0.115490098934 1.7790318029e-22)
(0.0670081462592 -0.125275743295 -4.50246824128e-22)
(0.0686123632604 -0.136330109178 -1.46651005448e-21)
(0.0697522025022 -0.148135113378 3.40804839213e-21)
(0.0701338719565 -0.155062223987 5.21153400241e-21)
(0.0693130007025 -0.158873793069 -1.72013788044e-20)
(0.0634916011257 -0.183502404056 -1.52776182981e-20)
(0.0592392526803 -0.00469748685331 -7.26685984409e-23)
(0.0607774479504 -0.0110603448566 2.5047253067e-21)
(0.0612909610308 -0.0190773746448 4.61123042351e-22)
(0.0618135173073 -0.0270234254441 4.88348587606e-23)
(0.0624772530427 -0.0349516685851 1.7463874677e-24)
(0.063299024482 -0.0429797479332 -4.78368465768e-24)
(0.0642786333094 -0.0511383982947 -2.57173479126e-24)
(0.0654133590181 -0.0594486721942 -1.47037853046e-23)
(0.0666993911471 -0.0679331827161 8.68666047701e-24)
(0.0681317861101 -0.0766131787866 -5.65215275187e-24)
(0.0697046975931 -0.0855086504528 -9.74214004125e-24)
(0.0714112720675 -0.0946562569606 -3.67013649717e-23)
(0.0732372691519 -0.104081703647 7.9312611807e-23)
(0.0751573523519 -0.113640805376 3.05170677607e-22)
(0.0771420614613 -0.123346943012 -8.50472671118e-22)
(0.0790045881786 -0.134329614901 -2.48994543242e-21)
(0.0803378738285 -0.146085919722 -2.00261738159e-21)
(0.0807840853199 -0.153213616555 -1.08067923364e-20)
(0.0799087476901 -0.157500262962 -2.49546456057e-20)
(0.0727806837507 -0.181692951612 -2.26590185032e-20)
(0.0666901357268 -0.00459945902248 1.97909445892e-22)
(0.0684316962725 -0.0107892920808 1.45278983068e-21)
(0.0690149402903 -0.0186317692039 2.78627862314e-22)
(0.0696098725674 -0.0264015299946 -4.86653394255e-23)
(0.0703672260557 -0.0341564938872 -9.63811567715e-25)
(0.0713062517482 -0.0420135292078 1.52426959445e-23)
(0.0724267425189 -0.0500039024024 -2.28402175832e-23)
(0.0737257211416 -0.0581494720123 4.29636673465e-24)
(0.0751990643272 -0.0664738767862 -4.59440196538e-24)
(0.0768414006675 -0.074999607067 -3.4176121081e-24)
(0.0786462802928 -0.0837481494224 8.54530460021e-24)
(0.0806059103435 -0.0927576645217 -1.96876564183e-23)
(0.082703979741 -0.102055580822 2.06583990642e-23)
(0.0849122181448 -0.111503172928 6.77363974154e-23)
(0.0871970432933 -0.12112154172 -1.69157474925e-24)
(0.0893467529645 -0.132023503053 6.963968125e-23)
(0.0909081339682 -0.143708773476 -1.33253295725e-21)
(0.0914283899316 -0.150999145187 -3.31788727519e-21)
(0.090567694797 -0.155684697677 -7.02751646744e-21)
(0.0822561663033 -0.178997702207 -6.66660362476e-21)
(0.0739500297282 -0.0044893813709 4.23658052845e-23)
(0.0758960372188 -0.0104844515135 2.7586117146e-21)
(0.0765510609347 -0.0181285661004 5.84715215584e-22)
(0.0772202483999 -0.025697564947 4.24052995813e-23)
(0.0780732270176 -0.0332549947259 2.47644882031e-24)
(0.0791319776633 -0.0409168836692 -2.74049164554e-24)
(0.0803965483132 -0.0487150406799 -3.72195250717e-24)
(0.0818639307813 -0.0566721558136 2.64275411486e-24)
(0.083529908827 -0.0648129656546 8.00475110648e-24)
(0.0853889322611 -0.0731613545099 -6.81907227543e-24)
(0.0874342594885 -0.0817405732353 1.71029542547e-26)
(0.0896575489593 -0.0905905022614 -2.07790516227e-23)
(0.0920410071613 -0.0997405939962 4.40695258857e-23)
(0.0945543334448 -0.109059411548 2.10895192729e-22)
(0.0971607607436 -0.118576109654 2.33142189703e-24)
(0.0996265035264 -0.129374944198 -5.40732228227e-23)
(0.10145241811 -0.140978928612 -3.25699729931e-22)
(0.102064604593 -0.148548662515 -3.69010715133e-21)
(0.101296527368 -0.153837343751 -1.87240548377e-20)
(0.0917795687478 -0.176282054799 -1.73060035106e-20)
(0.0809963302174 -0.00436634284521 -4.92038963683e-22)
(0.0831469185354 -0.0101444653864 -4.03765337501e-22)
(0.083875387012 -0.0175661748748 -1.45956994363e-22)
(0.0846205341827 -0.0249096650753 -1.51407048544e-22)
(0.0855711168713 -0.0322448921954 -1.75716125359e-23)
(0.0867520954899 -0.0396869003978 -1.11033697995e-23)
(0.0881640022289 -0.0472680437722 2.93198632906e-25)
(0.089804037054 -0.0550118552829 -6.82435339861e-27)
(0.0916681585669 -0.0629442107471 -7.81560703115e-24)
(0.0937509571339 -0.0710904915338 -8.22002648206e-24)
(0.0960457966 -0.0794758951899 -2.29999744435e-24)
(0.0985442823676 -0.0881421581493 -2.23920149685e-23)
(0.101227819556 -0.0971211077494 9.61510769657e-24)
(0.104065053499 -0.10629035788 9.3622278561e-23)
(0.107017611268 -0.115686960032 3.46073496069e-22)
(0.109833556898 -0.126364796084 3.89254836833e-22)
(0.111963971088 -0.137886697432 -3.35000881379e-21)
(0.112691861216 -0.145722907099 -9.25372870012e-21)
(0.112122078974 -0.151484968428 -6.32545837267e-21)
(0.101201800912 -0.172839325372 -6.00696338761e-21)
(0.0878054098367 -0.00422974510973 -9.36643328478e-22)
(0.0901601381936 -0.00976847106783 9.50617311636e-22)
(0.090963435468 -0.0169433291351 4.48229568747e-23)
(0.0917860020211 -0.0240361553633 -1.1066826629e-22)
(0.0928359685398 -0.0311240255944 -1.61646813153e-23)
(0.0941414972837 -0.0383207553645 -6.13449380463e-24)
(0.0957038160758 -0.045659199595 -2.13027504601e-23)
(0.0975205768468 -0.0531637083344 -1.09957645872e-23)
(0.0995882098946 -0.060861284005 -2.55733726699e-23)
(0.101901813609 -0.0687788300317 -1.91164249137e-23)
(0.104455314205 -0.0769435734711 7.38378769935e-24)
(0.107240825978 -0.0853991084846 -4.98325822991e-23)
(0.110239694093 -0.094179630367 3.0971041637e-23)
(0.113420570181 -0.103172952736 1.62283970339e-22)
(0.116744424361 -0.112423813316 2.54220863686e-22)
(0.119940735172 -0.122940184415 5.17276815205e-22)
(0.122406254717 -0.13432857053 -1.41629326754e-21)
(0.123265364357 -0.142489931301 -4.23880414232e-21)
(0.12298503569 -0.14881221286 -9.32655578084e-21)
(0.110691824788 -0.168890104361 -8.64580981106e-21)
(0.0943531277402 -0.00407913844753 -7.53094082798e-22)
(0.0969110957386 -0.00935591706385 2.70059255657e-21)
(0.0977903697318 -0.0162590626123 5.18696443464e-22)
(0.0986915188484 -0.0230756423378 2.53461429155e-23)
(0.0998423149754 -0.0298905125639 -1.6840999699e-23)
(0.101274340745 -0.0368159194198 -1.1123593325e-23)
(0.102989723079 -0.0438851131869 -1.84624871042e-23)
(0.104986809976 -0.0511231746881 -3.25156158319e-23)
(0.107262814138 -0.0585581542484 -4.75362073213e-23)
(0.109813735519 -0.0662184209034 -1.47192896547e-23)
(0.112634553373 -0.074133198218 -5.96722894371e-24)
(0.115718497411 -0.0823478391544 -6.17624125067e-23)
(0.119047696667 -0.0908990083597 6.41835200191e-23)
(0.122591798374 -0.099686072156 2.74570000146e-22)
(0.126311655331 -0.108761477898 -5.70105508375e-22)
(0.129922851058 -0.119085287538 -1.52825496716e-21)
(0.132773249819 -0.130346517831 -1.38452949387e-22)
(0.133806095211 -0.13893559044 -4.48861393646e-21)
(0.133899014917 -0.145840749566 -1.75952402497e-20)
(0.120054059815 -0.16442928097 -1.59943647998e-20)
(0.10061502191 -0.00391415876188 -1.23103881837e-21)
(0.103374875995 -0.00890649975718 7.3148704649e-22)
(0.104331035987 -0.0155127236375 2.48547486481e-22)
(0.105311574727 -0.0220271045416 -1.13871097446e-22)
(0.106564188093 -0.0285429044374 -2.43123589547e-23)
(0.10812409945 -0.0351703662766 -2.61587689445e-23)
(0.109994530182 -0.041942969853 -2.7827822582e-23)
(0.112174760406 -0.048886379925 -2.6531121421e-24)
(0.114663095753 -0.0560295356924 -3.78723056597e-23)
(0.117456834097 -0.0634021069654 -1.04127530845e-23)
(0.120552519907 -0.0710351570596 6.77011854171e-24)
(0.123945139029 -0.0789755528879 -1.89453570167e-23)
(0.12761857237 -0.0872623805118 4.37045277324e-23)
(0.131544823087 -0.0958073829699 2.16912445042e-22)
(0.135686026476 -0.104668597941 2.52839734979e-22)
(0.139750198773 -0.11475150291 2.45471291373e-23)
(0.14304258324 -0.125853488818 -2.38282554057e-21)
(0.144281127002 -0.134899030004 -5.05472379252e-21)
(0.144716192233 -0.142249509761 5.18199218216e-21)
(0.129193705777 -0.159202406656 4.57369582659e-21)
(0.10656645261 -0.00373450507605 -5.04968391498e-22)
(0.10952634837 -0.00842015769386 1.40797493089e-21)
(0.110560036137 -0.0147040146673 -2.14615518753e-22)
(0.111620348406 -0.0208899834884 -1.3459796909e-22)
(0.112975195817 -0.0270803386099 -3.66427673919e-24)
(0.114663655313 -0.0333828043802 -9.61883500416e-24)
(0.116690209944 -0.0398308448335 -1.63980143244e-23)
(0.119055310437 -0.0464504814134 1.37334459868e-23)
(0.121758646134 -0.0532713157955 -9.27078609088e-24)
(0.124799194692 -0.0603240820382 -1.23256733794e-23)
(0.128175537078 -0.0676413654265 6.57038046665e-24)
(0.131885031699 -0.0752710732452 -3.95673331989e-23)
(0.135914287065 -0.0832544198272 6.18223345832e-23)
(0.140238921734 -0.0915157848754 2.63372586898e-22)
(0.14482278788 -0.100114838345 1.55851026934e-22)
(0.149369652823 -0.109889124873 1.92088233118e-22)
(0.153149180906 -0.120775384007 -4.01432352826e-21)
(0.154632403478 -0.130346313277 -9.4675344646e-21)
(0.155444050959 -0.138062454497 -8.16940151015e-21)
(0.138218063147 -0.1532421115 -7.50314921219e-21)
(0.112182772899 -0.00353996340297 -1.29805063029e-21)
(0.115340310695 -0.00789712502373 -9.97434627057e-22)
(0.116451861941 -0.0138330659924 -4.32680731689e-22)
(0.117591860614 -0.0196643113252 -1.66048303314e-22)
(0.119048668559 -0.0255027192449 -2.24454413082e-23)
(0.120865426162 -0.0314528330215 -1.3072136401e-23)
(0.123048066732 -0.03754784372 -1.49648018266e-23)
(0.1255983915 -0.0438138932047 2.13488509833e-24)
(0.12851772846 -0.0502809195186 -2.050431365e-23)
(0.131807071733 -0.056980332611 -2.00240321428e-23)
(0.135467455108 -0.063945811821 4.20482923385e-23)
(0.139499180679 -0.0712257762591 -3.3287977816e-24)
(0.143892470697 -0.0788632090603 2.41444775313e-23)
(0.148627495971 -0.0867952501732 4.72388793014e-23)
(0.15366933626 -0.0950795897286 2.92180214656e-22)
(0.158720250568 -0.104476384795 -6.31453274083e-23)
(0.163023614025 -0.115099265673 -4.88065558205e-21)
(0.164802838312 -0.125292887366 -1.03664540654e-20)
(0.166065619873 -0.133257253745 -5.50245024056e-21)
(0.147048491335 -0.146433079693 -5.23391084815e-21)
(0.117439507479 -0.00333036590279 -1.5555228334e-21)
(0.120791671518 -0.0073379064111 -7.06451372905e-22)
(0.12198108989 -0.0129004976902 -2.57002372229e-22)
(0.123200121188 -0.0183507796624 -1.61213115788e-22)
(0.124757819386 -0.0238107328862 -1.00508220478e-23)
(0.126701620342 -0.0293811167997 -2.77517768227e-23)
(0.129039026421 -0.035094532816 -2.99423353757e-23)
(0.131773306492 -0.0409768629657 -1.44588101919e-23)
(0.134907644819 -0.0470579756158 -8.69576505395e-24)
(0.138445322926 -0.0533695065543 -2.1246316979e-23)
(0.142390199609 -0.0599457136497 3.12687535905e-24)
(0.146745998454 -0.0668348393009 -5.32010403964e-23)
(0.151507367013 -0.0740811618779 3.5900381206e-23)
(0.156659990649 -0.0816346195871 1.83725542888e-22)
(0.162169598847 -0.0895472961933 5.66344420734e-22)
(0.167740142345 -0.0984921787467 8.51305441934e-22)
(0.17260129566 -0.108794805058 -1.62313077533e-21)
(0.174727139045 -0.119707675837 -2.28222927027e-21)
(0.176458407803 -0.127713698952 2.24315758705e-21)
(0.155585938819 -0.138698984602 2.01220987495e-21)
(0.122312526765 -0.00310560632233 -1.08002520558e-21)
(0.125855646214 -0.00674332365358 6.47372950334e-24)
(0.127122535647 -0.0119073571005 -7.02170432628e-23)
(0.128419363841 -0.0169506990466 -5.10472398542e-23)
(0.130076075093 -0.0220061254343 -2.22719560282e-23)
(0.132144527822 -0.0271697342106 -2.89339560147e-23)
(0.13463389732 -0.0324730595436 -3.52178095256e-23)
(0.137549045767 -0.0379414065725 -3.72115810562e-23)
(0.140895084745 -0.0436041864981 -1.75183260567e-23)
(0.144677795628 -0.0494927310769 -2.49306484821e-23)
(0.148904173047 -0.0556412174634 -1.50278639934e-23)
(0.153581748593 -0.0620969602941 -1.03521848465e-22)
(0.158710388482 -0.0689049405118 3.37516394772e-23)
(0.164282386177 -0.0760276917585 1.37703374889e-22)
(0.170264108441 -0.0835082552015 -4.35119424703e-23)
(0.176364700952 -0.091922414382 2.12754988175e-24)
(0.181812573234 -0.101833000572 -2.28226468267e-21)
(0.184326033182 -0.113535006772 -2.8099207024e-21)
(0.186475109845 -0.121241039157 -2.88470752181e-21)
(0.163747296917 -0.129996589451 -2.82417388684e-21)
(0.126778272411 -0.00286574588404 -4.86805796837e-23)
(0.13050794638 -0.00611460546001 1.1981877329e-21)
(0.131851483237 -0.0108553334402 1.65532667107e-22)
(0.133224320233 -0.0154662907815 -9.2357129571e-23)
(0.13497727903 -0.0200916020913 -2.95629157942e-23)
(0.137166809696 -0.0248218470715 -1.20195518858e-23)
(0.139803817245 -0.0296872012274 -1.46674468463e-23)
(0.142894760545 -0.0347119143189 -2.89274674878e-23)
(0.146446710547 -0.0399243483024 -3.54430466073e-23)
(0.150468060005 -0.0453549591453 -1.08105274513e-23)
(0.154969114291 -0.0510371247735 -3.8536436495e-23)
(0.159961494674 -0.0570163368566 -3.80633072831e-23)
(0.165450924793 -0.063337287835 3.4386619211e-23)
(0.171437389761 -0.0699742037988 1.29815279272e-22)
(0.177888773043 -0.0769589772755 1.61650581304e-22)
(0.184521635223 -0.0847582223781 -8.36813938239e-23)
(0.190573563647 -0.0941740945836 -1.22836865502e-21)
(0.193508513192 -0.106686619904 -2.77656521692e-21)
(0.195977930517 -0.113671262876 -1.1718156915e-20)
(0.171482435347 -0.120389479539 -1.16311934837e-20)
(0.130813871469 -0.00261061148141 -2.33490065783e-22)
(0.134725016301 -0.00545297511781 2.48185883792e-21)
(0.136143950126 -0.00974644460388 3.9508302324e-23)
(0.137590390141 -0.0139003237989 -1.61431390582e-22)
(0.139436002965 -0.018070824335 -4.59176857349e-23)
(0.141741915209 -0.0223421468109 -2.25629803748e-23)
(0.144520681395 -0.0267425891712 -2.07745311409e-23)
(0.147780277794 -0.0312948938592 1.39748136407e-23)
(0.15152974946 -0.0360259194159 -4.96150671617e-23)
(0.155780054583 -0.0409645688415 -3.04363842368e-23)
(0.160544799927 -0.0461425539841 1.93184950137e-23)
(0.16583981432 -0.0516025386475 -9.4666890654e-23)
(0.171677072496 -0.0573876275458 8.42905782816e-23)
(0.17806494236 -0.0634817878694 2.5113273658e-22)
(0.184973967096 -0.0699044930703 4.77096311556e-22)
(0.192130651888 -0.0770027159965 5.89021292409e-22)
(0.198794411811 -0.085798116345 -7.70060657895e-21)
(0.202185762217 -0.0990690121889 -7.76841234249e-21)
(0.204902615357 -0.105063024896 -1.18486762897e-20)
(0.178758410059 -0.109771715454 -1.18695114913e-20)
(0.134397296286 -0.00234038147858 -9.71086287055e-22)
(0.138484243767 -0.00476034163476 -2.21714327758e-22)
(0.139976876378 -0.00858338143894 -3.77852229354e-22)
(0.141493996656 -0.0122564001956 -2.45577545553e-22)
(0.143427887016 -0.0159485694328 -4.69700045093e-23)
(0.145844349161 -0.0197365674976 -6.99472035241e-24)
(0.14875750772 -0.0236464230436 -2.14232841976e-23)
(0.152176717239 -0.0276990450537 1.63668170565e-24)
(0.15611279552 -0.0319192426701 -3.58585827187e-23)
(0.160579059222 -0.0363336420782 -2.86464155791e-23)
(0.165592218305 -0.0409713641749 3.31555817496e-23)
(0.171172183382 -0.0458711586527 -1.33648960005e-23)
(0.177337260987 -0.0510731275454 6.32534213015e-23)
(0.184104385637 -0.0565683911949 9.15523145595e-23)
(0.19144763074 -0.0623626149787 2.92560824751e-22)
(0.199106973633 -0.0686781254899 1.06712646443e-22)
(0.206374951391 -0.0767072175757 -5.27493055555e-21)
(0.210242770833 -0.0906133470798 -1.01043502612e-20)
(0.213033036856 -0.0953934589033 -1.06124143972e-20)
(0.185462839384 -0.0979407568484 -9.94397169581e-21)
(0.137507646212 -0.00205515113433 -1.3589588674e-21)
(0.141764193289 -0.00403887685454 -6.40577516124e-22)
(0.143328255919 -0.00736954464011 -4.23619703552e-22)
(0.144912711541 -0.0105388919183 -2.84330609884e-22)
(0.146929802402 -0.0137303905605 -5.73602936234e-23)
(0.149450050939 -0.0170121113517 -1.53276686263e-23)
(0.152488993729 -0.0204074730749 -6.75187823106e-24)
(0.156057084338 -0.0239351813169 7.06001746016e-24)
(0.160166544119 -0.0276174711436 -4.44082669196e-23)
(0.164832647319 -0.0314779750265 -6.81711799148e-24)
(0.170074791088 -0.0355422841537 1.91544819317e-23)
(0.175916561306 -0.0398441066256 -4.4292475585e-23)
(0.182382307356 -0.0444189970589 1.09430161963e-22)
(0.18949749618 -0.049262650388 1.54098944698e-22)
(0.197240681765 -0.0543655446356 3.63938125893e-22)
(0.205366739052 -0.0598212833366 4.07917666054e-22)
(0.213208368175 -0.066917486889 -1.35706663883e-21)
(0.217554757199 -0.0812915478961 -4.66375962695e-21)
(0.22012465788 -0.0846333469343 -5.62309492341e-21)
(0.191448278625 -0.0851005761855 -5.09056497592e-21)
(0.140125286497 -0.00175495781286 -1.28846365955e-21)
(0.144544936672 -0.0032909473753 3.61287908552e-22)
(0.14617724442 -0.00610868380569 3.47355994703e-22)
(0.147825317707 -0.00875243815823 -6.11135295654e-23)
(0.149920100966 -0.0114223415944 -3.54798835423e-23)
(0.152536746388 -0.0141766143757 -2.57941613834e-23)
(0.155691965076 -0.0170357362469 -2.14990080679e-23)
(0.159396877304 -0.0200158945623 -2.33234021664e-23)
(0.163664583864 -0.0231362790752 -4.13240665589e-23)
(0.168511691848 -0.026416844659 -2.15385759662e-23)
(0.173959626711 -0.0298787279997 3.10120955004e-24)
(0.180034935008 -0.033549493528 -5.67204132658e-23)
(0.186767208966 -0.0374584710421 4.62452970766e-23)
(0.19418967664 -0.0416030945957 5.41091667929e-23)
(0.202285975432 -0.0459580797626 -3.68341510781e-23)
(0.210822278914 -0.0504763604638 -1.24950340356e-21)
(0.219171210368 -0.0564159509977 -7.75878547983e-21)
(0.224000101874 -0.0710423321408 -4.02054131975e-21)
(0.226035225482 -0.0727120847204 2.99105789481e-21)
(0.196642069812 -0.0712678805204 2.20562041287e-21)
(0.142231872963 -0.00143969235526 -7.92498945546e-22)
(0.146808261407 -0.00251918578139 -3.14752992838e-23)
(0.148504027677 -0.0048050231603 1.9996052579e-22)
(0.150211926748 -0.00690164715139 -6.75286741191e-23)
(0.152378838527 -0.00903049097966 -2.94340279099e-23)
(0.155084294333 -0.011238205408 -2.13599423749e-23)
(0.158345863899 -0.0135419385598 -1.97312667451e-23)
(0.162174732555 -0.0159550814022 -3.78366606671e-23)
(0.166584255364 -0.0184933883807 -4.84519066432e-23)
(0.171591450392 -0.0211725422005 -2.67668447381e-23)
(0.177218926059 -0.0240083703141 -4.33785681588e-23)
(0.18349509491 -0.027021318083 -8.4788667968e-23)
(0.190453650897 -0.0302331470668 4.59844744965e-23)
(0.198134076939 -0.0336408444886 1.46513681152e-22)
(0.206524682746 -0.0372063515118 3.11615935865e-23)
(0.215396102573 -0.040735938878 3.87211139918e-22)
(0.224135505856 -0.0452810099626 -1.48044182397e-21)
(0.22945037836 -0.0599006418209 -4.39949892066e-21)
(0.230641142606 -0.0596908155991 -2.70842553323e-21)
(0.200962973398 -0.0567249280849 -3.78194677027e-21)
(0.143810634218 -0.00110893914965 -9.12750926349e-22)
(0.148537622095 -0.00172656914507 9.849816945e-22)
(0.150289224008 -0.00346297844803 7.02429013645e-23)
(0.15205411947 -0.00499007339492 -6.41177952222e-23)
(0.154288088847 -0.00656016417899 -3.09445733499e-23)
(0.157075021765 -0.0082047224948 -2.03895701628e-23)
(0.16043319664 -0.00993695622069 -1.18294323506e-23)
(0.164372913874 -0.011767283606 -1.68036069289e-23)
(0.168907476482 -0.0137078469571 -3.35769761706e-23)
(0.174052519831 -0.0157695588161 -2.81946479426e-23)
(0.179831351643 -0.0179621976972 -4.52311781446e-23)
(0.186272400945 -0.0202983020136 -9.52683642925e-23)
(0.193412420065 -0.0227909320515 3.67643237972e-23)
(0.201296385825 -0.0254358983534 1.99959074638e-22)
(0.209918224678 -0.0281922304102 1.40132712984e-23)
(0.219038676629 -0.0307352815989 -3.65768783857e-22)
(0.227959047161 -0.0336133158323 -7.61860652326e-21)
(0.233768161038 -0.0479370498409 -2.50137426634e-21)
(0.233774314669 -0.0455917298996 1.12909724285e-21)
(0.204398765652 -0.0413836272757 -3.34848892858e-22)
(0.144846610891 -0.000762183630179 -3.85226305866e-22)
(0.149716109203 -0.000916413323496 -4.0528480583e-23)
(0.15151396397 -0.00208558161223 -1.63966046743e-22)
(0.153335909193 -0.00301859411204 -9.08065444746e-23)
(0.155632327635 -0.00401564342835 -3.33990809126e-23)
(0.15849388147 -0.00508355699906 -9.46095372719e-24)
(0.161939937311 -0.00623163829998 -7.46363083793e-25)
(0.165977616767 -0.00746718948546 1.23055833591e-24)
(0.170621757694 -0.00879928767984 -1.05509806463e-23)
(0.175881433223 -0.0102336624783 -1.01683773069e-23)
(0.181783484277 -0.0117733353748 -5.56222210011e-24)
(0.188351395567 -0.0134225403152 -1.90098795927e-23)
(0.195624079804 -0.0151831146276 6.77356231664e-23)
(0.203654186644 -0.0170487003574 9.45047108962e-23)
(0.212449545976 -0.018995398985 4.29416672673e-23)
(0.221755363374 -0.0206540857683 1.06709559707e-22)
(0.230515108968 -0.0216022132424 8.65354384728e-22)
(0.236832252426 -0.0352583798404 -1.1948429351e-21)
(0.235234235881 -0.0305924166896 -6.65309136191e-21)
(0.207056289381 -0.026096978787 -6.4362747373e-21)
(0.145347137263 -0.000389048178932 -4.11917719399e-22)
(0.150317789973 -8.32924484178e-05 4.75498005295e-22)
(0.152165169251 -0.000668797040114 -4.45211357859e-22)
(0.154046964841 -0.00098529351644 -1.72665617091e-22)
(0.156398409285 -0.00140166014047 -3.41820444597e-23)
(0.159328020554 -0.00188183879302 8.12065093649e-24)
(0.162856847077 -0.00243649014128 4.66101906513e-24)
(0.166976839759 -0.00306834588327 -5.45934875064e-24)
(0.171722070744 -0.00378672434457 -6.3215828763e-24)
(0.177069700956 -0.00459045296088 6.679442366e-24)
(0.183071432384 -0.005474802592 1.71160649202e-23)
(0.189726212081 -0.00643866584233 3.08132328995e-24)
(0.197078960197 -0.00746408993825 8.59068356321e-23)
(0.205190326624 -0.00853573877593 1.22378058795e-22)
(0.214100565765 -0.00966141346882 8.04450436904e-23)
(0.223618802772 -0.0107077157559 -1.37749240049e-21)
(0.231799305346 -0.0094996038396 -6.91601291007e-21)
(0.238715865137 -0.0219743548732 1.74593770965e-22)
(0.235160362747 -0.0151216133989 4.8338732104e-22)
(0.209298114723 -0.011977339746 -9.57809757185e-22)
(0.145230449026 7.71049459003e-06 -4.71975884994e-22)
(0.150297308338 0.000770780586006 7.04332852859e-22)
(0.152244923045 0.000801822833753 3.49180758121e-23)
(0.15416675844 0.00110278514809 -9.07048969807e-23)
(0.156569706692 0.00127151661232 -3.83364003928e-23)
(0.159563363794 0.00139426584781 -1.1985616417e-23)
(0.163162378763 0.00143748597542 -2.10455742729e-23)
(0.167371537746 0.00141806118961 -1.14122339963e-23)
(0.172195649669 0.00131271630914 -1.59785753712e-23)
(0.177625207589 0.00113505644836 -8.66063803887e-24)
(0.183698456469 0.000902975944246 5.8571589605e-24)
(0.190416613943 0.000604920481532 -8.9031097262e-24)
(0.197781529644 0.000303124433163 4.3654821552e-23)