/*--------------------------------*- C++ -*----------------------------------*\
| =========                 |                                                 |
| \\      /  F ield         | OpenFOAM: The Open Source CFD Toolbox           |
|  \\    /   O peration     | Version:  v2012                                 |
|   \\  /    A nd           | Website:  www.openfoam.com                      |
|    \\/     M anipulation  |                                                 |
\*---------------------------------------------------------------------------*/
FoamFile
{
    version     2.0;
    format      ascii;
    class       volVectorField;
    location    "1";
    object      U_0;
}
// * * * * * * * * * * * * * * * * * * * * * * * * * * * * * * * * * * * * * //

dimensions      [0 1 -1 0 0 0 0];


internalField   nonuniform List<vector> 
1984
(
(0.00424379314419 -0.00422326371011 1.73740415847e-22)
(0.00504453875197 -0.0111577008382 1.05028475878e-21)
(0.00511881233355 -0.0197352173153 -2.14781164703e-22)
(0.00508291417197 -0.0281040100058 -1.06241553524e-22)
(0.0050803463127 -0.0364234954054 -3.08568632452e-22)
(0.00510706318598 -0.0447998701003 -2.25878167802e-22)
(0.0051529970547 -0.0532744552867 -3.88155502241e-22)
(0.00521324685123 -0.0618732881706 1.10426367679e-21)
(0.00528533910109 -0.0706184864777 9.63230896298e-22)
(0.00536762164701 -0.0795285599325 1.57920972067e-21)
(0.00545846894019 -0.0886210131003 -5.19781684983e-23)
(0.0055559531868 -0.0979244565018 3.02246573723e-22)
(0.00564807271033 -0.107438569674 4.75772877365e-23)
(0.0056586888189 -0.117035413396 4.9904404263e-22)
(0.00539570681387 -0.126780879513 2.38706034989e-23)
(0.00482592542837 -0.137133864558 1.6909122145e-22)
(0.00461506601195 -0.146665355691 3.41692164374e-22)
(0.00873077098112 -0.153538686518 -5.59285634635e-21)
(0.0387097167468 -0.156437302203 -3.77071436577e-20)
(0.146833386395 -0.229528645729 -3.36441864494e-20)
(0.0111763824984 -0.00502964634767 1.11904909314e-22)
(0.0120737139521 -0.0119967308177 4.73925450958e-22)
(0.0122090889089 -0.0204293414364 -5.00426838802e-24)
(0.0122350049303 -0.0288701848003 -4.59709069035e-22)
(0.0123193130452 -0.0373171799918 -2.40346249509e-21)
(0.0124590769738 -0.0458598250816 -1.01197842589e-21)
(0.0126400459593 -0.0545182932317 -1.50643785842e-21)
(0.012854722943 -0.0633082590089 -4.6951778761e-22)
(0.0130991638923 -0.0722476426232 8.3289730882e-22)
(0.013370682653 -0.0813531164135 -1.42625265524e-21)
(0.0136668657126 -0.090640146648 -4.00455433411e-22)
(0.0139860829331 -0.100137391116 -6.55525360417e-22)
(0.014322209047 -0.109861353305 -6.19387498804e-22)
(0.0146360414631 -0.119690543839 2.20402037437e-22)
(0.014873673405 -0.129710857543 2.09273720824e-22)
(0.0151493472306 -0.141302210602 -5.51478734653e-22)
(0.0153593384977 -0.154556171281 1.6596891992e-21)
(0.0146532891787 -0.162190604174 3.65506557719e-21)
(0.0132362899092 -0.163694883261 -1.65111497247e-20)
(0.0021971898057 -0.164519437894 -1.49991977249e-20)
(0.0196232142125 -0.00510188116682 2.78595178465e-22)
(0.0203916863623 -0.0120425281005 2.9528866641e-21)
(0.020598044305 -0.0204710872076 3.65280304314e-22)
(0.0207364838414 -0.0288954402251 -8.77941320552e-23)
(0.0209181576368 -0.0373211909203 -3.90912136037e-22)
(0.0211567749247 -0.0458477641446 -9.8568355964e-23)
(0.0214495764698 -0.0544943679666 -2.09566637535e-22)
(0.0217930830579 -0.0632752557723 1.81161167202e-22)
(0.0221841986524 -0.0722077297252 1.73387363172e-22)
(0.0226197717451 -0.0813084009806 -3.09675445262e-22)
(0.0230963312175 -0.0905927596992 -4.24065640063e-23)
(0.0236103926227 -0.100091139897 5.94578547288e-23)
(0.0241556316722 -0.109827477395 8.0270773598e-23)
(0.0247171169111 -0.119673209242 6.65320360669e-22)
(0.0252992326715 -0.129625686608 -2.20964548345e-22)
(0.0259805048887 -0.140835560452 -1.38826849572e-21)
(0.0268416920772 -0.153097979602 -2.05626492786e-22)
(0.0279450390394 -0.159849135507 -8.70842421007e-21)
(0.0316546521477 -0.160973706505 -2.66522403246e-21)
(0.0382685673674 -0.18014111661 -2.92318722425e-21)
(0.0279035834926 -0.00501744473908 6.41833912403e-22)
(0.0287333287017 -0.0118870339551 1.60822564638e-21)
(0.0289997868045 -0.0203184684585 2.83252848459e-22)
(0.029231384291 -0.0287074609262 2.62927506719e-23)
(0.029515018518 -0.0370818733353 -2.17352793576e-23)
(0.0298669661828 -0.045553531928 1.70387434905e-22)
(0.0302884622104 -0.0541461008251 1.76636862227e-22)
(0.0307777384569 -0.0628751723859 -6.37359371403e-23)
(0.0313321062971 -0.0717585285763 -7.27245084051e-23)
(0.0319482645315 -0.0808131356968 1.879650884e-22)
(0.032622369939 -0.090055032916 -7.45698303691e-23)
(0.0333504716535 -0.0995156545285 8.05845028295e-23)
(0.0341260385471 -0.109220274478 -3.86942571432e-23)
(0.0349382543247 -0.119037303822 1.5090084898e-22)
(0.0357876797054 -0.12895523381 1.21186466543e-22)
(0.0366389573803 -0.140079033271 3.21015879067e-22)
(0.0373289874879 -0.152067035428 -3.34425577601e-22)
(0.0377917470273 -0.158749217667 -1.2647537612e-21)
(0.0388092906201 -0.160987774101 -1.91887432895e-21)
(0.0381903004457 -0.184070161888 -1.6197349375e-21)
(0.0359465500762 -0.00493453047041 -4.65086975014e-22)
(0.0369064340851 -0.0117106628816 2.78421119651e-21)
(0.0372237705073 -0.0200927688282 6.01721210307e-22)
(0.0375277153908 -0.0284152315088 6.52134331173e-23)
(0.0379036649781 -0.0367154479849 9.16724300047e-24)
(0.0383660325966 -0.0451101643607 3.28510996995e-23)
(0.0389161324015 -0.0536262391231 3.73135464185e-23)
(0.0395523865391 -0.0622808796061 -1.17371167474e-23)
(0.0402719711292 -0.0710928562437 -6.17143757737e-24)
(0.0410712913408 -0.0800797232417 2.92805119575e-23)
(0.0419461959508 -0.0892577943976 -7.89407859457e-24)
(0.0428923764098 -0.0986588744568 2.12506593391e-24)
(0.0439026919179 -0.10830775053 3.83278438177e-23)
(0.0449644773989 -0.118067961493 2.27530772415e-22)
(0.0460699846117 -0.1279230914 5.11856306671e-23)
(0.0471405413125 -0.138975533394 1.17974254298e-22)
(0.0479291386719 -0.150872360396 1.52636155031e-22)
(0.0482824944806 -0.157561558264 -2.17826549564e-21)
(0.0479498543791 -0.160066221936 -1.28619500293e-20)
(0.0452029598484 -0.184651932344 -1.1724948927e-20)
(0.0438532984447 -0.00485971415187 -3.03663195353e-22)
(0.0449825295224 -0.0115263430356 2.08957492985e-21)
(0.0453554768178 -0.0198175203588 5.36325180573e-22)
(0.0457258463262 -0.0280439786695 6.42962407124e-23)
(0.0461899557562 -0.036246874462 1.67476535605e-23)
(0.0467614391983 -0.0445438467003 -2.910322365e-24)
(0.0474407475572 -0.052963364187 7.00066800996e-24)
(0.048225807719 -0.0615238766195 -2.77286793675e-24)
(0.0491133518466 -0.0702451433047 -7.50032933429e-24)
(0.0500991774678 -0.0791455406825 -2.4278812737e-24)
(0.0511785030529 -0.0882419028411 -1.61109532878e-24)
(0.0523461956973 -0.0975662816658 -1.88714093845e-23)
(0.053593085414 -0.107143129955 4.98171320713e-23)
(0.0549023078997 -0.116833216505 2.29015699089e-22)
(0.0562572330349 -0.126618059829 2.28669930886e-23)
(0.0575429487005 -0.13759778697 7.90048482044e-23)
(0.0584586096571 -0.149422134022 2.37121240896e-22)
(0.058819141631 -0.156173682253 -2.646133158e-21)
(0.0580160944284 -0.158962487034 -1.74031113031e-20)
(0.0538568079973 -0.184179150075 -1.60841597898e-20)
(0.0516336201278 -0.00478285188698 -5.3085719346e-24)
(0.0529523177129 -0.0113217881129 5.5522871631e-22)
(0.0533869431226 -0.0194925617439 5.685227066e-24)
(0.0538241709173 -0.0275970648464 1.34686622316e-23)
(0.0543763310336 -0.0356794943865 -1.32967283526e-23)
(0.0550578784619 -0.043857188206 3.40263418169e-24)
(0.0558685384859 -0.0521595107712 -5.28277222626e-24)
(0.0568056009436 -0.0606058960334 -8.8176199492e-24)
(0.0578652171124 -0.069217086377 5.57226796531e-24)
(0.0590424697552 -0.0780123975807 -1.60556678368e-23)
(0.0603316593253 -0.0870094974465 1.96224557481e-24)
(0.0617264148858 -0.096241185987 -3.35851023319e-24)
(0.0632149096955 -0.105732396786 5.2312174121e-23)
(0.0647756769645 -0.11534412764 1.74043361834e-22)
(0.0663839396341 -0.125061922945 -4.15307244295e-22)
(0.0678902536429 -0.135982089029 -1.4200684125e-21)
(0.0689462473419 -0.147745318469 3.1560459022e-21)
(0.0693256279707 -0.154636825977 5.53222635018e-21)
(0.0682731708433 -0.157858862082 -1.53794843048e-20)
(0.0629502658032 -0.182968719999 -1.39810705454e-20)
(0.0592687085348 -0.00469847482446 -6.30128033984e-23)
(0.0607851824162 -0.0110899266833 2.47540442932e-21)
(0.0612855001122 -0.0191154532 4.59016296971e-22)
(0.0617914911312 -0.0270736202434 4.78702902461e-23)
(0.0624331884826 -0.0350124085978 1.87385488543e-24)
(0.0632268222816 -0.0430486000301 -4.27778220976e-24)
(0.0641717298319 -0.0512122213917 -2.36691675416e-24)
(0.0652646691179 -0.0595235963294 -1.41542234382e-23)
(0.0665012354471 -0.068004492298 8.73233056086e-24)
(0.0678758223545 -0.0766753443053 -5.27784400997e-24)
(0.0693818041866 -0.0855550323855 -8.49257641288e-24)
(0.0710115080396 -0.0946775842148 -3.45563456775e-23)
(0.0727505324954 -0.104069160333 7.43685596406e-23)
(0.0745734178913 -0.113593685564 2.95164726055e-22)
(0.07644907298 -0.123243247506 -7.86910186868e-22)
(0.0782001611338 -0.1341073144 -2.39138936169e-21)
(0.0794378761703 -0.145830467522 -2.02148394141e-21)
(0.0798838747362 -0.152909636526 -1.05975269851e-20)
(0.0787293350788 -0.156619077129 -2.35168924535e-20)
(0.0722054191349 -0.181306286231 -2.15788823459e-20)
(0.0667390200062 -0.00460384659169 1.92148027199e-22)
(0.0684564846873 -0.0108271024294 1.39341355069e-21)
(0.0690252860534 -0.0186838785283 2.73198536643e-22)
(0.069602210733 -0.0264718016686 -4.78480729338e-23)
(0.0703355845731 -0.0342435869101 -1.01446588607e-24)
(0.0712439369746 -0.0421154261327 1.49957001697e-23)
(0.072326525011 -0.0501179763406 -2.22915927016e-23)
(0.0735797653918 -0.0582724552882 4.43555835966e-24)
(0.0749988385662 -0.0666017410807 -4.47622775679e-24)
(0.0765775910258 -0.0751275817087 -3.04712820883e-24)
(0.078308654674 -0.0838704167009 8.43388864609e-24)
(0.080183275023 -0.0928658992724 -1.87738837779e-23)
(0.0821848801181 -0.102141924282 1.94609972311e-23)
(0.0842849210863 -0.111567196538 6.53833919928e-23)
(0.0864480881694 -0.121141997919 8.62347488908e-24)
(0.0884731283744 -0.131943358584 7.29957975067e-23)
(0.0899273937097 -0.143606264844 -1.24742145068e-21)
(0.0904477311143 -0.150832969157 -3.10710915983e-21)
(0.0892496984457 -0.154967016325 -6.42675867886e-21)
(0.0816427320524 -0.178794445697 -6.13412172782e-21)
(0.0740240855264 -0.00449740699748 4.31659004901e-23)
(0.0759437748842 -0.0105310383781 2.71088618646e-21)
(0.0765832784791 -0.0181957103686 5.76249486011e-22)
(0.0772333020692 -0.0257894096263 4.12132867183e-23)
(0.0780607571143 -0.0333704638028 2.38886862002e-24)
(0.0790867998173 -0.0410544352836 -2.74396126385e-24)
(0.0803108664389 -0.0488726396852 -3.4750791168e-24)
(0.0817292542944 -0.0568472330623 2.53057671141e-24)
(0.0833369437608 -0.0650022940894 8.0912992993e-24)
(0.0851274746845 -0.0733610540724 -6.32622101018e-24)
(0.0870930357686 -0.0819457962583 2.04842031234e-25)
(0.0892241610616 -0.0907940491912 -1.89128852324e-23)
(0.091502648767 -0.0999357354731 4.08274879839e-23)
(0.0938976994072 -0.109246071803 1.95419597293e-22)
(0.0963707682168 -0.118734306703 6.80360158393e-24)
(0.0986994539383 -0.129454074665 -4.559046818e-23)
(0.100407664341 -0.141047073222 -3.39470717068e-22)
(0.101020868357 -0.148536067426 -3.50348264172e-21)
(0.0998547206734 -0.153311350248 -1.78649227842e-20)
(0.0911317146515 -0.176320484155 -1.66718729896e-20)
(0.0811016172138 -0.00437820393435 -4.93319070551e-22)
(0.0832238603044 -0.010200236237 -3.56540213392e-22)
(0.0839359327241 -0.017649103654 -1.40912900327e-22)
(0.0846610872925 -0.0250242106172 -1.49273182699e-22)
(0.0855850537824 -0.032390280512 -1.73458193573e-23)
(0.0867318603026 -0.0398621276681 -1.09306389175e-23)
(0.088101349057 -0.0474717473524 3.12971835584e-25)
(0.0896899346571 -0.0552422643072 1.96295713068e-26)
(0.0914926607673 -0.0631990216798 -7.6387709072e-24)
(0.0935030718532 -0.0713668569142 -7.51693918612e-24)
(0.0957132967859 -0.0797701036661 -1.93666451833e-24)
(0.0981136318341 -0.0884483392996 -2.18292244035e-23)
(0.100684874172 -0.0974338459951 1.12942782858e-23)
(0.103394871266 -0.106610067996 8.96644271104e-23)
(0.106203363946 -0.115995250735 3.35762951788e-22)
(0.108870510841 -0.126617050026 4.35216390346e-22)
(0.110873147917 -0.138139514364 -3.23328232569e-21)
(0.111602848181 -0.145873146315 -8.97889682086e-21)
(0.110575375996 -0.151166923605 -6.10815334341e-21)
(0.100541292956 -0.173117168686 -5.82993655949e-21)
(0.0879482142948 -0.00424558246808 -9.39654339734e-22)
(0.0902727958273 -0.00983366254557 9.52570456436e-22)
(0.0910590513329 -0.0170424990756 4.65648276286e-23)
(0.0918611654522 -0.0241741117662 -1.08625377161e-22)
(0.0928839296235 -0.0313003325562 -1.57596772262e-23)
(0.0941544639361 -0.0385350096909 -5.83216333982e-24)
(0.0956732282549 -0.0459107924442 -2.11237622294e-23)
(0.097436998318 -0.0534517700706 -1.06518960234e-23)
(0.0994411761075 -0.0611845607955 -2.43877775392e-23)
(0.10167967224 -0.0691356612798 -1.85546646474e-23)
(0.104145001621 -0.0773315700106 7.11124584104e-24)
(0.106827765187 -0.0858139645952 -4.51919124016e-23)
(0.109708450116 -0.0946175143063 2.86836624505e-23)
(0.11275452606 -0.103634988332 1.55151310807e-22)
(0.115925030997 -0.112893900097 2.36456447705e-22)
(0.118962268014 -0.123381721583 5.14350118782e-22)
(0.121290087692 -0.134783598035 -1.32877051412e-21)
(0.122147192681 -0.142816573514 -4.03538574673e-21)
(0.121345417683 -0.14873884624 -9.03453699306e-21)
(0.110039598597 -0.169431327711 -8.38013946209e-21)
(0.0945398427159 -0.00409902569304 -7.50646241515e-22)
(0.0970661121408 -0.00943057076075 2.60884938638e-21)
(0.0979279540765 -0.0163746019816 5.18928626241e-22)
(0.0988085986259 -0.0232372532175 2.5114462213e-23)
(0.0999321662262 -0.0300981301265 -1.69476722227e-23)
(0.101329087356 -0.037069800811 -1.08696810382e-23)
(0.103000646323 -0.0441854828604 -1.76274909684e-23)
(0.104944227761 -0.0514701655997 -3.14899808977e-23)
(0.107155905099 -0.0589516918565 -4.63883248702e-23)
(0.109630347433 -0.0666581912313 -1.38689203277e-23)
(0.112360941124 -0.0746183346664 -5.20464852831e-24)
(0.115339184807 -0.0828758561585 -5.77889381841e-23)
(0.118546054871 -0.0914679344271 6.03546671801e-23)
(0.121949605154 -0.100298041695 2.64364749061e-22)
(0.125508746774 -0.109403319368 -5.3595194754e-22)
(0.128952106862 -0.119728960545 -1.49742557143e-21)
(0.131655770884 -0.131018096571 -9.94557027194e-23)
(0.132681500261 -0.139450567771 -4.29250878844e-21)
(0.132194534358 -0.146043341199 -1.68657557646e-20)
(0.119425828045 -0.165293312232 -1.54645883938e-20)
(0.100852011512 -0.0039380944705 -1.21703760931e-21)
(0.103578885584 -0.0089904424977 7.13169355243e-22)
(0.104517500173 -0.01564440074 2.41188678499e-22)
(0.105477924494 -0.0222121022455 -1.14551428303e-22)
(0.106703892314 -0.0287815567131 -2.37898633875e-23)
(0.108229367032 -0.0354636446448 -2.59880241749e-23)
(0.110056659453 -0.0422920051359 -2.73212176039e-23)
(0.112184008742 -0.0492924040108 -1.79828960673e-24)
(0.114608477169 -0.0564937779357 -3.66183487585e-23)
(0.117325893688 -0.0639257625137 -9.73427853603e-24)
(0.120331031226 -0.0716190904295 7.50792161941e-24)
(0.123616921847 -0.0796193663479 -1.87990215499e-23)
(0.127165956405 -0.0879662669362 4.35954391952e-23)
(0.130948084778 -0.0965748620682 2.02274207705e-22)
(0.134923485575 -0.105490156893 2.51480488812e-22)
(0.138812972091 -0.115608133529 7.13491641927e-23)
(0.141950940985 -0.126753321763 -2.35984702177e-21)
(0.143175857088 -0.135609072541 -5.01915012791e-21)
(0.1429834079 -0.142748182795 5.37557864957e-21)
(0.128620572231 -0.160396121077 4.65268731293e-21)
(0.106859905653 -0.00376240690087 -5.02810103196e-22)
(0.109785827021 -0.00851298558085 1.3899763345e-21)
(0.110802150348 -0.0148512108631 -2.21033566968e-22)
(0.111843209302 -0.0210975495264 -1.32708052919e-22)
(0.11317264505 -0.0273490269712 -2.94215772762e-24)
(0.114828172511 -0.0337143446131 -9.22840975668e-24)
(0.116813309076 -0.0402273364094 -1.64665607892e-23)
(0.119127396266 -0.0469143413047 1.38481983106e-23)
(0.121768792676 -0.0538051948104 -8.71842728867e-24)
(0.124734882772 -0.0609308367263 -1.19877001359e-23)
(0.128022313254 -0.0683237963786 7.40200614139e-24)
(0.131626275498 -0.0760311471671 -3.74208935175e-23)
(0.135531531428 -0.084094835924 5.80029430429e-23)
(0.139711174942 -0.0924419470049 2.56826591811e-22)
(0.144127174947 -0.101121951646 1.61693395281e-22)
(0.14849547997 -0.11096889415 1.96539826487e-22)
(0.152114209306 -0.121918040044 -3.88762326446e-21)
(0.153572478329 -0.131265506665 -9.54972984362e-21)
(0.153727341367 -0.138894436327 -8.54880819879e-21)
(0.137737813649 -0.154811010443 -7.8957052376e-21)
(0.112538548606 -0.00357166249255 -1.28737286797e-21)
(0.115661417057 -0.00799818980953 -1.00126700276e-21)
(0.116756090687 -0.0139947536344 -4.28301967095e-22)
(0.11787818783 -0.019893042876 -1.65070570849e-22)
(0.119311502651 -0.0257996738618 -2.21780757177e-23)
(0.121097718329 -0.0318205297493 -1.28279558966e-23)
(0.123241759971 -0.0379894020573 -1.4961715688e-23)
(0.125744270644 -0.0443329842609 2.08242474313e-24)
(0.128605185191 -0.0508817078183 -2.05043381901e-23)
(0.131823804595 -0.0576674697165 -2.04100817707e-23)
(0.135399096145 -0.0647242196431 4.1061094238e-23)
(0.139329010583 -0.0721000313682 -2.04843223082e-24)
(0.143601585974 -0.0798388345649 2.45836634305e-23)
(0.148194076417 -0.0878800354915 4.38743259683e-23)
(0.153069961571 -0.0962743504791 2.82471998907e-22)
(0.157942935309 -0.105785110892 -5.92325242884e-23)
(0.162082931457 -0.116496548303 -4.74534360508e-21)
(0.163823598567 -0.126433139003 -1.02457657995e-20)
(0.164426235676 -0.134460773525 -5.4449793055e-21)
(0.1466990524 -0.14842083384 -5.15220753862e-21)
(0.117862973825 -0.00336560516721 -1.54950121062e-21)
(0.121180079584 -0.00744630941431 -6.93735131308e-22)
(0.122353418628 -0.0130752252555 -2.49721239179e-22)
(0.123556404152 -0.0185986649949 -1.58662233774e-22)
(0.125093230642 -0.0241333815922 -9.01178644364e-24)
(0.127009791109 -0.0297818539641 -2.78474438968e-23)
(0.129312561161 -0.0355775213414 -3.00120400954e-23)
(0.132003631654 -0.0415470674859 -1.42197530317e-23)
(0.135084747246 -0.0477211450635 -8.30983964556e-24)
(0.138557441044 -0.0541321891853 -2.13708298028e-23)
(0.14242341709 -0.060815096781 2.84533847121e-24)
(0.14668391091 -0.0678183030598 -5.16421554797e-23)
(0.151331089958 -0.0751872941927 3.35364332574e-23)
(0.156347444544 -0.0828739858343 1.75402340312e-22)
(0.161697637129 -0.0909268059649 5.39923856831e-22)
(0.16709640995 -0.100028679666 8.79384119307e-22)
(0.171797804221 -0.110450326317 -1.62381536322e-21)
(0.173871965501 -0.121077256898 -2.11660143155e-21)
(0.174970697672 -0.129335647689 2.44500232957e-21)
(0.155410921057 -0.141118839762 2.20166562244e-21)
(0.122808394823 -0.0031440409009 -1.06484934906e-21)
(0.126316373139 -0.00685791389508 4.05086163491e-23)
(0.127568293883 -0.0120932452319 -6.4637563653e-23)
(0.128851432734 -0.0172151154973 -4.91222565598e-23)
(0.130490595741 -0.0223510821693 -2.24707063496e-23)
(0.132536035446 -0.0275993497506 -2.87375004392e-23)
(0.134995892585 -0.0329925438988 -3.51136468652e-23)
(0.137873867368 -0.0385570428126 -3.71937433071e-23)
(0.141173630507 -0.0443233329635 -1.75706029003e-23)
(0.144899202668 -0.0503238778062 -2.4822291048e-23)
(0.149055385595 -0.0565939107224 -1.4433512834e-23)
(0.153647144577 -0.0631815103732 -1.03275304854e-22)
(0.158671617141 -0.0701331728206 3.18660074069e-23)
(0.164117699204 -0.0774132393383 1.34240731521e-22)
(0.169951297738 -0.0850642000122 -4.979207981e-23)
(0.175891608257 -0.0936780096659 2.21945522147e-23)
(0.181188748642 -0.103742696997 -2.03947507846e-21)
(0.18363910494 -0.11514070795 -2.82455284471e-21)
(0.185232891222 -0.12334958887 -3.39553209896e-21)
(0.163793215507 -0.132826272728 -3.26850198803e-21)
(0.127350434979 -0.00290693885486 -3.89247171624e-23)
(0.131045183341 -0.00623398029846 1.17020345261e-21)
(0.132375165234 -0.0110500821895 1.65548447219e-22)
(0.133737148635 -0.0157440085054 -9.36752162392e-23)
(0.135476571925 -0.0204546639237 -2.99507236951e-23)
(0.137648217235 -0.0252751453957 -1.16155110487e-23)
(0.140261982008 -0.0302369654162 -1.40782204974e-23)
(0.14332321412 -0.0353657001689 -2.82394447264e-23)
(0.14683760267 -0.0406911054247 -3.59354719878e-23)
(0.150811811923 -0.0462451294164 -1.02358167516e-23)
(0.155253979067 -0.0520626478025 -3.78780614023e-23)
(0.160173145787 -0.0581905164519 -3.74558150437e-23)
(0.165572119611 -0.0646753253611 3.35991723417e-23)
(0.171447310381 -0.0714930826876 1.27046868353e-22)
(0.177766573529 -0.0786779484872 1.70688850527e-22)
(0.184255320728 -0.0867183621697 -5.32939666444e-23)
(0.190168149262 -0.0963261363434 -8.80216825915e-22)
(0.193032361942 -0.108540948399 -2.55972832523e-21)
(0.195078282326 -0.116293767669 -1.27026143017e-20)
(0.171777448464 -0.123574011647 -1.27023281929e-20)
(0.131465238082 -0.00265405198095 -2.44676719792e-22)
(0.135341950714 -0.00557551008853 2.47401482609e-21)
(0.136749035172 -0.00994736105239 3.69204822068e-23)
(0.138187908919 -0.0141875379896 -1.62960234307e-22)
(0.140024638169 -0.0184470248796 -4.62644367073e-23)
(0.14231864125 -0.0228129326852 -2.29893602667e-23)
(0.145081536269 -0.0273151282997 -2.1398876185e-23)
(0.14832027662 -0.031977949064 1.5701589563e-23)
(0.152042628125 -0.0368299611578 -5.01068787144e-23)
(0.156257924035 -0.0419019303341 -3.10880960272e-23)
(0.160977704652 -0.0472275307268 2.13571494325e-23)
(0.166215289594 -0.0528514169456 -9.44978959244e-23)
(0.171979653162 -0.0588190932024 8.34919340267e-23)
(0.17827549124 -0.0651165694943 2.3812917821e-22)
(0.185073535863 -0.0717683126199 4.85393414496e-22)
(0.192107779976 -0.0791492363366 6.26355778633e-22)
(0.198649375164 -0.088179091222 -7.46339542664e-21)
(0.201969937841 -0.101208807357 -8.10714126221e-21)
(0.20439871432 -0.108095149727 -1.25179657959e-20)
(0.179327008117 -0.113350893665 -1.26139867269e-20)
(0.135129655935 -0.00238547982876 -9.80152315016e-22)
(0.139182902155 -0.00488419332175 -2.6422423912e-22)
(0.140665660282 -0.00878740086235 -3.83858102462e-22)
(0.14217890479 -0.0125487832985 -2.46652834804e-22)
(0.144109137012 -0.0163322213453 -4.65647793648e-23)
(0.146520446268 -0.0202176970206 -6.20876089187e-24)
(0.149426111027 -0.0242330334165 -2.17792485004e-23)
(0.152834603317 -0.0284009786079 1.90558392539e-24)
(0.15675562607 -0.0327483513701 -3.58876841296e-23)
(0.161201050719 -0.0373040113367 -2.90845918969e-23)
(0.166185714368 -0.0420995164907 3.41222899335e-23)
(0.171727196552 -0.0471762411183 -1.3098028515e-23)
(0.177840877063 -0.0525772867249 6.36477150105e-23)
(0.184540149254 -0.0582963802853 8.82217189587e-23)
(0.191799475577 -0.0643465412643 2.99058447354e-22)
(0.199365645315 -0.0709840240466 1.08643904983e-22)
(0.206539437333 -0.079303051568 -5.18019419084e-21)
(0.210337621158 -0.0930412588341 -1.03043067445e-20)
(0.213005449912 -0.098820529922 -1.03143804148e-20)
(0.186353919517 -0.101906743725 -9.95217249572e-21)
(0.138321552733 -0.00210125233822 -1.34637582374e-21)
(0.142545310535 -0.00416201744017 -6.36295865522e-22)
(0.144101719335 -0.00757327058853 -4.15809810532e-22)
(0.145686321493 -0.0108316465114 -2.8236419601e-22)
(0.147705466583 -0.0141151784125 -5.71704939202e-23)
(0.150227972661 -0.017495622128 -1.63040243892e-23)
(0.153268658878 -0.0209983872935 -6.6480730874e-24)
(0.156837287049 -0.0246442310496 7.69230683414e-24)
(0.160945198941 -0.028457676043 -4.57563497701e-23)
(0.165606487984 -0.0324649441134 -6.56317992201e-24)
(0.170838972144 -0.0366945275626 1.9386274933e-23)
(0.176664205962 -0.0411833689577 -4.68530000134e-23)
(0.183103865926 -0.0459706306212 1.10666118766e-22)
(0.190180296547 -0.0510552982222 1.47991319055e-22)
(0.197872850002 -0.0564369279162 3.75070779067e-22)
(0.205943717659 -0.062248515561 3.92856609324e-22)
(0.213731609469 -0.0697011689614 -1.82959453826e-21)
(0.218018281486 -0.08399046034 -4.60403141958e-21)
(0.220671926038 -0.0884314155104 -5.01114608847e-21)
(0.192704168517 -0.0894364113419 -4.65338877172e-21)
(0.141019947583 -0.00180135887648 -1.27538769074e-21)
(0.145407828083 -0.00341120011988 3.77451295377e-22)
(0.147034951468 -0.00630844654051 3.48886381237e-22)
(0.14868743487 -0.00904041562138 -5.86770714753e-23)
(0.150790338872 -0.011801470776 -3.56781078558e-23)
(0.153417142943 -0.0146538925454 -2.68956360261e-23)
(0.156584001024 -0.0176203120333 -2.21712679522e-23)
(0.160301583927 -0.0207191357081 -2.54154072153e-23)
(0.164582429111 -0.0239720798989 -4.18797450625e-23)
(0.1694423188 -0.0274020158126 -2.3135551519e-23)
(0.174901492455 -0.0310334148987 2.77400000481e-24)
(0.180984878838 -0.034897636514 -5.87998735703e-23)
(0.187719797078 -0.0390281558644 4.45483782112e-23)
(0.195136963022 -0.0434262157079 4.67334009872e-23)
(0.203221444976 -0.0480763260002 -6.79827806592e-23)
(0.211748863852 -0.0529758976536 -1.18470055474e-21)
(0.220099155557 -0.0593442650652 -7.22014514818e-21)
(0.224889920362 -0.0739787514642 -4.09865230771e-21)
(0.227257906645 -0.0768242821405 2.53416286021e-21)
(0.198297607587 -0.0758695119705 1.92750182923e-21)
(0.14320507012 -0.00148566571638 -7.79566247484e-22)
(0.147750735483 -0.00263426341324 -2.53232903096e-23)
(0.149444062838 -0.00499695611461 1.98680534984e-22)
(0.151160745586 -0.00717950774732 -7.00328470757e-23)
(0.153342031924 -0.00939687575832 -3.00330681388e-23)
(0.156065835041 -0.0117001976377 -2.1205509884e-23)
(0.159349346354 -0.0141089048666 -1.94025974001e-23)
(0.16320358315 -0.016638708378 -3.79658773205e-23)
(0.16764175648 -0.0193080671279 -5.00076030715e-23)
(0.172680520005 -0.0221358688473 -2.66425992149e-23)
(0.178341779556 -0.0251416742746 -4.52170241781e-23)
(0.184652859138 -0.0283502439269 -8.79647759973e-23)
(0.191645605317 -0.0317879437472 4.67755715204e-23)
(0.199357607218 -0.0354557513256 1.44388790936e-22)
(0.207779056987 -0.0393245047574 5.68477641848e-23)
(0.216693376249 -0.0432478670829 4.66328547419e-22)
(0.225506411031 -0.0482968884483 -1.31315339139e-21)
(0.230808302471 -0.0630258131434 -4.31520305341e-21)
(0.232595889675 -0.064026446907 -2.82233449396e-21)
(0.203058148096 -0.0614230411248 -3.81523213999e-21)
(0.144858599411 -0.00115375131489 -9.10065974931e-22)
(0.149556043958 -0.00183411278874 9.76970144612e-22)
(0.151308163143 -0.00364316858988 6.37668111685e-23)
(0.153086114801 -0.00525252988928 -6.67842078227e-23)
(0.155340721188 -0.00690664823277 -3.33544247367e-23)
(0.158154260127 -0.00864217293449 -2.02269794402e-23)
(0.161544791521 -0.010474709252 -1.1824957596e-23)
(0.165522750762 -0.0124169710604 -1.56294047805e-23)
(0.170101824937 -0.0144838694262 -3.29986250729e-23)
(0.175297965519 -0.0166897839705 -2.8472658251e-23)
(0.181134231529 -0.0190485838389 -4.33574248188e-23)
(0.187638801198 -0.0215776859382 -9.70040206781e-23)
(0.194846719327 -0.0242952398461 3.5948048302e-23)
(0.202801574457 -0.0272009374268 1.8845356006e-22)
(0.211498780932 -0.0302596160899 6.75250519614e-23)
(0.220716582061 -0.0331879685513 -2.7282277748e-22)
(0.229817036281 -0.0366632427215 -7.07204209332e-21)
(0.235635502469 -0.0511768217357 -2.5767787555e-21)
(0.23650866955 -0.0500842150711 7.07650320246e-22)
(0.20693106766 -0.0461715815128 -7.36388042595e-22)
(0.145963726952 -0.000804975959515 -3.78012400373e-22)
(0.150805831477 -0.0010141541946 -4.41552835455e-23)
(0.152606642703 -0.00225053662383 -1.62602249198e-22)
(0.154445688877 -0.00326066524766 -9.60795790234e-23)
(0.156768926343 -0.00433513295199 -3.38953544354e-23)
(0.159665219693 -0.00548721385775 -7.52428835911e-24)
(0.163153886751 -0.00672857131029 -3.43811200526e-25)
(0.167242281566 -0.00806855843998 1.76880108422e-24)
(0.171946514977 -0.00951879563558 -1.03923793588e-23)
(0.177277079063 -0.011088849972 -9.46957182042e-24)
(0.183260489437 -0.0127860606751 -1.17761532944e-24)
(0.189922105452 -0.0146203223939 -1.67658522541e-23)
(0.197297977701 -0.0165993869252 7.27621179444e-23)
(0.205440238489 -0.0187206640063 9.41274874212e-23)
(0.214355252423 -0.0209599707049 6.06656355248e-23)
(0.223804842342 -0.022955583071 1.85750732092e-22)
(0.232890581652 -0.024582787191 7.16557369602e-22)
(0.239232419633 -0.038531140231 -1.17991732451e-21)
(0.238774866365 -0.0351233205596 -7.04810388558e-21)
(0.209970240385 -0.0305926920827 -6.91417808815e-21)
(0.146525036987 -0.000432042392149 -4.18043494355e-22)
(0.15147567798 -0.000170699780303 4.80887352171e-22)
(0.153322633882 -0.000816221431411 -4.5065538823e-22)
(0.155227166241 -0.00120200899335 -1.75648408453e-22)
(0.157611584069 -0.00168701379142 -3.32925455854e-23)
(0.160583702648 -0.00224259579715 6.47060558434e-24)
(0.164165044179 -0.00288142897466 2.09841089622e-24)
(0.168347193655 -0.00360768823565 -5.78371178874e-24)
(0.173166517083 -0.00443214013714 -8.69448034482e-24)
(0.178605421165 -0.00535876975767 4.72828386979e-24)
(0.184710466487 -0.00638645631798 1.87018803654e-23)
(0.191492070422 -0.00752134856935 -8.62569959954e-25)
(0.198983420358 -0.00875316929207 8.87316854158e-23)
(0.207251239732 -0.0100710142555 1.20456874975e-22)
(0.216328260123 -0.0114812384811 9.48329445065e-23)
(0.226007648973 -0.0127559742106 -1.25067225148e-21)
(0.23467942967 -0.01228137002 -7.003612745e-21)
(0.241621810646 -0.0252048495969 1.34573563551e-22)
(0.239416896588 -0.019473021665 4.761356796e-22)
(0.212465865902 -0.0157959950548 -1.1408565262e-21)
(0.146469946642 -2.36474997092e-05 -4.80956989607e-22)
(0.151514095255 0.000696108384406 7.13052544071e-22)
(0.153460989422 0.000672440129949 4.1389773231e-23)
(0.155408832458 0.00091895328334 -8.90181105843e-23)
(0.157850233844 0.00102742060297 -3.79751111268e-23)
(0.160893561622 0.00108530887955 -1.35050592668e-23)
(0.164554048871 0.00105475485316 -2.19350826919e-23)
(0.168838298833 0.000952578627616 -1.15584273006e-23)
(0.173752049949 0.000758253271364 -1.71575776624e-23)
(0.179288115894 0.0004741074965 -1.14107595141e-23)
(0.18548790831 0.000120117693738 5.18442385183e-24)
(0.192355865319 -0.00032755993668 -1.2692585667e-23)
(0.199895992709 -0.000817968450929 4.20181340337e-23)