/*--------------------------------*- C++ -*----------------------------------*\
| =========                 |                                                 |
| \\      /  F ield         | OpenFOAM: The Open Source CFD Toolbox           |
|  \\    /   O peration     | Version:  v2012                                 |
|   \\  /    A nd           | Website:  www.openfoam.com                      |
|    \\/     M anipulation  |                                                 |
\*---------------------------------------------------------------------------*/
FoamFile
{
    version     2.0;
    format      ascii;
    class       volScalarField;
    location    "5.8";
    object      ddt0(epsilon);
}
// * * * * * * * * * * * * * * * * * * * * * * * * * * * * * * * * * * * * * //

dimensions      [0 2 -4 0 0 0 0];


internalField   nonuniform List<scalar> 
167
(
-0.000221611740069
-0.000224593240055
-0.000226015817127
-0.000227011690453
-0.000227955593663
-0.000229014036092
-0.000230214876627
-0.000231887397167
-0.000193828620692
-0.000212888928964
-0.000220289509203
-0.000223240664379
-0.000224674487481
-0.000225689947338
-0.000226667632963
-0.000227767590523
-0.000229127787142
-0.000230997863233
-0.000233651281408
-0.000192783065155
-0.000211632913052
-0.000218937360709
-0.000221868985952
-0.00022331992365
-0.000224368826092
-0.000225392747433
-0.000226559318881
-0.000228108613644
-0.00023026672563
-0.000233810304659
-0.000191827704882
-0.000210389428268
-0.00021757188982
-0.000220487759776
-0.000221960870428
-0.000223052002022
-0.000224136707361
-0.0002254061688
-0.000227104120447
-0.000229745353863
-0.000185514060141
-0.000190834766216
-0.000209187988158
-0.000216263267346
-0.000219135379828
-0.00022062110495
-0.000221752580674
-0.000222901928759
-0.000224278463953
-0.000226275543961
-0.000229279799233
-0.000184198144511
-0.000189860930085
-0.000207986237917
-0.00021495405101
-0.000217793925033
-0.000219294000471
-0.000220467976684
-0.000221677309602
-0.000223282412031
-0.000225230347456
-0.00022869595732
-0.000182877911215
-0.000188875418173
-0.000206787003754
-0.000213655307372
-0.000216471278924
-0.000217996001016
-0.000219218238841
-0.000220584126701
-0.000222136014065
-0.000224405289211
-0.000181555253843
-0.00018788329718
-0.000205602137074
-0.000212380778784
-0.000215179680739
-0.000216733990507
-0.000218037128709
-0.000219451838722
-0.000221140230297
-0.000180231870881
-0.000186898421973
-0.000204415188417
-0.000211110244085
-0.000213909055882
-0.000215512085995
-0.000216895420979
-0.000218351539755
-0.000220197279511
-0.000178889324786
-0.000185822651824
-0.000203209639198
-0.000209843496203
-0.000212656312864
-0.000214312487787
-0.000215747956855
-0.00021731196851
-0.000219214600871
-0.000222051244623
-0.000177516418195
-0.000184760727704
-0.000201931389663
-0.000208516336411
-0.000211350010164
-0.000213061523212
-0.000214559893197
-0.000216203278416
-0.000218211957894
-0.000221082090472
-0.000176008043593
-0.000183450978462
-0.000200424479322
-0.000206950818525
-0.000209802907269
-0.000211569027797
-0.000213128466533
-0.000214829177707
-0.000216910446875
-0.000219928380284
-0.000174098664185
-0.000181562948663
-0.000198260654026
-0.000204694593944
-0.000207549629103
-0.000209349821382
-0.000210945400825
-0.000212669129777
-0.000214817532732
-0.00021784625378
-0.000171099989043
-0.000178210772052
-0.000194409338738
-0.000200642978088
-0.000203442884307
-0.000205230671713
-0.000206811320065
-0.000208526775494
-0.000210537617919
-0.000213594674211
-0.000165263486104
-0.000171261340537
-0.000186311151803
-0.000192100997684
-0.000194737097142
-0.000196440876856
-0.000197935698369
-0.000199478240582
-0.000201349489064
-0.000152138168679
-0.000155063609653
-0.000167706237661
-0.000172589775491
-0.000174889609256
-0.000176398694587
-0.000177690641372
-0.000179024023868
-0.000180563088986
-0.000134955030334
-0.000152245369054
-0.000162883222869
-0.000167253773149
-0.000169614175207
-0.000171371497545
-0.000173092717858
-0.000174890104973
-0.000176823476436
)
;

boundaryField
{
    back
    {
        type            calculated;
        value           nonuniform List<scalar> 
167
(
-0.000221611740069
-0.000224593240055
-0.000226015817127
-0.000227011690453
-0.000227955593663
-0.000229014036092
-0.000230214876627
-0.000231887397166
-0.000193828620692
-0.000212888928964
-0.000220289509203
-0.000223240664379
-0.000224674487481
-0.000225689947338
-0.000226667632963
-0.000227767590523
-0.000229127787142
-0.000230997863233
-0.000233651281408
-0.000192783065155
-0.000211632913052
-0.000218937360709
-0.000221868985952
-0.00022331992365
-0.000224368826092
-0.000225392747433
-0.000226559318881
-0.000228108613644
-0.00023026672563
-0.000233810304659
-0.000191827704882
-0.000210389428268
-0.00021757188982
-0.000220487759776
-0.000221960870428
-0.000223052002022
-0.000224136707361
-0.0002254061688
-0.000227104120447
-0.000229745353863
-0.000185514060141
-0.000190834766216
-0.000209187988158
-0.000216263267346
-0.000219135379828
-0.00022062110495
-0.000221752580674
-0.000222901928759
-0.000224278463953
-0.000226275543961
-0.000229279799233
-0.000184198144511
-0.000189860930085
-0.000207986237917
-0.00021495405101
-0.000217793925033
-0.000219294000471
-0.000220467976684
-0.000221677309602
-0.000223282412031
-0.000225230347456
-0.00022869595732
-0.000182877911215
-0.000188875418173
-0.000206787003754
-0.000213655307372
-0.000216471278924
-0.000217996001016
-0.000219218238841
-0.000220584126701
-0.000222136014065
-0.000224405289211
-0.000181555253843
-0.00018788329718
-0.000205602137074
-0.000212380778784
-0.000215179680739
-0.000216733990507
-0.000218037128709
-0.000219451838722
-0.000221140230297
-0.000180231870881
-0.000186898421973
-0.000204415188417
-0.000211110244085
-0.000213909055882
-0.000215512085995
-0.000216895420979
-0.000218351539755
-0.000220197279511
-0.000178889324786
-0.000185822651824
-0.000203209639198
-0.000209843496203
-0.000212656312864
-0.000214312487787
-0.000215747956855
-0.00021731196851
-0.000219214600871
-0.000222051244623
-0.000177516418195
-0.000184760727704
-0.000201931389663
-0.000208516336411
-0.000211350010164
-0.000213061523212
-0.000214559893197
-0.000216203278416
-0.000218211957894
-0.000221082090472
-0.000176008043593
-0.000183450978462
-0.000200424479322
-0.000206950818525
-0.000209802907269
-0.000211569027797
-0.000213128466533
-0.000214829177707
-0.000216910446875
-0.000219928380284
-0.000174098664185
-0.000181562948663
-0.000198260654026
-0.000204694593944
-0.000207549629103
-0.000209349821382
-0.000210945400825
-0.000212669129777
-0.000214817532732
-0.00021784625378
-0.000171099989043
-0.000178210772052
-0.000194409338738
-0.000200642978088
-0.000203442884307
-0.000205230671713
-0.000206811320065
-0.000208526775494
-0.000210537617919
-0.000213594674211
-0.000165263486104
-0.000171261340537
-0.000186311151803
-0.000192100997684
-0.000194737097142
-0.000196440876856
-0.000197935698369
-0.000199478240582
-0.000201349489064
-0.000152138168679
-0.000155063609653
-0.000167706237661
-0.000172589775491
-0.000174889609256
-0.000176398694587
-0.000177690641372
-0.000179024023868
-0.000180563088986
-0.000134955030334
-0.000152245369054
-0.000162883222869
-0.000167253773149
-0.000169614175207
-0.000171371497545
-0.000173092717858
-0.000174890104973
-0.000176823476436
)
;
    }
    sides
    {
        type            calculated;
        value           nonuniform List<scalar> 9(-0.000134955030334 -0.000152245369054 -0.000162883222869 -0.000167253773149 -0.000169614175207 -0.000171371497545 -0.000173092717858 -0.000174890104973 -0.000176823476436);
    }
    bottom
    {
        type            calculated;
        value           nonuniform List<scalar> 
13
(
-0.000185514060141
-0.000184198144511
-0.000182877911215
-0.000181555253843
-0.000180231870881
-0.000178889324786
-0.000177516418195
-0.000176008043593
-0.000174098664185
-0.000171099989043
-0.000165263486104
-0.000152138168679
-0.000134955030334
)
;
    }
    front
    {
        type            calculated;
        value           nonuniform List<scalar> 
167
(
-0.000221611740069
-0.000224593240055
-0.000226015817127
-0.000227011690453
-0.000227955593663
-0.000229014036092
-0.000230214876627
-0.000231887397166
-0.000193828620692
-0.000212888928964
-0.000220289509203
-0.000223240664379
-0.000224674487481
-0.000225689947338
-0.000226667632963
-0.000227767590523
-0.000229127787142
-0.000230997863233
-0.000233651281408
-0.000192783065155
-0.000211632913052
-0.000218937360709
-0.000221868985952
-0.00022331992365
-0.000224368826092
-0.000225392747433
-0.000226559318881
-0.000228108613644
-0.00023026672563
-0.000233810304659
-0.000191827704882
-0.000210389428268
-0.00021757188982
-0.000220487759776
-0.000221960870428
-0.000223052002022
-0.000224136707361
-0.0002254061688
-0.000227104120447
-0.000229745353863
-0.000185514060141
-0.000190834766216
-0.000209187988158
-0.000216263267346
-0.000219135379828
-0.00022062110495
-0.000221752580674
-0.000222901928759
-0.000224278463953
-0.000226275543961
-0.000229279799233
-0.000184198144511
-0.000189860930085
-0.000207986237917
-0.00021495405101
-0.000217793925033
-0.000219294000471
-0.000220467976684
-0.000221677309602
-0.000223282412031
-0.000225230347456
-0.00022869595732
-0.000182877911215
-0.000188875418173
-0.000206787003754
-0.000213655307372
-0.000216471278924
-0.000217996001016
-0.000219218238841
-0.000220584126701
-0.000222136014065
-0.000224405289211
-0.000181555253843
-0.00018788329718
-0.000205602137074
-0.000212380778784
-0.000215179680739
-0.000216733990507
-0.000218037128709
-0.000219451838722
-0.000221140230297
-0.000180231870881
-0.000186898421973
-0.000204415188417
-0.000211110244085
-0.000213909055882
-0.000215512085995
-0.000216895420979
-0.000218351539755
-0.000220197279511
-0.000178889324786
-0.000185822651824
-0.000203209639198
-0.000209843496203
-0.000212656312864
-0.000214312487787
-0.000215747956855
-0.00021731196851
-0.000219214600871
-0.000222051244623
-0.000177516418195
-0.000184760727704
-0.000201931389663
-0.000208516336411
-0.000211350010164
-0.000213061523212
-0.000214559893197
-0.000216203278416
-0.000218211957894
-0.000221082090472
-0.000176008043593
-0.000183450978462
-0.000200424479322
-0.000206950818525
-0.000209802907269
-0.000211569027797
-0.000213128466533
-0.000214829177707
-0.000216910446875
-0.000219928380284
-0.000174098664185
-0.000181562948663
-0.000198260654026
-0.000204694593944
-0.000207549629103
-0.000209349821382
-0.000210945400825
-0.000212669129777
-0.000214817532732
-0.00021784625378
-0.000171099989043
-0.000178210772052
-0.000194409338738
-0.000200642978088
-0.000203442884307
-0.000205230671713
-0.000206811320065
-0.000208526775494
-0.000210537617919
-0.000213594674211
-0.000165263486104
-0.000171261340537
-0.000186311151803
-0.000192100997684
-0.000194737097142
-0.000196440876856
-0.000197935698369
-0.000199478240582
-0.000201349489064
-0.000152138168679
-0.000155063609653
-0.000167706237661
-0.000172589775491
-0.000174889609256
-0.000176398694587
-0.000177690641372
-0.000179024023868
-0.000180563088986
-0.000134955030334
-0.000152245369054
-0.000162883222869
-0.000167253773149
-0.000169614175207
-0.000171371497545
-0.000173092717858
-0.000174890104973
-0.000176823476436
)
;
    }
    atmosphere
    {
        type            calculated;
        value           nonuniform List<scalar> 0();
    }
    floatingObject
    {
        type            calculated;
        value           nonuniform List<scalar> 0();
    }
    procBoundary10to9
    {
        type            processor;
        value           nonuniform List<scalar> 
15
(
-0.000222912824905
-0.000225905709013
-0.000227323114022
-0.000228285783794
-0.00022920138429
-0.000230177096356
-0.000231356343553
-0.000232651464952
-0.000194846632361
-0.000214129377586
-0.000214129377586
-0.000188619284385
-0.000187792071391
-0.000186762826487
-0.000186762826487
)
;
    }
    procBoundary10to11
    {
        type            processor;
        value           nonuniform List<scalar> 
23
(
-0.000233732427257
-0.000233732427257
-0.000236544740204
-0.000239514170393
-0.0002344784925
-0.0002344784925
-0.000235429254295
-0.000235589731721
-0.000228201868295
-0.000228201868295
-0.000223658083299
-0.000223658083299
-0.000222741255587
-0.000222741255587
-0.000226774488882
-0.000226288316799
-0.000225427245931
-0.000223625532999
-0.000219331395033
-0.000204192301938
-0.000204192301938
-0.000182902068862
-0.000179509401506
)
;
    }
}


// ************************************************************************* //
