/*--------------------------------*- C++ -*----------------------------------*\
| =========                 |                                                 |
| \\      /  F ield         | OpenFOAM: The Open Source CFD Toolbox           |
|  \\    /   O peration     | Version:  v2012                                 |
|   \\  /    A nd           | Website:  www.openfoam.com                      |
|    \\/     M anipulation  |                                                 |
\*---------------------------------------------------------------------------*/
FoamFile
{
    version     2.0;
    format      ascii;
    class       volVectorField;
    location    "5.8";
    object      ddtCorrDdt0(U);
}
// * * * * * * * * * * * * * * * * * * * * * * * * * * * * * * * * * * * * * //

dimensions      [0 1 -2 0 0 0 0];


internalField   nonuniform List<vector> 
167
(
(0.117198028179 0.0209197334627 -1.19229258052e-23)
(0.119094427177 0.0272384163474 8.12715718011e-24)
(0.121547646007 0.0338095607535 2.87574595331e-24)
(0.124612820514 0.040696155216 1.46897262616e-24)
(0.128351266821 0.0479713375933 -4.25312326134e-24)
(0.132857785586 0.0557037539853 -2.34796807379e-23)
(0.138232300324 0.0640240720413 -1.32030482764e-24)
(0.144654365431 0.0729715822476 -1.13826167684e-23)
(0.1087940936 0.00956644401598 5.83148792159e-23)
(0.109563309167 0.0158695043101 -1.99909835686e-24)
(0.110739436279 0.0224619985735 -2.12691745024e-23)
(0.112387719368 0.0292893190188 6.40255401233e-24)
(0.1145243641 0.0364038309244 2.34908657515e-24)
(0.117184601542 0.0438871302763 2.44113319189e-24)
(0.120426097282 0.0518331059117 1.35631855854e-23)
(0.124322009988 0.0603393855036 8.41186544822e-24)
(0.128983545012 0.0695208384879 2.9575966918e-24)
(0.134441509035 0.0795036420474 1.2177395877e-23)
(0.140932318259 0.0904651570688 -5.58607874999e-23)
(0.102249834138 0.0101692284067 -5.51812106594e-23)
(0.102901683051 0.016743391357 -1.71076410279e-23)
(0.1038008328 0.0237615862223 -2.39245948888e-23)
(0.105208155333 0.0310481577686 2.96541671935e-24)
(0.106992151166 0.0386202218554 -6.08816163867e-24)
(0.109202037714 0.0466002256148 -3.15339008956e-25)
(0.11187995128 0.0551038318955 -1.04985538128e-23)
(0.115083369977 0.0642528097604 6.50942678423e-24)
(0.118874085616 0.0741258966717 -4.32861392898e-24)
(0.123308525859 0.0848801033828 -9.38298744049e-24)
(0.128489556535 0.0967304204707 -6.52773457686e-23)
(0.0952250196885 0.0106672758515 -3.99918513756e-23)
(0.0957750391828 0.0174163588257 -2.64202962369e-23)
(0.0965845230157 0.0247866492203 -8.12499431078e-24)
(0.0976648288744 0.0325063048746 -1.36521046832e-25)
(0.0990476465367 0.0404134325214 -1.32627788428e-24)
(0.100755392105 0.0487822276859 1.81814352103e-24)
(0.102812285695 0.0577164741028 -5.97523191887e-24)
(0.105247875146 0.067331975101 8.19499279358e-24)
(0.108072765318 0.0777379559529 -6.20600353767e-24)
(0.111348227999 0.0890909084838 -2.32322300241e-23)
(0.0876860893257 0.00371331994015 -5.27207259376e-23)
(0.0879977839919 0.0108688174187 -6.52643201899e-23)
(0.0883995606025 0.0181025785005 -3.37104796828e-23)
(0.0890984918082 0.0256696318971 -5.24594076584e-24)
(0.0898324413105 0.0335365419004 8.5393636036e-24)
(0.090790334506 0.0417247595636 1.13523333006e-23)
(0.0919609068478 0.0503714382677 9.62788576737e-25)
(0.0933469709937 0.0596008384405 1.55935975452e-23)
(0.0949519395568 0.0695196731249 1.46467724158e-23)
(0.0966826569162 0.0802317652417 2.34986045461e-23)
(0.0986904881571 0.0920250888521 -4.28770464218e-24)
(0.080355214051 0.00376412928987 -2.31936617677e-23)
(0.080719399282 0.0110628661195 -4.02213353526e-23)
(0.0809558659586 0.0185239049488 -2.85561096123e-23)
(0.0813409369992 0.0262413269611 -4.49630469291e-24)
(0.0817837308883 0.0342245229434 2.25373068349e-23)
(0.0823221103277 0.0425557609214 7.50796589083e-24)
(0.0829477828053 0.0513455654281 1.97683919281e-23)
(0.0836421219063 0.0607170472549 2.81887861308e-23)
(0.0843064563377 0.0706829514868 3.81953763406e-23)
(0.0849397141342 0.0814912314315 3.07634996577e-24)
(0.0855560807296 0.093486867337 5.52411396984e-24)
(0.0729833317978 0.0038061166361 -4.15184458918e-23)
(0.0732904443324 0.0111729695427 4.59604000939e-24)
(0.0733800760506 0.0187395932124 -3.48277623898e-23)
(0.0735196420573 0.0265234589214 1.2094707079e-23)
(0.0736487942181 0.0345456617425 2.83345012508e-23)
(0.073772387211 0.0429055327401 3.43034399374e-23)
(0.0738519945742 0.0517047396652 2.85015803194e-23)
(0.0738325102769 0.0609789302898 -2.52366822776e-23)
(0.0735825700583 0.0708425655082 3.46995741252e-23)
(0.0731317254935 0.0815102389966 6.99362632787e-23)
(0.065577322235 0.00382163702045 -6.80666543021e-23)
(0.0658182968531 0.0111862105279 -8.34437819499e-23)
(0.0657739350254 0.0187748329202 -2.08094696982e-23)
(0.0656905155624 0.0265405947996 -4.90335397753e-24)
(0.0655313206394 0.0345083577535 1.59337122204e-23)
(0.0652554597029 0.0427789830881 8.17995840998e-24)
(0.0648245730422 0.0514232626094 1.04128304998e-24)
(0.0641157946437 0.0604759205949 -2.82239592507e-24)
(0.063072741822 0.0700295036727 4.67028278098e-23)
(0.0581957121257 0.00381832612649 -3.29107886013e-23)
(0.0583624583425 0.0111186839477 -5.27547616433e-23)
(0.058203087788 0.0186396554475 -6.09985697606e-23)
(0.0579334345523 0.0263143840377 2.4341624241e-23)
(0.0575119847759 0.0341444709562 7.31233548481e-23)
(0.0569043899436 0.0422215248469 8.73398461908e-24)
(0.0560222298973 0.0505815204771 2.83261212131e-23)
(0.0547566285673 0.0592536688021 3.61655429938e-23)
(0.0529816911236 0.0682734155053 2.59894899683e-23)
(0.0508803900997 0.00378145335718 -4.43453860201e-23)
(0.0509722079073 0.0109667250498 9.7442742687e-23)
(0.0507225508256 0.0183779906029 -4.57786386862e-23)
(0.0503142025929 0.0258861418187 -8.19256084465e-24)
(0.0497016725476 0.0335139282551 2.35100212446e-23)
(0.0488314562268 0.0413101313338 1.47026880939e-23)
(0.0475949706107 0.049289059871 8.16622764828e-24)
(0.0458955706562 0.0574537638459 9.93219539641e-23)
(0.0435770695722 0.0658383722048 -7.39196423684e-24)
(0.0404644557986 0.0744271773531 2.41082247851e-24)
(0.0436673476233 0.00373074274443 2.54441481574e-23)
(0.043715549551 0.0107581617098 -4.09136074013e-23)
(0.0433994720563 0.0180126024819 -2.98600447555e-23)
(0.0428962978026 0.0253262758575 4.6684899306e-24)
(0.0421593454404 0.0326926931848 3.19928245715e-23)
(0.0411082701833 0.0401350928494 -9.52905691468e-24)
(0.039655337502 0.0476593195158 3.21030016827e-23)
(0.0376795852554 0.0552426289732 3.9226109514e-24)
(0.0350347006475 0.0628481476983 1.05693342681e-23)
(0.0314750033468 0.0704976462624 3.56602188537e-23)
(0.0365926883704 0.00367140837958 2.5510561943e-23)
(0.0365993734259 0.0105214583011 8.85882458845e-23)
(0.0362557813199 0.0175907910332 -1.43592431799e-23)
(0.0357116972691 0.0246785675412 1.27266231584e-23)
(0.0349073646943 0.0317564807603 1.75707782249e-23)
(0.0337891909796 0.0388273332583 2.45642306742e-23)
(0.0322528700426 0.045875114454 3.91645436315e-24)
(0.0301902143851 0.0528422775563 -2.92804847872e-24)
(0.027440541232 0.0596445550608 -6.49723918522e-24)
(0.0237733338986 0.0662915020396 2.1426886379e-23)
(0.0296574644241 0.00360044080431 -2.22493958362e-24)
(0.029630181102 0.0102716514175 2.06084488381e-23)
(0.0292988957252 0.0171563096803 -1.44374986582e-23)
(0.0287616305282 0.0240105025203 2.32843083167e-23)
(0.0279774892911 0.0307992091166 2.8560222429e-23)
(0.0268828462926 0.0375001412412 1.88924810932e-23)
(0.0254042393109 0.0440749163847 1.75120139644e-25)
(0.0234161309587 0.0504533140252 -1.11356618759e-23)
(0.0207415272631 0.0564749807958 -5.35712578604e-23)
(0.0172686972015 0.0621380694858 2.02887245476e-23)
(0.0228463040392 0.00353197802562 -5.15009994718e-23)
(0.0228337217612 0.0100351462939 -1.64784381517e-23)
(0.0225361157188 0.0167478936155 -2.53777207591e-23)
(0.0220541437058 0.0233827447897 2.20919074855e-23)
(0.021351474041 0.0298987839856 1.18636862065e-22)
(0.02038076749 0.0362652261415 1.18243530641e-23)
(0.0190742680467 0.0424201467123 2.41949751751e-23)
(0.017311500473 0.0482115919813 1.41970850945e-23)
(0.0149490613949 0.0535466013066 -4.92737702783e-23)
(0.0119072541811 0.0583089634099 4.5337408973e-23)
(0.0161502784415 0.00347762029457 -8.28412263143e-23)
(0.0161632380305 0.00984415559334 1.48203113683e-22)
(0.0159263710739 0.0163907287633 -4.00604816735e-23)
(0.0155435053227 0.0228434243363 1.78995200175e-23)
(0.0149842997239 0.0291352033534 9.35451513488e-24)
(0.01421937871 0.0352192659825 2.79560657854e-23)
(0.0131835415073 0.0410000493375 -2.86235113903e-23)
(0.0117810334248 0.0463424876207 2.91576616973e-23)
(0.00994502423391 0.051101292694 -2.24028401349e-23)
(0.00955382414698 0.00340962152688 -2.14598103295e-24)
(0.00962603673547 0.00969347721518 -6.32770127036e-23)
(0.00947106424024 0.0161102374615 5.94534453349e-24)
(0.00921312407807 0.0224322262319 2.37218587755e-23)
(0.00885568300145 0.0285573026287 -1.0306127102e-24)
(0.00837294469348 0.034432215592 -1.34768906209e-23)
(0.00770290625649 0.0399395396589 -9.88823292362e-23)
(0.00678551587375 0.0449268729408 -4.50697313904e-23)
(0.00560235763054 0.0492385243907 -3.86473416994e-23)
(0.0032538443694 0.00323797439271 3.01100470492e-23)
(0.00336072919112 0.00945943592431 9.39353464158e-24)
(0.00332029243425 0.0158332502711 4.45622170768e-24)
(0.00323137787696 0.0220632178189 -2.07792927e-25)
(0.00311320594744 0.0280818385959 -2.58331607317e-23)
(0.00295710318479 0.0337931782072 -4.31724278528e-23)
(0.00273229036126 0.0390778166997 -3.56061471913e-23)
(0.00241999102478 0.0438155042229 -1.07286660493e-22)
(0.00203505456714 0.0478015946982 -7.81655018573e-23)
)
;

boundaryField
{
    back
    {
        type            calculated;
        value           uniform (0 0 0);
    }
    sides
    {
        type            calculated;
        value           uniform (0 0 0);
    }
    bottom
    {
        type            calculated;
        value           uniform (0 0 0);
    }
    front
    {
        type            calculated;
        value           uniform (0 0 0);
    }
    atmosphere
    {
        type            calculated;
        value           nonuniform List<vector> 0();
    }
    floatingObject
    {
        type            calculated;
        value           nonuniform List<vector> 0();
    }
    procBoundary10to9
    {
        type            processor;
        value           nonuniform List<vector> 
15
(
(0.123142325597 0.019167558701 -1.35123933922e-23)
(0.125252585541 0.0249188045509 -1.85595662307e-23)
(0.127977098737 0.0308746941562 2.14434275315e-24)
(0.131377203525 0.0370825071536 -6.85614766403e-24)
(0.135524742901 0.0435931712739 -5.71310783579e-24)
(0.140517887636 0.05046734085 -6.2397361582e-23)
(0.146474356425 0.0577386871044 -5.06419309327e-23)
(0.153604522026 0.0655056522782 -2.79460522391e-23)
(0.114894776148 0.00888466565321 -4.54136736152e-23)
(0.115813872894 0.0148003608206 -1.35350943645e-23)
(0.115813872894 0.0148003608206 -1.35350943645e-23)
(0.107915727551 0.00326364319503 -6.69915553047e-23)
(0.101450207741 0.00352346978029 -3.00298825921e-23)
(0.0947394723624 0.00374049145799 -1.12784920459e-22)
(0.0947394723624 0.00374049145799 -1.12784920459e-22)
)
;
    }
    procBoundary10to11
    {
        type            processor;
        value           nonuniform List<vector> 
23
(
(0.152265181357 0.0827352224147 -7.83040322287e-23)
(0.152265181357 0.0827352224147 -7.83040322287e-23)
(0.148514890637 0.102817217567 -2.47490424412e-22)
(0.134437196758 0.109986570172 -1.40360535109e-22)
(0.115224092885 0.10152367425 -1.41284218167e-24)
(0.115224092885 0.10152367425 -1.41284218167e-24)
(0.101070597019 0.105026463742 2.55675558887e-23)
(0.0861751075561 0.107021705073 5.25444529736e-23)
(0.0722017097079 0.0932880010282 -7.95435554573e-23)
(0.0722017097079 0.0932880010282 -7.95435554573e-23)
(0.0614862004291 0.0801680444293 1.16554679468e-23)
(0.0614862004291 0.0801680444293 1.16554679468e-23)
(0.0505236772552 0.0777240996945 5.5122751816e-23)
(0.0505236772552 0.0777240996945 5.5122751816e-23)
(0.0362958704096 0.0834660897403 3.69604762881e-24)
(0.026854080521 0.0782515844515 1.39892473543e-23)
(0.019022850824 0.072717841952 8.77156826057e-24)
(0.01272199948 0.0673303971689 1.59145746328e-23)
(0.00788461405403 0.0623595742305 2.34109159028e-24)
(0.00753077826894 0.0550708920203 -4.43161752448e-23)
(0.00753077826894 0.0550708920203 -4.43161752448e-23)
(0.0040313958366 0.0526300112345 -9.94926521337e-25)
(0.00150887988878 0.0508110946999 -2.8954858838e-23)
)
;
    }
}


// ************************************************************************* //
