/*--------------------------------*- C++ -*----------------------------------*\
| =========                 |                                                 |
| \\      /  F ield         | OpenFOAM: The Open Source CFD Toolbox           |
|  \\    /   O peration     | Version:  v2012                                 |
|   \\  /    A nd           | Website:  www.openfoam.com                      |
|    \\/     M anipulation  |                                                 |
\*---------------------------------------------------------------------------*/
FoamFile
{
    version     2.0;
    format      ascii;
    class       volScalarField;
    location    "5.8";
    object      epsilon_0;
}
// * * * * * * * * * * * * * * * * * * * * * * * * * * * * * * * * * * * * * //

dimensions      [0 2 -3 0 0 0 0];


internalField   nonuniform List<scalar> 
167
(
0.000485687957526
0.000492499340379
0.000495944443712
0.000498462557042
0.000500967330235
0.00050389156623
0.000507743185539
0.000513698863336
0.000425255339553
0.000467287686666
0.000483811187587
0.000490642229567
0.00049413142279
0.000496706091906
0.000499280557536
0.000502301802434
0.000506317070515
0.000512607194346
0.000524695108509
0.000423453132781
0.000465305155896
0.000481792334057
0.000488650504549
0.000492192849962
0.00049483268996
0.000497485648732
0.000500614801046
0.00050480819432
0.000511457324948
0.000524381618858
0.000421506209465
0.000463181307115
0.000479639539089
0.000486533690542
0.000490138536074
0.000492854634507
0.000495598181005
0.000498846647102
0.000503233478069
0.000510264311487
0.00040255969321
0.000419426809751
0.000460924131189
0.000477361541388
0.000484302997719
0.00048798235177
0.000490785887703
0.000493630411058
0.000497009712538
0.000501602686508
0.000509039680865
0.000400357567364
0.000417219894917
0.000458547019768
0.000474972894087
0.000481972795493
0.000485738378965
0.000488640785541
0.000491597065818
0.000495115418722
0.00049993671922
0.000507791526509
0.000397999746503
0.000414896657186
0.000456060530797
0.000472484917936
0.000479555635483
0.000483420908501
0.000486435138283
0.000489512582768
0.00049319045966
0.000498237158445
0.000395503209483
0.000412463445233
0.000453472423596
0.000469908344523
0.000477064832145
0.000481044615151
0.00048418276782
0.00048739774287
0.000491237505339
0.000392871856121
0.00040991485796
0.000450781421564
0.000467244313679
0.000474503702425
0.000478613527289
0.000481892392249
0.000485257491076
0.000489267662488
0.000390089021096
0.000407254384647
0.000447971067806
0.000464470172358
0.000471846788839
0.000476104194808
0.000479538195684
0.000483060643796
0.000487249079066
0.000493023619583
0.000387114855972
0.000404388171629
0.000444945306203
0.000461482246993
0.000468989275897
0.000473406919604
0.000477005015478
0.000480689376062
0.000485057236599
0.000491081280512
0.00038377999304
0.00040110090279
0.000441417837081
0.000457969755037
0.000465606301314
0.000470187683826
0.000473948276708
0.000477786684657
0.000482315352019
0.000488560904069
0.000379597350657
0.000396727871027
0.000436599273343
0.000453081287257
0.000460815640887
0.00046554421437
0.000469447318559
0.000473409804947
0.000478055932256
0.000484467299743
0.000373229764483
0.000389511981372
0.000428418184406
0.00044460692164
0.000452342924419
0.000457161279271
0.000461157390379
0.000465182841194
0.000469869459155
0.000476303988286
0.000361106970408
0.000374892186235
0.000411601741792
0.00042697460809
0.00043448193858
0.000439264900514
0.000443252680761
0.000447237824066
0.000451817775707
0.00033380673884
0.000341281075883
0.000372948682673
0.000386359826408
0.000393153868427
0.000397658754929
0.000401470971072
0.000405274971344
0.000409597380177
0.000295805367633
0.000332926045735
0.000359096193885
0.000370776844829
0.00037738890534
0.000382356984462
0.000386902387461
0.000391575439622
0.000396810304601
)
;

boundaryField
{
    back
    {
        lowReCorrection 0;
        blending        stepwise;
        n               2;
        type            epsilonWallFunction;
        value           nonuniform List<scalar> 
167
(
0.000485687957526
0.000492499340379
0.000495944443712
0.000498462557042
0.000500967330235
0.00050389156623
0.000507743185539
0.000513698863336
0.000425255339553
0.000467287686666
0.000483811187587
0.000490642229567
0.00049413142279
0.000496706091906
0.000499280557536
0.000502301802434
0.000506317070515
0.000512607194346
0.000524695108509
0.000423453132781
0.000465305155896
0.000481792334057
0.000488650504549
0.000492192849962
0.00049483268996
0.000497485648732
0.000500614801046
0.00050480819432
0.000511457324948
0.000524381618858
0.000421506209465
0.000463181307115
0.000479639539089
0.000486533690542
0.000490138536074
0.000492854634507
0.000495598181005
0.000498846647102
0.000503233478069
0.000510264311487
0.00040255969321
0.000419426809751
0.000460924131189
0.000477361541388
0.000484302997719
0.00048798235177
0.000490785887703
0.000493630411058
0.000497009712538
0.000501602686508
0.000509039680865
0.000400357567364
0.000417219894917
0.000458547019768
0.000474972894087
0.000481972795493
0.000485738378965
0.000488640785541
0.000491597065818
0.000495115418722
0.00049993671922
0.000507791526509
0.000397999746503
0.000414896657186
0.000456060530797
0.000472484917936
0.000479555635483
0.000483420908501
0.000486435138283
0.000489512582768
0.00049319045966
0.000498237158445
0.000395503209483
0.000412463445233
0.000453472423596
0.000469908344523
0.000477064832145
0.000481044615151
0.00048418276782
0.00048739774287
0.000491237505339
0.000392871856121
0.00040991485796
0.000450781421564
0.000467244313679
0.000474503702425
0.000478613527289
0.000481892392249
0.000485257491076
0.000489267662488
0.000390089021096
0.000407254384647
0.000447971067806
0.000464470172358
0.000471846788839
0.000476104194808
0.000479538195684
0.000483060643796
0.000487249079066
0.000493023619583
0.000387114855972
0.000404388171629
0.000444945306203
0.000461482246993
0.000468989275897
0.000473406919604
0.000477005015478
0.000480689376062
0.000485057236599
0.000491081280512
0.00038377999304
0.00040110090279
0.000441417837081
0.000457969755037
0.000465606301314
0.000470187683826
0.000473948276708
0.000477786684657
0.000482315352019
0.000488560904069
0.000379597350657
0.000396727871027
0.000436599273343
0.000453081287257
0.000460815640887
0.00046554421437
0.000469447318559
0.000473409804947
0.000478055932256
0.000484467299743
0.000373229764483
0.000389511981372
0.000428418184406
0.00044460692164
0.000452342924419
0.000457161279271
0.000461157390379
0.000465182841194
0.000469869459155
0.000476303988286
0.000361106970408
0.000374892186235
0.000411601741792
0.00042697460809
0.00043448193858
0.000439264900514
0.000443252680761
0.000447237824066
0.000451817775707
0.00033380673884
0.000341281075883
0.000372948682673
0.000386359826408
0.000393153868427
0.000397658754929
0.000401470971072
0.000405274971344
0.000409597380177
0.000295805367633
0.000332926045735
0.000359096193885
0.000370776844829
0.00037738890534
0.000382356984462
0.000386902387461
0.000391575439622
0.000396810304601
)
;
    }
    sides
    {
        lowReCorrection 0;
        blending        stepwise;
        n               2;
        type            epsilonWallFunction;
        value           nonuniform List<scalar> 9(0.000295805367633 0.000332926045735 0.000359096193885 0.000370776844829 0.00037738890534 0.000382356984462 0.000386902387461 0.000391575439622 0.000396810304601);
    }
    bottom
    {
        lowReCorrection 0;
        blending        stepwise;
        n               2;
        type            epsilonWallFunction;
        value           nonuniform List<scalar> 
13
(
0.00040255969321
0.000400357567364
0.000397999746503
0.000395503209483
0.000392871856121
0.000390089021096
0.000387114855972
0.00038377999304
0.000379597350657
0.000373229764483
0.000361106970408
0.00033380673884
0.000295805367633
)
;
    }
    front
    {
        lowReCorrection 0;
        blending        stepwise;
        n               2;
        type            epsilonWallFunction;
        value           nonuniform List<scalar> 
167
(
0.000485687957526
0.000492499340379
0.000495944443712
0.000498462557042
0.000500967330235
0.00050389156623
0.000507743185539
0.000513698863336
0.000425255339553
0.000467287686666
0.000483811187587
0.000490642229567
0.00049413142279
0.000496706091906
0.000499280557536
0.000502301802434
0.000506317070515
0.000512607194346
0.000524695108509
0.000423453132781
0.000465305155896
0.000481792334057
0.000488650504549
0.000492192849962
0.00049483268996
0.000497485648732
0.000500614801046
0.00050480819432
0.000511457324948
0.000524381618858
0.000421506209465
0.000463181307115
0.000479639539089
0.000486533690542
0.000490138536074
0.000492854634507
0.000495598181005
0.000498846647102
0.000503233478069
0.000510264311487
0.00040255969321
0.000419426809751
0.000460924131189
0.000477361541388
0.000484302997719
0.00048798235177
0.000490785887703
0.000493630411058
0.000497009712538
0.000501602686508
0.000509039680865
0.000400357567364
0.000417219894917
0.000458547019768
0.000474972894087
0.000481972795493
0.000485738378965
0.000488640785541
0.000491597065818
0.000495115418722
0.00049993671922
0.000507791526509
0.000397999746503
0.000414896657186
0.000456060530797
0.000472484917936
0.000479555635483
0.000483420908501
0.000486435138283
0.000489512582768
0.00049319045966
0.000498237158445
0.000395503209483
0.000412463445233
0.000453472423596
0.000469908344523
0.000477064832145
0.000481044615151
0.00048418276782
0.00048739774287
0.000491237505339
0.000392871856121
0.00040991485796
0.000450781421564
0.000467244313679
0.000474503702425
0.000478613527289
0.000481892392249
0.000485257491076
0.000489267662488
0.000390089021096
0.000407254384647
0.000447971067806
0.000464470172358
0.000471846788839
0.000476104194808
0.000479538195684
0.000483060643796
0.000487249079066
0.000493023619583
0.000387114855972
0.000404388171629
0.000444945306203
0.000461482246993
0.000468989275897
0.000473406919604
0.000477005015478
0.000480689376062
0.000485057236599
0.000491081280512
0.00038377999304
0.00040110090279
0.000441417837081
0.000457969755037
0.000465606301314
0.000470187683826
0.000473948276708
0.000477786684657
0.000482315352019
0.000488560904069
0.000379597350657
0.000396727871027
0.000436599273343
0.000453081287257
0.000460815640887
0.00046554421437
0.000469447318559
0.000473409804947
0.000478055932256
0.000484467299743
0.000373229764483
0.000389511981372
0.000428418184406
0.00044460692164
0.000452342924419
0.000457161279271
0.000461157390379
0.000465182841194
0.000469869459155
0.000476303988286
0.000361106970408
0.000374892186235
0.000411601741792
0.00042697460809
0.00043448193858
0.000439264900514
0.000443252680761
0.000447237824066
0.000451817775707
0.00033380673884
0.000341281075883
0.000372948682673
0.000386359826408
0.000393153868427
0.000397658754929
0.000401470971072
0.000405274971344
0.000409597380177
0.000295805367633
0.000332926045735
0.000359096193885
0.000370776844829
0.00037738890534
0.000382356984462
0.000386902387461
0.000391575439622
0.000396810304601
)
;
    }
    atmosphere
    {
        type            inletOutlet;
        inletValue      nonuniform List<scalar> 0();
        value           nonuniform List<scalar> 0();
    }
    floatingObject
    {
        lowReCorrection 0;
        blending        stepwise;
        n               2;
        type            epsilonWallFunction;
        value           nonuniform List<scalar> 0();
    }
    procBoundary10to9
    {
        type            processor;
        value           nonuniform List<scalar> 
15
(
0.000487413558415
0.000494212728233
0.000497621732303
0.000500092594687
0.000502537420831
0.000505376307141
0.000509075020136
0.000514722466843
0.000426913481247
0.000469122833062
0.000469122833062
0.000408177133132
0.00040646705795
0.00040459692768
0.00040459692768
)
;
    }
    procBoundary10to11
    {
        type            processor;
        value           nonuniform List<scalar> 
23
(
0.000525006457681
0.000525006457681
0.000553133242195
0.000555091757828
0.000524070290492
0.000524070290492
0.000523749843645
0.000523441486169
0.000506522536385
0.000506522536385
0.000496521589251
0.000496521589251
0.000494799222741
0.000494799222741
0.000502637083651
0.000501142250924
0.000499054198882
0.000495306613673
0.000487257728672
0.000458056212331
0.000458056212331
0.000415344393096
0.000403314592283
)
;
    }
}


// ************************************************************************* //
