/*--------------------------------*- C++ -*----------------------------------*\
| =========                 |                                                 |
| \\      /  F ield         | OpenFOAM: The Open Source CFD Toolbox           |
|  \\    /   O peration     | Version:  v2012                                 |
|   \\  /    A nd           | Website:  www.openfoam.com                      |
|    \\/     M anipulation  |                                                 |
\*---------------------------------------------------------------------------*/
FoamFile
{
    version     2.0;
    format      ascii;
    class       surfaceVectorField;
    location    "5.8";
    object      ddtCorrDdt0(Uf);
}
// * * * * * * * * * * * * * * * * * * * * * * * * * * * * * * * * * * * * * //

dimensions      [0 1 -2 0 0 0 0];


internalField   nonuniform List<vector> 
305
(
(-0.00335543683174 0.00631721890329 1.81767932248e-23)
(-0.00639647497117 0.00333666504786 -5.13193898807e-24)
(-0.00339057293665 0.0127500697426 2.89952486706e-23)
(-0.00651705501937 0.00961529540179 -1.34617563759e-24)
(-0.00333009748907 0.0190752714656 6.36382669736e-23)
(-0.00640533344748 0.0160327555508 3.43673892214e-23)
(-0.00323142170034 0.0252488948655 1.00978400432e-22)
(-0.00624404609296 0.0223442333451 1.09929640319e-22)
(-0.00310261385363 0.0312114137995 6.83558251596e-23)
(-0.00601880504167 0.0284714585722 1.14252933805e-22)
(-0.00292631372342 0.0368411033659 -1.22364555431e-23)
(-0.00569512065136 0.0343336720359 4.78064311875e-23)
(-0.00268539313285 0.0420361832994 -1.10233851384e-22)
(-0.00526872403797 0.0398276041176 -6.30831236785e-23)
(-0.00471256930974 0.0448546586205 -1.40348182592e-22)
(-0.00972677749165 0.00652611909498 -2.46549078504e-23)
(-0.0130058024533 0.00344852254654 -4.03091135985e-23)
(-0.00969531512302 0.012993955272 4.0259649132e-24)
(-0.0130685492714 0.00979118496791 6.068113471e-24)
(-0.00950218186461 0.0193943887796 8.06587625667e-23)
(-0.0128827976161 0.0162916112986 1.45168987797e-23)
(-0.0092127523147 0.0256707981335 1.23204173692e-22)
(-0.0125850963849 0.0227094459999 1.12753544451e-22)
(-0.00882050763715 0.0317557768129 9.37035398333e-23)
(-0.0121520270193 0.0289658143874 1.19389149982e-22)
(-0.00828233743927 0.0375510849349 -3.04023694787e-24)
(-0.0115440098516 0.0350071039532 7.66154847743e-23)
(-0.00753963456351 0.0429313887247 -9.31974548867e-23)
(-0.0107224247127 0.0407349163885 -3.29669962244e-23)
(-0.00959145980873 0.0460347171294 -2.36861723806e-23)
(-0.0163630869221 0.00662058894203 -9.58609227709e-24)
(-0.0197025111182 0.00350325295373 -8.26450099702e-23)
(-0.0162656491568 0.0131905757626 1.65590473375e-23)
(-0.0197121295342 0.00994678663898 -1.43398580802e-23)
(-0.0159786552904 0.0197045168805 4.66116806642e-23)
(-0.0194617298516 0.0165867619564 -1.74143985616e-23)
(-0.0155408093082 0.0261199079541 1.08938520741e-22)
(-0.0190521784996 0.0231507387659 9.15281956986e-23)
(-0.0149157713671 0.0323856278701 1.02301094923e-22)
(-0.0184515884963 0.0296001669255 9.96531367468e-23)
(-0.0140579974139 0.0384096815635 4.66887254978e-23)
(-0.0176070267891 0.0358848807944 8.16511077623e-23)
(-0.0128963659994 0.0441236047794 3.65442862817e-23)
(-0.0164496096601 0.04192627301 3.79905229009e-23)
(-0.0149147895071 0.0476283707289 5.24890904644e-26)
(-0.0231031417815 0.00673345362568 -8.73987757733e-23)
(-0.0264977219671 0.0035605320818 -9.80527135093e-23)
(-0.0229652606386 0.0134388490297 -4.83133039793e-23)
(-0.0264741032293 0.0101459669965 -3.26440732025e-24)
(-0.0226042696327 0.0201086022268 2.75021164728e-23)
(-0.0261781005737 0.0169443924271 -3.17378680854e-23)
(-0.0220485752031 0.0267123462479 8.22428117042e-23)
(-0.0256884270299 0.0237017665221 6.05582231954e-23)
(-0.0212550393507 0.0332123490988 7.90031495858e-23)
(-0.0249657750898 0.0303932595398 7.06877327698e-23)
(-0.0201607665226 0.0395713318175 7.29529051654e-23)
(-0.0239734144612 0.0369884123151 5.79951663659e-23)
(-0.0186774096989 0.0456800082533 1.49872570961e-24)
(-0.0225920118397 0.0434283919552 4.25123164541e-23)
(-0.016678907944 0.0514866525667 -4.18925023589e-23)
(-0.0207190824122 0.0496525763123 -4.02503330054e-23)
(-0.0182642192442 0.055519591569 -3.2913101716e-23)
(-0.0299490673202 0.00685322959302 -1.39183450562e-23)
(-0.033394061141 0.0036243725584 -7.47385371643e-23)
(-0.0297898511115 0.0137308137639 1.33110285737e-23)
(-0.0333873376495 0.0103722734421 3.99418089612e-23)
(-0.0293830087805 0.0205941284674 1.31823863716e-24)
(-0.0330662810319 0.017341539464 -3.66742489095e-23)
(-0.0287555755137 0.0274370227309 4.9003144261e-23)
(-0.0325423721615 0.0243193037811 3.22744926486e-23)
(-0.0278609489794 0.0342425664328 4.967974955e-23)
(-0.0317657767692 0.0312813649699 4.59901263116e-23)
(-0.0266230311582 0.0409683127879 2.75545776545e-23)
(-0.0306825110464 0.0382280745623 4.02209858819e-23)
(-0.0249310180476 0.0475733029603 7.63257739067e-25)
(-0.0291969021448 0.0451313863177 1.0680226732e-23)
(-0.0226639922063 0.053958568286 -3.12709323625e-23)
(-0.0271664030739 0.0519384439834 -5.24487096915e-24)
(-0.0196499806397 0.0600410088482 1.40575934192e-23)
(-0.0244702105946 0.0585592215918 -1.66713463263e-23)
(-0.0209107756349 0.0649148924403 5.49184624882e-23)
(-0.0369239088413 0.00699639362728 -2.08783831469e-23)
(-0.0404127406675 0.00368458336012 -3.90070257516e-23)
(-0.0367735633569 0.0140429890294 -1.0043468522e-23)
(-0.0404469648204 0.010600053373 -2.32692797589e-23)
(-0.0363580678993 0.0211065456735 -5.71799489812e-24)
(-0.040131918436 0.0177453392645 -3.34782745526e-23)
(-0.0357182001374 0.0281994903978 2.92614746991e-23)
(-0.0396249352656 0.0249466817067 2.88380651931e-23)
(-0.0347974850753 0.0353206865014 3.65313626435e-23)
(-0.0388649701623 0.0321920671251 5.16330685298e-23)
(-0.0335190682088 0.0424657287969 2.33466349593e-23)
(-0.0377992623802 0.0395038094301 1.78550097219e-23)
(-0.0317737168047 0.0496144299053 4.67209802374e-24)
(-0.0363326730959 0.0468833088167 2.99848178293e-23)
(-0.0294148907461 0.0567029056577 9.3547150671e-24)
(-0.0343291520841 0.0543130808858 4.75924302581e-24)
(-0.0262682292087 0.0636479126476 2.41895227427e-23)
(-0.0316120330243 0.0617350207761 -3.82831740624e-25)
(-0.0280138928872 0.069132856284 4.64033213249e-23)
(-0.0440287924762 0.00714442586012 -4.13979223636e-23)
(-0.0475581028381 0.00373425058082 -2.72261846324e-23)
(-0.0439124867016 0.0143464456308 -4.67040857896e-23)
(-0.047639528857 0.0108069835992 -2.20554707272e-23)
(-0.0435273253713 0.0215966757682 1.07778553859e-24)
(-0.0473621906275 0.0181178719586 -2.95486550784e-23)
(-0.0429385020852 0.0289397893983 5.12096590238e-23)
(-0.0469377220359 0.0255220172531 2.78937035271e-23)
(-0.0420866649283 0.0363758785558 3.29567156082e-23)
(-0.0462643351098 0.0330326171973 5.16466666605e-23)
(-0.0408905486906 0.0439332599225 2.44931925919e-23)
(-0.0453240995368 0.0406958733681 1.43184958125e-23)
(-0.0392384200373 0.051620029454 3.00719628314e-23)
(-0.0440113470134 0.0485387903678 3.20279820119e-23)
(-0.0369920421582 0.0594333490212 -4.97830378191e-24)
(-0.0422379107113 0.05657180964 6.62827547938e-23)
(-0.0339638967763 0.0673017786413 2.18309668416e-23)
(-0.0397350122444 0.0647911112572 -4.45788403929e-24)
(-0.0364022160217 0.0732441213713 5.12234590931e-23)
(-0.0512542829702 0.00728410539394 -7.88373299598e-24)
(-0.0548226875324 0.00377358692296 -5.10588336302e-23)
(-0.0511907125026 0.0146087882346 -4.90004001603e-24)
(-0.0549338066235 0.0109738378337 -4.19392172196e-23)
(-0.0508855026084 0.0220319789672 -2.73273708984e-24)
(-0.0547454284408 0.0184103178827 -4.31936620999e-23)
(-0.0504103144107 0.0295727667282 2.83307111637e-23)
(-0.0544306836502 0.0259837250275 1.29981663895e-23)
(-0.0497151962008 0.0373024250653 3.30084468647e-23)
(-0.0539448494518 0.0337157895423 2.97208959281e-23)
(-0.0487247901972 0.0452451958153 2.18532852324e-23)
(-0.0532306213971 0.0416807865229 4.69393218024e-24)
(-0.0473314704413 0.0534517569745 6.82387739743e-23)
(-0.0522181047246 0.0499327234685 2.26526838903e-23)
(-0.0454107396508 0.0618938385404 6.68031745364e-23)
(-0.0507985132719 0.0585030702375 5.1139288368e-23)
(-0.0427828255702 0.0706623847876 2.49346082122e-23)
(-0.0488086376428 0.0674437916265 1.14314216959e-23)
(-0.0460467953519 0.0768905018958 2.12922818158e-23)
(-0.0585710966225 0.00733531688568 -8.51143178538e-23)
(-0.0621201182104 0.00379088240078 -8.48602710662e-23)
(-0.0585883939685 0.0147818129146 -8.02328393035e-23)
(-0.0623315743367 0.011072551757 -2.65214270426e-23)
(-0.0584024179507 0.0223360175844 -2.74627586206e-23)
(-0.0622425592757 0.0185847294164 -5.91408512094e-23)
(-0.0580981645342 0.0300505744461 1.43883511539e-23)
(-0.0620827949432 0.0262742344358 -8.36458683819e-24)
(-0.0576372645908 0.037996907999 1.40638124367e-24)
(-0.0618316735097 0.034163654058 1.93930088041e-23)
(-0.0569638307168 0.0462497177855 5.49333083818e-24)
(-0.0614437300408 0.0423483485107 2.62790192328e-24)
(-0.0559914922214 0.0548712023297 5.55319828406e-24)
(-0.0608455038353 0.0509056511119 1.80857170128e-23)
(-0.0545972504479 0.0639005187498 -4.23246447251e-24)
(-0.0599638838005 0.0599036947521 -9.73645821338e-24)
(-0.0526259788108 0.0734340517574 7.78909529955e-24)
(-0.0586802172253 0.0694230186898 -1.28920760053e-24)
(-0.0568217524548 0.0796676325472 1.40599232743e-23)
(-0.0659324186106 0.00739673310747 -2.62673802549e-23)
(-0.0694637194787 0.00378115963987 -7.4477817739e-23)
(-0.0660462543165 0.0148583350706 -5.42943894848e-24)
(-0.0697295678438 0.0110863484409 -4.79534271983e-23)
(-0.0660115539673 0.0224565005141 -4.0042679427e-23)
(-0.0697697772551 0.0186094481514 -5.69625151167e-23)
(-0.065932859087 0.0302801556115 -3.35992918804e-24)
(-0.0698320977255 0.0263401193234 -1.03983282175e-23)
(-0.065777200332 0.0383772200958 2.06145294837e-23)
(-0.0698602667217 0.0343068712121 2.38138006508e-23)
(-0.0655076832448 0.0468289455893 1.52202880979e-23)
(-0.0698508362038 0.0426125292542 2.46716197319e-23)
(-0.0650665259896 0.0557452632673 2.79606051539e-24)
(-0.069767333087 0.0513481043081 5.02459005388e-24)
(-0.0643664516095 0.065183781117 -6.79320134141e-24)
(-0.0695445737607 0.0606048046871 -1.64405766624e-24)
(-0.0632866694531 0.0752738257523 4.98162037422e-24)
(-0.0691104339624 0.0704840504647 -4.57404051709e-24)
(-0.0683636216191 0.081222232285 9.97186765653e-24)
(-0.0732869822526 0.00736288438616 -9.61638646824e-23)
(-0.0767621372371 0.00374889249246 -4.0378041395e-23)
(-0.0735006370758 0.0148115489211 -9.94865033666e-23)
(-0.0771038057338 0.0110103572871 -6.99408682163e-23)
(-0.0736470100566 0.0224083809243 -2.73181639072e-23)
(-0.0772853973458 0.018455303643 -5.34014551579e-23)
(-0.0738306397903 0.0302363267567 1.67754016213e-23)
(-0.0775762679701 0.02614399547 -6.7994582904e-24)
(-0.0740278289323 0.0383745768839 2.7870890899e-23)
(-0.0779218644626 0.0340978674578 2.0880017121e-23)
(-0.0742274185886 0.0469145637098 1.44759216878e-23)
(-0.0783387812301 0.0424094217839 1.66310108815e-23)
(-0.0743964559961 0.0559573234879 5.84471872247e-25)
(-0.078808877893 0.0511778435035 1.33086641046e-23)
(-0.0744847917247 0.0655961275054 5.75103158072e-25)
(-0.0793133420906 0.0605023892331 6.60789681678e-24)
(-0.0744313704682 0.0759664455925 4.1620676521e-25)
(-0.079800609799 0.0704974883717 7.19151809527e-24)
(-0.0802575961359 0.0814146896623 -2.27058506203e-23)
(-0.0805708536018 0.00727996221226 -1.41550449289e-23)
(-0.0839707979165 0.00369680106827 -2.66564745322e-23)
(-0.0808869163747 0.0146113063501 -2.38558200077e-23)
(-0.0843544547595 0.0108421241512 4.78308273168e-23)
(-0.0812316381171 0.0220988763413 -3.28827495412e-23)
(-0.0846854290177 0.0181055898361 -6.60853124729e-23)
(-0.0817019882532 0.0298615578999 -2.69484279069e-24)
(-0.08524860775 0.0256640815303 -2.41583107502e-23)
(-0.0822756124574 0.0379435818372 9.64013710355e-24)
(-0.0859198658726 0.0335135171248 9.97852568599e-24)
(-0.0829724537246 0.0464400067855 1.54637532983e-23)
(-0.0867744131907 0.0417057239429 8.92313440292e-24)
(-0.0837819040985 0.0554563701476 1.93320890491e-23)
(-0.0878108547837 0.050357854253 1.40933162813e-23)
(-0.084689475623 0.065064119947 1.3224311754e-23)
(-0.0890285220383 0.0595733578365 1.18662691846e-23)
(-0.0856934806005 0.0754355092983 -1.59305392903e-23)
(-0.0904378557918 0.0694615100097 4.22315151366e-23)
(-0.0921336126699 0.0802497890317 -2.15967372022e-23)
(-0.0877142291918 0.00718512730436 3.53293977136e-23)
(-0.091082574317 0.00366813963706 -5.56835748221e-23)
(-0.0880910633892 0.0142693508841 5.60133485165e-24)
(-0.0913566122693 0.0106243807697 -3.17454549537e-24)
(-0.0886726397841 0.0215329121227 -5.7360873682e-23)
(-0.0918597126748 0.0175235149139 -8.53678316182e-23)
(-0.089454122486 0.0291897033515 -1.14849422736e-23)
(-0.0928122104636 0.0248752791484 -2.39334186808e-23)
(-0.0903932528149 0.0370874219179 9.26152298537e-24)
(-0.0937289087429 0.0325634206869 -6.05838134623e-25)
(-0.0915855787926 0.0453852508223 7.55269738595e-24)
(-0.0950025633912 0.0405033179888 2.67990332671e-24)
(-0.0930334609074 0.054199050981 6.62749641676e-24)
(-0.0965957121976 0.0488977456592 4.49848386502e-24)
(-0.0947556792943 0.0636260313645 4.08734725672e-23)
(-0.0985271396561 0.0578356123163 3.23941299093e-24)
(-0.0967776536972 0.0738242032156 3.65653172247e-23)
(-0.100844584304 0.0674174796461 3.73102215393e-23)
(-0.103547927552 0.077821345341 9.88359248553e-24)
(-0.0946564911163 0.00671556701206 -9.41875180311e-23)
(-0.0977276333761 0.00358048770217 -9.11910543025e-23)
(-0.0951872223214 0.0138100117816 -9.41437119652e-23)
(-0.0983729456543 0.0102634451585 -5.14656764825e-23)
(-0.0959131653839 0.0210971097553 -5.1940376617e-23)
(-0.0990611414875 0.0168021967023 -7.7732298303e-23)
(-0.0969239312743 0.0282173354177 -1.30543145419e-23)
(-0.0998416303208 0.0238598812716 -2.76365538412e-23)
(-0.0982495386888 0.035786681261 -7.18745779328e-24)
(-0.101209272164 0.0312288484593 -1.93379280847e-23)
(-0.0999245783524 0.0437732801545 -3.7431019422e-25)
(-0.102915224355 0.0388219139639 -1.95950991398e-24)
(-0.101981088253 0.0522535339812 1.11040043919e-24)
(-0.105033917053 0.0468347633833 5.61937030695e-24)
(-0.104462168505 0.0612935580335 -3.23838037021e-25)
(-0.107601485333 0.0553427697411 4.9050857331e-24)
(-0.107416030591 0.0710088532917 1.06284968001e-23)
(-0.110687330912 0.0644400902367 6.26987431535e-24)
(-0.114374387711 0.0742745127005 1.26320338383e-23)
(-0.101315611285 0.00641552940545 -4.8469212754e-23)
(-0.104080606332 0.00335069049661 -5.30614669527e-23)
(-0.102057496024 0.0131011046263 -3.50542628203e-23)
(-0.104989932985 0.00969902926137 -2.51991035356e-23)
(-0.102876839239 0.0198102651834 -5.34284755271e-23)
(-0.105694245114 0.0159905519723 -4.5725842391e-23)
(-0.104083020877 0.026837249906 -3.3920167384e-23)
(-0.106786487098 0.0226555879181 -3.70935238814e-23)
(-0.105760595337 0.0340756494191 -1.41099802054e-23)
(-0.108365374505 0.0295543184447 -1.4322741917e-23)
(-0.107871770005 0.041652833916 4.03417058719e-24)
(-0.110418774506 0.0367197304446 5.00156364875e-25)
(-0.110467630474 0.0496611865205 9.41405560086e-24)
(-0.11297443309 0.0442458370219 7.69257251636e-24)
(-0.113607701605 0.0581738047933 1.14987980855e-23)
(-0.11609738316 0.0522013472534 9.21599740343e-24)
(-0.117377208553 0.0672858774857 8.27341135346e-24)
(-0.119892811579 0.0606585136712 2.1315593469e-23)
(-0.124373826813 0.0697342693789 -5.26261112895e-24)
(-0.107627598539 0.00620970926219 -2.97913577344e-23)
(-0.110242890716 0.0030668698285 -9.25536213187e-25)
(-0.108468657668 0.0123871251812 -3.58706831063e-23)
(-0.111114533616 0.00904105308556 5.63737582723e-24)
(-0.109457318764 0.018718109651 -2.93908907452e-23)
(-0.111964346555 0.015012066637 4.93206211887e-24)
(-0.1109023016 0.0252620691106 -1.74960984143e-23)
(-0.113263364309 0.0212226971484 -1.90830173859e-23)
(-0.112849224291 0.0320319028709 2.87394653348e-25)
(-0.115063883547 0.0276293138746 1.62290585077e-24)
(-0.115323356328 0.0391067046466 4.15855829404e-24)
(-0.117406119859 0.0342754426619 -3.86026821116e-24)
(-0.1183768725 0.0465468508015 7.49451431893e-24)
(-0.120334453605 0.041212829723 -5.33248486098e-24)
(-0.122074851668 0.0544040716562 1.9032792787e-23)
(-0.126528731213 0.0627437092793 7.77957098662e-24)
(-0.113568903523 0.00576866783949 3.45031973484e-23)
(-0.11598259411 0.00279153268719 6.19269982501e-23)
(-0.114461170917 0.0115394145004 4.64401210524e-23)
(-0.116851081118 0.00833356846691 6.04751835701e-23)
(-0.11560437112 0.017426710055 1.52399354782e-23)
(-0.117811604445 0.013882318843 3.85152057047e-23)
(-0.117240634571 0.0234761443731 3.59868791932e-26)
(-0.119266896373 0.0195983900998 8.55449188159e-24)
(-0.119417620733 0.0297268756516 -2.52475701373e-24)
(-0.121248326149 0.0254690117486 4.05983635281e-24)
(-0.122181454531 0.0362061497635 -1.33513113662e-23)
(-0.119073537733 0.00528711069762 8.78989844717e-23)
(-0.120022293487 0.0105924060408 5.25502682224e-23)
(-0.121281538386 0.0159799469384 3.18297621081e-23)
(-0.123184862234 0.0126420816534 2.10182432136e-23)
(-0.123064670803 0.0214945269652 1.25783413552e-23)
(-0.124751141186 0.0178180624296 3.46649265877e-24)
(-0.126436958814 0.0144210200017 -7.34502623573e-24)
)
;

boundaryField
{
    back
    {
        type            calculated;
        value           uniform (0 0 0);
    }
    sides
    {
        type            calculated;
        value           uniform (0 0 0);
    }
    bottom
    {
        type            calculated;
        value           uniform (0 0 0);
    }
    front
    {
        type            calculated;
        value           uniform (0 0 0);
    }
    atmosphere
    {
        type            calculated;
        value           nonuniform List<vector> 0();
    }
    floatingObject
    {
        type            calculated;
        value           nonuniform List<vector> 0();
    }
    procBoundary2to0
    {
        type            processor;
        value           nonuniform List<vector> 
14
(
(-0.123926227583 0.0485096595871 -1.70269871624e-24)
(-0.128219483825 0.0562032866973 1.04225253409e-23)
(-0.133451243888 0.0643663961167 -2.21251166755e-23)
(-0.123818292112 0.0315333297107 -3.83709443973e-24)
(-0.125593160074 0.0429592334525 -1.45296978961e-23)
(-0.127016407849 0.0378199314743 -1.31075135419e-23)
(-0.121259020112 0.00252080076237 8.25907324656e-23)
(-0.122143534778 0.00758099353906 4.93451241799e-23)
(-0.125411175977 0.0271489292223 2.74749892682e-24)
(-0.126870609111 0.0231086313516 -1.31242921722e-24)
(-0.125097299988 0.0095696824903 1.78130991711e-23)
(-0.128034155442 0.0113073975125 -2.02809866465e-23)
(-0.128323491898 0.0193489973212 -1.04242779136e-23)
(-0.129675902594 0.0159139471127 -1.8381771739e-23)
)
;
    }
    procBoundary2to1
    {
        type            processor;
        value           nonuniform List<vector> 
18
(
(-0.00235871655604 0.0466656753956 -1.40920497664e-22)
(-0.0065516733647 0.0477849397621 -9.46320584426e-23)
(-0.0113400075169 0.0493334257835 2.39478761959e-23)
(-0.0127997594322 0.052837416175 -1.79971152535e-23)
(-0.0140277875365 0.056695639209 1.77972777624e-23)
(-0.0149170646269 0.0609127914975 6.47679728976e-23)
(-0.0156870539928 0.0656731840546 5.36193049276e-23)
(-0.0220925973582 0.0704416434907 2.1790980201e-23)
(-0.0298941935336 0.0753093282472 4.29683890262e-23)
(-0.039166196604 0.0798674872786 2.46459471238e-23)
(-0.0498487232659 0.0837358268146 -4.1180175917e-24)
(-0.0616811071447 0.0863386757769 1.50450750212e-23)
(-0.0741740725078 0.087422014037 1.85179845223e-24)
(-0.0868175128703 0.0869323259698 -2.77742422736e-23)
(-0.0991708924865 0.0849483152064 -3.27110289897e-24)
(-0.110926157765 0.0816153158051 3.44736386225e-24)
(-0.121894792013 0.0771799834474 1.28169259853e-23)
(-0.131897708078 0.0716880514348 2.63758084316e-24)
)
;
    }
}


// ************************************************************************* //
