/*--------------------------------*- C++ -*----------------------------------*\
| =========                 |                                                 |
| \\      /  F ield         | OpenFOAM: The Open Source CFD Toolbox           |
|  \\    /   O peration     | Version:  v2012                                 |
|   \\  /    A nd           | Website:  www.openfoam.com                      |
|    \\/     M anipulation  |                                                 |
\*---------------------------------------------------------------------------*/
FoamFile
{
    version     2.0;
    format      ascii;
    class       volScalarField;
    location    "5.8";
    object      k_0;
}
// * * * * * * * * * * * * * * * * * * * * * * * * * * * * * * * * * * * * * //

dimensions      [0 2 -2 0 0 0 0];


internalField   nonuniform List<scalar> 
167
(
0.00083712127047
0.000979759625301
0.00103052846022
0.00105279622805
0.0010652694308
0.00107459072887
0.00108310658433
0.0010918031412
0.00098156284782
0.00120686525186
0.00128054558452
0.00131114365178
0.00132650869772
0.00133665584266
0.00134523179844
0.00135379197095
0.00103429994115
0.00128476091569
0.00136744593678
0.00140135875898
0.00141777229184
0.00142818593391
0.00143684818512
0.00144549422586
0.00105725789846
0.00131787016675
0.00140435719105
0.00143958617709
0.0014562671357
0.00146660123214
0.00147514699114
0.0014837461926
0.0014936864362
0.00106921615207
0.00133405409125
0.00142212728293
0.00145776346995
0.0014743339695
0.00148440326322
0.00149268279627
0.00150107113137
0.00151086493049
0.00152424268078
0.00107703673772
0.0013438196303
0.00143254441097
0.00146819858255
0.00148449891701
0.00149421685591
0.00150215653723
0.00151023639787
0.00151973045574
0.00153272920399
0.00108325339697
0.00135114549982
0.00144015122615
0.00147567776146
0.00149166015662
0.00150100553462
0.00150857934838
0.00151630838061
0.00152543317626
0.00153794741996
0.00108878868751
0.00135752026501
0.00144666618338
0.00148202913051
0.00149769882143
0.00150668668862
0.0015139001536
0.0015212744349
0.00153001151427
0.0015420175099
0.00109395774706
0.00136343097326
0.00145270614806
0.00148791498113
0.00150330425146
0.00151196560552
0.00151884311853
0.00152587369368
0.00153423525313
0.00154574149776
0.00109883704143
0.00136908661532
0.00145847936438
0.00149355723219
0.0015086996201
0.00151707204908
0.00152364578627
0.0015303599886
0.00153836229618
0.00154937730755
0.00110345488885
0.00137447527306
0.00146402251775
0.00149900428998
0.00151393673467
0.00152205576837
0.00152836080546
0.00153478943209
0.00154245728594
0.00155299774714
0.00110779790098
0.00137961090357
0.00146933757635
0.00150425379611
0.0015190092903
0.00152690843137
0.00153297517757
0.0015391472887
0.00154650473545
0.00155657662226
0.00111185103611
0.00138447879082
0.00147440852866
0.00150928499459
0.00152389105008
0.00153159910529
0.00153745671286
0.00154339423428
0.00155045696743
0.00156006798495
0.00111558822513
0.00138905501255
0.00147921427121
0.00151407210697
0.00152855382191
0.0015360962483
0.0015417696837
0.00154749711166
0.00155428569215
0.00156345743059
0.00111900947802
0.00139333147444
0.00148372444289
0.0015185832927
0.00153296574917
0.00154036738328
0.00154587943489
0.001551420081
0.0015579588331
0.00156672391647
0.00112214196468
0.00139728146064
0.00148792221453
0.00152279922002
0.00153710042954
0.00154438189953
0.00154975245832
0.00155513061507
0.00156144639435
0.00156982609613
0.00112494890302
0.00140089537804
0.00149178285765
0.00152669454978
0.0015409327676
0.00154811217267
0.00155336453547
0.00112739698317
0.00140415214612
0.00149530806862
0.00153026924836
0.00154446268092
0.00149849213356
0.00153351938743
)
;

boundaryField
{
    back
    {
        type            kqRWallFunction;
        value           nonuniform List<scalar> 
167
(
0.00083712127047
0.000979759625301
0.00103052846022
0.00105279622805
0.0010652694308
0.00107459072887
0.00108310658433
0.0010918031412
0.00098156284782
0.00120686525186
0.00128054558452
0.00131114365178
0.00132650869772
0.00133665584266
0.00134523179844
0.00135379197095
0.00103429994115
0.00128476091569
0.00136744593678
0.00140135875898
0.00141777229184
0.00142818593391
0.00143684818512
0.00144549422586
0.00105725789846
0.00131787016675
0.00140435719105
0.00143958617709
0.0014562671357
0.00146660123214
0.00147514699114
0.0014837461926
0.0014936864362
0.00106921615207
0.00133405409125
0.00142212728293
0.00145776346995
0.0014743339695
0.00148440326322
0.00149268279627
0.00150107113137
0.00151086493049
0.00152424268078
0.00107703673772
0.0013438196303
0.00143254441097
0.00146819858255
0.00148449891701
0.00149421685591
0.00150215653723
0.00151023639787
0.00151973045574
0.00153272920399
0.00108325339697
0.00135114549982
0.00144015122615
0.00147567776146
0.00149166015662
0.00150100553462
0.00150857934838
0.00151630838061
0.00152543317626
0.00153794741996
0.00108878868751
0.00135752026501
0.00144666618338
0.00148202913051
0.00149769882143
0.00150668668862
0.0015139001536
0.0015212744349
0.00153001151427
0.0015420175099
0.00109395774706
0.00136343097326
0.00145270614806
0.00148791498113
0.00150330425146
0.00151196560552
0.00151884311853
0.00152587369368
0.00153423525313
0.00154574149776
0.00109883704143
0.00136908661532
0.00145847936438
0.00149355723219
0.0015086996201
0.00151707204908
0.00152364578627
0.0015303599886
0.00153836229618
0.00154937730755
0.00110345488885
0.00137447527306
0.00146402251775
0.00149900428998
0.00151393673467
0.00152205576837
0.00152836080546
0.00153478943209
0.00154245728594
0.00155299774714
0.00110779790098
0.00137961090357
0.00146933757635
0.00150425379611
0.0015190092903
0.00152690843137
0.00153297517757
0.0015391472887
0.00154650473545
0.00155657662226
0.00111185103611
0.00138447879082
0.00147440852866
0.00150928499459
0.00152389105008
0.00153159910529
0.00153745671286
0.00154339423428
0.00155045696743
0.00156006798495
0.00111558822513
0.00138905501255
0.00147921427121
0.00151407210697
0.00152855382191
0.0015360962483
0.0015417696837
0.00154749711166
0.00155428569215
0.00156345743059
0.00111900947802
0.00139333147444
0.00148372444289
0.0015185832927
0.00153296574917
0.00154036738328
0.00154587943489
0.001551420081
0.0015579588331
0.00156672391647
0.00112214196468
0.00139728146064
0.00148792221453
0.00152279922002
0.00153710042954
0.00154438189953
0.00154975245832
0.00155513061507
0.00156144639435
0.00156982609613
0.00112494890302
0.00140089537804
0.00149178285765
0.00152669454978
0.0015409327676
0.00154811217267
0.00155336453547
0.00112739698317
0.00140415214612
0.00149530806862
0.00153026924836
0.00154446268092
0.00149849213356
0.00153351938743
)
;
    }
    sides
    {
        type            kqRWallFunction;
        value           nonuniform List<scalar> 8(0.00083712127047 0.000979759625301 0.00103052846022 0.00105279622805 0.0010652694308 0.00107459072887 0.00108310658433 0.0010918031412);
    }
    bottom
    {
        type            kqRWallFunction;
        value           nonuniform List<scalar> 
18
(
0.00083712127047
0.00098156284782
0.00103429994115
0.00105725789846
0.00106921615207
0.00107703673772
0.00108325339697
0.00108878868751
0.00109395774706
0.00109883704143
0.00110345488885
0.00110779790098
0.00111185103611
0.00111558822513
0.00111900947802
0.00112214196468
0.00112494890302
0.00112739698317
)
;
    }
    front
    {
        type            kqRWallFunction;
        value           nonuniform List<scalar> 
167
(
0.00083712127047
0.000979759625301
0.00103052846022
0.00105279622805
0.0010652694308
0.00107459072887
0.00108310658433
0.0010918031412
0.00098156284782
0.00120686525186
0.00128054558452
0.00131114365178
0.00132650869772
0.00133665584266
0.00134523179844
0.00135379197095
0.00103429994115
0.00128476091569
0.00136744593678
0.00140135875898
0.00141777229184
0.00142818593391
0.00143684818512
0.00144549422586
0.00105725789846
0.00131787016675
0.00140435719105
0.00143958617709
0.0014562671357
0.00146660123214
0.00147514699114
0.0014837461926
0.0014936864362
0.00106921615207
0.00133405409125
0.00142212728293
0.00145776346995
0.0014743339695
0.00148440326322
0.00149268279627
0.00150107113137
0.00151086493049
0.00152424268078
0.00107703673772
0.0013438196303
0.00143254441097
0.00146819858255
0.00148449891701
0.00149421685591
0.00150215653723
0.00151023639787
0.00151973045574
0.00153272920399
0.00108325339697
0.00135114549982
0.00144015122615
0.00147567776146
0.00149166015662
0.00150100553462
0.00150857934838
0.00151630838061
0.00152543317626
0.00153794741996
0.00108878868751
0.00135752026501
0.00144666618338
0.00148202913051
0.00149769882143
0.00150668668862
0.0015139001536
0.0015212744349
0.00153001151427
0.0015420175099
0.00109395774706
0.00136343097326
0.00145270614806
0.00148791498113
0.00150330425146
0.00151196560552
0.00151884311853
0.00152587369368
0.00153423525313
0.00154574149776
0.00109883704143
0.00136908661532
0.00145847936438
0.00149355723219
0.0015086996201
0.00151707204908
0.00152364578627
0.0015303599886
0.00153836229618
0.00154937730755
0.00110345488885
0.00137447527306
0.00146402251775
0.00149900428998
0.00151393673467
0.00152205576837
0.00152836080546
0.00153478943209
0.00154245728594
0.00155299774714
0.00110779790098
0.00137961090357
0.00146933757635
0.00150425379611
0.0015190092903
0.00152690843137
0.00153297517757
0.0015391472887
0.00154650473545
0.00155657662226
0.00111185103611
0.00138447879082
0.00147440852866
0.00150928499459
0.00152389105008
0.00153159910529
0.00153745671286
0.00154339423428
0.00155045696743
0.00156006798495
0.00111558822513
0.00138905501255
0.00147921427121
0.00151407210697
0.00152855382191
0.0015360962483
0.0015417696837
0.00154749711166
0.00155428569215
0.00156345743059
0.00111900947802
0.00139333147444
0.00148372444289
0.0015185832927
0.00153296574917
0.00154036738328
0.00154587943489
0.001551420081
0.0015579588331
0.00156672391647
0.00112214196468
0.00139728146064
0.00148792221453
0.00152279922002
0.00153710042954
0.00154438189953
0.00154975245832
0.00155513061507
0.00156144639435
0.00156982609613
0.00112494890302
0.00140089537804
0.00149178285765
0.00152669454978
0.0015409327676
0.00154811217267
0.00155336453547
0.00112739698317
0.00140415214612
0.00149530806862
0.00153026924836
0.00154446268092
0.00149849213356
0.00153351938743
)
;
    }
    atmosphere
    {
        type            inletOutlet;
        inletValue      nonuniform List<scalar> 0();
        value           nonuniform List<scalar> 0();
    }
    floatingObject
    {
        type            kqRWallFunction;
        value           nonuniform List<scalar> 0();
    }
    procBoundary2to0
    {
        type            processor;
        value           nonuniform List<scalar> 
14
(
0.00155860049409
0.00156471025881
0.00157273764113
0.00155156270103
0.00155860049409
0.0015567121384
0.00112948430993
0.00140705811377
0.00155156270103
0.0015476867039
0.00140705811377
0.00150131798698
0.0015476867039
0.00153642800909
)
;
    }
    procBoundary2to1
    {
        type            processor;
        value           nonuniform List<scalar> 
18
(
0.00110152289615
0.001363438553
0.00145538648825
0.00145538648825
0.00150722867775
0.00150722867775
0.00154665834506
0.00155435212046
0.00155867139599
0.00156189080612
0.00156480719615
0.0015676112603
0.00157036853814
0.00157306422223
0.00157565045738
0.00157816320423
0.00158058864071
0.0015829214007
)
;
    }
}


// ************************************************************************* //
