/*--------------------------------*- C++ -*----------------------------------*\
| =========                 |                                                 |
| \\      /  F ield         | OpenFOAM: The Open Source CFD Toolbox           |
|  \\    /   O peration     | Version:  v2012                                 |
|   \\  /    A nd           | Website:  www.openfoam.com                      |
|    \\/     M anipulation  |                                                 |
\*---------------------------------------------------------------------------*/
FoamFile
{
    version     2.0;
    format      ascii;
    class       volScalarField;
    location    "5.8";
    object      p_rgh;
}
// * * * * * * * * * * * * * * * * * * * * * * * * * * * * * * * * * * * * * //

dimensions      [1 -1 -2 0 0 0 0];


internalField   nonuniform List<scalar> 
167
(
8539.73966749
8539.46850136
8538.91505982
8538.08924713
8537.00210943
8535.66726786
8534.10038861
8532.32304794
8539.99932777
8539.72534222
8539.16633866
8538.33105492
8537.23089141
8535.87776372
8534.28715902
8532.47963044
8540.53732214
8540.25807634
8539.68818976
8538.83603383
8537.71107793
8536.32336614
8534.68764488
8532.81888693
8541.35692818
8541.07051125
8540.48567329
8539.60959195
8538.44964507
8537.01371754
8535.31366985
8533.3618232
8531.15803648
8542.46508269
8542.16942151
8541.56636195
8540.66124471
8539.45876028
8537.963937
8536.18410711
8534.12556691
8531.78837059
8529.17221104
8543.87117101
8543.56542536
8542.94214489
8542.00489582
8540.75545689
8539.19543136
8537.3265231
8535.14803733
8532.6544164
8529.83337442
8545.58610317
8545.27021281
8544.62626889
8543.65613688
8542.35888406
8540.73185872
8538.77139733
8536.46914026
8533.81140081
8530.75733312
8547.62132577
8547.29573521
8546.63237869
8545.63128764
8544.28869437
8542.59805792
8540.55040397
8538.12920389
8535.30789285
8532.03284508
8549.98777055
8549.65337545
8548.97340414
8547.94565359
8546.56398705
8544.81825648
8542.69378647
8540.16710469
8537.1993191
8533.72488902
8552.69391677
8552.35319038
8551.66078041
8550.6130421
8549.20172183
8547.41386682
8545.22994344
8542.62008813
8539.5359006
8535.9288539
8555.74723856
8555.40233071
8554.70307999
8553.64411905
8552.21517665
8550.40160819
8548.18026644
8545.51218107
8542.37320107
8538.70994712
8559.15146755
8558.80550811
8558.10565884
8557.0454083
8555.61343937
8553.79120443
8551.55727207
8548.88751392
8545.74149615
8542.05116894
8562.90737859
8562.56337311
8561.86967968
8560.81900575
8559.39998506
8557.5933389
8555.38199214
8552.73736126
8549.60889475
8545.94929085
8567.01261609
8566.67258703
8565.99268213
8564.96285833
8563.57221322
8561.80632013
8559.64261167
8557.0519523
8554.00162392
8550.43869018
8571.4612734
8571.12474374
8570.46704702
8569.47086554
8568.12434462
8566.41712159
8564.32582842
8561.82778415
8558.89765599
8555.48713525
8576.24697881
8575.90568511
8575.28326947
8574.32950324
8573.04202291
8571.4094793
8569.41724466
8567.04084251
8564.26520747
8561.04912938
8581.33378197
8581.0219478
8580.42590154
8579.51807808
8578.29594014
8576.74364024
8574.88763936
8586.7208298
8586.43495851
8585.87493815
8585.02719257
8583.88026595
8591.6073865
8590.82663059
)
;

boundaryField
{
    back
    {
        type            fixedFluxPressure;
        gradient        uniform 0;
        value           nonuniform List<scalar> 
167
(
8539.73966749
8539.46850136
8538.91505982
8538.08924713
8537.00210943
8535.66726786
8534.10038861
8532.32304794
8539.99932777
8539.72534222
8539.16633866
8538.33105492
8537.23089141
8535.87776372
8534.28715902
8532.47963044
8540.53732214
8540.25807634
8539.68818976
8538.83603383
8537.71107793
8536.32336614
8534.68764488
8532.81888693
8541.35692818
8541.07051125
8540.48567329
8539.60959195
8538.44964507
8537.01371754
8535.31366985
8533.3618232
8531.15803648
8542.46508269
8542.16942151
8541.56636195
8540.66124471
8539.45876028
8537.963937
8536.18410711
8534.12556691
8531.78837059
8529.17221104
8543.87117101
8543.56542536
8542.94214489
8542.00489582
8540.75545689
8539.19543136
8537.3265231
8535.14803733
8532.6544164
8529.83337442
8545.58610317
8545.27021281
8544.62626889
8543.65613688
8542.35888406
8540.73185872
8538.77139733
8536.46914026
8533.81140081
8530.75733312
8547.62132577
8547.29573521
8546.63237869
8545.63128764
8544.28869437
8542.59805792
8540.55040397
8538.12920389
8535.30789285
8532.03284508
8549.98777055
8549.65337545
8548.97340414
8547.94565359
8546.56398705
8544.81825648
8542.69378647
8540.16710469
8537.1993191
8533.72488902
8552.69391677
8552.35319038
8551.66078041
8550.6130421
8549.20172183
8547.41386682
8545.22994344
8542.62008813
8539.5359006
8535.9288539
8555.74723856
8555.40233071
8554.70307999
8553.64411905
8552.21517665
8550.40160819
8548.18026644
8545.51218107
8542.37320107
8538.70994712
8559.15146755
8558.80550811
8558.10565884
8557.0454083
8555.61343937
8553.79120443
8551.55727207
8548.88751392
8545.74149615
8542.05116894
8562.90737859
8562.56337311
8561.86967968
8560.81900575
8559.39998506
8557.5933389
8555.38199214
8552.73736126
8549.60889475
8545.94929085
8567.01261609
8566.67258703
8565.99268213
8564.96285833
8563.57221322
8561.80632013
8559.64261167
8557.0519523
8554.00162392
8550.43869018
8571.4612734
8571.12474374
8570.46704702
8569.47086554
8568.12434462
8566.41712159
8564.32582842
8561.82778415
8558.89765599
8555.48713525
8576.24697881
8575.90568511
8575.28326947
8574.32950324
8573.04202291
8571.4094793
8569.41724466
8567.04084251
8564.26520747
8561.04912938
8581.33378197
8581.0219478
8580.42590154
8579.51807808
8578.29594014
8576.74364024
8574.88763936
8586.7208298
8586.43495851
8585.87493815
8585.02719257
8583.88026595
8591.6073865
8590.82663059
)
;
    }
    sides
    {
        type            fixedFluxPressure;
        gradient        uniform 0;
        value           nonuniform List<scalar> 8(8539.73966749 8539.46850136 8538.91505982 8538.08924713 8537.00210943 8535.66726786 8534.10038861 8532.32304794);
    }
    bottom
    {
        type            fixedFluxPressure;
        gradient        uniform 0;
        value           nonuniform List<scalar> 
18
(
8539.73966749
8539.99932777
8540.53732214
8541.35692818
8542.46508269
8543.87117101
8545.58610317
8547.62132577
8549.98777055
8552.69391677
8555.74723856
8559.15146755
8562.90737859
8567.01261609
8571.4612734
8576.24697881
8581.33378197
8586.7208298
)
;
    }
    front
    {
        type            fixedFluxPressure;
        gradient        uniform 0;
        value           nonuniform List<scalar> 
167
(
8539.73966749
8539.46850136
8538.91505982
8538.08924713
8537.00210943
8535.66726786
8534.10038861
8532.32304794
8539.99932777
8539.72534222
8539.16633866
8538.33105492
8537.23089141
8535.87776372
8534.28715902
8532.47963044
8540.53732214
8540.25807634
8539.68818976
8538.83603383
8537.71107793
8536.32336614
8534.68764488
8532.81888693
8541.35692818
8541.07051125
8540.48567329
8539.60959195
8538.44964507
8537.01371754
8535.31366985
8533.3618232
8531.15803648
8542.46508269
8542.16942151
8541.56636195
8540.66124471
8539.45876028
8537.963937
8536.18410711
8534.12556691
8531.78837059
8529.17221104
8543.87117101
8543.56542536
8542.94214489
8542.00489582
8540.75545689
8539.19543136
8537.3265231
8535.14803733
8532.6544164
8529.83337442
8545.58610317
8545.27021281
8544.62626889
8543.65613688
8542.35888406
8540.73185872
8538.77139733
8536.46914026
8533.81140081
8530.75733312
8547.62132577
8547.29573521
8546.63237869
8545.63128764
8544.28869437
8542.59805792
8540.55040397
8538.12920389
8535.30789285
8532.03284508
8549.98777055
8549.65337545
8548.97340414
8547.94565359
8546.56398705
8544.81825648
8542.69378647
8540.16710469
8537.1993191
8533.72488902
8552.69391677
8552.35319038
8551.66078041
8550.6130421
8549.20172183
8547.41386682
8545.22994344
8542.62008813
8539.5359006
8535.9288539
8555.74723856
8555.40233071
8554.70307999
8553.64411905
8552.21517665
8550.40160819
8548.18026644
8545.51218107
8542.37320107
8538.70994712
8559.15146755
8558.80550811
8558.10565884
8557.0454083
8555.61343937
8553.79120443
8551.55727207
8548.88751392
8545.74149615
8542.05116894
8562.90737859
8562.56337311
8561.86967968
8560.81900575
8559.39998506
8557.5933389
8555.38199214
8552.73736126
8549.60889475
8545.94929085
8567.01261609
8566.67258703
8565.99268213
8564.96285833
8563.57221322
8561.80632013
8559.64261167
8557.0519523
8554.00162392
8550.43869018
8571.4612734
8571.12474374
8570.46704702
8569.47086554
8568.12434462
8566.41712159
8564.32582842
8561.82778415
8558.89765599
8555.48713525
8576.24697881
8575.90568511
8575.28326947
8574.32950324
8573.04202291
8571.4094793
8569.41724466
8567.04084251
8564.26520747
8561.04912938
8581.33378197
8581.0219478
8580.42590154
8579.51807808
8578.29594014
8576.74364024
8574.88763936
8586.7208298
8586.43495851
8585.87493815
8585.02719257
8583.88026595
8591.6073865
8590.82663059
)
;
    }
    atmosphere
    {
        type            totalPressure;
        rho             rho;
        psi             none;
        gamma           1;
        p0              nonuniform List<scalar> 0();
        value           nonuniform List<scalar> 0();
    }
    floatingObject
    {
        type            fixedFluxPressure;
        gradient        nonuniform List<scalar> 0();
        value           nonuniform List<scalar> 0();
    }
    procBoundary2to0
    {
        type            processor;
        value           nonuniform List<scalar> 
14
(
8572.66359839
8570.06981426
8567.07731493
8582.44296994
8572.66359839
8580.6979773
8592.38809605
8592.12626881
8582.44296994
8589.7762436
8592.12626881
8597.60614967
8589.7762436
8596.89921848
)
;
    }
    procBoundary2to1
    {
        type            processor;
        value           nonuniform List<scalar> 
18
(
8530.36501666
8530.47747174
8530.73303952
8530.73303952
8528.730598
8528.730598
8526.31178
8526.67688931
8527.31473491
8528.3348011
8529.7961454
8531.78710448
8534.43415883
8537.74627664
8541.68624544
8546.30269422
8551.54695892
8557.35236975
)
;
    }
}


// ************************************************************************* //
