/*--------------------------------*- C++ -*----------------------------------*\
| =========                 |                                                 |
| \\      /  F ield         | OpenFOAM: The Open Source CFD Toolbox           |
|  \\    /   O peration     | Version:  v2012                                 |
|   \\  /    A nd           | Website:  www.openfoam.com                      |
|    \\/     M anipulation  |                                                 |
\*---------------------------------------------------------------------------*/
FoamFile
{
    version     2.0;
    format      ascii;
    class       volScalarField;
    location    "3.8";
    object      p;
}
// * * * * * * * * * * * * * * * * * * * * * * * * * * * * * * * * * * * * * //

dimensions      [1 -1 -2 0 0 0 0];


internalField   nonuniform List<scalar> 
164
(
4489.03114869
3999.94949659
3510.92718573
3021.95900689
2533.03459444
2044.13769412
1555.2478019
1066.37224059
577.459311522
168.584777203
-2.56623975695
-11.1088564378
4498.98671839
4010.41010601
3521.98835859
3033.73432113
2545.66196827
2057.78396602
1570.11401798
1082.6858922
595.538776253
181.755745255
1.33483610163
-9.74894910661
3532.84800275
3045.28325492
2558.03524184
2071.14522823
1584.65773513
1098.63365977
613.124499403
194.253549165
4.25354692724
-9.71341556073
3543.39083008
3056.46914068
2569.99023078
2084.02618003
1598.65714776
1113.9824762
630.055642758
206.418992031
6.9975587567
-9.72979609403
3553.51498084
3067.16561623
2581.3696632
2096.23183509
1611.88223524
1128.49864382
646.265716785
218.880827349
10.2756822872
-9.81366229261
3563.13259659
3077.2625599
2592.03003466
2107.56695682
1624.05772777
1141.80264531
661.28517818
231.721965636
14.2428695189
-10.4824548488
3572.17753412
3086.67716842
2601.85982174
2117.86542349
1634.90177573
1153.34953178
674.082988942
244.37927978
20.777991122
-9.79598374645
3580.61155133
3095.365454
2610.80558653
2127.05271989
1644.26806136
1162.72011789
683.082930799
251.190720641
22.4905452682
-9.65086389094
3588.42470099
3103.32649309
2618.88616239
2135.19618891
1652.3470542
1170.38154032
688.957217723
256.085742843
24.2239380823
-9.6482458735
3595.63088605
3110.59128736
2626.16097932
2142.42119963
1659.4886882
1177.59353738
696.930233948
260.161146545
24.7499474835
-9.65009353125
3602.26406403
3117.21161451
2632.69370175
2148.76063207
1665.50958469
1183.10166207
701.731568473
261.147017746
24.132117651
-9.63651443259
3608.37650367
3123.26624617
2638.59681587
2154.36921338
1670.59045702
1187.21921887
704.174908223
260.227903009
22.8517567774
-9.62651009871
3614.03122802
3128.85375488
2644.02316422
2159.49061307
1675.18194423
1190.89753234
706.410318593
259.75416497
22.0502731554
-9.60866049219
3619.28928495
3134.07157291
2649.12457947
2164.36104296
1679.66244081
1194.75625513
709.455078444
260.922256363
22.1885266846
-9.60083202577
3624.19950226
3138.99673451
2654.01750848
2169.15368578
1684.26736548
1199.08548194
713.474094018
263.598144063
23.1017487357
-9.60448687723
3628.7944888
3143.68143895
2658.77691797
2173.96087501
1689.09287445
1203.93624063
718.411849661
267.012001208
24.0620054025
-9.60654179743
)
;

boundaryField
{
    back
    {
        type            calculated;
        value           nonuniform List<scalar> 
164
(
4489.03114869
3999.94949659
3510.92718573
3021.95900689
2533.03459444
2044.13769412
1555.2478019
1066.37224059
577.459311522
168.584777203
-2.56623975695
-11.1088564378
4498.98671839
4010.41010601
3521.98835859
3033.73432113
2545.66196827
2057.78396602
1570.11401798
1082.6858922
595.538776253
181.755745255
1.33483610163
-9.74894910661
3532.84800275
3045.28325492
2558.03524184
2071.14522823
1584.65773513
1098.63365977
613.124499403
194.253549165
4.25354692724
-9.71341556073
3543.39083008
3056.46914068
2569.99023078
2084.02618003
1598.65714776
1113.9824762
630.055642758
206.418992031
6.9975587567
-9.72979609403
3553.51498084
3067.16561623
2581.3696632
2096.23183509
1611.88223524
1128.49864382
646.265716785
218.880827349
10.2756822872
-9.81366229261
3563.13259659
3077.2625599
2592.03003466
2107.56695682
1624.05772777
1141.80264531
661.28517818
231.721965636
14.2428695189
-10.4824548488
3572.17753412
3086.67716842
2601.85982174
2117.86542349
1634.90177573
1153.34953178
674.082988942
244.37927978
20.777991122
-9.79598374645
3580.61155133
3095.365454
2610.80558653
2127.05271989
1644.26806136
1162.72011789
683.082930799
251.190720641
22.4905452682
-9.65086389094
3588.42470099
3103.32649309
2618.88616239
2135.19618891
1652.3470542
1170.38154032
688.957217723
256.085742843
24.2239380823
-9.6482458735
3595.63088605
3110.59128736
2626.16097932
2142.42119963
1659.4886882
1177.59353738
696.930233948
260.161146545
24.7499474835
-9.65009353125
3602.26406403
3117.21161451
2632.69370175
2148.76063207
1665.50958469
1183.10166207
701.731568473
261.147017746
24.132117651
-9.63651443259
3608.37650367
3123.26624617
2638.59681587
2154.36921338
1670.59045702
1187.21921887
704.174908223
260.227903009
22.8517567774
-9.62651009871
3614.03122802
3128.85375488
2644.02316422
2159.49061307
1675.18194423
1190.89753234
706.410318593
259.75416497
22.0502731554
-9.60866049219
3619.28928495
3134.07157291
2649.12457947
2164.36104296
1679.66244081
1194.75625513
709.455078444
260.922256363
22.1885266846
-9.60083202577
3624.19950226
3138.99673451
2654.01750848
2169.15368578
1684.26736548
1199.08548194
713.474094018
263.598144063
23.1017487357
-9.60448687723
3628.7944888
3143.68143895
2658.77691797
2173.96087501
1689.09287445
1203.93624063
718.411849661
267.012001208
24.0620054025
-9.60654179743
)
;
    }
    sides
    {
        type            calculated;
        value           nonuniform List<scalar> 0();
    }
    bottom
    {
        type            calculated;
        value           nonuniform List<scalar> 0();
    }
    front
    {
        type            calculated;
        value           nonuniform List<scalar> 
164
(
4489.03114869
3999.94949659
3510.92718573
3021.95900689
2533.03459444
2044.13769412
1555.2478019
1066.37224059
577.459311522
168.584777203
-2.56623975695
-11.1088564378
4498.98671839
4010.41010601
3521.98835859
3033.73432113
2545.66196827
2057.78396602
1570.11401798
1082.6858922
595.538776253
181.755745255
1.33483610163
-9.74894910661
3532.84800275
3045.28325492
2558.03524184
2071.14522823
1584.65773513
1098.63365977
613.124499403
194.253549165
4.25354692724
-9.71341556073
3543.39083008
3056.46914068
2569.99023078
2084.02618003
1598.65714776
1113.9824762
630.055642758
206.418992031
6.9975587567
-9.72979609403
3553.51498084
3067.16561623
2581.3696632
2096.23183509
1611.88223524
1128.49864382
646.265716785
218.880827349
10.2756822872
-9.81366229261
3563.13259659
3077.2625599
2592.03003466
2107.56695682
1624.05772777
1141.80264531
661.28517818
231.721965636
14.2428695189
-10.4824548488
3572.17753412
3086.67716842
2601.85982174
2117.86542349
1634.90177573
1153.34953178
674.082988942
244.37927978
20.777991122
-9.79598374645
3580.61155133
3095.365454
2610.80558653
2127.05271989
1644.26806136
1162.72011789
683.082930799
251.190720641
22.4905452682
-9.65086389094
3588.42470099
3103.32649309
2618.88616239
2135.19618891
1652.3470542
1170.38154032
688.957217723
256.085742843
24.2239380823
-9.6482458735
3595.63088605
3110.59128736
2626.16097932
2142.42119963
1659.4886882
1177.59353738
696.930233948
260.161146545
24.7499474835
-9.65009353125
3602.26406403
3117.21161451
2632.69370175
2148.76063207
1665.50958469
1183.10166207
701.731568473
261.147017746
24.132117651
-9.63651443259
3608.37650367
3123.26624617
2638.59681587
2154.36921338
1670.59045702
1187.21921887
704.174908223
260.227903009
22.8517567774
-9.62651009871
3614.03122802
3128.85375488
2644.02316422
2159.49061307
1675.18194423
1190.89753234
706.410318593
259.75416497
22.0502731554
-9.60866049219
3619.28928495
3134.07157291
2649.12457947
2164.36104296
1679.66244081
1194.75625513
709.455078444
260.922256363
22.1885266846
-9.60083202577
3624.19950226
3138.99673451
2654.01750848
2169.15368578
1684.26736548
1199.08548194
713.474094018
263.598144063
23.1017487357
-9.60448687723
3628.7944888
3143.68143895
2658.77691797
2173.96087501
1689.09287445
1203.93624063
718.411849661
267.012001208
24.0620054025
-9.60654179743
)
;
    }
    atmosphere
    {
        type            calculated;
        value           nonuniform List<scalar> 
16
(
-13.6821714086
-9.81
-9.84583997983
-9.81268229099
-9.81050234758
-11.5902180053
-9.80998468134
-9.81
-9.81058079743
-9.81132951449
-9.81205947393
-9.81218898819
-9.8119158932
-9.81173073069
-9.81194347871
-9.81206486964
)
;
    }
    floatingObject
    {
        type            calculated;
        value           nonuniform List<scalar> 0();
    }
    procBoundary5to0
    {
        type            processor;
        value           nonuniform List<scalar> 
12
(
4478.99684811
3989.4059391
3499.7796995
3010.09484224
2520.31798171
2030.40409393
1540.29491178
1049.97739564
559.300185283
156.702567026
-3.80503724616
-9.76694769362
)
;
    }
    procBoundary5to3
    {
        type            processor;
        value           nonuniform List<scalar> 10(3633.0824501 3148.14817672 2663.43170548 2178.815437 1694.17963427 1209.31072584 724.169245703 271.083003361 25.0593438684 -9.59343079787);
    }
    procBoundary5to4
    {
        type            processor;
        value           nonuniform List<scalar> 
18
(
4978.17479295
4987.70657468
4508.77942575
4020.68991913
4020.68991913
4030.69232578
4040.33388646
4049.54169275
4058.25981086
4066.45304661
4074.10617503
4081.22225946
4087.8195389
4093.92866809
4099.58943846
4104.83767955
4109.7023817
4114.19983086
)
;
    }
}


// ************************************************************************* //
