/*--------------------------------*- C++ -*----------------------------------*\
| =========                 |                                                 |
| \\      /  F ield         | OpenFOAM: The Open Source CFD Toolbox           |
|  \\    /   O peration     | Version:  v2012                                 |
|   \\  /    A nd           | Website:  www.openfoam.com                      |
|    \\/     M anipulation  |                                                 |
\*---------------------------------------------------------------------------*/
FoamFile
{
    version     2.0;
    format      ascii;
    class       volScalarField;
    location    "3";
    object      epsilon;
}
// * * * * * * * * * * * * * * * * * * * * * * * * * * * * * * * * * * * * * //

dimensions      [0 2 -3 0 0 0 0];


internalField   nonuniform List<scalar> 
167
(
0.00158713638601
0.00177246210954
0.00189476156313
0.00194169895799
0.0019642228979
0.00197950851305
0.00199298688765
0.00200630957004
0.00178042927679
0.00181900974466
0.00197540352454
0.00203402958946
0.00205945714546
0.00207454709158
0.00208676985845
0.00209852983953
0.00190541872671
0.00197983030914
0.0021614453433
0.00222916793577
0.00225741923172
0.00227326406522
0.00228580150275
0.0022978428675
0.0019538371896
0.00204143615871
0.00223312831257
0.00230436364299
0.00233336806257
0.00234912985893
0.0023614371316
0.00237332866687
0.00238598825152
0.00197659450331
0.00206827514197
0.00226385555177
0.00233619036965
0.00236508818826
0.0023804035137
0.00239225135885
0.00240379370014
0.0024162236326
0.00243101462848
0.00199110319073
0.00208343004819
0.00228051657747
0.00235299939022
0.00238147292794
0.00239621362451
0.00240751904207
0.00241860889682
0.00243066798965
0.00244513880159
0.00200293788565
0.00209488461943
0.00229260831634
0.00236491722294
0.00239288514436
0.00240703982203
0.00241779982447
0.00242839830618
0.00244003111403
0.00245407971916
0.00201397853839
0.00210511081966
0.00230326483658
0.0023753457569
0.00240283661296
0.00241645635146
0.00242668892692
0.00243681456939
0.00244801906981
0.00246162468776
0.00202459013131
0.00211493402367
0.00231347033352
0.00238534351126
0.00241240966618
0.00242556132003
0.00243532878255
0.00244501558681
0.00245579690837
0.00246895837117
0.00203490153571
0.00212456161883
0.00232348159106
0.00239518687651
0.00242188846199
0.00243462194257
0.00244398665506
0.00245327880826
0.00246368378252
0.00247642375416
0.00204496771314
0.0021339581486
0.00233331827312
0.00240490466756
0.00243130018309
0.00244367673974
0.00245267931242
0.00246162917024
0.00247168155209
0.00248403134382
0.00205473236106
0.00214314569784
0.00234296358006
0.00241446304707
0.00244059928232
0.00245267203409
0.00246136230958
0.0024700013142
0.00247974532628
0.00249171661386
0.00206406111968
0.00215208070007
0.00235237933577
0.00242382205484
0.00244973206403
0.00246154212254
0.00246996519026
0.00247833236543
0.002487785162
0.00249940955282
0.00207304718276
0.00216074344429
0.00236152320572
0.00243292786418
0.00245864669645
0.00247022803673
0.00247841665103
0.002486547878
0.00249574313341
0.00250703838519
0.00208163945302
0.00216905697516
0.00237033729099
0.00244173846641
0.00246729421179
0.00247867688694
0.00248665509096
0.00249458024436
0.00250355231049
0.00251454654955
0.00208974020853
0.00217701889258
0.00237879907449
0.0024502133314
0.00247562459653
0.00248683876208
0.00249464926076
0.00250238680494
0.00251115266913
0.00252188101817
0.00209736592757
0.00218461243307
0.00238688132804
0.00245830284674
0.00248361524356
0.00249469141658
0.00250235156492
0.00210460934855
0.00219175509162
0.00239452608434
0.00246601023519
0.00249122570398
0.00240172770996
0.00247327650818
)
;

boundaryField
{
    back
    {
        lowReCorrection 0;
        blending        stepwise;
        n               2;
        type            epsilonWallFunction;
        value           nonuniform List<scalar> 
167
(
0.00158713638601
0.00177246210954
0.00189476156313
0.00194169895799
0.0019642228979
0.00197950851305
0.00199298688765
0.00200630957004
0.00178042927679
0.00181900974466
0.00197540352454
0.00203402958946
0.00205945714546
0.00207454709158
0.00208676985845
0.00209852983953
0.00190541872671
0.00197983030914
0.0021614453433
0.00222916793577
0.00225741923172
0.00227326406522
0.00228580150275
0.0022978428675
0.0019538371896
0.00204143615871
0.00223312831257
0.00230436364299
0.00233336806257
0.00234912985893
0.0023614371316
0.00237332866687
0.00238598825152
0.00197659450331
0.00206827514197
0.00226385555177
0.00233619036965
0.00236508818826
0.0023804035137
0.00239225135885
0.00240379370014
0.0024162236326
0.00243101462848
0.00199110319073
0.00208343004819
0.00228051657747
0.00235299939022
0.00238147292794
0.00239621362451
0.00240751904207
0.00241860889682
0.00243066798965
0.00244513880159
0.00200293788565
0.00209488461943
0.00229260831634
0.00236491722294
0.00239288514436
0.00240703982203
0.00241779982447
0.00242839830618
0.00244003111403
0.00245407971916
0.00201397853839
0.00210511081966
0.00230326483658
0.0023753457569
0.00240283661296
0.00241645635146
0.00242668892692
0.00243681456939
0.00244801906981
0.00246162468776
0.00202459013131
0.00211493402367
0.00231347033352
0.00238534351126
0.00241240966618
0.00242556132003
0.00243532878255
0.00244501558681
0.00245579690837
0.00246895837117
0.00203490153571
0.00212456161883
0.00232348159106
0.00239518687651
0.00242188846199
0.00243462194257
0.00244398665506
0.00245327880826
0.00246368378252
0.00247642375416
0.00204496771314
0.0021339581486
0.00233331827312
0.00240490466756
0.00243130018309
0.00244367673974
0.00245267931242
0.00246162917024
0.00247168155209
0.00248403134382
0.00205473236106
0.00214314569784
0.00234296358006
0.00241446304707
0.00244059928232
0.00245267203409
0.00246136230958
0.0024700013142
0.00247974532628
0.00249171661386
0.00206406111968
0.00215208070007
0.00235237933577
0.00242382205484
0.00244973206403
0.00246154212254
0.00246996519026
0.00247833236543
0.002487785162
0.00249940955282
0.00207304718276
0.00216074344429
0.00236152320572
0.00243292786418
0.00245864669645
0.00247022803673
0.00247841665103
0.002486547878
0.00249574313341
0.00250703838519
0.00208163945302
0.00216905697516
0.00237033729099
0.00244173846641
0.00246729421179
0.00247867688694
0.00248665509096
0.00249458024436
0.00250355231049
0.00251454654955
0.00208974020853
0.00217701889258
0.00237879907449
0.0024502133314
0.00247562459653
0.00248683876208
0.00249464926076
0.00250238680494
0.00251115266913
0.00252188101817
0.00209736592757
0.00218461243307
0.00238688132804
0.00245830284674
0.00248361524356
0.00249469141658
0.00250235156492
0.00210460934855
0.00219175509162
0.00239452608434
0.00246601023519
0.00249122570398
0.00240172770996
0.00247327650818
)
;
    }
    sides
    {
        lowReCorrection 0;
        blending        stepwise;
        n               2;
        type            epsilonWallFunction;
        value           nonuniform List<scalar> 8(0.00158713638601 0.00177246210954 0.00189476156313 0.00194169895799 0.0019642228979 0.00197950851305 0.00199298688765 0.00200630957004);
    }
    bottom
    {
        lowReCorrection 0;
        blending        stepwise;
        n               2;
        type            epsilonWallFunction;
        value           nonuniform List<scalar> 
18
(
0.00158713638601
0.00178042927679
0.00190541872671
0.0019538371896
0.00197659450331
0.00199110319073
0.00200293788565
0.00201397853839
0.00202459013131
0.00203490153571
0.00204496771314
0.00205473236106
0.00206406111968
0.00207304718276
0.00208163945302
0.00208974020853
0.00209736592757
0.00210460934855
)
;
    }
    front
    {
        lowReCorrection 0;
        blending        stepwise;
        n               2;
        type            epsilonWallFunction;
        value           nonuniform List<scalar> 
167
(
0.00158713638601
0.00177246210954
0.00189476156313
0.00194169895799
0.0019642228979
0.00197950851305
0.00199298688765
0.00200630957004
0.00178042927679
0.00181900974466
0.00197540352454
0.00203402958946
0.00205945714546
0.00207454709158
0.00208676985845
0.00209852983953
0.00190541872671
0.00197983030914
0.0021614453433
0.00222916793577
0.00225741923172
0.00227326406522
0.00228580150275
0.0022978428675
0.0019538371896
0.00204143615871
0.00223312831257
0.00230436364299
0.00233336806257
0.00234912985893
0.0023614371316
0.00237332866687
0.00238598825152
0.00197659450331
0.00206827514197
0.00226385555177
0.00233619036965
0.00236508818826
0.0023804035137
0.00239225135885
0.00240379370014
0.0024162236326
0.00243101462848
0.00199110319073
0.00208343004819
0.00228051657747
0.00235299939022
0.00238147292794
0.00239621362451
0.00240751904207
0.00241860889682
0.00243066798965
0.00244513880159
0.00200293788565
0.00209488461943
0.00229260831634
0.00236491722294
0.00239288514436
0.00240703982203
0.00241779982447
0.00242839830618
0.00244003111403
0.00245407971916
0.00201397853839
0.00210511081966
0.00230326483658
0.0023753457569
0.00240283661296
0.00241645635146
0.00242668892692
0.00243681456939
0.00244801906981
0.00246162468776
0.00202459013131
0.00211493402367
0.00231347033352
0.00238534351126
0.00241240966618
0.00242556132003
0.00243532878255
0.00244501558681
0.00245579690837
0.00246895837117
0.00203490153571
0.00212456161883
0.00232348159106
0.00239518687651
0.00242188846199
0.00243462194257
0.00244398665506
0.00245327880826
0.00246368378252
0.00247642375416
0.00204496771314
0.0021339581486
0.00233331827312
0.00240490466756
0.00243130018309
0.00244367673974
0.00245267931242
0.00246162917024
0.00247168155209
0.00248403134382
0.00205473236106
0.00214314569784
0.00234296358006
0.00241446304707
0.00244059928232
0.00245267203409
0.00246136230958
0.0024700013142
0.00247974532628
0.00249171661386
0.00206406111968
0.00215208070007
0.00235237933577
0.00242382205484
0.00244973206403
0.00246154212254
0.00246996519026
0.00247833236543
0.002487785162
0.00249940955282
0.00207304718276
0.00216074344429
0.00236152320572
0.00243292786418
0.00245864669645
0.00247022803673
0.00247841665103
0.002486547878
0.00249574313341
0.00250703838519
0.00208163945302
0.00216905697516
0.00237033729099
0.00244173846641
0.00246729421179
0.00247867688694
0.00248665509096
0.00249458024436
0.00250355231049
0.00251454654955
0.00208974020853
0.00217701889258
0.00237879907449
0.0024502133314
0.00247562459653
0.00248683876208
0.00249464926076
0.00250238680494
0.00251115266913
0.00252188101817
0.00209736592757
0.00218461243307
0.00238688132804
0.00245830284674
0.00248361524356
0.00249469141658
0.00250235156492
0.00210460934855
0.00219175509162
0.00239452608434
0.00246601023519
0.00249122570398
0.00240172770996
0.00247327650818
)
;
    }
    atmosphere
    {
        type            inletOutlet;
        inletValue      nonuniform List<scalar> 0();
        value           nonuniform List<scalar> 0();
    }
    floatingObject
    {
        lowReCorrection 0;
        blending        stepwise;
        n               2;
        type            epsilonWallFunction;
        value           nonuniform List<scalar> 0();
    }
    procBoundary2to0
    {
        type            processor;
        value           nonuniform List<scalar> 
14
(
0.00250991716877
0.00251852097945
0.00252899954803
0.00250217782958
0.00250991716877
0.00250973836783
0.00211128443633
0.00219843748355
0.00250217782958
0.00249843759445
0.00219843748355
0.00240847424848
0.00249843759445
0.00248010280989
)
;
    }
    procBoundary2to1
    {
        type            processor;
        value           nonuniform List<scalar> 
18
(
0.00202015432435
0.00211077951534
0.00231047916301
0.00231047916301
0.00240089706607
0.00240089706607
0.00245213624996
0.00246584156092
0.00247424728005
0.00248118884247
0.00248793825618
0.00249479707796
0.0025018245544
0.00250894487755
0.00251607481385
0.00252315543167
0.00253014808123
0.00253699109713
)
;
    }
}


// ************************************************************************* //
