/*--------------------------------*- C++ -*----------------------------------*\
| =========                 |                                                 |
| \\      /  F ield         | OpenFOAM: The Open Source CFD Toolbox           |
|  \\    /   O peration     | Version:  v2012                                 |
|   \\  /    A nd           | Website:  www.openfoam.com                      |
|    \\/     M anipulation  |                                                 |
\*---------------------------------------------------------------------------*/
FoamFile
{
    version     2.0;
    format      ascii;
    class       volScalarField;
    location    "3";
    object      nut;
}
// * * * * * * * * * * * * * * * * * * * * * * * * * * * * * * * * * * * * * //

dimensions      [0 2 -1 0 0 0 0];


internalField   nonuniform List<scalar> 
167
(
0.000371899673434
0.000451595670547
0.000461785530463
0.000465583326414
0.000467384799623
0.000468597139584
0.000469657332157
0.000470697695875
0.00045225948925
0.000668571278168
0.000687231900954
0.000693987453098
0.000696890627983
0.000698608637264
0.00069999593296
0.000701328224359
0.0004627100309
0.000687888343215
0.000708340253545
0.000715686683922
0.000718719592705
0.000720415212669
0.000721752429315
0.000723032942954
0.000466654315413
0.000695045144882
0.000716186742123
0.000723748329615
0.000726793813369
0.000728442788425
0.000729725530595
0.000730960545056
0.000732273548364
0.000468490517073
0.00069813070768
0.000719512325931
0.000727121946393
0.000730129130029
0.000731717208916
0.000732940945344
0.000734128792965
0.000735406728806
0.000736933692393
0.000469652403891
0.000699860160195
0.000721303155028
0.000728892403979
0.000731842098489
0.000733364425481
0.000734527920085
0.000735665536626
0.000736902019999
0.000738392765208
0.000470594422712
0.000701157848368
0.000722593811785
0.000730139173664
0.000733027608756
0.00073448590436
0.000735591478457
0.00073667767733
0.000737869882596
0.000739317934228
0.000471470208359
0.000702310255094
0.000723725137499
0.000731224314449
0.000734055994598
0.00073545653014
0.00073650687973
0.000737544350289
0.000738693298975
0.000740097685712
0.000472309509152
0.000703413076352
0.000724804766322
0.00073226120408
0.000735042144729
0.000736392261327
0.000737394121781
0.000738386572075
0.000739492834946
0.000740853358683
0.00047312331155
0.000704491272848
0.000725861288955
0.000733280049594
0.000736016812848
0.000737321744825
0.000738281579329
0.000739233609532
0.000740301827298
0.000741620402183
0.000473916213298
0.000705541049871
0.000726897414033
0.000734284308166
0.00073698336102
0.000738249520228
0.00073917148637
0.000740088230203
0.000741120542866
0.000742399709605
0.000474683618388
0.000706564929951
0.000727911484005
0.000735270721591
0.000737937231944
0.000739170235969
0.000740059350108
0.000740943848526
0.000741944334535
0.000743184608774
0.000475414003044
0.000707558153356
0.000728899627045
0.000736235224209
0.000738872980666
0.000740077152133
0.000740938032463
0.000741794070367
0.000742764103986
0.000743967720637
0.000476116204896
0.000708519050925
0.000729857628863
0.000737172410583
0.000739785315063
0.000740964193416
0.000741800102028
0.000742631184616
0.000743573762851
0.000744741843056
0.000476786267477
0.000709438325987
0.000730779588574
0.00073807812283
0.000740669342341
0.000741826033487
0.000742639405803
0.000743448252555
0.00074436642895
0.00074550120091
0.000477415803932
0.000710316560369
0.000731662865906
0.000738948090146
0.00074152012348
0.000742657786039
0.000743452494339
0.000744240939813
0.000745136429852
0.00074624069563
0.000478006221343
0.000711151869947
0.000732504913419
0.000739777533194
0.000742334934945
0.000743456724173
0.000744234807528
0.000478565669101
0.000711936162031
0.000733300468185
0.000740566343864
0.000743110119552
0.000734048594518
0.000741309594967
)
;

boundaryField
{
    back
    {
        type            nutkWallFunction;
        blending        stepwise;
        Cmu             0.09;
        kappa           0.41;
        E               9.8;
        value           nonuniform List<scalar> 
167
(
5.87086692927e-05
6.2921608518e-05
6.42090908283e-05
6.46879328289e-05
6.49148761939e-05
6.50677819088e-05
6.52018127191e-05
6.53335842089e-05
6.30068912266e-05
6.92025775367e-05
7.09560300073e-05
7.15887153891e-05
7.18594932622e-05
7.20192360109e-05
7.21480765486e-05
7.22716048632e-05
6.43203266093e-05
7.10075841285e-05
7.29236476648e-05
7.36096994064e-05
7.389188845e-05
7.4049211579e-05
7.41731808003e-05
7.42918183058e-05
6.4813570857e-05
7.16727461605e-05
7.36511232695e-05
7.43564399042e-05
7.46395318779e-05
7.47924507143e-05
7.491136469e-05
7.50258483015e-05
7.51473518015e-05
6.50426130214e-05
7.19584525827e-05
7.39582953523e-05
7.46677212783e-05
7.49471169138e-05
7.50943271359e-05
7.52077529735e-05
7.53178676346e-05
7.54361084987e-05
7.55765376012e-05
6.51876332123e-05
7.21186144487e-05
7.41236419834e-05
7.48309552687e-05
7.51049143357e-05
7.52459515738e-05
7.53537152023e-05
7.54590782829e-05
7.55733474087e-05
7.57102373145e-05
6.5305331863e-05
7.22390397879e-05
7.42430320248e-05
7.49461191324e-05
7.52143069533e-05
7.53493230952e-05
7.54516085375e-05
7.55520587557e-05
7.56620457644e-05
7.57946978665e-05
6.54147069275e-05
7.23461138196e-05
7.43478322309e-05
7.50465043671e-05
7.53093472094e-05
7.54389226556e-05
7.55359757032e-05
7.56317574726e-05
7.57375215977e-05
7.58658229208e-05
6.55194558024e-05
7.24486118659e-05
7.44478677657e-05
7.51424444594e-05
7.54005043282e-05
7.55253175956e-05
7.56177628697e-05
7.57092249305e-05
7.58108357034e-05
7.59347941018e-05
6.56209084147e-05
7.25487624697e-05
7.45457131568e-05
7.52366481445e-05
7.54905344055e-05
7.56110823947e-05
7.56995288789e-05
7.57871047496e-05
7.58850118078e-05
7.60048418642e-05
6.57196377502e-05
7.26462187496e-05
7.46415893872e-05
7.53294124826e-05
7.55797148504e-05
7.56965978644e-05
7.57814436363e-05
7.58656338852e-05
7.59600646058e-05
7.60760549001e-05
6.58151095937e-05
7.27412287582e-05
7.47353488188e-05
7.54204301061e-05
7.56676233007e-05
7.57813633851e-05
7.58630899074e-05
7.59441981558e-05
7.60355680826e-05
7.61478233697e-05
6.59060088763e-05
7.28333620147e-05
7.48266384559e-05
7.55093338553e-05
7.57537627153e-05
7.58647655293e-05
7.59438099945e-05
7.60222095703e-05
7.61106818788e-05
7.621948682e-05
6.59933213187e-05
7.29224467806e-05
7.49150699213e-05
7.55956300587e-05
7.58376564253e-05
7.59462580079e-05
7.60229382515e-05
7.60989730559e-05
7.61848637958e-05
7.62903809511e-05
6.60765776505e-05
7.30076954409e-05
7.50001061585e-05
7.56789409354e-05
7.59188604537e-05
7.60253582979e-05
7.60999110923e-05
7.61738637803e-05
7.6257494334e-05
7.63599840374e-05
6.61548361089e-05
7.30891262348e-05
7.50815437293e-05
7.57588988489e-05
7.59969254155e-05
7.61016180279e-05
7.61744421506e-05
7.62464945293e-05
7.63280338575e-05
7.64278176638e-05
6.62282897162e-05
7.31665892772e-05
7.51591482771e-05
7.58350626659e-05
7.60716468619e-05
7.61748336746e-05
7.62461077742e-05
6.62978871518e-05
7.32392897809e-05
7.52324032439e-05
7.59074717096e-05
7.61426753331e-05
7.53012683087e-05
7.5975617806e-05
)
;
    }
    sides
    {
        type            nutkWallFunction;
        blending        stepwise;
        Cmu             0.09;
        kappa           0.41;
        E               9.8;
        value           nonuniform List<scalar> 8(3.11996435079e-05 3.34501099063e-05 3.4137653865e-05 3.43933427346e-05 3.4514520082e-05 3.45961631467e-05 3.46677270336e-05 3.47380836442e-05);
    }
    bottom
    {
        type            nutkWallFunction;
        blending        stepwise;
        Cmu             0.09;
        kappa           0.41;
        E               9.8;
        value           nonuniform List<scalar> 
18
(
3.11996435079e-05
3.34956556113e-05
3.41970519261e-05
3.44604280242e-05
3.45827244612e-05
3.46601561289e-05
3.4722998978e-05
3.47813969463e-05
3.48373242791e-05
3.48914911171e-05
3.49442034346e-05
3.49951760584e-05
3.50437069307e-05
3.50903223852e-05
3.51347719358e-05
3.5176552847e-05
3.52157682317e-05
3.52529246216e-05
)
;
    }
    front
    {
        type            nutkWallFunction;
        blending        stepwise;
        Cmu             0.09;
        kappa           0.41;
        E               9.8;
        value           nonuniform List<scalar> 
167
(
5.87086692927e-05
6.2921608518e-05
6.42090908283e-05
6.46879328289e-05
6.49148761939e-05
6.50677819088e-05
6.52018127191e-05
6.53335842089e-05
6.30068912266e-05
6.92025775367e-05
7.09560300073e-05
7.15887153891e-05
7.18594932622e-05
7.20192360109e-05
7.21480765486e-05
7.22716048632e-05
6.43203266093e-05
7.10075841285e-05
7.29236476648e-05
7.36096994064e-05
7.389188845e-05
7.4049211579e-05
7.41731808003e-05
7.42918183058e-05
6.4813570857e-05
7.16727461605e-05
7.36511232695e-05
7.43564399042e-05
7.46395318779e-05
7.47924507143e-05
7.491136469e-05
7.50258483015e-05
7.51473518015e-05
6.50426130214e-05
7.19584525827e-05
7.39582953523e-05
7.46677212783e-05
7.49471169138e-05
7.50943271359e-05
7.52077529735e-05
7.53178676346e-05
7.54361084987e-05
7.55765376012e-05
6.51876332123e-05
7.21186144487e-05
7.41236419834e-05
7.48309552687e-05
7.51049143357e-05
7.52459515738e-05
7.53537152023e-05
7.54590782829e-05
7.55733474087e-05
7.57102373145e-05
6.5305331863e-05
7.22390397879e-05
7.42430320248e-05
7.49461191324e-05
7.52143069533e-05
7.53493230952e-05
7.54516085375e-05
7.55520587557e-05
7.56620457644e-05
7.57946978665e-05
6.54147069275e-05
7.23461138196e-05
7.43478322309e-05
7.50465043671e-05
7.53093472094e-05
7.54389226556e-05
7.55359757032e-05
7.56317574726e-05
7.57375215977e-05
7.58658229208e-05
6.55194558024e-05
7.24486118659e-05
7.44478677657e-05
7.51424444594e-05
7.54005043282e-05
7.55253175956e-05
7.56177628697e-05
7.57092249305e-05
7.58108357034e-05
7.59347941018e-05
6.56209084147e-05
7.25487624697e-05
7.45457131568e-05
7.52366481445e-05
7.54905344055e-05
7.56110823947e-05
7.56995288789e-05
7.57871047496e-05
7.58850118078e-05
7.60048418642e-05
6.57196377502e-05
7.26462187496e-05
7.46415893872e-05
7.53294124826e-05
7.55797148504e-05
7.56965978644e-05
7.57814436363e-05
7.58656338852e-05
7.59600646058e-05
7.60760549001e-05
6.58151095937e-05
7.27412287582e-05
7.47353488188e-05
7.54204301061e-05
7.56676233007e-05
7.57813633851e-05
7.58630899074e-05
7.59441981558e-05
7.60355680826e-05
7.61478233697e-05
6.59060088763e-05
7.28333620147e-05
7.48266384559e-05
7.55093338553e-05
7.57537627153e-05
7.58647655293e-05
7.59438099945e-05
7.60222095703e-05
7.61106818788e-05
7.621948682e-05
6.59933213187e-05
7.29224467806e-05
7.49150699213e-05
7.55956300587e-05
7.58376564253e-05
7.59462580079e-05
7.60229382515e-05
7.60989730559e-05
7.61848637958e-05
7.62903809511e-05
6.60765776505e-05
7.30076954409e-05
7.50001061585e-05
7.56789409354e-05
7.59188604537e-05
7.60253582979e-05
7.60999110923e-05
7.61738637803e-05
7.6257494334e-05
7.63599840374e-05
6.61548361089e-05
7.30891262348e-05
7.50815437293e-05
7.57588988489e-05
7.59969254155e-05
7.61016180279e-05
7.61744421506e-05
7.62464945293e-05
7.63280338575e-05
7.64278176638e-05
6.62282897162e-05
7.31665892772e-05
7.51591482771e-05
7.58350626659e-05
7.60716468619e-05
7.61748336746e-05
7.62461077742e-05
6.62978871518e-05
7.32392897809e-05
7.52324032439e-05
7.59074717096e-05
7.61426753331e-05
7.53012683087e-05
7.5975617806e-05
)
;
    }
    atmosphere
    {
        type            calculated;
        value           nonuniform List<scalar> 0();
    }
    floatingObject
    {
        type            nutkWallFunction;
        blending        stepwise;
        Cmu             0.09;
        kappa           0.41;
        E               9.8;
        value           nonuniform List<scalar> 0();
    }
    procBoundary2to0
    {
        type            processor;
        value           nonuniform List<scalar> 
14
(
0.00074500467001
0.00074588093088
0.000746956301624
0.000744217825539
0.00074500467001
0.000744983832117
0.000479078749786
0.000712668447515
0.000744217825539
0.000743844054751
0.000712668447515
0.000734748494199
0.000743844054751
0.0007420069412
)
;
    }
    procBoundary2to1
    {
        type            processor;
        value           nonuniform List<scalar> 
18
(
0.000471771767426
0.000702715105829
0.000724375806818
0.000724375806818
0.00073382566741
0.00073382566741
0.000739131145199
0.000740544826265
0.000741418214181
0.000742140293097
0.000742840234014
0.000743547997531
0.00074426933879
0.000744996020887
0.000745719445442
0.000746433600764
0.000747134807396
0.00074781814821
)
;
    }
}


// ************************************************************************* //
