/*--------------------------------*- C++ -*----------------------------------*\
| =========                 |                                                 |
| \\      /  F ield         | OpenFOAM: The Open Source CFD Toolbox           |
|  \\    /   O peration     | Version:  v2012                                 |
|   \\  /    A nd           | Website:  www.openfoam.com                      |
|    \\/     M anipulation  |                                                 |
\*---------------------------------------------------------------------------*/
FoamFile
{
    version     2.0;
    format      ascii;
    class       volScalarField;
    location    "4.6";
    object      p;
}
// * * * * * * * * * * * * * * * * * * * * * * * * * * * * * * * * * * * * * //

dimensions      [1 -1 -2 0 0 0 0];


internalField   nonuniform List<scalar> 
164
(
8296.4411769
7806.57902491
7316.5099811
6826.22581835
6335.70820095
5844.92082845
5353.83929444
4862.31720544
4369.87369314
3876.7946328
3384.06330224
2889.79306392
2396.69406728
1903.49712418
8297.08144138
7807.1999055
7317.08612018
6826.71765353
6336.08792172
5845.20684485
5354.03586384
4862.45621304
4370.09479884
3877.39525182
3384.53523664
2891.59719775
2398.23227871
1904.89267818
8297.96774636
7808.0692422
7317.92123816
6827.50553398
6336.81779169
5845.84659061
5354.53430986
4862.81421998
4370.61809378
3878.09073126
3385.29451336
2892.33696122
2399.39592552
1906.00490078
8299.11700872
7809.20314607
7319.02554275
6828.56550155
6337.81495196
5846.76023178
5355.3731885
4863.63070423
4371.52844755
3879.11046223
3386.46953954
2893.5288928
2400.52967777
1907.33677179
8300.54301143
7810.61646982
7320.41330886
6829.91574865
6339.11628799
5848.00534312
5356.57012759
4864.80250019
4372.70573909
3880.30630149
3387.65355356
2894.76789318
2401.72413976
1908.54548358
8302.25832531
7812.32135741
7322.09654232
6831.56798179
6340.72956912
5849.57551256
5358.10025967
4866.3017019
4374.18489664
3881.76824089
3389.07977273
2896.15075308
2403.02478913
1909.73679002
8304.27387603
7814.32778126
7324.08469808
6833.52990019
6342.65854258
5851.46719218
5359.95297314
4868.11613397
4375.96074134
3883.49857637
3390.74729512
2897.72884931
2404.47400984
1911.01211878
8306.59851417
7816.64456574
7326.38579621
6835.80796296
6344.90720825
5853.68104228
5362.12760349
4870.24638642
4378.04007491
3885.5150488
3392.67930846
2899.54566564
2406.13280117
1912.44787493
8309.23943433
7819.2796977
7329.00695231
6838.40855671
6347.48085957
5856.22163532
5364.62881402
4872.70065032
4380.43720575
3887.83976612
3394.90871879
2901.64732066
2408.05809735
1914.13551146
8312.20428434
7822.23903805
7331.95440874
6841.33778787
6350.38555895
5859.09529692
5367.46427062
4875.48921785
4383.1670428
3890.49431449
3397.46668306
2904.07900202
2410.32061218
1916.1795337
8315.49793648
7825.52901331
7335.23404209
6844.60161988
6353.62769384
5862.30925268
5370.6426518
4878.62303144
4386.24434612
3893.49942775
3400.38046492
2906.87406064
2412.96177077
1918.61956058
4389.68320903
3896.87375284
3403.67227738
2910.06302027
2416.02064769
1921.51614164
2913.66683465
2419.52195526
1924.89703462
1928.76843634
)
;

boundaryField
{
    back
    {
        type            calculated;
        value           nonuniform List<scalar> 
164
(
8296.4411769
7806.57902491
7316.5099811
6826.22581835
6335.70820095
5844.92082845
5353.83929444
4862.31720544
4369.87369314
3876.7946328
3384.06330224
2889.79306392
2396.69406728
1903.49712418
8297.08144138
7807.1999055
7317.08612018
6826.71765353
6336.08792172
5845.20684485
5354.03586384
4862.45621304
4370.09479884
3877.39525182
3384.53523664
2891.59719775
2398.23227871
1904.89267818
8297.96774636
7808.0692422
7317.92123816
6827.50553398
6336.81779169
5845.84659061
5354.53430986
4862.81421998
4370.61809378
3878.09073126
3385.29451336
2892.33696122
2399.39592552
1906.00490078
8299.11700872
7809.20314607
7319.02554275
6828.56550155
6337.81495196
5846.76023178
5355.3731885
4863.63070423
4371.52844755
3879.11046223
3386.46953954
2893.5288928
2400.52967777
1907.33677179
8300.54301143
7810.61646982
7320.41330886
6829.91574865
6339.11628799
5848.00534312
5356.57012759
4864.80250019
4372.70573909
3880.30630149
3387.65355356
2894.76789318
2401.72413976
1908.54548358
8302.25832531
7812.32135741
7322.09654232
6831.56798179
6340.72956912
5849.57551256
5358.10025967
4866.3017019
4374.18489664
3881.76824089
3389.07977273
2896.15075308
2403.02478913
1909.73679002
8304.27387603
7814.32778126
7324.08469808
6833.52990019
6342.65854258
5851.46719218
5359.95297314
4868.11613397
4375.96074134
3883.49857637
3390.74729512
2897.72884931
2404.47400984
1911.01211878
8306.59851417
7816.64456574
7326.38579621
6835.80796296
6344.90720825
5853.68104228
5362.12760349
4870.24638642
4378.04007491
3885.5150488
3392.67930846
2899.54566564
2406.13280117
1912.44787493
8309.23943433
7819.2796977
7329.00695231
6838.40855671
6347.48085957
5856.22163532
5364.62881402
4872.70065032
4380.43720575
3887.83976612
3394.90871879
2901.64732066
2408.05809735
1914.13551146
8312.20428434
7822.23903805
7331.95440874
6841.33778787
6350.38555895
5859.09529692
5367.46427062
4875.48921785
4383.1670428
3890.49431449
3397.46668306
2904.07900202
2410.32061218
1916.1795337
8315.49793648
7825.52901331
7335.23404209
6844.60161988
6353.62769384
5862.30925268
5370.6426518
4878.62303144
4386.24434612
3893.49942775
3400.38046492
2906.87406064
2412.96177077
1918.61956058
4389.68320903
3896.87375284
3403.67227738
2910.06302027
2416.02064769
1921.51614164
2913.66683465
2419.52195526
1924.89703462
1928.76843634
)
;
    }
    sides
    {
        type            calculated;
        value           nonuniform List<scalar> 0();
    }
    bottom
    {
        type            calculated;
        value           nonuniform List<scalar> 
11
(
8541.24924677
8541.89018249
8542.77701589
8543.92669388
8545.35296317
8547.06850746
8549.08416079
8551.40872249
8554.04938417
8557.01388206
8560.30722004
)
;
    }
    front
    {
        type            calculated;
        value           nonuniform List<scalar> 
164
(
8296.4411769
7806.57902491
7316.5099811
6826.22581835
6335.70820095
5844.92082845
5353.83929444
4862.31720544
4369.87369314
3876.7946328
3384.06330224
2889.79306392
2396.69406728
1903.49712418
8297.08144138
7807.1999055
7317.08612018
6826.71765353
6336.08792172
5845.20684485
5354.03586384
4862.45621304
4370.09479884
3877.39525182
3384.53523664
2891.59719775
2398.23227871
1904.89267818
8297.96774636
7808.0692422
7317.92123816
6827.50553398
6336.81779169
5845.84659061
5354.53430986
4862.81421998
4370.61809378
3878.09073126
3385.29451336
2892.33696122
2399.39592552
1906.00490078
8299.11700872
7809.20314607
7319.02554275
6828.56550155
6337.81495196
5846.76023178
5355.3731885
4863.63070423
4371.52844755
3879.11046223
3386.46953954
2893.5288928
2400.52967777
1907.33677179
8300.54301143
7810.61646982
7320.41330886
6829.91574865
6339.11628799
5848.00534312
5356.57012759
4864.80250019
4372.70573909
3880.30630149
3387.65355356
2894.76789318
2401.72413976
1908.54548358
8302.25832531
7812.32135741
7322.09654232
6831.56798179
6340.72956912
5849.57551256
5358.10025967
4866.3017019
4374.18489664
3881.76824089
3389.07977273
2896.15075308
2403.02478913
1909.73679002
8304.27387603
7814.32778126
7324.08469808
6833.52990019
6342.65854258
5851.46719218
5359.95297314
4868.11613397
4375.96074134
3883.49857637
3390.74729512
2897.72884931
2404.47400984
1911.01211878
8306.59851417
7816.64456574
7326.38579621
6835.80796296
6344.90720825
5853.68104228
5362.12760349
4870.24638642
4378.04007491
3885.5150488
3392.67930846
2899.54566564
2406.13280117
1912.44787493
8309.23943433
7819.2796977
7329.00695231
6838.40855671
6347.48085957
5856.22163532
5364.62881402
4872.70065032
4380.43720575
3887.83976612
3394.90871879
2901.64732066
2408.05809735
1914.13551146
8312.20428434
7822.23903805
7331.95440874
6841.33778787
6350.38555895
5859.09529692
5367.46427062
4875.48921785
4383.1670428
3890.49431449
3397.46668306
2904.07900202
2410.32061218
1916.1795337
8315.49793648
7825.52901331
7335.23404209
6844.60161988
6353.62769384
5862.30925268
5370.6426518
4878.62303144
4386.24434612
3893.49942775
3400.38046492
2906.87406064
2412.96177077
1918.61956058
4389.68320903
3896.87375284
3403.67227738
2910.06302027
2416.02064769
1921.51614164
2913.66683465
2419.52195526
1924.89703462
1928.76843634
)
;
    }
    atmosphere
    {
        type            calculated;
        value           nonuniform List<scalar> 0();
    }
    floatingObject
    {
        type            calculated;
        value           nonuniform List<scalar> 4(4369.87369314 3876.7946328 3384.06330224 2889.79306392);
    }
    procBoundary8to3
    {
        type            processor;
        value           nonuniform List<scalar> 8(8296.0270025 7806.17994662 7316.14358526 6825.91362553 6335.53664351 5845.02387375 5354.74466165 4864.07490663);
    }
    procBoundary8to6
    {
        type            processor;
        value           nonuniform List<scalar> 
16
(
2394.1217735
1901.84496886
1411.23906212
1412.49300638
1413.59966043
1414.4707384
1415.4072605
1416.37029347
1417.38089345
1418.5084046
1419.84422078
1421.63933902
1423.80577877
1426.50018011
1429.74514973
1433.53276772
)
;
    }
    procBoundary8to7
    {
        type            processor;
        value           nonuniform List<scalar> 
17
(
8319.12600638
7829.15415706
7338.8509974
6848.20565826
6357.21355288
5865.87086861
5374.17282398
4882.11314433
4882.11314433
4393.49689035
3900.63162822
3407.36115233
3407.36115233
2917.69833403
2423.4786674
2423.4786674
1933.12829206
)
;
    }
}


// ************************************************************************* //
