/*--------------------------------*- C++ -*----------------------------------*\
| =========                 |                                                 |
| \\      /  F ield         | OpenFOAM: The Open Source CFD Toolbox           |
|  \\    /   O peration     | Version:  v2012                                 |
|   \\  /    A nd           | Website:  www.openfoam.com                      |
|    \\/     M anipulation  |                                                 |
\*---------------------------------------------------------------------------*/
FoamFile
{
    version     2.0;
    format      ascii;
    class       volVectorField;
    location    "4.6";
    object      U_0;
}
// * * * * * * * * * * * * * * * * * * * * * * * * * * * * * * * * * * * * * //

dimensions      [0 1 -1 0 0 0 0];


internalField   nonuniform List<vector> 
164
(
(0.00214212089061 -0.000623608057332 3.22007901524e-21)
(0.00164859867735 -0.00128402433867 1.03780152011e-20)
(0.0010734658687 -0.00204133741244 4.55031730953e-20)
(0.000414734383708 -0.00287104885393 1.91512944691e-19)
(-0.000525997015673 -0.00382585006891 7.26265467337e-19)
(-0.00185314181188 -0.00496546406581 2.42419777696e-18)
(-0.00222129522364 -0.00614576067344 6.55447390843e-18)
(0.000213142061058 -0.00712816811097 1.30292168759e-17)
(-0.00142479664894 -0.00623824045861 2.00679082608e-17)
(-0.00469039543743 -0.00377077963741 1.958902494e-17)
(0.00103894115564 0.00929084540583 1.24429912466e-17)
(0.0211120905695 -0.00594209048214 1.29074279368e-17)
(0.0317481184089 -0.00863914781048 6.74821611971e-18)
(0.00920912056121 -0.0049654140375 4.68637023341e-18)
(0.00304748274489 -0.000626266091197 2.07995721688e-21)
(0.00248646893812 -0.00131988853915 4.72670526095e-21)
(0.00192123965737 -0.00209479659415 2.08034635395e-20)
(0.00152165901255 -0.00285612478794 9.21292113229e-20)
(0.00126405465688 -0.00365848470893 3.62631674418e-19)
(0.00111339302354 -0.00487776029686 1.2537648586e-18)
(0.00121956151156 -0.00708456601311 3.37491128863e-18)
(0.000583591874699 -0.00884212132329 6.38565087858e-18)
(-0.0025479948113 -0.00955478788231 8.73444406532e-18)
(-0.00636546453728 -0.0107500600347 8.56274024358e-18)
(-0.00249753509216 -0.0126187424748 7.11570246579e-18)
(0.00702452498468 -0.0130438747786 8.49178062799e-18)
(0.0246379270225 -0.00680659350051 6.92845359685e-18)
(0.0080932903892 0.000102120124501 4.44551131765e-18)
(0.00395358374832 -0.000624912264074 1.76610155629e-21)
(0.0033275686155 -0.00133404014863 1.98706676883e-21)
(0.00270642415886 -0.00212370101586 7.53670121768e-21)
(0.00230810886247 -0.00289200326509 3.39443233931e-20)
(0.00208212210602 -0.00367004177712 1.35322965436e-19)
(0.00193628876195 -0.0045986705668 4.63217046188e-19)
(0.00185550908104 -0.00574915697633 1.23953414827e-18)
(0.00167439677086 -0.00674225336659 2.44587017344e-18)
(-0.000123732664932 -0.00798724911282 3.42776344422e-18)
(-0.00195838733878 -0.0103863604419 3.49101567927e-18)
(0.001266944825 -0.0140050940421 3.61218074336e-18)
(0.0091286727788 -0.0141873035611 4.59886897062e-18)
(0.014509485291 -0.00750075182987 4.22691725077e-18)
(0.00547739120094 0.000280207163862 2.79313167603e-18)
(0.00487413243929 -0.000632022729527 1.71171094518e-21)
(0.00417892642821 -0.00135672248137 9.77747250338e-22)
(0.00348621835781 -0.00216609334933 2.33968397436e-21)
(0.00305983721935 -0.00294113595822 1.03330770898e-20)
(0.00285874687793 -0.00367044997759 4.08688810656e-20)
(0.00279399936769 -0.00441632349045 1.38597582188e-19)
(0.00272075000226 -0.00515542218545 3.70096625132e-19)
(0.00246353173827 -0.00575690604624 7.32830122056e-19)
(0.0012957151736 -0.00672176804449 1.04886629094e-18)
(0.000144077022798 -0.00867577134602 1.1482831886e-18)
(0.00160743439998 -0.0110278293308 1.3084201522e-18)
(0.00598607033467 -0.0108584984368 1.73958987024e-18)
(0.00822689224018 -0.00606349630602 1.56147547887e-18)
(0.0029618841347 -0.00101209183228 1.1037010073e-18)
(0.00581081705588 -0.000643852798128 1.47977581202e-21)
(0.00504713084346 -0.00138596104332 5.47035919978e-22)
(0.00428087295615 -0.00220989131059 6.61653707719e-22)
(0.00380739682816 -0.0030001167464 2.73466994958e-21)
(0.003577760628 -0.00371912501442 1.06742554377e-20)
(0.00347186389845 -0.00439912172844 3.51950560678e-20)
(0.00337945399436 -0.00503841703219 9.33852941768e-20)
(0.00316846323566 -0.00558031318097 1.8678964454e-19)
(0.00252508135514 -0.0062821130612 2.71841982997e-19)
(0.00193575670881 -0.00749713875914 3.04643619449e-19)
(0.00247154783221 -0.00869454186168 3.46025823014e-19)
(0.00413833713149 -0.00824358340357 4.34505083004e-19)
(0.00449167980559 -0.00548695726565 4.14763609118e-19)
(0.00119742490752 -0.00255251032104 3.13348684763e-19)
(0.0067629900527 -0.000651204547236 1.38573597848e-21)
(0.00593317719548 -0.00141992491156 4.42014698501e-22)
(0.00509194812532 -0.00226669469562 2.20273608792e-22)
(0.00456203829522 -0.00307772688563 6.86231923439e-22)
(0.00429341828062 -0.00382701125488 2.60184861679e-21)
(0.00413402565704 -0.00452900772808 7.92859442147e-21)
(0.00397413649673 -0.00517912659473 2.04604862798e-20)
(0.00374436953232 -0.00575977917738 4.06377402035e-20)
(0.00330147877982 -0.00638425669971 5.92873152409e-20)
(0.00282903584759 -0.00720162181998 6.63183436276e-20)
(0.0027564618088 -0.00783284687599 7.19287589519e-20)
(0.00295639786421 -0.00749774766784 8.35721554787e-20)
(0.00232062379166 -0.00598816141445 8.23224484784e-20)
(4.3902065832e-05 -0.00436461777403 6.8741923718e-20)
(0.0077428544083 -0.000654917695648 1.50235798159e-21)
(0.0068443300035 -0.00145479532069 4.83247771694e-22)
(0.00593006483744 -0.00233054354405 2.2983735782e-22)
(0.00534777101294 -0.00317045480467 3.48535441166e-22)
(0.00503332481479 -0.00395887163454 7.52670298453e-22)
(0.00483243526504 -0.00472457441123 1.73081751557e-21)
(0.00462098543453 -0.0054438408657 4.21685515835e-21)
(0.00434216844218 -0.00610278968896 8.07322617575e-21)
(0.00392235151897 -0.00675158629506 1.16786405818e-20)
(0.00341220706805 -0.00743916592475 1.30611413281e-20)
(0.00295888040958 -0.00797064006151 1.36646932279e-20)
(0.00240188825579 -0.00795646584961 1.58223298509e-20)
(0.00124484953885 -0.00732810558524 1.41949272717e-20)
(-0.000552182999568 -0.00660378561752 5.37436815282e-21)
(0.00874544620789 -0.000651784585469 1.25706596122e-21)
(0.00778094578756 -0.00148241803665 3.1262411532e-22)
(0.00680193264925 -0.00238882168008 1.12259254947e-22)
(0.0061776420254 -0.00326847363622 1.90753003583e-22)
(0.00582775964422 -0.00410435368327 3.49229087364e-22)
(0.00559370016901 -0.00492903012259 5.0940092676e-22)
(0.00535812225725 -0.00573524710477 9.84842470023e-22)
(0.00504421240091 -0.00650243574702 1.70374651728e-21)
(0.0045987499088 -0.00724387887344 2.48676735039e-21)
(0.00401835196864 -0.00798077863142 2.73701682345e-21)
(0.00332418435724 -0.00862572401014 2.53969807684e-21)
(0.00237649699572 -0.00901271432153 2.17370973658e-21)
(0.00099588534114 -0.00916641975003 -5.28218879226e-22)
(-0.000527030715979 -0.00932475444695 -1.07115046462e-20)
(0.00975795947156 -0.000647951103942 4.50760927711e-22)
(0.00874029177639 -0.00150559626146 -1.64121646058e-22)
(0.00770831600174 -0.00244123865201 -1.78653396972e-22)
(0.00705311137267 -0.0033641858056 3.44817147513e-23)
(0.0066879740556 -0.00425660632491 2.19599212014e-22)
(0.00644015015806 -0.00514826390437 2.71260843681e-22)
(0.00619145997058 -0.0060432406696 3.40971680577e-22)
(0.00586780599563 -0.00693473958296 4.55722214265e-22)
(0.00541581757011 -0.00782709197326 6.3964175476e-22)
(0.00481366864232 -0.00873574452555 6.48716548649e-22)
(0.00402860018291 -0.00963758166675 3.80095319411e-22)
(0.00297399868285 -0.0104890484897 -3.63189359325e-22)
(0.00161334489382 -0.0113241446395 -3.90727517927e-21)
(0.000274380133653 -0.0121863468282 -1.69847597861e-20)
(0.0107771647169 -0.000644349925837 -1.34249280976e-22)
(0.00972347456527 -0.00152462510836 -4.22769346275e-22)
(0.00865156035898 -0.00248928456292 -3.14246192078e-22)
(0.00797797034403 -0.00345623139148 -2.35064112936e-23)
(0.0076135742214 -0.00440656088056 1.80889796054e-22)
(0.00737395345014 -0.00536943758129 2.18053560962e-22)
(0.00713569652967 -0.0063552395248 2.15281181926e-22)
(0.0068321172404 -0.00737226138216 2.30790435124e-22)
(0.00641674836328 -0.00842664704977 2.60725756289e-22)
(0.00584965025267 -0.00953151646169 1.69387685786e-22)
(0.00509227371742 -0.0107013429457 5.84463084728e-23)
(0.00408717224437 -0.0119528045663 -6.27196801511e-22)
(0.00283135108899 -0.013304054223 -4.03500565877e-21)
(0.00154170058563 -0.014659676988 -1.75157236865e-20)
(0.0118017364916 -0.00063659180359 -2.20514404724e-22)
(0.0107298606232 -0.00154120046917 -4.65756920053e-22)
(0.00963184439108 -0.00253215510975 -2.35462524614e-22)
(0.00895237987729 -0.00353830024454 2.01216989767e-23)
(0.00860066719756 -0.00454019289582 1.85152500003e-22)
(0.00838556753874 -0.00556690856264 1.97246877389e-22)
(0.00818292712808 -0.00663151246727 1.67783783908e-22)
(0.00793001345053 -0.00775342885176 1.59569406178e-22)
(0.00759121111327 -0.00895233919402 1.59689462502e-22)
(0.00711567467433 -0.0102346832381 9.61805970038e-23)
(0.0064510490909 -0.0116362940291 -2.00235979721e-22)
(0.00555823666542 -0.0132022179515 -9.5679889956e-22)
(0.00439389593818 -0.0149396958346 -4.3315659062e-21)
(0.00307036101038 -0.0167276632254 -1.56551133802e-20)
(0.00888995204186 -0.00933422202856 1.05947276236e-22)
(0.00855692869616 -0.0107672979629 8.1224381983e-23)
(0.00806639856988 -0.0123776432128 -5.75542997863e-23)
(0.00736599815675 -0.0142330937326 -8.16338049186e-22)
(0.00637675603993 -0.0163994221014 -3.65895506402e-21)
(0.00509322333858 -0.0187947239919 -1.26112272327e-20)
(0.00954363610179 -0.0149032363899 -6.00253201247e-22)
(0.00890586068866 -0.0174059210056 -2.45825161436e-21)
(0.0077722341322 -0.0203270827791 -7.91594379645e-21)
(0.0108879093366 -0.020667139832 -4.91214712044e-21)
)
;

boundaryField
{
    back
    {
        type            noSlip;
    }
    sides
    {
        type            noSlip;
    }
    bottom
    {
        type            noSlip;
    }
    front
    {
        type            noSlip;
    }
    atmosphere
    {
        type            pressureInletOutletVelocity;
        value           nonuniform List<vector> 0();
    }
    floatingObject
    {
        type            movingWallVelocity;
        value           nonuniform List<vector> 4((0 -1.66533453694e-15 2.08166817117e-16) (0 -1.66533453694e-15 2.08166817117e-16) (0 0 0) (0 -3.33066907388e-15 2.08166817117e-16));
    }
    procBoundary8to3
    {
        type            processor;
        value           nonuniform List<vector> 8((0.00129502902813 -0.000602107159172 5.18036048452e-21) (0.000946335269745 -0.00114576008458 1.84055054781e-20) (0.000523883228692 -0.00162097937183 7.90609350411e-20) (1.14094007714e-06 -0.00186394669973 3.06305207355e-19) (-0.000824390363907 -0.00177570018053 1.04497156359e-18) (-0.00206293885469 -0.00140545307469 3.09173779861e-18) (-0.00241542838125 0.000707044915731 7.04829027599e-18) (0.000529774902508 -0.00165738704426 1.21991283521e-17));
    }
    procBoundary8to6
    {
        type            processor;
        value           nonuniform List<vector> 
16
(
(0.0310504718188 -0.0145388504469 4.73438196902e-18)
(0.0062633646434 -0.0121698513197 3.60160433639e-18)
(-0.00736389979043 -0.00701560146778 2.49052055636e-18)
(-0.0068331567157 -0.0021948935491 2.05039802202e-18)
(-0.00611833880977 -0.000376574073656 1.09314592683e-18)
(-0.00519454917603 -0.00051344128323 4.08860301178e-19)
(-0.00416448115627 -0.00190946424887 1.03194437292e-19)
(-0.00327343612414 -0.00379763405258 1.01697473019e-20)
(-0.00246238300605 -0.0063688179302 -2.0140999201e-20)
(-0.00160651949578 -0.00970969352484 -4.02086003782e-20)
(-0.000507733308222 -0.0130281202351 -5.27299947145e-20)
(0.000654136917735 -0.0158051637821 -5.4943929899e-20)
(0.00196233586219 -0.0183307490287 -4.41214669529e-20)
(0.0036840092673 -0.0210742002023 -3.38460153622e-20)
(0.00595639040107 -0.023266310239 -1.95169241879e-20)
(0.00865191624881 -0.0239476432043 -1.13721770672e-20)
)
;
    }
    procBoundary8to7
    {
        type            processor;
        value           nonuniform List<vector> 
17
(
(0.0128321595383 -0.00062525056832 -2.76323241474e-22)
(0.0117557106459 -0.00155241096218 -3.23617839624e-22)
(0.0106451766204 -0.00256619166362 -1.66193822976e-22)
(0.00997201714882 -0.00360306663024 4.81395118928e-23)
(0.00964138316901 -0.00464588062556 1.59625084874e-22)
(0.00946115338319 -0.00572204785928 1.64005830468e-22)
(0.00931054430279 -0.00684566975411 1.40058380022e-22)
(0.00913051097399 -0.00803864245713 1.24109166185e-22)
(0.00913051097399 -0.00803864245713 1.24109166185e-22)
(0.0102870680546 -0.0095755361826 5.08627799678e-23)
(0.0101279572789 -0.0110974961975 2.84434743214e-23)
(0.00990564419086 -0.0128415244004 -7.67685336348e-23)
(0.00990564419086 -0.0128415244004 -7.67685336348e-23)
(0.0118951485407 -0.0150772652416 -6.34789503515e-22)
(0.011740247694 -0.0176199257918 -2.07244319584e-21)
(0.011740247694 -0.0176199257918 -2.07244319584e-21)
(0.0140170880868 -0.0197100434214 -3.84275550873e-21)
)
;
    }
}


// ************************************************************************* //
