/*--------------------------------*- C++ -*----------------------------------*\
| =========                 |                                                 |
| \\      /  F ield         | OpenFOAM: The Open Source CFD Toolbox           |
|  \\    /   O peration     | Version:  v2012                                 |
|   \\  /    A nd           | Website:  www.openfoam.com                      |
|    \\/     M anipulation  |                                                 |
\*---------------------------------------------------------------------------*/
FoamFile
{
    version     2.0;
    format      ascii;
    class       surfaceVectorField;
    location    "4.6";
    object      Uf_0;
}
// * * * * * * * * * * * * * * * * * * * * * * * * * * * * * * * * * * * * * //

dimensions      [0 1 -1 0 0 0 0];


internalField   nonuniform List<vector> 
300
(
(0.00189535978398 -0.000884722685261 6.79904710816e-21)
(0.0025799133937 -0.000624937074264 2.65001811606e-21)
(0.00136103227302 -0.00167787988031 2.79405941482e-20)
(0.00206830815923 -0.00130195643891 7.55236023102e-21)
(0.000744100126202 -0.00244775225217 1.18508058893e-19)
(0.00153202461288 -0.0020680670033 3.31533183174e-20)
(-5.56313159824e-05 -0.00337674303052 4.58889206014e-19)
(0.00109401573784 -0.00286358682094 1.41821078007e-19)
(-0.00118956941378 -0.00453179770596 1.57523162215e-18)
(0.000505541622708 -0.00374216738892 5.44448570877e-19)
(-0.00203721851776 -0.00599596263174 4.48933584269e-18)
(-0.00037123609542 -0.00492161218134 1.83898131778e-18)
(-0.00100407658129 -0.00695313486594 9.79184539216e-18)
(-0.000714921867035 -0.00661516334327 4.96469259853e-18)
(-0.000605827293941 -0.0062580019747 1.65485625684e-17)
(0.000149849473041 -0.00798514471713 9.70743387724e-18)
(-0.00305759604319 -0.0041727894844 1.98284666004e-17)
(-0.00208524219872 -0.00789651417046 1.44011761631e-17)
(-0.0018257271409 0.00200656439192 1.60160080933e-17)
(-0.00617935771825 -0.00726041983604 1.40758825918e-17)
(0.0110755158626 0.00250849638079 1.26752095917e-17)
(-0.000501862812109 -0.00166394853448 9.77934685619e-18)
(0.0264301044892 -0.00932250126166 9.82782202824e-18)
(0.011831173608 -0.00949298263037 1.06996042824e-17)
(0.020478619485 -0.00601838162389 5.71729317656e-18)
(0.0271682040895 -0.00772287065549 6.83833485828e-18)
(0.0079987534969 -0.0024316469565 4.56594077553e-18)
(0.0027669758415 -0.000907172179689 3.40333123891e-21)
(0.00348697938314 -0.000625589177635 1.92302938658e-21)
(0.00220385429774 -0.00173876293044 1.27650844002e-20)
(0.00289977544157 -0.00132696434389 3.35688601489e-21)
(0.00172144933496 -0.0025130988856 5.64663374312e-20)
(0.00230623564326 -0.002109248805 1.41700823786e-20)
(0.00139285683472 -0.00330945377022 2.27380442871e-19)
(0.00189025415345 -0.00287406402652 6.3036767358e-20)
(0.00118872384021 -0.00436241692265 8.08198266511e-19)
(0.00155840258713 -0.00366426324303 2.48977319927e-19)
(0.00116647726755 -0.00605792888065 2.31433807362e-18)
(0.00132418923811 -0.00473821543183 8.58490952396e-19)
(0.000901576693129 -0.00812467392701 4.88028108361e-18)
(0.00135175388454 -0.00641686149472 2.30722271845e-18)
(-0.000982201468299 -0.00905729869849 7.56004747195e-18)
(0.00108242567807 -0.00779218734494 4.41576052601e-18)
(-0.00445672967429 -0.0098500989908 8.64859215445e-18)
(-0.00129246540669 -0.00877101849757 6.08110375477e-18)
(-0.00443149981472 -0.0121535568914 7.83922135468e-18)
(-0.00387589011136 -0.0105682102383 6.02687796142e-18)
(0.00226349494626 -0.012013099295 7.80374154689e-18)
(-0.000642254751192 -0.0133119182585 5.36394160458e-18)
(0.0158312260036 -0.00972103691395 7.71011711242e-18)
(0.0095392600405 -0.0136155891699 6.54532479931e-18)
(0.0163656087058 -0.00292608457039 5.68698245725e-18)
(0.0203734858244 -0.00715367266519 5.57768542381e-18)
(0.00678151758637 0.000191163644181 3.61932149684e-18)
(0.00364057618191 -0.000916231491601 1.87658416256e-21)
(0.00440307496674 -0.000628467496801 1.73890625073e-21)
(0.00301699638718 -0.00176048221027 4.76188399326e-21)
(0.00374387301835 -0.001345381315 1.48240700958e-21)
(0.00250726651067 -0.00254115573521 2.07405123054e-20)
(0.00308675779761 -0.0021448971826 4.93819259602e-21)
(0.00219511548425 -0.00331861567987 8.46336444147e-20)
(0.00266757571166 -0.00291656961165 2.21387002415e-20)
(0.00200920543399 -0.00421812955434 2.99270005812e-19)
(0.00245779719416 -0.00367024587735 8.80959232509e-20)
(0.00189589892149 -0.00528087260844 8.51375597229e-19)
(0.00238683397561 -0.00450749702862 3.00907314188e-19)
(0.00176495292595 -0.00630423590652 1.84270216085e-18)
(0.00237504203872 -0.00545228958089 8.04815386701e-19)
(0.000775332052962 -0.00734281725025 2.93681680883e-18)
(0.00212095785822 -0.00624957970642 1.58935014775e-18)
(-0.00104106000185 -0.00912247245626 3.45938956174e-18)
(0.0004871715893 -0.00735450857866 2.23831486758e-18)
(-0.000345721256886 -0.0120062860406 3.55159821131e-18)
(-0.000992057879101 -0.00953106589394 2.31964943393e-18)
(0.0051978088019 -0.0137404147693 4.10552485699e-18)
(0.00109194054171 -0.0125164616865 2.46030044778e-18)
(0.0118190790349 -0.0115040835657 4.41289311069e-18)
(0.00730306676077 -0.0125229009989 3.16922942043e-18)
(0.00999343824595 -0.0029533907781 3.5100244634e-18)
(0.0118230115853 -0.00678212406794 2.89419636482e-18)
(0.00434252248506 -0.000365942334211 1.94841634166e-18)
(0.00452652943375 -0.000928186783102 1.34472909776e-21)
(0.00533109320155 -0.000637937763828 1.5957433786e-21)
(0.00383257239301 -0.00179235148853 1.65871561235e-21)
(0.00460785367479 -0.00137134176235 7.62391585158e-22)
(0.00327302778858 -0.00258026289334 6.33638053208e-21)
(0.0038744907766 -0.00218799232996 1.50066884104e-21)
(0.00295929204864 -0.00332790321615 2.56009790777e-20)
(0.00341505530663 -0.00297062635231 6.53387351969e-21)
(0.00282637312281 -0.00407940601335 8.97332316266e-20)
(0.00320916351386 -0.003694787496 2.57715682517e-20)
(0.00275737468497 -0.00482051685609 2.5434710366e-19)
(0.00312783517418 -0.00440772260945 8.68963191277e-20)
(0.00259214087026 -0.00549416498961 5.51463373594e-19)
(0.00304860953963 -0.00509691960882 2.31740959654e-19)
(0.00187962345594 -0.0061941203208 8.90848206499e-19)
(0.00282086396885 -0.00566860961361 4.59809883298e-19)
(0.000719896098201 -0.00765966602468 1.09857473977e-18)
(0.00195270340466 -0.00650194055285 6.6035413697e-19)
(0.000875755711389 -0.0097805318798 1.2283516704e-18)
(0.0011288334775 -0.00808645505258 7.26463404023e-19)
(0.00379675236733 -0.0108776167421 1.52400501122e-18)
(0.00218909613904 -0.00986118559624 8.27222987605e-19)
(0.00710648128743 -0.00875097492763 1.65053267455e-18)
(0.00517656227793 -0.00955104092017 1.08704747662e-18)
(0.00559438818744 -0.00322535006029 1.33258824309e-18)
(0.00629760384218 -0.00577522678583 9.88119543995e-19)
(0.00214361058231 -0.00178230107666 7.08524846034e-19)
(0.00542897394967 -0.000949481742994 1.013405866e-21)
(0.00628037815287 -0.000647528672682 1.43275589525e-21)
(0.0046640018998 -0.00182469469159 6.04344813848e-22)
(0.00548285741865 -0.00140294297744 4.9452530924e-22)
(0.00404413489215 -0.00262470291562 1.69816182865e-21)
(0.00467429922967 -0.00223829300311 4.40963658255e-22)
(0.00369257872808 -0.00338150511001 6.70446269366e-21)
(0.00417167947718 -0.00303892181602 1.71045093651e-21)
(0.00352481226322 -0.00408010948571 2.29346557528e-20)
(0.00390761838994 -0.00377306813465 6.63805202727e-21)
(0.0034256589464 -0.00473043186942 6.42901751223e-20)
(0.00377803970839 -0.00446406472826 2.15618252446e-20)
(0.00327395861501 -0.00532691237538 1.40087469359e-19)
(0.00364500581092 -0.00510877181346 5.69228902283e-20)
(0.0028467722954 -0.00592877618845 2.29315813769e-19)
(0.00342267909867 -0.00567004617917 1.13713692372e-19)
(0.00223041903198 -0.00686154803812 2.88242801223e-19)
(0.00288546500062 -0.00633318488046 1.65564649119e-19)
(0.00220365227051 -0.00807780323334 3.25334721231e-19)
(0.00234511989583 -0.00734938028956 1.85480981538e-19)
(0.00330494248185 -0.00852243739221 3.90265453009e-19)
(0.00263380670099 -0.00826369436884 2.08977290983e-19)
(0.00431500846854 -0.00693690998943 4.24634346061e-19)
(0.00359117779751 -0.0078706655357 2.59038619241e-19)
(0.00284455235656 -0.00397778441458 3.64056146941e-19)
(0.00333870425386 -0.00573755934005 2.48543028798e-19)
(0.000614243599336 -0.00345856404753 1.91045304241e-19)
(0.00634808362409 -0.000973103340557 9.13875338489e-22)
(0.00725326612917 -0.000653061121442 1.44404698004e-21)
(0.0055125626604 -0.00186711816249 3.31144153646e-22)
(0.00637664829015 -0.00143736011613 4.62631235098e-22)
(0.00482699321027 -0.0026924178314 4.53252766116e-22)
(0.00549938745748 -0.00229861911983 2.25055483306e-22)
(0.00442772828792 -0.0034616365702 1.64404027011e-21)
(0.00494071103983 -0.00312409084515 5.17383682303e-22)
(0.00421372196883 -0.00419795395835 5.26522151913e-21)
(0.00464377953124 -0.00389294144471 1.67725945762e-21)
(0.00405408107688 -0.00485965700382 1.41945403506e-20)
(0.00443962086209 -0.00462679106966 4.82970596852e-21)
(0.00385925301453 -0.00548374450689 3.05491132417e-20)
(0.00426900766646 -0.00531148373022 1.23386707191e-20)
(0.00352292415607 -0.00607727416293 4.99625277222e-20)
(0.00401616099161 -0.00593128443317 2.43554831896e-20)
(0.0030652573137 -0.00677502119984 6.28028294343e-20)
(0.00358320449562 -0.00656792149739 3.54829779114e-20)
(0.00279274882819 -0.00752495969 6.91235512898e-20)
(0.00309509373929 -0.00732039387237 3.96897424779e-20)
(0.0028564298365 -0.00770767089136 7.77504572153e-20)
(0.00281659913612 -0.00790174346875 4.27967260899e-20)
(0.00263851082793 -0.00678664353283 8.29473019786e-20)
(0.00267030057262 -0.00772710675872 4.96972426648e-20)
(0.00118226292875 -0.0052037655491 7.55321860982e-20)
(0.00175606438572 -0.00665813349984 4.82586878751e-20)
(-0.000280440632292 -0.00548420169577 3.70581459354e-20)
(0.0072935922059 -0.000992197871115 9.92802876644e-22)
(0.00824524283721 -0.000653351140558 1.37971197141e-21)
(0.00638719742047 -0.001914793348 3.56542564757e-22)
(0.00729901760781 -0.00146860667867 3.97935943507e-22)
(0.00563891792519 -0.00277226851199 2.89186399493e-22)
(0.0063566505658 -0.00235968261206 1.71048306384e-22)
(0.00519054791386 -0.00358280612502 5.50602869809e-22)
(0.00575106132101 -0.00321946422044 2.69644222374e-22)
(0.00493288003992 -0.00435262851569 1.24174390701e-21)
(0.00541344557105 -0.0040316126589 5.50949692908e-22)
(0.00472671034979 -0.00509954777268 2.97383633696e-21)
(0.0051864182423 -0.00482680226691 1.12010922117e-21)
(0.00448157693835 -0.00578174937151 6.14504066705e-21)
(0.00495112389036 -0.00558954398524 2.60084881419e-21)
(0.00413225998057 -0.00643910878656 9.87593337878e-21)
(0.0046734731887 -0.00630261271799 4.88848634651e-21)
(0.00366727929351 -0.0071022689225 1.2369890955e-20)
(0.00424635773611 -0.00699773258425 7.0827039661e-21)
(0.00318554373882 -0.00770455419287 1.3362917278e-20)
(0.00369741493806 -0.00770997227808 7.89907907577e-21)
(0.00268038433269 -0.00799849457327 1.47435115394e-20)
(0.00311062118325 -0.00829818203582 8.10219565237e-21)
(0.00182336889732 -0.00767730447879 1.50086285613e-20)
(0.00234926315785 -0.00848459008557 8.99801979372e-21)
(0.000346333269642 -0.00699684018862 9.78464771227e-21)
(0.00107584404223 -0.00824726266764 6.83335419625e-21)
(-0.000582626565083 -0.00796427003223 -2.66856824668e-21)
(0.00826319599772 -0.00100182401558 7.84845038272e-22)
(0.00924685257087 -0.000649867844706 8.53913444468e-22)
(0.0072914392184 -0.00195394173888 2.12441685134e-22)
(0.00825091803804 -0.00149400714905 7.42512346307e-23)
(0.00648978733732 -0.00284064992112 1.51506129265e-22)
(0.00724315504153 -0.00241503016604 -3.3197071012e-23)
(0.00600270083481 -0.00369238653062 2.69991045473e-22)
(0.00660261730913 -0.00331632972091 1.12617359167e-22)
(0.00571072990662 -0.00452249164266 4.29315007062e-22)
(0.00624339880249 -0.00418048000409 2.84414149689e-22)
(0.00547591121313 -0.00533524680755 7.47121698392e-22)
(0.00599905371071 -0.00503864701348 3.9033088522e-22)
(0.00520116732908 -0.00613155375253 1.34429449365e-21)
(0.00574734562902 -0.00588924388719 6.629070753e-22)
(0.00482148115486 -0.00688143335014 2.09525693383e-21)
(0.00542330389097 -0.00671858766499 1.07973436577e-21)
(0.00430855093872 -0.00761609468397 2.61189208692e-21)
(0.00498100859575 -0.00753548542335 1.56320455257e-21)
(0.00367126816294 -0.00830803818906 2.63835745014e-21)
(0.00438938878795 -0.00835826157848 1.69286668605e-21)
(0.00285034067648 -0.00884103814469 2.35670390671e-21)
(0.00364369506151 -0.00913165283844 1.45989669812e-21)
(0.00168619116843 -0.00910865674708 8.22745428677e-22)
(0.0026170257556 -0.00975088140563 9.05260188628e-22)
(0.000234427312581 -0.00930543596639 -5.6198617627e-21)
(0.00127285890017 -0.0102452821948 -2.21774702925e-21)
(-0.00015993907493 -0.0107555506376 -1.38481322161e-20)
(0.00924912562398 -0.00101734750057 1.43319640826e-22)
(0.0102639631496 -0.00064615051489 1.58255823367e-22)
(0.00822430388907 -0.0019879541277 -1.71387521515e-22)
(0.0092212910612 -0.00151511068491 -2.93445496167e-22)
(0.00738071368721 -0.00291405219209 -7.20858411101e-23)
(0.00816903358955 -0.00246526160746 -2.46449794525e-22)
(0.00687054271414 -0.00381420735717 1.27040463383e-22)
(0.00750257439673 -0.00341020859854 5.48765172884e-24)
(0.00656406210683 -0.00470709557454 2.45430027847e-22)
(0.00713611560342 -0.00433158360273 2.00244504034e-22)
(0.00631580506432 -0.00559824516991 3.06116262129e-22)
(0.00689006273501 -0.00525885074283 2.44657202321e-22)
(0.00602963298311 -0.00649349174408 3.98346947421e-22)
(0.00664248527909 -0.0061992400972 2.78126431252e-22)
(0.00564181178287 -0.00738760499821 5.47681984513e-22)
(0.00631734631166 -0.00715350048256 3.43256324695e-22)
(0.00511474310622 -0.00828544232481 6.44179151705e-22)
(0.00587882191563 -0.00812686951151 4.50183755525e-22)
(0.00442113441261 -0.00919519514472 5.1440593403e-22)
(0.00529915757586 -0.00913363049362 4.09052117218e-22)
(0.00350129943288 -0.0100716353312 8.45298004316e-24)
(0.00452019066904 -0.0101694623062 2.19270813942e-22)
(0.00229367178834 -0.0109216837803 -2.1352322693e-21)
(0.00346719230572 -0.011220926528 -4.95193080418e-22)
(0.000943862513736 -0.0117933394677 -1.04460174827e-20)
(0.00214471976987 -0.0123140994313 -3.97114041902e-21)
(0.000857128247393 -0.0134230119081 -1.72502417363e-20)
(0.0102503196411 -0.00102195619266 -2.78509313626e-22)
(0.011285648631 -0.000640470864713 -1.7738184285e-22)
(0.00918751746212 -0.00202042896649 -3.68507769177e-22)
(0.0102194912429 -0.00153291278877 -4.44263133164e-22)
(0.0083147653515 -0.00298294798739 -1.68876301686e-22)
(0.0091312914584 -0.00251071983633 -2.74854358346e-22)
(0.00779577228272 -0.00393329601703 7.869169238e-23)
(0.00845268170859 -0.00349726581801 -1.69235615845e-24)
(0.00749376383577 -0.00489003676765 1.99471678508e-22)
(0.00809264256843 -0.00447337688819 1.83021148028e-22)
(0.0072548249899 -0.00586415361161 2.16667371444e-22)
(0.00786399757325 -0.00546817307197 2.07650219176e-22)
(0.00698390688503 -0.0068617266663 2.23035808525e-22)
(0.00763991263023 -0.00649337599603 1.91532482917e-22)
(0.00662443280184 -0.00790213039844 2.45758095707e-22)
(0.00735765355219 -0.00756284511696 1.95179920651e-22)
(0.00613319930797 -0.00898243274657 2.15056721038e-22)
(0.00695906416069 -0.00868949312189 2.10207609396e-22)
(0.00547096198504 -0.0101219832678 1.1391699713e-22)
(0.00643869093514 -0.00988309984991 1.32784141395e-22)
(0.00458972298089 -0.0113301790235 -2.84375246519e-22)
(0.0057284259025 -0.0111688184874 -7.08948356241e-23)
(0.00345926166668 -0.0126352635922 -2.33110123014e-21)
(0.00477237026884 -0.0125775112589 -7.91997850535e-22)
(0.00218652583731 -0.0140040113137 -1.07753646727e-20)
(0.00351363755441 -0.0141218750288 -4.18328578248e-21)
(0.00220189882748 -0.0156936701067 -1.65854185334e-20)
(0.0112657985574 -0.00103245076804 -3.43135662388e-22)
(0.0101808525072 -0.00204724266699 -3.50609722333e-22)
(0.00929211213418 -0.00304345799424 -1.07670412819e-22)
(0.00877652353742 -0.00403944927455 1.0263709949e-22)
(0.00849311736815 -0.00505388486565 1.91199688696e-22)
(0.00828424733341 -0.00609893209665 1.82515330649e-22)
(0.00805647028931 -0.00719030070932 1.63676595043e-22)
(0.0077606122819 -0.00834372418881 1.5962943434e-22)
(0.0073534428938 -0.0095997852048 1.27935029753e-22)
(0.00821502163997 -0.00914328061129 1.32818369369e-22)
(0.00678336188262 -0.010927619686 -5.20276913587e-23)
(0.0077665236266 -0.0105009906005 8.87024894934e-23)
(0.00600464287816 -0.0124203570463 -5.78517439641e-22)
(0.00722111396605 -0.012006968621 -1.28895139754e-22)
(0.0049760663018 -0.0140569873435 -2.64418240288e-21)
(0.0064090891043 -0.0137176558421 -8.86568474373e-22)
(0.00373212847428 -0.0158464553587 -9.99333964321e-21)
(0.00530330036554 -0.015669558968 -3.99526048511e-21)
(0.00395711365142 -0.0177611936086 -1.41331703065e-20)
(0.00872344036901 -0.0100339093341 9.35858291094e-23)
(0.00831166363302 -0.0115721686905 1.18350410983e-23)
(0.00771619836332 -0.0132949714254 -4.36946174486e-22)
(0.00687137709834 -0.0153016146584 -2.2376465566e-21)
(0.00841577277068 -0.0145681650613 -7.08295625216e-22)
(0.00573498968926 -0.0175839637332 -8.13509114836e-21)
(0.00758576407996 -0.0169026715535 -3.05860333919e-21)
(0.00632658449703 -0.0195609033855 -1.02635855146e-20)
(0.00922474839523 -0.0161318499652 -1.5292524078e-21)
(0.00833904741043 -0.0188374972432 -5.1870977054e-21)
(0.00928168944476 -0.0204971113055 -6.41404545845e-21)
)
;

boundaryField
{
    back
    {
        type            calculated;
        value           uniform (0 0 0);
    }
    sides
    {
        type            calculated;
        value           nonuniform List<vector> 0();
    }
    bottom
    {
        type            calculated;
        value           uniform (0 0 0);
    }
    front
    {
        type            calculated;
        value           uniform (0 0 0);
    }
    atmosphere
    {
        type            calculated;
        value           nonuniform List<vector> 0();
    }
    floatingObject
    {
        type            calculated;
        value           nonuniform List<vector> 4((0 -1.66533453694e-15 2.08166817117e-16) (0 -1.66533453694e-15 2.08166817117e-16) (0 0 0) (0 -3.33066907388e-15 2.08166817117e-16));
    }
    procBoundary8to3
    {
        type            processor;
        value           nonuniform List<vector> 8((0.00169531865187 -0.000612857608252 4.20021974988e-21) (0.00127529878061 -0.00121489221162 1.43917603396e-20) (0.000762306122513 -0.00183115839214 6.22820540682e-20) (0.00016517447049 -0.00236749777683 2.48909076023e-19) (-0.000649377521821 -0.00280077512472 8.85618515463e-19) (-0.00183528307811 -0.00318545857025 2.75796778779e-18) (-0.00167199918778 -0.00271935787885 6.80138209221e-18) (0.000845062238446 -0.00439277757761 1.2614172614e-17));
    }
    procBoundary8to6
    {
        type            processor;
        value           nonuniform List<vector> 
16
(
(0.0304718972601 -0.0115889991287 5.74129904437e-18)
(0.00729250756058 -0.00856763267862 4.1439872849e-18)
(0.000922610385388 -0.00672418674135 3.58844539488e-18)
(0.000630066836751 -0.00170858526939 3.24795466984e-18)
(-0.000320473804418 -0.000514144936657 1.94313880143e-18)
(-0.00111633252066 -0.00102618629605 7.56280654241e-19)
(-0.00148352812437 -0.00244815403933 2.08271561028e-19)
(-0.00161476702915 -0.0043088040086 3.94558355099e-20)
(-0.00150728300281 -0.00669437045214 -7.38331552411e-21)
(-0.00106677510588 -0.00972784737522 -2.54600525122e-20)
(-0.000116676587285 -0.0128101527047 -3.48573772503e-20)
(0.00109791875168 -0.0153485582472 -3.62298267928e-20)
(0.00251634843628 -0.0176014372051 -2.98882901666e-20)
(0.00438861630294 -0.0199532075819 -2.32286212975e-20)
(0.00686431226664 -0.0217926751098 -1.37164339922e-20)
(0.00976991279273 -0.0222933955086 -8.14216209382e-21)
)
;
    }
    procBoundary8to7
    {
        type            processor;
        value           nonuniform List<vector> 
17
(
(0.0123178163672 -0.000630921185955 -2.48418823099e-22)
(0.0112339859087 -0.00154680571567 -3.94687379839e-22)
(0.0101272167826 -0.00254917338668 -2.00828173795e-22)
(0.00944840190722 -0.00357068343739 3.41306054347e-23)
(0.00910683347874 -0.00459303676069 1.72388792438e-22)
(0.00890883338276 -0.00564447821096 1.80626353929e-22)
(0.00873110150522 -0.00673859111069 1.53921081965e-22)
(0.00851092787529 -0.00789603565444 1.41839286182e-22)
(0.00901023150793 -0.00868112031995 1.15028221211e-22)
(0.00956761704052 -0.00945487910558 7.84050281018e-23)
(0.00930458899024 -0.0109323970802 5.48339281522e-23)
(0.00894396384557 -0.0126095838066 -6.71614167106e-23)
(0.00972464014632 -0.0138583116396 -3.38510867441e-22)
(0.0106892487223 -0.0149902508157 -6.17521352381e-22)
(0.0102917624445 -0.0175129233987 -2.2653474051e-21)
(0.0113140785153 -0.0191230891405 -3.49229515814e-21)
(0.0124526152873 -0.0201885916267 -4.37745131459e-21)
)
;
    }
}


// ************************************************************************* //
