/*--------------------------------*- C++ -*----------------------------------*\
| =========                 |                                                 |
| \\      /  F ield         | OpenFOAM: The Open Source CFD Toolbox           |
|  \\    /   O peration     | Version:  v2012                                 |
|   \\  /    A nd           | Website:  www.openfoam.com                      |
|    \\/     M anipulation  |                                                 |
\*---------------------------------------------------------------------------*/
FoamFile
{
    version     2.0;
    format      ascii;
    class       volVectorField;
    location    "4.7";
    object      ddtCorrDdt0(U);
}
// * * * * * * * * * * * * * * * * * * * * * * * * * * * * * * * * * * * * * //

dimensions      [0 1 -2 0 0 0 0];


internalField   nonuniform List<vector> 
167
(
(-0.252153704453 -0.013011973576 -7.21240769453e-23)
(-0.268785694854 -0.011638702739 -1.90025824459e-22)
(-0.287509011388 -0.0095956752993 -7.00134242439e-22)
(-0.308677299803 -0.00580990940473 -1.34754537227e-21)
(-0.333159915937 -0.00177932090496 2.21680651669e-21)
(-0.356870623876 -0.000148238968968 4.50481646066e-21)
(-0.407715839027 -0.0168649410222 -2.24720163583e-21)
(-0.649239932725 -0.0174269967101 -2.45187683627e-20)
(-0.483728619602 0.102799949055 1.72497309602e-21)
(-0.269424051821 -0.0297699352266 -5.16127596927e-23)
(-0.288844344834 -0.0300812657345 -1.00787975649e-21)
(-0.310812887047 -0.0290514815214 -8.60981648826e-24)
(-0.335550085238 -0.0292543037823 4.51892266552e-21)
(-0.35628742783 -0.0307158368275 2.65823563253e-20)
(-0.397543732261 -0.047300934623 3.26308024335e-21)
(-0.70994180294 -0.0572344878471 3.93030430257e-20)
(-0.505027637902 0.116952070103 3.557633185e-20)
(-0.267778842359 -0.0484032149704 -6.20046283478e-23)
(-0.287614077713 -0.0510585206695 -4.94734001375e-22)
(-0.310037491552 -0.0525083196908 9.36186128647e-22)
(-0.334575876759 -0.0568407341722 8.83965297232e-22)
(-0.354404063068 -0.0572567479152 -5.86678549096e-21)
(-0.393596522916 -0.0678907166815 3.26575496524e-21)
(-0.787954765101 -0.0584495587452 2.36203101297e-20)
(-0.533468330063 0.0490551309477 2.69583462801e-20)
(-0.245985005143 -0.0623031554511 -1.39027465888e-22)
(-0.263844625099 -0.067334749784 -1.22436192253e-22)
(-0.283761447943 -0.0723806532895 -1.3910900422e-21)
(-0.306400696615 -0.0763712431119 9.43933626789e-22)
(-0.331660541765 -0.0844866552427 6.58994421326e-24)
(-0.352732845387 -0.0857705581266 -7.14195290203e-21)
(-0.397459836021 -0.0893985988665 2.95643253396e-21)
(-0.847871277813 -0.0797277848592 3.71699489945e-20)
(-0.543292712355 -0.237068484526 2.53360508292e-20)
(-0.239647774753 -0.0791047127074 -7.03207943244e-23)
(-0.257722051082 -0.0863039749355 -9.69876197778e-23)
(-0.277587091867 -0.0936328882556 -5.30295014729e-22)
(-0.299944408439 -0.100979066236 1.41311771332e-21)
(-0.325200458813 -0.110398052594 -1.35475327719e-21)
(-0.345319282078 -0.117902089432 1.74509102792e-20)
(-0.378799804875 -0.122719118955 7.43312927811e-21)
(-0.791600303196 -0.168072077289 -8.43075271799e-20)
(-0.507544671556 -0.169135221693 -6.34438398276e-20)
(-0.231707008482 -0.095647914129 3.71419140917e-23)
(-0.249856029746 -0.105383200468 -7.78551148537e-23)
(-0.269173317633 -0.114611053241 -7.70745776426e-22)
(-0.291826008105 -0.124508138666 -3.89456760435e-21)
(-0.319161159489 -0.133473931559 -6.17849939621e-22)
(-0.335284581823 -0.133117620268 9.56515023557e-21)
(-0.342603842991 -0.125899366182 1.34714168226e-20)
(-0.609001560446 -0.17134629367 -9.05686791755e-20)
(-0.516555414993 -0.375049901446 -8.07880419971e-20)
(-0.205213429148 -0.101489898829 6.71632687943e-23)
(-0.221200141294 -0.113039249187 -1.44881438476e-22)
(-0.238682353217 -0.123855629746 8.21811456088e-23)
(-0.258663771362 -0.135539160008 -2.51924954894e-21)
(-0.280814138939 -0.151540211721 -2.14149909606e-21)
(-0.320126314861 -0.160011876897 3.26021543831e-22)
(-0.330591259636 -0.152438743727 2.65100117535e-20)
(-0.343991740687 -0.1280340877 3.78278223516e-20)
(-0.593684908193 -0.118231752086 -8.74922522794e-20)
(-0.682923397295 0.0279134602242 -1.11998629328e-19)
(-0.180238056243 -0.102817080361 4.07612578383e-23)
(-0.193043671845 -0.115657519637 -2.20200697578e-23)
(-0.207930499328 -0.129106819944 -1.54434519374e-22)
(-0.224769056216 -0.142904792378 -9.71868544965e-23)
(-0.245610128447 -0.156590271282 -1.60655866142e-21)
(-0.269815270678 -0.186793392253 6.42896599307e-23)
(-0.299404968711 -0.192187706914 -6.88847031161e-21)
(-0.316077717712 -0.203771285208 1.63504010785e-20)
(-0.357173972327 -0.20453257238 -3.45568862051e-21)
(-0.701478327479 -0.210250808471 2.09992565917e-20)
(-1.1438922367 0.0715223410495 1.28300320051e-20)
(-0.16675483856 -0.11444912664 -6.50200133641e-23)
(-0.178854121992 -0.129150638662 -6.38053984265e-23)
(-0.192833619287 -0.14474399543 -1.5920373444e-22)
(-0.208936821483 -0.161529401226 -1.03128452284e-22)
(-0.227891099328 -0.180414120728 -2.17638190718e-22)
(-0.250922239479 -0.205853599742 8.05472595331e-23)
(-0.261414199204 -0.212245696728 -1.0234262661e-20)
(-0.294962971176 -0.281142011397 -2.30222657873e-22)
(-0.311761850216 -0.325779093611 -1.47731981276e-20)
(-0.700117790065 -0.416411560622 2.97326066033e-20)
(-4.42615018133 -0.510924674462 1.71141824224e-19)
(-0.162805872822 -0.141669811817 -5.54784899447e-23)
(-0.175662515927 -0.159129983159 -1.5865129861e-22)
(-0.19031590917 -0.177922141477 -9.90876337873e-23)
(-0.206805864443 -0.198380165649 1.07573032442e-22)
(-0.224820548699 -0.220398540447 -8.44279101745e-22)
(-0.23974333946 -0.237981311683 -1.64136484793e-21)
(-0.279237380648 -0.320742470902 7.86541446252e-21)
(-0.24406428097 -0.402842005268 1.09865720251e-21)
(-0.449401489617 -0.639009530313 -1.20813632466e-19)
(0.0508036537794 -0.803197236199 1.95624072281e-19)
(-0.145125775895 -0.153089308604 -1.486338185e-23)
(-0.156762819185 -0.172161643699 -1.00883862067e-23)
(-0.169954688895 -0.192624219614 7.27540413005e-24)
(-0.184643156764 -0.214730272211 -1.50242478379e-22)
(-0.200815637379 -0.23887809558 1.14480647663e-21)
(-0.218261033674 -0.267198094129 -5.26461318764e-21)
(-0.246221795141 -0.329610992482 -4.39996871332e-21)
(-0.196698679811 -0.379809259179 -7.27351769499e-21)
(-0.135488222629 -0.553144828452 -7.51514963899e-20)
(0.0340990193153 -0.424778240274 -4.42584342561e-19)
(-0.126018652641 -0.16333240655 1.01482045258e-23)
(-0.136437491292 -0.183859992772 2.77608458747e-23)
(-0.148285338899 -0.205753147352 -1.03275436495e-23)
(-0.16145806588 -0.229070446395 3.26176972232e-23)
(-0.175545358737 -0.254336164437 1.86002917629e-22)
(-0.188865119877 -0.28456052207 -2.74320415871e-21)
(-0.197578093888 -0.327941252337 2.53191422543e-20)
(-0.134307706504 -0.315239242999 -1.23286916301e-21)
(-0.0307810439962 -0.429761904055 7.18758053973e-21)
(1.08127407326 -0.329879484444 2.46995563561e-19)
(-0.105664159078 -0.172385874173 2.15617806034e-24)
(-0.114847988458 -0.194325646743 9.82115204899e-23)
(-0.12555424069 -0.217591630781 1.63901273905e-23)
(-0.137843243119 -0.241875810051 8.96916449006e-22)
(-0.151415709474 -0.266499158328 6.50989770482e-22)
(-0.164107721492 -0.291549352329 -1.35398815869e-21)
(-0.169048113539 -0.304588225193 4.8052681674e-20)
(-0.117848307539 -0.237627986232 -6.90422306088e-21)
(-0.147858501105 -0.271439858608 4.63361651263e-20)
(-1.70110727421 1.53063651227 -4.6864278747e-19)
(-0.0841057789993 -0.180257160604 -7.8025556955e-24)
(-0.0919469665945 -0.203691361748 6.46105996953e-23)
(-0.101547094124 -0.228719589409 1.32696677347e-22)
(-0.113411015518 -0.254900590957 2.15399721172e-22)
(-0.128230371532 -0.280738997244 -2.2675551047e-22)
(-0.146148877302 -0.304900863067 1.43938836485e-20)
(-0.16702178353 -0.307416258142 -4.38065846762e-22)
(-0.174452076511 -0.222364074523 -8.9125159469e-21)
(-0.500524464227 -0.199768392774 1.11368576321e-20)
(-14.5107265036 5.44985297414 -5.45879371292e-19)
(-0.0563139411383 -0.163707586852 4.32689408296e-25)
(-0.0613396427997 -0.186768435638 -2.94972565331e-23)
(-0.0675752167812 -0.211810623999 -1.64946077668e-23)
(-0.0756009272738 -0.239096317363 -5.68770207254e-23)
(-0.0863481993725 -0.268655984327 6.12573044213e-22)
(-0.101548895877 -0.299617097027 3.30649875479e-22)
(-0.124060612664 -0.332725646403 6.93112242417e-21)
(-0.160918673237 -0.352595770152 1.55900129392e-20)
(-0.214281070011 -0.29071724606 1.73909710428e-21)
(-0.681497930438 -0.238477839812 -3.17213429832e-19)
(-21.7089343665 -6.02918284196 1.61798045478e-19)
(-0.0344078009027 -0.167615117794 3.44176399696e-22)
(-0.0376363325252 -0.191691216425 -3.79780908868e-22)
(-0.0417728953293 -0.218175598677 -3.14039426463e-22)
(-0.047308031412 -0.247726439537 -6.01573068748e-22)
(-0.0551296447337 -0.281185012183 -7.96837374671e-23)
(-0.066990990603 -0.319324838044 -9.07656131874e-22)
(-0.0861672176894 -0.366582108642 -3.60720244808e-21)
(-0.123711642641 -0.410751018449 -5.70288347225e-21)
(-0.223362323601 -0.343113448895 -5.90198746746e-22)
(-0.73587693723 -0.392055318302 -6.20187599154e-19)
(9.9483190316 -16.3455587542 -1.20242535279e-18)
(-0.0115494132665 -0.17005205509 -3.25126887228e-22)
(-0.0126546471048 -0.194762830548 -8.08297295654e-23)
(-0.0140974695439 -0.222171381238 -3.91996953395e-22)
(-0.016092744569 -0.253214303299 -3.15181167638e-23)
(-0.0189997635423 -0.289294275799 -5.90548670896e-22)
(-0.0235197542002 -0.332345900176 -1.37065831785e-21)
(-0.0309237952981 -0.389823593757 4.964837309e-21)
(-0.0482244055202 -0.464466778147 9.7418313869e-21)
(-0.117825887302 -0.504032772316 5.23648253912e-20)
(-0.355744267048 -0.526630472437 2.05686540994e-18)
(3.34282016677 9.27445398609 3.45172666278e-18)
)
;

boundaryField
{
    back
    {
        type            calculated;
        value           uniform (0 0 0);
    }
    sides
    {
        type            calculated;
        value           uniform (0 0 0);
    }
    bottom
    {
        type            calculated;
        value           nonuniform List<vector> 0();
    }
    front
    {
        type            calculated;
        value           uniform (0 0 0);
    }
    atmosphere
    {
        type            calculated;
        value           nonuniform List<vector> 
17
(
(-0.00512329697884 0.102799949055 8.62656937181e-24)
(0.0161962558476 0.116952070103 -3.47040826302e-21)
(0.0126167156748 0.0490551309477 -6.83089136005e-21)
(0.0376472311732 -0.237068484526 -4.30924107243e-21)
(-0.284168863728 -0.169135221693 -2.66101461301e-20)
(-0.436049710401 -0.375049901446 -1.32711996463e-19)
(0.615475832391 0.0279134602242 -1.33210576185e-19)
(1.02621384247 0.0715223410495 -5.27647434226e-19)
(-5.78328776581 -0.510924674462 3.34890032157e-18)
(-3.17817343047 -0.803197236199 7.46331299559e-19)
(-0.715655195197 -0.424778240274 -1.98916874915e-19)
(-4.94634677122 -0.329879484444 1.87773105354e-18)
(11.8271846346 1.53063651227 -1.05431835613e-17)
(-0.130863167376 5.44985297414 3.65891458271e-21)
(-20.240182915 -6.02918284196 5.19516637683e-19)
(-19.9942845934 -16.3455587542 5.036782733e-19)
(3.34282016854 9.27445398609 3.45172666161e-18)
)
;
    }
    floatingObject
    {
        type            calculated;
        value           nonuniform List<vector> 0();
    }
    procBoundary11to9
    {
        type            processor;
        value           nonuniform List<vector> 9((-0.250133631959 0.00239754831266 4.05161373674e-26) (-0.265973598993 0.00573333989271 -1.4436786929e-22) (-0.283708459897 0.00994285380649 -4.66247549736e-22) (-0.303480172569 0.0162471725354 1.39130897221e-22) (-0.325369159676 0.0248567993007 -4.8426748218e-21) (-0.351114866301 0.0344990648003 4.46859518677e-21) (-0.412385501316 0.0197431735103 3.08796103557e-21) (-0.58660087531 0.0403146521612 2.21102293176e-20) (-0.450886999007 0.173578661976 2.21941220684e-20));
    }
    procBoundary11to10
    {
        type            processor;
        value           nonuniform List<vector> 
23
(
(-0.237420452274 -0.0136839699664 1.55493412513e-24)
(-0.252199311248 -0.0290589367779 -1.49906903796e-22)
(-0.252199311248 -0.0290589367779 -1.49906903796e-22)
(-0.250160187302 -0.0455589221947 -1.4629344407e-22)
(-0.250160187302 -0.0455589221947 -1.4629344407e-22)
(-0.23033118589 -0.0571459774869 -1.04851847054e-23)
(-0.224385829901 -0.0719963129275 -1.45039740701e-23)
(-0.215915418495 -0.0864757761504 -1.95352738721e-23)
(-0.215915418495 -0.0864757761504 -1.95352738721e-23)
(-0.191996111168 -0.0906108302631 -9.04212437063e-23)
(-0.191996111168 -0.0906108302631 -9.04212437063e-23)
(-0.169156945525 -0.0904979814033 -2.46694131323e-24)
(-0.156327133957 -0.100486625491 -8.76189312818e-23)
(-0.151629916573 -0.125283877742 -2.33527246035e-23)
(-0.151629916573 -0.125283877742 -2.33527246035e-23)
(-0.134996391554 -0.135197485135 -8.12611205109e-25)
(-0.11702405436 -0.144060254312 -7.5479187165e-24)
(-0.0978383141024 -0.15182466625 4.39922980455e-23)
(-0.0775564834057 -0.15841676274 1.99212033402e-23)
(-0.0775564834057 -0.15841676274 1.99212033402e-23)
(-0.0522290400315 -0.14237074054 -5.63034823813e-23)
(-0.0318443757173 -0.145532652101 -4.25010341596e-22)
(-0.0106806145915 -0.147467679206 -1.26365866677e-22)
)
;
    }
}


// ************************************************************************* //
