/*--------------------------------*- C++ -*----------------------------------*\
| =========                 |                                                 |
| \\      /  F ield         | OpenFOAM: The Open Source CFD Toolbox           |
|  \\    /   O peration     | Version:  v2012                                 |
|   \\  /    A nd           | Website:  www.openfoam.com                      |
|    \\/     M anipulation  |                                                 |
\*---------------------------------------------------------------------------*/
FoamFile
{
    version     2.0;
    format      ascii;
    class       volScalarField;
    location    "4.7";
    object      rAU;
}
// * * * * * * * * * * * * * * * * * * * * * * * * * * * * * * * * * * * * * //

dimensions      [-1 3 1 0 0 0 0];


internalField   nonuniform List<scalar> 
167
(
1.64603668361e-05
1.645837901e-05
1.64465697917e-05
1.64404483514e-05
1.63775600928e-05
1.6268612052e-05
2.18542429094e-05
0.000275768124354
0.0101241435933
1.64596521092e-05
1.64489598283e-05
1.64459436482e-05
1.63748515643e-05
1.62492381133e-05
2.10911062781e-05
0.000221911578966
0.00958912498985
1.64606205469e-05
1.6449023898e-05
1.64506789043e-05
1.63737563047e-05
1.62330320684e-05
2.04416494667e-05
0.000183378267287
0.00913144793726
1.64619641983e-05
1.64613312402e-05
1.64484498069e-05
1.64529884761e-05
1.63736547338e-05
1.62238908165e-05
1.98709300058e-05
0.000151572301316
0.00868197931463
1.6461834145e-05
1.64608503253e-05
1.64471653708e-05
1.6449362753e-05
1.63772531291e-05
1.62400353128e-05
1.94427162703e-05
0.000123344233897
0.00809238210589
1.64616938377e-05
1.64600896986e-05
1.64430662053e-05
1.644389077e-05
1.63806092494e-05
1.62514450817e-05
1.91658405395e-05
0.000105820837556
0.00732990602335
1.646222409e-05
1.64610826794e-05
1.64598649143e-05
1.64429835746e-05
1.64416484318e-05
1.63739896299e-05
1.62405469889e-05
1.8763824254e-05
9.5810167077e-05
0.00736157003747
1.64623580083e-05
1.64616782985e-05
1.64602898682e-05
1.64588140033e-05
1.64455308033e-05
1.6433696104e-05
1.63664818631e-05
1.62462437168e-05
1.82294086297e-05
8.40237738284e-05
0.00710789038351
1.64619187104e-05
1.64610053547e-05
1.6459590753e-05
1.64568958235e-05
1.64482317048e-05
1.64270173116e-05
1.6373481554e-05
1.62686688703e-05
1.77985807237e-05
7.21071512753e-05
0.00672486815783
1.64605007211e-05
1.64586166086e-05
1.64551720795e-05
1.64478851212e-05
1.64307630156e-05
1.63895914493e-05
1.62970331929e-05
1.74962727772e-05
6.3416182695e-05
0.00664891706664
1.64601326642e-05
1.64579244273e-05
1.64539593677e-05
1.64458397475e-05
1.64303849525e-05
1.63880194531e-05
1.63175663274e-05
1.73010969412e-05
5.93086173556e-05
0.00612587551338
1.64598536469e-05
1.64574582027e-05
1.64532864121e-05
1.64449112186e-05
1.64260109419e-05
1.638775224e-05
1.6309376241e-05
1.71186688669e-05
5.8135233899e-05
0.00632727888986
1.64599167653e-05
1.64574097773e-05
1.64531027305e-05
1.644500087e-05
1.64230051207e-05
1.63921078316e-05
1.63057243358e-05
1.69185078875e-05
5.86485059753e-05
0.00619493001748
1.64605311421e-05
1.64580255449e-05
1.64537871763e-05
1.64466774478e-05
1.64222724226e-05
1.63940892907e-05
1.63038961043e-05
1.67536740255e-05
5.56512018627e-05
0.00554838317159
1.64651267173e-05
1.64632593625e-05
1.64609016832e-05
1.64571362856e-05
1.64512915132e-05
1.6425389969e-05
1.64003495562e-05
1.6309175156e-05
1.66889829954e-05
4.99111633063e-05
0.00485211207653
1.64799767322e-05
1.64782119177e-05
1.64761247208e-05
1.64728182992e-05
1.6468746351e-05
1.6442316995e-05
1.64168044193e-05
1.63398161775e-05
1.67479771381e-05
4.55328334193e-05
0.0044992757499
1.65644645608e-05
1.65631900382e-05
1.65618850999e-05
1.65598091883e-05
1.65618722204e-05
1.65414097851e-05
1.64740364995e-05
1.64224083475e-05
1.7327136155e-05
3.84418430933e-05
0.00280756167291
)
;

boundaryField
{
    back
    {
        type            calculated;
        value           nonuniform List<scalar> 
167
(
1.64603668361e-05
1.645837901e-05
1.64465697917e-05
1.64404483514e-05
1.63775600928e-05
1.6268612052e-05
2.18542429094e-05
0.000275768124354
0.0101241435933
1.64596521092e-05
1.64489598283e-05
1.64459436482e-05
1.63748515643e-05
1.62492381133e-05
2.10911062781e-05
0.000221911578966
0.00958912498985
1.64606205469e-05
1.6449023898e-05
1.64506789043e-05
1.63737563047e-05
1.62330320684e-05
2.04416494667e-05
0.000183378267287
0.00913144793726
1.64619641983e-05
1.64613312402e-05
1.64484498069e-05
1.64529884761e-05
1.63736547338e-05
1.62238908165e-05
1.98709300058e-05
0.000151572301316
0.00868197931463
1.6461834145e-05
1.64608503253e-05
1.64471653708e-05
1.6449362753e-05
1.63772531291e-05
1.62400353128e-05
1.94427162703e-05
0.000123344233897
0.00809238210589
1.64616938377e-05
1.64600896986e-05
1.64430662053e-05
1.644389077e-05
1.63806092494e-05
1.62514450817e-05
1.91658405395e-05
0.000105820837556
0.00732990602335
1.646222409e-05
1.64610826794e-05
1.64598649143e-05
1.64429835746e-05
1.64416484318e-05
1.63739896299e-05
1.62405469889e-05
1.8763824254e-05
9.5810167077e-05
0.00736157003747
1.64623580083e-05
1.64616782985e-05
1.64602898682e-05
1.64588140033e-05
1.64455308033e-05
1.6433696104e-05
1.63664818631e-05
1.62462437168e-05
1.82294086297e-05
8.40237738284e-05
0.00710789038351
1.64619187104e-05
1.64610053547e-05
1.6459590753e-05
1.64568958235e-05
1.64482317048e-05
1.64270173116e-05
1.6373481554e-05
1.62686688703e-05
1.77985807237e-05
7.21071512753e-05
0.00672486815783
1.64605007211e-05
1.64586166086e-05
1.64551720795e-05
1.64478851212e-05
1.64307630156e-05
1.63895914493e-05
1.62970331929e-05
1.74962727772e-05
6.3416182695e-05
0.00664891706664
1.64601326642e-05
1.64579244273e-05
1.64539593677e-05
1.64458397475e-05
1.64303849525e-05
1.63880194531e-05
1.63175663274e-05
1.73010969412e-05
5.93086173556e-05
0.00612587551338
1.64598536469e-05
1.64574582027e-05
1.64532864121e-05
1.64449112186e-05
1.64260109419e-05
1.638775224e-05
1.6309376241e-05
1.71186688669e-05
5.8135233899e-05
0.00632727888986
1.64599167653e-05
1.64574097773e-05
1.64531027305e-05
1.644500087e-05
1.64230051207e-05
1.63921078316e-05
1.63057243358e-05
1.69185078875e-05
5.86485059753e-05
0.00619493001748
1.64605311421e-05
1.64580255449e-05
1.64537871763e-05
1.64466774478e-05
1.64222724226e-05
1.63940892907e-05
1.63038961043e-05
1.67536740255e-05
5.56512018627e-05
0.00554838317159
1.64651267173e-05
1.64632593625e-05
1.64609016832e-05
1.64571362856e-05
1.64512915132e-05
1.6425389969e-05
1.64003495562e-05
1.6309175156e-05
1.66889829954e-05
4.99111633063e-05
0.00485211207653
1.64799767322e-05
1.64782119177e-05
1.64761247208e-05
1.64728182992e-05
1.6468746351e-05
1.6442316995e-05
1.64168044193e-05
1.63398161775e-05
1.67479771381e-05
4.55328334193e-05
0.0044992757499
1.65644645608e-05
1.65631900382e-05
1.65618850999e-05
1.65598091883e-05
1.65618722204e-05
1.65414097851e-05
1.64740364995e-05
1.64224083475e-05
1.7327136155e-05
3.84418430933e-05
0.00280756167291
)
;
    }
    sides
    {
        type            calculated;
        value           nonuniform List<scalar> 
11
(
1.65644645608e-05
1.65631900382e-05
1.65618850999e-05
1.65598091883e-05
1.65618722204e-05
1.65414097851e-05
1.64740364995e-05
1.64224083475e-05
1.7327136155e-05
3.84418430933e-05
0.00280756167291
)
;
    }
    bottom
    {
        type            calculated;
        value           nonuniform List<scalar> 0();
    }
    front
    {
        type            calculated;
        value           nonuniform List<scalar> 
167
(
1.64603668361e-05
1.645837901e-05
1.64465697917e-05
1.64404483514e-05
1.63775600928e-05
1.6268612052e-05
2.18542429094e-05
0.000275768124354
0.0101241435933
1.64596521092e-05
1.64489598283e-05
1.64459436482e-05
1.63748515643e-05
1.62492381133e-05
2.10911062781e-05
0.000221911578966
0.00958912498985
1.64606205469e-05
1.6449023898e-05
1.64506789043e-05
1.63737563047e-05
1.62330320684e-05
2.04416494667e-05
0.000183378267287
0.00913144793726
1.64619641983e-05
1.64613312402e-05
1.64484498069e-05
1.64529884761e-05
1.63736547338e-05
1.62238908165e-05
1.98709300058e-05
0.000151572301316
0.00868197931463
1.6461834145e-05
1.64608503253e-05
1.64471653708e-05
1.6449362753e-05
1.63772531291e-05
1.62400353128e-05
1.94427162703e-05
0.000123344233897
0.00809238210589
1.64616938377e-05
1.64600896986e-05
1.64430662053e-05
1.644389077e-05
1.63806092494e-05
1.62514450817e-05
1.91658405395e-05
0.000105820837556
0.00732990602335
1.646222409e-05
1.64610826794e-05
1.64598649143e-05
1.64429835746e-05
1.64416484318e-05
1.63739896299e-05
1.62405469889e-05
1.8763824254e-05
9.5810167077e-05
0.00736157003747
1.64623580083e-05
1.64616782985e-05
1.64602898682e-05
1.64588140033e-05
1.64455308033e-05
1.6433696104e-05
1.63664818631e-05
1.62462437168e-05
1.82294086297e-05
8.40237738284e-05
0.00710789038351
1.64619187104e-05
1.64610053547e-05
1.6459590753e-05
1.64568958235e-05
1.64482317048e-05
1.64270173116e-05
1.6373481554e-05
1.62686688703e-05
1.77985807237e-05
7.21071512753e-05
0.00672486815783
1.64605007211e-05
1.64586166086e-05
1.64551720795e-05
1.64478851212e-05
1.64307630156e-05
1.63895914493e-05
1.62970331929e-05
1.74962727772e-05
6.3416182695e-05
0.00664891706664
1.64601326642e-05
1.64579244273e-05
1.64539593677e-05
1.64458397475e-05
1.64303849525e-05
1.63880194531e-05
1.63175663274e-05
1.73010969412e-05
5.93086173556e-05
0.00612587551338
1.64598536469e-05
1.64574582027e-05
1.64532864121e-05
1.64449112186e-05
1.64260109419e-05
1.638775224e-05
1.6309376241e-05
1.71186688669e-05
5.8135233899e-05
0.00632727888986
1.64599167653e-05
1.64574097773e-05
1.64531027305e-05
1.644500087e-05
1.64230051207e-05
1.63921078316e-05
1.63057243358e-05
1.69185078875e-05
5.86485059753e-05
0.00619493001748
1.64605311421e-05
1.64580255449e-05
1.64537871763e-05
1.64466774478e-05
1.64222724226e-05
1.63940892907e-05
1.63038961043e-05
1.67536740255e-05
5.56512018627e-05
0.00554838317159
1.64651267173e-05
1.64632593625e-05
1.64609016832e-05
1.64571362856e-05
1.64512915132e-05
1.6425389969e-05
1.64003495562e-05
1.6309175156e-05
1.66889829954e-05
4.99111633063e-05
0.00485211207653
1.64799767322e-05
1.64782119177e-05
1.64761247208e-05
1.64728182992e-05
1.6468746351e-05
1.6442316995e-05
1.64168044193e-05
1.63398161775e-05
1.67479771381e-05
4.55328334193e-05
0.0044992757499
1.65644645608e-05
1.65631900382e-05
1.65618850999e-05
1.65598091883e-05
1.65618722204e-05
1.65414097851e-05
1.64740364995e-05
1.64224083475e-05
1.7327136155e-05
3.84418430933e-05
0.00280756167291
)
;
    }
    atmosphere
    {
        type            calculated;
        value           nonuniform List<scalar> 
17
(
0.0101241435933
0.00958912498985
0.00913144793726
0.00868197931463
0.00809238210589
0.00732990602335
0.00736157003747
0.00710789038351
0.00672486815783
0.00664891706664
0.00612587551338
0.00632727888986
0.00619493001748
0.00554838317159
0.00485211207653
0.0044992757499
0.00280756167291
)
;
    }
    floatingObject
    {
        type            calculated;
        value           nonuniform List<scalar> 0();
    }
    procBoundary11to9
    {
        type            processor;
        value           nonuniform List<scalar> 9(1.64594195171e-05 1.64567507715e-05 1.64433993746e-05 1.64298279275e-05 1.63788748742e-05 1.62909887452e-05 2.27256768504e-05 0.000352053675335 0.0106674999441);
    }
    procBoundary11to10
    {
        type            processor;
        value           nonuniform List<scalar> 
23
(
1.64615574304e-05
1.64612386383e-05
1.64612386383e-05
1.64618129493e-05
1.64618129493e-05
1.64627610016e-05
1.64625927888e-05
1.64625308747e-05
1.64625308747e-05
1.64625267538e-05
1.64625267538e-05
1.64626402892e-05
1.64624294513e-05
1.64615716594e-05
1.64615716594e-05
1.64612481405e-05
1.64611095868e-05
1.6461182939e-05
1.64620304551e-05
1.64620304551e-05
1.64660728869e-05
1.64808973181e-05
1.65652487643e-05
)
;
    }
}


// ************************************************************************* //
