/*--------------------------------*- C++ -*----------------------------------*\
| =========                 |                                                 |
| \\      /  F ield         | OpenFOAM: The Open Source CFD Toolbox           |
|  \\    /   O peration     | Version:  v2012                                 |
|   \\  /    A nd           | Website:  www.openfoam.com                      |
|    \\/     M anipulation  |                                                 |
\*---------------------------------------------------------------------------*/
FoamFile
{
    version     2.0;
    format      ascii;
    class       volVectorField;
    location    "2.9";
    object      ddt0(rho,U);
}
// * * * * * * * * * * * * * * * * * * * * * * * * * * * * * * * * * * * * * //

dimensions      [1 -2 -2 0 0 0 0];


internalField   nonuniform List<vector> 
167
(
(1.79819231361 -1.77898877515 9.32758328478e-20)
(1.77975867111 -4.9445158079 -1.92445150965e-19)
(1.70576206975 -8.0531642682 -1.4953840722e-19)
(1.57609211425 -10.9794599779 -2.25472300412e-20)
(1.39196887064 -13.5528299244 1.39009294954e-19)
(1.11765477204 -15.657865181 6.17203202107e-20)
(0.762084396805 -17.1639599051 1.04827255314e-19)
(0.295199541399 -17.8594326995 9.08900014532e-20)
(5.0012471523 -1.86797125903 1.73028863177e-19)
(4.84881010969 -5.01830918926 -2.46991739774e-19)
(4.55771707234 -8.25344751529 4.70344527025e-20)
(4.15073927064 -11.3262309328 2.25179055169e-19)
(3.57724766139 -14.0379524069 4.74151773537e-19)
(2.79389869804 -16.3061172217 4.82463299505e-19)
(1.74643239913 -17.9911532786 6.05888578565e-19)
(0.401259857342 -18.9330359805 2.44489994745e-19)
(8.44958328963 -1.98810249992 -2.07056576795e-19)
(8.24950639445 -5.26068048324 -1.14906369447e-18)
(7.78697818127 -8.66267475739 -3.33179323614e-19)
(7.14018698518 -11.945638662 -2.80765475406e-21)
(6.20402564142 -14.8841070788 1.87515665878e-19)
(4.95385369654 -17.4445873131 -5.10809593142e-20)
(3.29187046457 -19.4961342302 6.28616220939e-20)
(1.14156671119 -20.8696274477 -1.23072464936e-19)
(12.1479264653 -2.13468165508 7.50599896884e-20)
(11.9455853808 -5.63856462488 -5.24433048244e-19)
(11.3390756141 -9.32817694879 -1.64516430418e-19)
(10.4537848607 -12.91507948 4.82669283721e-21)
(9.23230932559 -16.2115503808 -4.37189422303e-20)
(7.56538286336 -19.1872898434 -4.64277312515e-20)
(5.39881467105 -21.7626788751 1.009998948e-19)
(2.58311535234 -23.7916462392 -1.13638852642e-19)
(-1.05203247276 -25.1569982476 -1.49040440714e-19)
(16.106015788 -2.30742981447 1.19931721074e-19)
(15.8563885645 -6.10679468603 -3.10850560796e-19)
(15.1270946731 -10.1614793228 -4.21722210495e-19)
(14.0803766801 -14.1127190572 -2.66137579175e-20)
(12.6228701102 -17.8329975137 -9.25098621892e-21)
(10.6469418714 -21.3396213841 -2.4992795929e-20)
(8.07691522667 -24.5464502605 -6.03741594205e-20)
(4.7368012132 -27.3996061618 8.12145427362e-21)
(0.483427847147 -29.7650190595 -6.11947469199e-21)
(-4.94900362148 -31.533525707 -5.83646871994e-21)
(20.4010061553 -2.48795297461 2.05043788482e-19)
(20.1182843048 -6.64426534926 -5.16514271378e-19)
(19.3006250354 -11.0707388147 -1.65233550554e-19)
(18.1567934756 -15.4577180986 3.27693646269e-20)
(16.5272559191 -19.6853799245 3.53109912271e-20)
(14.3503916965 -23.7697706334 2.65298310703e-20)
(11.505548108 -27.7142625157 -9.64885312818e-21)
(7.86604008242 -31.4385774046 4.92862614193e-22)
(3.25043014768 -34.9056065988 2.54966241362e-20)
(-2.67401022932 -38.127636533 5.01298459803e-20)
(25.061892554 -2.67848874882 2.06620584551e-19)
(24.7707665069 -7.22233595851 -3.02032471939e-19)
(23.9028876003 -12.0534402456 1.3400413404e-19)
(22.6807380869 -16.9055385685 1.11735555953e-19)
(20.9779712235 -21.6600298236 2.98020036768e-20)
(18.7111632572 -26.3738038435 6.98142780823e-21)
(15.7528632467 -31.0462734213 -3.39113644185e-20)
(12.0163485447 -35.6757983507 -2.65991591243e-20)
(7.24256266724 -40.3351195315 6.91075907658e-21)
(1.23366634315 -45.0573335055 -9.29135865166e-21)
(30.1076270137 -2.87951704019 1.03612114478e-20)
(29.8339029594 -7.81565976287 -7.10515490543e-19)
(28.9372010942 -13.066546138 -3.37261959941e-19)
(27.7053114269 -18.3957238826 -4.52060009719e-20)
(25.9997816221 -23.6702195351 3.22470684475e-20)
(23.7285767644 -28.9992444412 1.98582297995e-20)
(20.8336993541 -34.4120947717 -4.51302458899e-21)
(17.145228432 -39.9558737036 -2.12612280846e-20)
(12.5302881353 -45.707043905 2.09569011018e-20)
(6.76329420784 -51.7863190624 -2.23633611905e-20)
(35.5403946275 -3.07236032206 9.97717506489e-20)
(35.3056631631 -8.40522841748 -6.16436736996e-19)
(34.3945903734 -14.0706197209 -1.45319412369e-19)
(33.2127001117 -19.855041387 3.22201639391e-20)
(31.576103194 -25.6512379746 5.21570411223e-20)
(29.4083204031 -31.5434419669 1.5795146897e-19)
(26.6573736873 -37.6293190799 -6.89179666646e-20)
(23.2237854535 -43.985776292 6.80160207012e-21)
(18.9767646923 -50.7325900256 -1.34205523448e-20)
(13.7563667619 -58.0681805658 -2.91598808064e-20)
(41.3588939337 -3.25112075406 1.05537256813e-19)
(41.1486683037 -8.97381859236 -4.47637661017e-19)
(40.2878521934 -15.0327322118 -1.44549697219e-19)
(39.1736574662 -21.2280261837 9.2562855871e-21)
(37.6675926181 -27.4899873646 4.12492930626e-20)
(35.6938292272 -33.919310978 4.273383628e-21)
(33.1882646508 -40.5968282021 6.2372383709e-21)
(30.1209384882 -47.6472447679 5.02479861558e-21)
(26.3999188021 -55.1923015727 2.37881981394e-20)
(21.9263268131 -63.4642341043 -5.18737333733e-20)
(47.524853552 -3.4269378076 4.90290642332e-19)
(47.3553840722 -9.49090682242 1.73507403681e-19)
(46.5626453971 -15.9024619012 2.90615718675e-19)
(45.5592820717 -22.4906433959 -2.7460897911e-20)
(44.2134555041 -29.1494979705 9.9863514395e-20)
(42.4686977853 -36.025546379 -3.6285979509e-20)
(40.3054118499 -43.2029391838 2.91430699044e-21)
(37.6818888543 -50.7815237095 1.08068044239e-21)
(34.5918735479 -58.9448770271 -9.78373924428e-20)
(30.989132587 -67.881508773 -1.09217392095e-19)
(54.0077936548 -3.57580268765 2.09883918571e-19)
(53.9144655419 -9.95097965488 -4.23087928744e-19)
(53.1685252344 -16.6700376631 -1.84866648209e-19)
(52.3057950225 -23.5939477637 -2.27352523455e-20)
(51.1490320214 -30.5989883778 4.06675745403e-20)
(49.6667284405 -37.8315021767 1.01394198188e-20)
(47.8574057035 -45.3858105976 -2.71616166955e-20)
(45.7317861709 -53.3683876574 -1.01461961903e-19)
(43.2828222199 -61.9013840898 -2.51941910593e-19)
(40.5871256439 -71.1887564652 -2.67431143816e-19)
(60.7879455774 -3.69513008942 1.22471316254e-19)
(60.7528324752 -10.3423773488 -5.59467860443e-19)
(60.074102403 -17.3361032332 -2.95545125885e-19)
(59.3451315633 -24.5292027929 -2.0793016794e-20)
(58.3975115893 -31.8092706565 -5.24387653672e-20)
(57.1876532017 -39.3210147283 -6.96512667385e-20)
(55.7373585285 -47.1391853049 -2.56335769921e-20)
(54.0765689204 -55.3616807712 -1.54797477651e-19)
(52.2658179196 -64.1017418741 -2.63112254502e-19)
(50.3608960348 -73.4910594118 -1.61506244618e-19)
(67.8093720886 -3.79486778932 3.42043537298e-19)
(67.807499035 -10.6761847637 -1.28498257218e-19)
(67.2135523009 -17.8870462966 1.63388706462e-19)
(66.6396147554 -25.2928660747 -2.89014337273e-20)
(65.8868580043 -32.7816355598 2.32367377512e-20)
(64.943551369 -40.4967192645 -3.84048761252e-20)
(63.8269689925 -48.4965748412 -4.84994854868e-20)
(62.5942398908 -56.8417054076 4.81489049941e-20)
(61.3134534268 -65.6217975555 -1.93326142487e-19)
(60.0869662559 -74.9310550619 -1.46480724788e-19)
(75.0043648499 -3.87687311455 1.970912173e-19)
(75.0635866962 -10.9504075051 -4.54070324483e-20)
(74.5472048751 -18.3038355693 2.99597856014e-19)
(74.1027132606 -25.8845771216 1.70752081264e-19)
(73.5474522079 -33.5328197074 7.7776130912e-20)
(72.8463523006 -41.3844396429 3.6686139452e-21)
(72.0389907572 -49.48289741 -5.33786330596e-20)
(71.1779945129 -57.8686654972 1.01200931363e-19)
(70.32790382 -66.6078268839 -1.90315121918e-20)
(69.6062608967 -75.7338644129 -5.53951529675e-20)
(82.3479086117 -3.92698392157 4.42145629525e-19)
(82.4886220784 -11.1466512847 2.86782917117e-19)
(82.0262665278 -18.6342026684 2.25314586042e-19)
(81.7104810379 -26.3230918211 3.61703583101e-20)
(81.3282389331 -34.0643805847 2.19262495198e-20)
(80.8413793623 -42.0041653762 -1.53207478217e-20)
(80.3041529448 -50.1544814919 -4.33968072769e-20)
(79.7361416638 -58.5402209831 2.32037955633e-21)
(79.2143614935 -67.1839738988 -6.4227451568e-20)
(78.830934792 -76.107714081 -9.69958605704e-20)
(89.8263985687 -3.94756006818 1.95465854667e-19)
(89.9971903161 -11.2821977211 -6.60265299412e-20)
(89.611985599 -18.853826348 -5.09062330899e-20)
(89.4279221277 -26.6122966841 -4.44855906839e-20)
(89.1966110704 -34.4255441515 7.9365153697e-20)
(88.9022799233 -42.4042483677 -7.03720594464e-20)
(88.5706410079 -50.5701497319 -3.86305171599e-20)
(97.3781007227 -3.96990517083 -9.79732318047e-20)
(97.5809289728 -11.3657607715 -6.249423809e-19)
(97.2627218639 -18.9695949458 -1.44567406201e-19)
(97.1877146829 -26.7771325376 -5.53888369458e-20)
(97.1088272868 -34.6196080458 -2.24373906747e-20)
(104.919145656 -19.0064626549 -7.42415472027e-20)
(104.969051065 -26.8194241774 -5.53538880939e-20)
)
;

boundaryField
{
    back
    {
        type            calculated;
        value           uniform (0 0 0);
    }
    sides
    {
        type            calculated;
        value           uniform (0 0 0);
    }
    bottom
    {
        type            calculated;
        value           uniform (0 0 0);
    }
    front
    {
        type            calculated;
        value           uniform (0 0 0);
    }
    atmosphere
    {
        type            calculated;
        value           nonuniform List<vector> 0();
    }
    floatingObject
    {
        type            calculated;
        value           nonuniform List<vector> 0();
    }
    procBoundary2to0
    {
        type            processor;
        value           nonuniform List<vector> 
14
(
(88.2464702623 -58.9354401497 -1.91096430683e-21)
(87.9675623831 -67.4971384321 5.6507874962e-21)
(87.7939594844 -76.2296704157 -9.70673591051e-21)
(96.9868650636 -42.626374566 -7.46664670405e-21)
(88.2464702623 -58.9354401497 -1.91096430683e-21)
(96.844965637 -50.7946669484 -3.78809804184e-20)
(104.948174849 -3.96805968273 -1.00261380411e-19)
(105.194017362 -11.4006272341 -4.59527308428e-19)
(96.9868650636 -42.626374566 -7.46664670405e-21)
(105.037762196 -34.6741461082 1.02911263459e-20)
(105.194017362 -11.4006272341 -4.59527308428e-19)
(112.571743376 -18.945301739 2.23801148367e-19)
(105.037762196 -34.6741461082 1.02911263459e-20)
(112.762848886 -26.7213063601 4.11953282487e-20)
)
;
    }
    procBoundary2to1
    {
        type            processor;
        value           nonuniform List<vector> 
18
(
(-0.320636199321 -17.5088983366 -3.5187326132e-19)
(-1.34986152797 -18.9024145591 1.03849126914e-20)
(-1.61832807827 -21.4087400202 -2.13769478887e-19)
(-1.61832807827 -21.4087400202 -2.13769478887e-19)
(-5.68683148976 -25.6642565536 2.09242690857e-19)
(-5.68683148976 -25.6642565536 2.09242690857e-19)
(-11.9155913219 -32.5956631306 -2.28388407026e-20)
(-10.2379601937 -41.0768834805 -2.94661887717e-20)
(-6.39163129965 -49.8670226737 -5.59293862668e-20)
(-0.458602840274 -58.4114593984 -6.51880611611e-20)
(7.31814195821 -66.2010063396 -5.96835895407e-22)
(16.6109343405 -72.779223958 -4.01818834922e-20)
(26.8851781528 -77.8866285627 -4.37931063247e-20)
(37.6870801181 -81.4987206563 1.46490080363e-19)
(48.530267148 -83.7213669868 -3.62857691802e-20)
(59.0763858791 -84.8632124713 -2.18051909897e-20)
(69.1501592611 -85.2684384432 -1.46651603133e-20)
(78.7136909525 -85.2507815748 1.32488747505e-19)
)
;
    }
}


// ************************************************************************* //
