/*--------------------------------*- C++ -*----------------------------------*\
| =========                 |                                                 |
| \\      /  F ield         | OpenFOAM: The Open Source CFD Toolbox           |
|  \\    /   O peration     | Version:  v2012                                 |
|   \\  /    A nd           | Website:  www.openfoam.com                      |
|    \\/     M anipulation  |                                                 |
\*---------------------------------------------------------------------------*/
FoamFile
{
    version     2.0;
    format      ascii;
    class       surfaceVectorField;
    location    "3.2";
    object      ddtCorrDdt0(Uf);
}
// * * * * * * * * * * * * * * * * * * * * * * * * * * * * * * * * * * * * * //

dimensions      [0 1 -2 0 0 0 0];


internalField   nonuniform List<vector> 
300
(
(0.00555058386606 -0.00231580989638 9.62405059771e-22)
(0.00666466658078 -0.000662412507845 9.00399884492e-23)
(0.00572955871678 -0.00452183758558 3.564047544e-21)
(0.00666458205203 -0.00348423923933 1.43598791132e-21)
(0.00605332933314 -0.00650230929669 7.15196195737e-21)
(0.00675534262662 -0.00574555562194 3.71978797796e-21)
(0.0065861553197 -0.00834056288281 -1.25048996878e-20)
(0.00668280481004 -0.00794080201978 5.42581238766e-21)
(0.00717800652843 -0.0102799402685 -2.1520498406e-19)
(0.00637155930542 -0.0105738978116 -2.62424109302e-20)
(0.00600901430099 -0.0139808074622 -1.18471905349e-18)
(0.00752278109149 -0.0137923026258 -2.82790470171e-19)
(-0.000477939884544 -0.0228107486164 -3.24164824343e-18)
(0.00760822731619 -0.0190308316899 -1.30829756778e-18)
(0.00469348331604 -0.0555418615206 -4.53693000551e-18)
(0.00560089179609 -0.031493489199 -2.93012347973e-18)
(0.0121847773497 -0.0717023201066 4.95095320427e-20)
(0.0155060728543 -0.0484007484857 -3.78431563207e-18)
(0.00442195145865 -0.0906846854024 4.81910992754e-18)
(0.0178765067281 -0.0618236915048 2.16088652808e-18)
(-0.00886260238903 -0.113856725441 6.0181726741e-18)
(0.021276476942 -0.085207237001 2.9134715025e-18)
(0.0224321262746 -0.133441678185 6.90268482227e-18)
(0.0164302303084 -0.0974727761655 2.61943647883e-18)
(0.0675066512367 -0.0931860184441 6.52250080483e-18)
(0.0512409103841 -0.103814805747 3.58091997025e-18)
(0.0703061720701 -0.0992984361892 3.96377545266e-18)
(0.00795762506524 -0.0022592728725 5.6362284e-22)
(0.00911480038404 -0.000565070344107 7.17917931162e-23)
(0.00807236869055 -0.00446171802233 1.59172834528e-21)
(0.00910659295351 -0.00329350121527 8.47135807019e-22)
(0.00816413609799 -0.00686841655905 1.99363840826e-21)
(0.00944179008924 -0.00564190774696 1.39749431753e-21)
(0.00799702486398 -0.00970471617721 -8.31169885467e-21)
(0.00982041229322 -0.00808457459632 1.06290339375e-21)
(0.00740457910704 -0.0134192716613 -9.38278970408e-20)
(0.0103612589788 -0.0113072865121 -1.25561723435e-20)
(0.00657088654567 -0.0172516812296 -4.06368984461e-19)
(0.0115311487035 -0.0152740691759 -1.10561902934e-19)
(0.00732962488828 -0.0225593038863 -9.96772804084e-19)
(0.0128750466006 -0.0198061123353 -4.2614470468e-19)
(0.0102494603361 -0.032904126423 -2.1775091063e-18)
(0.0155741270998 -0.0255524502399 -9.40915812669e-19)
(0.0188413545906 -0.0395481134649 -1.67293863604e-18)
(0.0213650541983 -0.0338741566625 -2.10688845507e-18)
(0.0301024519797 -0.0525358017289 2.5524810304e-19)
(0.0296491491387 -0.0424061982455 -8.04878936814e-19)
(0.0378403414068 -0.0676297997246 -4.85264692766e-19)
(0.0346303632555 -0.0531009651279 -2.52808930242e-19)
(0.0489453467128 -0.0935459348168 -7.0232837319e-19)
(0.0397059307057 -0.0689077426354 -1.85108977193e-18)
(0.0676845296209 -0.0981779566084 1.02219461808e-18)
(0.0523677909936 -0.088939795873 -9.88435001912e-20)
(0.0786441008344 -0.101362203473 1.12567801018e-18)
(0.0102989012575 -0.00207723829922 3.55304760135e-22)
(0.0114326320791 -0.000451377622004 1.92710563068e-23)
(0.0105272412066 -0.00412960757742 6.52901779264e-22)
(0.0114335380831 -0.00295369231903 5.0942621227e-22)
(0.011029155676 -0.00638444005418 4.66759303022e-22)
(0.0119990242486 -0.00511212143341 4.60058247877e-22)
(0.0117299699559 -0.00898043071052 -3.18157009511e-21)
(0.0127278288413 -0.00728424928368 -2.91288407017e-23)
(0.0129082241656 -0.0121601942864 -2.9290178237e-20)
(0.0138145653136 -0.0100543689611 -4.66408640586e-21)
(0.0149162872231 -0.0159204905722 -1.30337623153e-19)
(0.0154556457027 -0.0134732388227 -3.44557618808e-20)
(0.0184275828847 -0.0209865224975 -3.70287713265e-19)
(0.017896649582 -0.01774948233 -1.36994551795e-19)
(0.0234030343894 -0.0282337167224 -8.70295161437e-19)
(0.0224747554881 -0.0228689148281 -3.47777821647e-19)
(0.0293479900825 -0.0358947367633 -1.23882875584e-18)
(0.0283182418237 -0.0295423083669 -7.58098609693e-19)
(0.0350473741352 -0.043920554789 -1.3129359701e-18)
(0.0366050413688 -0.0364635951171 -8.11209345085e-19)
(0.0404204518485 -0.0547991724574 -1.6186340094e-18)
(0.0440887294463 -0.0434810360274 -8.68422221018e-19)
(0.0516801301838 -0.0698871035454 -1.24760489893e-18)
(0.0527586535791 -0.0544644937997 -1.20066499318e-18)
(0.0747235665025 -0.0875572115417 4.63989191479e-21)
(0.0674296760439 -0.072400238678 -4.23501240601e-19)
(0.0937618273013 -0.0899125840545 3.42956065904e-19)
(0.0124649845043 -0.0018047077562 1.73392508442e-22)
(0.0134872277101 -0.000306382870982 -2.16892862686e-22)
(0.0127979883899 -0.00359456340708 3.16582680883e-22)
(0.0134942313113 -0.00247760286336 4.22102138926e-22)
(0.0135634253313 -0.0055681106104 -3.5829895847e-23)
(0.0142659449028 -0.00431834644507 1.64428349385e-22)
(0.0146421008947 -0.00782553171173 -1.51164515145e-21)
(0.0152873258706 -0.00610263237413 -9.63173546331e-23)
(0.0162424584651 -0.0105642977944 -9.82967004967e-21)
(0.0168250451894 -0.00837275933753 -1.74610342638e-21)
(0.0185927266808 -0.0140078547449 -4.11126905229e-20)
(0.019080635516 -0.0111327700978 -1.06314054197e-20)
(0.0221913837694 -0.0184713224703 -1.14484660178e-19)
(0.0223750927688 -0.0145229440173 -4.11341577803e-20)
(0.027554480807 -0.023460403044 -2.35581269903e-19)
(0.0272433477709 -0.0185111789499 -1.03450716847e-19)
(0.0349914780494 -0.0293353386647 -3.30479198934e-19)
(0.0337017821692 -0.023316820704 -1.92625176059e-19)
(0.0438014416505 -0.035704192102 -3.66695596007e-19)
(0.042229664041 -0.0283740683944 -2.23189738979e-19)
(0.053710915127 -0.0443485549862 -4.50453204792e-19)
(0.0517874142207 -0.0338441616907 -2.38702664853e-19)
(0.0671377763433 -0.0564026634463 -3.76561334849e-19)
(0.0635304932862 -0.0419269173056 -3.28749162944e-19)
(0.0882026611081 -0.0713045853601 -8.51850666111e-20)
(0.0808759366719 -0.0549301258344 -1.69422886669e-19)
(0.106628201228 -0.0681695685752 5.41931638673e-21)
(0.0143036778285 -0.00145314186297 3.18167677978e-23)
(0.0151528229377 -0.000132982596076 -8.7301055205e-23)
(0.0147209068102 -0.00288751851043 2.69947807428e-22)
(0.0151522328231 -0.00188910898118 4.61186505813e-22)
(0.0157021484773 -0.00446222230291 1.03940890599e-22)
(0.0160872763899 -0.00331004094158 1.95007733307e-22)
(0.0170966242012 -0.00624314976376 -3.30775629558e-22)
(0.0173323216582 -0.00460097029711 2.45744981e-22)
(0.0191395798321 -0.00835478299423 -2.54783879638e-21)
(0.0191914414605 -0.00624243624122 -5.23897368018e-22)
(0.0220659551991 -0.0109383151459 -1.06528726771e-20)
(0.0218667443279 -0.00815486139056 -2.64736342626e-21)
(0.0262314889298 -0.0140752486256 -3.01002144492e-20)
(0.0256110661637 -0.0103992023456 -1.03395040866e-20)
(0.0319949106788 -0.0176032267576 -6.04946230026e-20)
(0.0307239455703 -0.0129993753386 -2.61747695931e-20)
(0.0396668704837 -0.0216115020165 -8.53357161042e-20)
(0.0375040597351 -0.0159990184246 -4.72550161718e-20)
(0.0492181295069 -0.026063506174 -9.51968078248e-20)
(0.0463524814952 -0.0190931064003 -5.64718141333e-20)
(0.0610057363263 -0.031784480748 -1.16998623004e-19)
(0.0571280164566 -0.0223883536395 -5.77408810614e-20)
(0.0767897076897 -0.0395698446723 -1.21610714764e-19)
(0.0708961994527 -0.0269486066011 -7.85175208282e-20)
(0.0987725202514 -0.0490236234777 -7.88185036716e-20)
(0.090147665535 -0.0336409915108 -6.28159861885e-20)
(0.116700089688 -0.0406305214778 -3.02057142879e-20)
(0.0156955440789 -0.00103844435897 3.42068682811e-22)
(0.0163297598066 6.11045375508e-05 1.06398247968e-22)
(0.0161670468785 -0.0020413210775 3.86246431692e-22)
(0.0162993806081 -0.0012188811835 3.81819736272e-22)
(0.0173050900897 -0.00313016107402 3.36811823708e-22)
(0.0173474125565 -0.00214273843705 1.19240097161e-22)
(0.0189141627303 -0.00432548048829 5.26232425401e-23)
(0.0187293095638 -0.00287297236602 2.09420679356e-22)
(0.021249228484 -0.00567971670918 -6.23421997898e-22)
(0.0207643160904 -0.00381083835057 -1.87906390634e-22)
(0.0245245868616 -0.00724601428222 -2.33399483575e-21)
(0.023644110435 -0.00481549438972 -5.32280940661e-22)
(0.0289889034079 -0.00903510358389 -6.41405923049e-21)
(0.027576246591 -0.00590107535679 -2.2198302169e-21)
(0.0349591765057 -0.0109791763157 -1.29351627623e-20)
(0.0327915621443 -0.00705351524417 -5.40922344375e-21)
(0.0428153338939 -0.013049226843 -1.8391114201e-20)
(0.0396544404589 -0.00819557676581 -9.83175199931e-21)
(0.0528244945955 -0.0151554826958 -1.90158873699e-20)
(0.0485447329446 -0.00911276876168 -1.17479897576e-20)
(0.0655686095006 -0.0176030241423 -1.92597788852e-20)
(0.0597489214773 -0.00975691692433 -1.04470403834e-20)
(0.0825476099498 -0.0205425382351 -1.97227922524e-20)
(0.0742498869833 -0.0103315118975 -1.13689243062e-20)
(0.105608547167 -0.0233512229299 -1.42031968048e-20)
(0.0939493950274 -0.0107638611897 -9.62977513422e-21)
(0.120738576956 -0.0100150947418 -3.59731884446e-21)
(0.0165617917224 -0.000576679053183 1.4614930143e-22)
(0.0169534670474 0.000261363537166 -1.22613435722e-22)
(0.0170510089371 -0.0010979777892 1.14813401742e-22)
(0.0168720986095 -0.000506539012147 6.90575294866e-23)
(0.0182782372203 -0.00164934932843 -8.15104719087e-24)
(0.0179816381199 -0.000888613305751 -1.73394111541e-22)
(0.0199901845666 -0.00221078959441 -3.11089538182e-23)
(0.0194154073132 -0.001034248593 4.19419360053e-23)
(0.0224442594177 -0.00276181465288 -9.67653333972e-23)
(0.0214799864823 -0.0012565356875 -1.2109902088e-22)
(0.0258290805601 -0.00330720773321 -4.18116321812e-22)
(0.0243859788299 -0.00137072911539 -7.7641720633e-23)
(0.0303474636194 -0.00380097514666 -1.21499443016e-21)
(0.0282914353127 -0.00134305368158 -4.52568868858e-22)
(0.0362837836318 -0.00415258183495 -2.30581268077e-21)
(0.0333936401898 -0.00108837524814 -1.00722437476e-21)
(0.0439998809063 -0.00420694689337 -3.18862755596e-21)
(0.0400152391225 -0.000446626270702 -1.72463767062e-21)
(0.0538831342839 -0.00378264685315 -3.17914277111e-21)
(0.0485396313372 0.000828624788072 -1.91517742291e-21)
(0.0665566497839 -0.00281487163538 -2.5561858044e-21)
(0.0593962469443 0.00296127192903 -1.65343606669e-21)
(0.0832087303896 -0.000915547275922 -1.27590718808e-21)
(0.0734231137339 0.0062998400439 -1.03122849307e-21)
(0.105304293851 0.00291536311254 9.76102826094e-22)
(0.0919843094984 0.0115522967709 7.90553764505e-22)
(0.116388685398 0.0198709699445 6.13474341796e-21)
(0.0168549902 -8.43628782163e-05 -1.99705207666e-22)
(0.0169964333177 0.000463783374729 -4.07807054535e-22)
(0.0173388834363 -0.000127893668026 -2.19149983795e-22)
(0.0168795295631 0.000214666125075 -5.07814824422e-23)
(0.0185798040118 -0.000144031240845 -1.23301128344e-22)
(0.0179942960833 0.000369676336903 -2.00274865797e-22)
(0.020282081019 -4.07636070025e-05 -4.80481310561e-23)
(0.0193554751895 0.000794172674138 1.60099125603e-23)
(0.0227026606502 0.000179340775168 -1.01975408115e-22)
(0.0213563413155 0.00125896488353 -1.49674110176e-22)
(0.0259946773067 0.00059630367173 -1.1209426768e-22)
(0.0241228116037 0.00197023825601 -4.4793654671e-23)
(0.0303313679432 0.00131719458369 -2.44798813464e-22)
(0.0277902247532 0.00302025385954 -9.57078498486e-23)
(0.0359584442455 0.0024844487245 -4.26049364609e-22)
(0.0325324200966 0.00455871244942 -2.09653512048e-22)
(0.0431988993417 0.00432625044205 -4.51187537573e-22)
(0.0386050499222 0.00681473606297 -3.67730276093e-22)
(0.0524520495896 0.00714183844968 -3.89470718496e-22)
(0.0463405745614 0.0101102120043 -2.65089994197e-22)
(0.0643053760585 0.0112712085778 -1.28478755366e-22)
(0.0561462142238 0.0148440952457 -2.03376776269e-22)
(0.0796242171966 0.0174912750806 1.03523245951e-21)
(0.0686621903543 0.0217116679722 3.64400743474e-22)
(0.0992173544408 0.027193567168 5.94919435637e-21)
(0.0846003823213 0.0317902048243 1.95221193319e-21)
(0.104220465044 0.0465017974448 1.17531738074e-20)
(0.0165748568801 0.00038013400571 -2.58883329311e-22)
(0.0164692169809 0.000662697063701 -3.4406252798e-22)
(0.0170216433286 0.000822764994306 -3.19063644441e-23)
(0.0163010868587 0.000903985084092 9.19540103279e-23)
(0.0182069117973 0.00136660617566 -6.09638248926e-23)
(0.0173428832448 0.00155630377052 3.03795538937e-23)
(0.0198044143067 0.00205117806567 -8.56160665601e-23)
(0.0186043242451 0.0025095179793 -4.37288803055e-23)
(0.0220567304454 0.00298219063331 -9.24923567321e-23)
(0.0204114641066 0.00359634650507 -1.13043854135e-22)
(0.025086086431 0.00425953353426 -2.84072368397e-23)
(0.0228982651124 0.00503603998556 -2.17112542205e-23)
(0.0290235658569 0.00604247854094 -6.0562548432e-23)
(0.0261482504899 0.00696889986179 -1.47271594859e-23)
(0.0340594061806 0.00854916256163 -1.51334423532e-22)
(0.0302890684007 0.0095969750311 -6.72965197433e-23)
(0.0404421182213 0.012077688344 -1.81632732717e-22)
(0.0355191501139 0.0131993114654 -1.30557849222e-22)
(0.0484803028265 0.0170472263911 -7.89960519707e-23)
(0.0420342643606 0.0181604242375 -1.20372248864e-22)
(0.0586119892875 0.0240349451944 2.8950272257e-22)
(0.0501074076333 0.0250027015842 -9.19579513999e-23)
(0.071375061811 0.0341418163117 1.28138021715e-21)
(0.0601066466821 0.0345717361204 6.5720041229e-23)
(0.086991697391 0.0487780614256 7.7561913842e-21)
(0.0723135462407 0.0480707835736 1.203781275e-21)
(0.0865169740425 0.0669088753114 1.07016626961e-20)
(0.0157473557166 0.000819849499447 6.77481165863e-24)
(0.0154049401109 0.000837676904362 -9.81263745936e-23)
(0.0161155998147 0.00172292712407 1.54239928666e-22)
(0.0151563759672 0.00151825625753 3.07666061597e-22)
(0.0171885344047 0.00273027489175 4.76144984808e-23)
(0.0161088352528 0.00261151493627 8.00983493914e-23)
(0.0185962800947 0.0039484655806 -7.11566678809e-23)
(0.017187021538 0.00402483133406 -8.27610128517e-24)
(0.0205598036005 0.00548983503844 -4.22627516238e-23)
(0.0187153156142 0.00563744613083 -1.03633918724e-22)
(0.0231771050616 0.00750241758266 -8.03117686663e-24)
(0.0207981340989 0.00768267182906 -1.50446166835e-23)
(0.0265323007862 0.0101561388154 -2.14611307972e-23)
(0.0235075824981 0.0103287212212 1.27531259672e-23)
(0.0307423804622 0.0137295420825 -4.65199454337e-23)
(0.0268803834328 0.0138037326022 -4.53485196817e-23)
(0.0359506750685 0.0185554335842 -6.92973653689e-23)
(0.0310306026409 0.0184029335563 -1.33108935036e-23)
(0.0423282515228 0.0250996511739 -1.33334148293e-22)
(0.0360590648449 0.0245307144361 7.98949925254e-24)
(0.0500695704446 0.0340020427353 -3.15740632741e-22)
(0.0420568920784 0.0327148241791 -4.47760568782e-23)
(0.0593107199621 0.0463585710962 -1.18789009269e-23)
(0.0491484441886 0.0437401350034 -2.6779121645e-23)
(0.0698891980433 0.0633669095012 4.1492525869e-21)
(0.0573570061142 0.0586436193997 5.03706373645e-22)
(0.0661743451849 0.0786284516424 7.0039552196e-21)
(0.0144319142142 0.00118977204554 2.02764875345e-22)
(0.014695272125 0.00247293597201 2.33524482323e-22)
(0.0156093966979 0.00389104347324 2.42077496255e-23)
(0.0167559886924 0.00555603500296 -4.0753352128e-23)
(0.0183427041814 0.00760054585358 -7.64157837834e-23)
(0.0204356791125 0.0101786554186 5.73968615036e-24)
(0.0230736251186 0.0135096409732 -1.11342629173e-23)
(0.0263040224997 0.017835007059 -1.21394677515e-23)
(0.0301663799643 0.0234948054589 6.39759711179e-23)
(0.0255443617887 0.0222733186308 -4.32730561756e-23)
(0.0347044160147 0.0309722203624 9.65475906676e-23)
(0.0289863050164 0.0290838009066 -6.74585447385e-24)
(0.0399378630621 0.0407781061076 2.44185454218e-22)
(0.0329024308115 0.0379431735073 4.25950089393e-23)
(0.0457753332034 0.0537571163678 4.88806152927e-22)
(0.03725461775 0.0494865777695 2.76100981004e-22)
(0.0518551351013 0.0709313795117 3.35840900635e-21)
(0.0417661304671 0.0645050195115 1.04032854816e-21)
(0.0458238171484 0.0840086366883 6.48925651526e-21)
(0.0235911290139 0.0268853303675 -1.13994881767e-22)
(0.0263515732178 0.0348060991641 -6.06984362022e-23)
(0.0293174130178 0.0449464111852 7.45105357249e-23)
(0.032263499245 0.0579908386562 8.27623376239e-22)
(0.0249488558372 0.052550327204 1.09143006012e-23)
(0.034652408991 0.0747745139832 4.17117605707e-21)
(0.0260528194614 0.067303355336 7.220540616e-22)
(0.0257403713613 0.0858445972885 5.46587913227e-21)
(0.0183350977839 0.0598327630302 -9.46550140383e-23)
(0.0170712645967 0.076010870041 2.01675713679e-21)
(0.00643896081135 0.0839502059865 1.27540657001e-21)
)
;

boundaryField
{
    back
    {
        type            calculated;
        value           uniform (0 0 0);
    }
    sides
    {
        type            calculated;
        value           nonuniform List<vector> 0();
    }
    bottom
    {
        type            calculated;
        value           uniform (0 0 0);
    }
    front
    {
        type            calculated;
        value           uniform (0 0 0);
    }
    atmosphere
    {
        type            calculated;
        value           nonuniform List<vector> 0();
    }
    floatingObject
    {
        type            calculated;
        value           nonuniform List<vector> 4((0 -1.43285447626e-13 1.79106809533e-14) (0 -1.43285447626e-13 1.79106809533e-14) (0 0 0) (0 -2.86570895253e-13 1.79106809533e-14));
    }
    procBoundary8to3
    {
        type            processor;
        value           nonuniform List<vector> 8((0.00421639316037 -0.000755386476509 2.01168211678e-22) (0.00423451183382 -0.00371619447137 2.81024450925e-21) (0.00445439685111 -0.00609294381681 7.60423600897e-21) (0.00443295032484 -0.00849443175336 1.29003714937e-20) (0.00398761680285 -0.0109497224749 -4.0121319357e-21) (0.00341890743741 -0.013136279664 -1.84763689449e-19) (-0.00138006698622 -0.0187469182846 -9.34446182679e-19) (-0.0270101413782 -0.0189111060942 -1.5230200968e-18));
    }
    procBoundary8to6
    {
        type            processor;
        value           nonuniform List<vector> 
16
(
(0.0979368361605 -0.0667558915835 4.54093047597e-18)
(0.0715555404683 -0.104860873513 3.90130535329e-18)
(0.0721329410391 -0.0986625489153 4.20567185626e-18)
(0.0900793959097 -0.110174526281 2.29220188432e-18)
(0.101490398269 -0.105320430944 8.09845433331e-19)
(0.115627138795 -0.0854814450123 8.71967967313e-20)
(0.127875459121 -0.0589722000921 -2.9189152044e-20)
(0.136347501474 -0.0259900511747 -2.59702498061e-21)
(0.133643501141 0.00956503407557 8.44797108936e-21)
(0.122314398094 0.0420773523553 1.42947677502e-20)
(0.103783882836 0.0691526849443 2.73949698144e-20)
(0.0805943021754 0.0859992848342 2.82257054829e-20)
(0.057345783113 0.0930251390964 1.65151504436e-20)
(0.0350532582492 0.0960417340535 1.52178369662e-20)
(0.0129269778181 0.0959788225807 1.07114140027e-20)
(-0.00767615776077 0.0911049632947 -1.40764524376e-21)
)
;
    }
    procBoundary8to7
    {
        type            processor;
        value           nonuniform List<vector> 
17
(
(0.0139268721936 0.000970899805544 3.93359882276e-23)
(0.0135795089753 0.00203185593679 3.17264601954e-22)
(0.014399243351 0.00349329031359 7.80103714527e-23)
(0.0152441396645 0.00527412195551 1.15431372023e-23)
(0.0164241385087 0.00730133563868 -1.0074054164e-22)
(0.0180319156491 0.00980638644307 -2.81916283078e-23)
(0.020071944511 0.0129736203515 5.74915505593e-24)
(0.0225641959295 0.0170358794608 -4.44847629616e-23)
(0.0211010729296 0.0207745648307 -7.56183513857e-23)
(0.0194072549467 0.0247678956061 -6.24038922537e-23)
(0.0212900724769 0.0318579602725 -1.09181015397e-22)
(0.0231730049647 0.0409428999558 -1.1993943138e-22)
(0.0182984109199 0.0469244745342 -1.83535666504e-22)
(0.0125636643099 0.052856835762 -2.12129795949e-22)
(0.0105056823841 0.0668798660274 -2.51951728816e-22)
(0.000231379778775 0.0730375263441 -9.933022956e-22)
(-0.0110956464632 0.0774898349273 -1.59612385726e-21)
)
;
    }
}


// ************************************************************************* //
