/*--------------------------------*- C++ -*----------------------------------*\
| =========                 |                                                 |
| \\      /  F ield         | OpenFOAM: The Open Source CFD Toolbox           |
|  \\    /   O peration     | Version:  v2012                                 |
|   \\  /    A nd           | Website:  www.openfoam.com                      |
|    \\/     M anipulation  |                                                 |
\*---------------------------------------------------------------------------*/
FoamFile
{
    version     2.0;
    format      ascii;
    class       volVectorField;
    location    "5.3";
    object      ddt0(rho,U);
}
// * * * * * * * * * * * * * * * * * * * * * * * * * * * * * * * * * * * * * //

dimensions      [1 -2 -2 0 0 0 0];


internalField   nonuniform List<vector> 
167
(
(78.3157792958 -40.439619662 -1.23595688485e-19)
(81.0042034875 -48.52937814 -3.66237715155e-19)
(82.9282460346 -58.3408160795 -1.43757829027e-18)
(83.9660879423 -69.5111026937 -2.74288397886e-19)
(84.1418052229 -84.8614483079 -2.59679461337e-20)
(81.1680649728 -100.77495961 -4.85529134906e-18)
(63.3315513509 -60.5960461067 -4.24387571902e-19)
(25.8967339 -4.12963196069 1.01199142944e-18)
(0.365827791437 -0.274387578438 -3.9637332107e-20)
(90.1660016296 -45.4548394706 -2.92911820894e-19)
(93.9118337633 -55.8353301013 -7.24815659845e-19)
(97.1914770027 -68.1254746891 4.71481818066e-19)
(100.507385856 -85.0799330243 -3.65214203165e-18)
(100.020547506 -97.4242805123 1.2223797976e-17)
(88.3977032441 -56.3054809566 9.98467108262e-18)
(29.6702025869 -3.34213518116 3.010982026e-18)
(0.396389964367 -0.367418214232 -5.61529774221e-21)
(99.5919283826 -40.5858961989 -2.50788001895e-19)
(105.420538402 -51.1791782071 -3.99112224064e-19)
(111.334826858 -64.028857357 1.86426415949e-18)
(117.399800014 -81.5859057112 -5.27495018542e-18)
(119.247605054 -89.7959703921 1.39286060653e-18)
(114.448914998 -49.5607157006 9.81238389241e-18)
(31.8802766443 -1.48743086409 1.57939096142e-18)
(0.411810846405 -0.32287175943 5.31420449842e-20)
(101.167239275 -25.489475944 -5.17037354584e-20)
(108.911152971 -33.6911782435 -3.53532795411e-19)
(117.033595698 -44.1216831499 -5.35466006568e-19)
(125.539152331 -56.8449208917 -1.2310121981e-18)
(134.101047705 -74.5260207741 -8.24087855269e-18)
(140.265745942 -81.4964225064 1.52178484419e-18)
(139.47878124 -44.4482807085 8.4301579775e-18)
(30.4875847327 1.03821694593 6.01759072145e-19)
(0.418595686764 -0.264155133452 6.50262586873e-21)
(108.032490372 -17.1382562872 -2.78302916425e-19)
(117.760180662 -24.6947365149 -7.87698506281e-19)
(128.248319888 -34.6124939775 -2.06911794527e-18)
(139.546080524 -46.9698320724 -5.61672051364e-18)
(151.890654456 -65.3414640347 3.38877183447e-19)
(164.188831007 -75.3018126295 3.37942548008e-18)
(164.126060729 -39.5427609119 -2.73706519093e-18)
(26.8222390776 3.3551470763 3.20457687002e-19)
(0.414104582571 -0.314402390549 -5.43333731635e-21)
(113.924740933 -6.95162656055 -4.89498299619e-19)
(125.745643373 -13.434116281 -1.25007261225e-18)
(138.742924865 -22.3986936873 -2.93583844435e-18)
(153.293312534 -34.1739509713 -1.56193391318e-18)
(171.816565187 -53.228677821 -1.94570117039e-18)
(191.83880331 -66.9022065059 -4.21176720384e-18)
(187.971588706 -30.2723926767 -2.16110957526e-18)
(23.5306022084 5.70891724035 3.36771104209e-18)
(0.306728499194 -0.45447914389 1.62475725563e-19)
(106.359789941 8.16550785636 -1.88387682155e-19)
(118.427881378 5.13724975951 -3.10721873722e-19)
(132.342026142 0.279126391889 -1.09388028453e-18)
(148.114355656 -7.02397754614 -1.98970516943e-18)
(166.49031724 -17.4502321815 -1.12821177199e-18)
(191.610758225 -35.1611490205 -1.09901037604e-17)
(218.590211414 -50.0494366999 8.05334029557e-18)
(215.194748135 -10.684177998 5.73454389302e-18)
(17.1022413777 9.14330528499 7.45680322434e-18)
(0.194016493564 -0.244456532056 3.49491204088e-19)
(96.1863328113 19.9609521912 -4.61266043955e-20)
(107.514893617 20.0172318061 -1.14261959309e-19)
(120.986430788 19.042996753 -2.23625679894e-19)
(136.883065495 16.502495862 -8.06384608166e-19)
(155.449993726 11.8137816826 -2.03184733459e-18)
(177.549339335 4.09593217865 -7.75419567268e-18)
(208.349999581 -10.4094717862 -1.27995295923e-17)
(242.308444814 -23.2605480989 9.74323735102e-18)
(235.539675336 14.4329552024 2.30184031669e-17)
(3.16298168409 13.2920221801 9.79050919367e-18)
(0.248452898631 1.52558791729 1.42349608992e-19)
(94.4518410014 30.8147930332 -3.10530855422e-20)
(106.52237738 32.9873773405 -7.87423408248e-20)
(121.047129543 34.5281713644 -2.93580157404e-19)
(138.548690303 34.974898852 -9.30177028013e-19)
(159.506049484 33.9751251091 -2.87858642764e-18)
(184.879444804 30.3353093097 -1.07259559747e-17)
(220.729720151 19.8603876714 3.57698188667e-20)
(261.858667475 9.0356768233 6.97120281316e-18)
(240.625017428 48.9555154357 2.87874631283e-17)
(-4.50067371984 4.60395144401 1.79385258835e-18)
(0.844364742489 2.17013053395 2.63487566512e-22)
(102.985238234 46.6857131848 -9.06998162396e-20)
(118.071123924 51.0944870723 -3.13049931957e-19)
(136.568535732 55.1521947595 -6.5409150934e-19)
(159.139103642 58.8188747694 -1.25954443441e-18)
(187.007678431 60.4436126622 -9.12854001699e-18)
(228.003364068 55.6364202799 7.00432496424e-18)
(278.783710504 49.4421025202 7.44558509308e-18)
(227.475524352 93.4601101081 3.49783269234e-17)
(0.229669677941 -6.94075000618 -2.18109908201e-18)
(0.583786293272 -1.41507903749 6.67091071706e-20)
(96.685668607 60.5820324753 -1.04922018763e-19)
(111.721447391 68.1250950272 -3.36027409621e-19)
(130.357771318 76.1948841023 -7.31058980856e-19)
(153.370992111 85.0660285573 -9.43786419192e-19)
(183.032340605 92.6833160332 -3.57602650474e-18)
(229.382380949 95.1424879934 -2.20085918316e-18)
(282.952141974 90.2023862678 -3.15209181215e-18)
(215.494280584 123.817598842 1.94207445114e-17)
(2.04034230118 5.74974304871 1.69986102217e-18)
(-0.268004779652 -1.68171098632 2.83660549104e-20)
(87.6045907333 74.0258683722 -7.7290138692e-20)
(101.85088029 84.7626602097 -5.06145177959e-19)
(119.601181653 96.9851516936 -9.78395169771e-19)
(141.754464056 111.562862128 -6.79325714844e-19)
(171.600960031 126.221665224 -3.04813378519e-18)
(220.848411972 141.43255627 -5.1620386455e-18)
(275.902581404 145.56003877 -7.82914593681e-18)
(199.392555971 167.94338387 4.52363026353e-17)
(0.235351780051 2.63994424051 9.56509638221e-19)
(-0.262405474919 -0.188030151819 1.4171016454e-19)
(75.8260566786 86.3934732201 -1.08001616535e-19)
(88.5305396792 100.117197355 -7.23403232786e-19)
(104.378649571 116.40530254 -1.22694712291e-18)
(124.061301445 136.503071088 -1.85098595578e-18)
(151.052213942 158.194149912 -6.21219815712e-18)
(197.098229497 188.090635472 -9.11894479916e-18)
(244.374382684 204.824786775 -3.36037154566e-17)
(177.056321887 214.83980758 6.7265376771e-17)
(-1.04409916817 -3.55915746247 -1.71222730998e-18)
(0.00080991265595 0.32962007314 2.08419879868e-19)
(61.6708417531 97.0375827686 -1.09200210734e-19)
(72.1826282403 113.305970055 -4.71071188659e-19)
(85.1688978548 133.003402937 -1.59284516077e-18)
(100.91876669 157.504816257 -5.21406223126e-18)
(122.010778634 185.002038237 -2.05053244656e-17)
(157.157574307 228.765460225 -1.38204142035e-17)
(187.929163491 258.626297287 -4.32224431278e-18)
(136.813619601 253.283658086 5.82493517293e-17)
(-1.93053028279 -6.65351129649 -2.13349810825e-18)
(-0.039967652282 0.480997726247 1.6473211587e-19)
(39.3117520931 89.6437253584 2.03399035139e-20)
(45.6566956899 105.423114447 -6.09250092984e-20)
(53.5041239674 123.610583228 -3.24833264696e-19)
(63.087342087 145.703064429 -1.19275356492e-18)
(74.212506197 172.782571795 -3.53096172297e-18)
(87.1013933329 203.383411243 -1.7189754278e-17)
(103.784870034 254.549684433 -1.28820412646e-18)
(105.13037869 292.069628318 -1.48537297984e-17)
(84.9715191363 277.317638017 1.06840944926e-16)
(-2.47968452589 -7.47711406532 -2.90446822864e-18)
(-0.0596430278771 1.08954813149 2.13844676491e-19)
(24.0704548891 94.3144853736 -3.3095692199e-19)
(27.9839200337 111.211433863 2.35935469193e-19)
(32.7667385029 130.758740633 -1.11126304267e-19)
(38.6106349166 154.325573192 -7.35049952678e-19)
(44.9947224004 182.35981635 6.35465311995e-19)
(49.9826678429 213.388677704 2.067519489e-18)
(51.6174964657 257.954137205 3.02894292745e-17)
(20.0686313414 273.905212611 8.43791910335e-17)
(48.1374202445 266.224204916 -2.65499698348e-17)
(0.651967118471 -0.671040936956 7.57648154516e-19)
(0.534843351824 1.44973203093 -8.1985596914e-20)
(7.72542876948 97.2703941797 1.17109068543e-19)
(9.05922818542 114.844393208 -9.09345355648e-20)
(10.767445971 135.260521953 -2.80634250737e-19)
(13.1450171917 159.457809225 -1.31752240587e-18)
(16.2915572559 187.773839175 6.10094584182e-18)
(19.7250457911 219.990310295 1.98091145373e-17)
(20.9602536753 247.269910644 7.94271094377e-17)
(-10.6628208327 233.583277849 1.06693764524e-16)
(-25.5702455276 222.149452737 -3.39624442759e-16)
(7.1043735178 12.9567894157 -3.31523392028e-17)
(0.411457625566 -0.114851423432 -1.69329189243e-20)
)
;

boundaryField
{
    back
    {
        type            calculated;
        value           uniform (0 0 0);
    }
    sides
    {
        type            calculated;
        value           uniform (0 0 0);
    }
    bottom
    {
        type            calculated;
        value           nonuniform List<vector> 0();
    }
    front
    {
        type            calculated;
        value           uniform (0 0 0);
    }
    atmosphere
    {
        type            calculated;
        value           nonuniform List<vector> 
17
(
(-0.0634236722476 -0.274387575245 -1.95249241095e-21)
(6.78943416369e-08 -0.367418216993 -1.35389638502e-26)
(5.32680984073e-08 -0.322871759461 -2.64676871547e-26)
(1.34111702369e-07 -0.264155087867 -1.62370693412e-26)
(-2.29787630888e-06 -0.314402348449 -2.32311914652e-25)
(-1.68842071786e-06 -0.454479143894 -4.8446038045e-25)
(2.13119218544e-06 -0.244456628391 -4.61795836534e-25)
(4.02589444361e-06 1.52558723854 -1.88990367451e-24)
(-6.92229394043e-06 2.17013053564 1.16721993303e-23)
(-1.19388125501e-05 -1.41507938197 1.97725029979e-24)
(-2.37595976409e-06 -1.68171100256 -5.58676956826e-25)
(-5.6586968416e-05 -0.188030199846 3.02330155391e-23)
(8.29473169914e-05 0.329584998803 -8.48858267352e-23)
(-5.33860753604e-07 0.480947357353 1.48977625024e-26)
(4.88444486892e-05 1.08938228417 -1.32898007388e-24)
(0.000138945331041 1.44925222141 -2.5528294894e-21)
(0.00436990735191 -0.114795522616 -2.25463993364e-21)
)
;
    }
    floatingObject
    {
        type            calculated;
        value           nonuniform List<vector> 0();
    }
    procBoundary11to9
    {
        type            processor;
        value           nonuniform List<vector> 9((70.9948161001 -42.5523515295 -1.40618201908e-19) (72.4316945593 -50.0191047086 -3.53202172935e-19) (72.8627952825 -59.0156802632 -1.29895792647e-18) (71.9422423059 -68.7926006904 -3.18455589743e-18) (69.3615423289 -82.186655012 1.18190581628e-18) (64.0300567366 -95.5994966402 1.120214417e-18) (44.5348097262 -58.2243276768 -7.60929818172e-19) (22.3099907834 -3.39484799346 1.60037119692e-18) (0.383828760181 -0.152315899423 7.9042423934e-21));
    }
    procBoundary11to10
    {
        type            processor;
        value           nonuniform List<vector> 
23
(
(75.3394943456 -33.6122094538 -6.19066641771e-20)
(85.9961024509 -37.0316334386 -8.63227451604e-20)
(85.9961024509 -37.0316334386 -8.63227451604e-20)
(93.7080970817 -32.100209143 -4.801138268e-20)
(93.7080970817 -32.100209143 -4.801138268e-20)
(93.9498525905 -19.063790058 9.9408335318e-22)
(99.2174857104 -11.4351944771 -6.44679770839e-20)
(103.469256719 -2.35965931159 -1.48851558087e-19)
(103.469256719 -2.35965931159 -1.48851558087e-19)
(96.0451535673 9.8814584626 -4.74687112237e-20)
(96.0451535673 9.8814584626 -4.74687112237e-20)
(86.6428516816 19.1266472859 -1.85997523505e-20)
(84.4331075626 28.1745258336 -1.10887035997e-20)
(90.5911043261 42.123072197 -3.5780387047e-20)
(90.5911043261 42.123072197 -3.5780387047e-20)
(84.4802041988 53.4466441067 -2.69390301562e-20)
(76.129727452 64.3196939361 -1.52600409599e-20)
(65.6298651529 74.2780893434 -3.11602375074e-20)
(53.2272927651 82.8641365152 3.84685718378e-20)
(53.2272927651 82.8641365152 3.84685718378e-20)
(34.2289557069 75.8931369953 -1.91907515356e-20)
(20.9386642887 79.6322484199 2.38628094537e-19)
(6.66820375745 82.0351071035 -5.35637770316e-20)
)
;
    }
}


// ************************************************************************* //
