/*--------------------------------*- C++ -*----------------------------------*\
| =========                 |                                                 |
| \\      /  F ield         | OpenFOAM: The Open Source CFD Toolbox           |
|  \\    /   O peration     | Version:  v2012                                 |
|   \\  /    A nd           | Website:  www.openfoam.com                      |
|    \\/     M anipulation  |                                                 |
\*---------------------------------------------------------------------------*/
FoamFile
{
    version     2.0;
    format      ascii;
    class       volScalarField;
    location    "4";
    object      ddt0(k);
}
// * * * * * * * * * * * * * * * * * * * * * * * * * * * * * * * * * * * * * //

dimensions      [0 2 -3 0 0 0 0];


internalField   nonuniform List<scalar> 
167
(
-0.00119415991905
-0.00119834194374
-0.00120016342321
-0.00120215394072
-0.00120470429905
-0.00120797073427
-0.0012126342285
-0.00122078990171
-0.0011178183293
-0.00117636579978
-0.00119277416846
-0.00119702530189
-0.00119895349927
-0.00120108952256
-0.00120386697786
-0.00120745810062
-0.00121250001182
-0.00122123490625
-0.00123990341544
-0.00111684323397
-0.00117498157019
-0.00119136941684
-0.00119567453967
-0.00119771483185
-0.00119999382652
-0.00120294172682
-0.00120674886287
-0.00121205042962
-0.00122144282473
-0.00124138201061
-0.0011155602326
-0.00117346393432
-0.00118981144986
-0.00119418884574
-0.0011963415052
-0.00119875982398
-0.00120187276638
-0.00120585583495
-0.00121149478165
-0.00122142048519
-0.000882955637551
-0.0011141907089
-0.00117179247796
-0.00118810995769
-0.00119256110789
-0.00119483703783
-0.00119738692423
-0.00120064901211
-0.00120480785765
-0.00121067830157
-0.00122123551315
-0.000882132823886
-0.00111261588573
-0.00116994307867
-0.0011862597061
-0.00119080506266
-0.0011932060439
-0.00119589135686
-0.00119929729011
-0.00120354739955
-0.00120979372686
-0.00122067832213
-0.000881041572547
-0.0011108595071
-0.00116795466162
-0.00118428207659
-0.00118894044748
-0.00119147503634
-0.00119430467536
-0.00119779429306
-0.00120228892461
-0.00120862931064
-0.000879794660419
-0.00110885717603
-0.00116582389397
-0.00118219093532
-0.00118697791254
-0.00118966611761
-0.00119262610093
-0.00119625891445
-0.00120087235091
-0.000878445443514
-0.00110677546145
-0.00116357278035
-0.00118000267103
-0.0011849382065
-0.00118778838643
-0.00119087274629
-0.00119466855809
-0.00119938724164
-0.000876910730124
-0.00110454536924
-0.00116117043186
-0.00117767766437
-0.00118277646635
-0.00118578180757
-0.00118903346641
-0.00119294947523
-0.00119784693534
-0.00120477603158
-0.000875129244903
-0.00110196579603
-0.00115844026502
-0.0011750411566
-0.0011803116322
-0.00118349582996
-0.00118691211004
-0.00119095037851
-0.0011959488178
-0.00120312634182
-0.000872953286692
-0.00109855210591
-0.00115487468266
-0.0011715522305
-0.00117699355109
-0.00118035770163
-0.00118390778442
-0.00118806024212
-0.00119314333272
-0.00120043400502
-0.000869557999271
-0.00109317070085
-0.00114906721567
-0.00116567150258
-0.00117123045615
-0.0011747451618
-0.00117840147821
-0.00118260762616
-0.00118767832874
-0.00119505619291
-0.00086291541896
-0.001082391605
-0.00113700479818
-0.00115324153339
-0.0011588319999
-0.00116242353132
-0.00116612649784
-0.00117027169945
-0.0011753017996
-0.00118247710987
-0.000847153298576
-0.00105716418771
-0.00110848389969
-0.00112370507117
-0.00112913326269
-0.0011327072312
-0.00113633291655
-0.00114035778728
-0.00114508302262
-0.000806177018478
-0.000992983680455
-0.00103649449458
-0.00104952837679
-0.00105457753111
-0.00105806697878
-0.00106151679664
-0.00106524280292
-0.00106956609338
-0.000688434312829
-0.000804682406158
-0.000833471508733
-0.000841830891741
-0.000845394326024
-0.000848324829906
-0.000851479550707
-0.000854959169244
-0.00085890451231
)
;

boundaryField
{
    back
    {
        type            calculated;
        value           nonuniform List<scalar> 
167
(
-0.00119415991905
-0.00119834194374
-0.00120016342321
-0.00120215394072
-0.00120470429905
-0.00120797073427
-0.0012126342285
-0.00122078990171
-0.0011178183293
-0.00117636579978
-0.00119277416846
-0.00119702530189
-0.00119895349927
-0.00120108952256
-0.00120386697786
-0.00120745810062
-0.00121250001182
-0.00122123490625
-0.00123990341544
-0.00111684323397
-0.00117498157019
-0.00119136941684
-0.00119567453967
-0.00119771483185
-0.00119999382652
-0.00120294172682
-0.00120674886287
-0.00121205042962
-0.00122144282473
-0.00124138201061
-0.0011155602326
-0.00117346393432
-0.00118981144986
-0.00119418884574
-0.0011963415052
-0.00119875982398
-0.00120187276638
-0.00120585583495
-0.00121149478165
-0.00122142048519
-0.00088295563755
-0.0011141907089
-0.00117179247796
-0.00118810995769
-0.00119256110789
-0.00119483703783
-0.00119738692423
-0.00120064901211
-0.00120480785765
-0.00121067830157
-0.00122123551315
-0.000882132823886
-0.00111261588573
-0.00116994307867
-0.0011862597061
-0.00119080506266
-0.0011932060439
-0.00119589135686
-0.00119929729011
-0.00120354739955
-0.00120979372686
-0.00122067832213
-0.000881041572547
-0.0011108595071
-0.00116795466162
-0.00118428207659
-0.00118894044748
-0.00119147503634
-0.00119430467536
-0.00119779429306
-0.00120228892461
-0.00120862931064
-0.000879794660419
-0.00110885717603
-0.00116582389397
-0.00118219093532
-0.00118697791254
-0.00118966611761
-0.00119262610093
-0.00119625891445
-0.00120087235091
-0.000878445443513
-0.00110677546145
-0.00116357278035
-0.00118000267103
-0.0011849382065
-0.00118778838643
-0.00119087274629
-0.00119466855809
-0.00119938724164
-0.000876910730124
-0.00110454536924
-0.00116117043186
-0.00117767766437
-0.00118277646635
-0.00118578180757
-0.00118903346641
-0.00119294947523
-0.00119784693534
-0.00120477603158
-0.000875129244903
-0.00110196579603
-0.00115844026502
-0.0011750411566
-0.0011803116322
-0.00118349582996
-0.00118691211004
-0.00119095037851
-0.0011959488178
-0.00120312634182
-0.000872953286692
-0.00109855210591
-0.00115487468266
-0.0011715522305
-0.00117699355109
-0.00118035770163
-0.00118390778442
-0.00118806024212
-0.00119314333272
-0.00120043400502
-0.000869557999271
-0.00109317070085
-0.00114906721567
-0.00116567150258
-0.00117123045615
-0.0011747451618
-0.00117840147821
-0.00118260762616
-0.00118767832874
-0.00119505619291
-0.00086291541896
-0.001082391605
-0.00113700479818
-0.00115324153339
-0.0011588319999
-0.00116242353132
-0.00116612649784
-0.00117027169945
-0.0011753017996
-0.00118247710987
-0.000847153298576
-0.00105716418771
-0.00110848389969
-0.00112370507117
-0.00112913326269
-0.0011327072312
-0.00113633291655
-0.00114035778728
-0.00114508302262
-0.000806177018478
-0.000992983680455
-0.00103649449458
-0.00104952837679
-0.00105457753111
-0.00105806697878
-0.00106151679664
-0.00106524280292
-0.00106956609338
-0.000688434312829
-0.000804682406158
-0.000833471508733
-0.000841830891741
-0.000845394326024
-0.000848324829906
-0.000851479550707
-0.000854959169244
-0.00085890451231
)
;
    }
    sides
    {
        type            calculated;
        value           nonuniform List<scalar> 9(-0.000688434312829 -0.000804682406158 -0.000833471508733 -0.000841830891741 -0.000845394326024 -0.000848324829906 -0.000851479550707 -0.000854959169244 -0.00085890451231);
    }
    bottom
    {
        type            calculated;
        value           nonuniform List<scalar> 
13
(
-0.00088295563755
-0.000882132823886
-0.000881041572547
-0.000879794660419
-0.000878445443513
-0.000876910730124
-0.000875129244903
-0.000872953286692
-0.000869557999271
-0.00086291541896
-0.000847153298576
-0.000806177018478
-0.000688434312829
)
;
    }
    front
    {
        type            calculated;
        value           nonuniform List<scalar> 
167
(
-0.00119415991905
-0.00119834194374
-0.00120016342321
-0.00120215394072
-0.00120470429905
-0.00120797073427
-0.0012126342285
-0.00122078990171
-0.0011178183293
-0.00117636579978
-0.00119277416846
-0.00119702530189
-0.00119895349927
-0.00120108952256
-0.00120386697786
-0.00120745810062
-0.00121250001182
-0.00122123490625
-0.00123990341544
-0.00111684323397
-0.00117498157019
-0.00119136941684
-0.00119567453967
-0.00119771483185
-0.00119999382652
-0.00120294172682
-0.00120674886287
-0.00121205042962
-0.00122144282473
-0.00124138201061
-0.0011155602326
-0.00117346393432
-0.00118981144986
-0.00119418884574
-0.0011963415052
-0.00119875982398
-0.00120187276638
-0.00120585583495
-0.00121149478165
-0.00122142048519
-0.00088295563755
-0.0011141907089
-0.00117179247796
-0.00118810995769
-0.00119256110789
-0.00119483703783
-0.00119738692423
-0.00120064901211
-0.00120480785765
-0.00121067830157
-0.00122123551315
-0.000882132823886
-0.00111261588573
-0.00116994307867
-0.0011862597061
-0.00119080506266
-0.0011932060439
-0.00119589135686
-0.00119929729011
-0.00120354739955
-0.00120979372686
-0.00122067832213
-0.000881041572547
-0.0011108595071
-0.00116795466162
-0.00118428207659
-0.00118894044748
-0.00119147503634
-0.00119430467536
-0.00119779429306
-0.00120228892461
-0.00120862931064
-0.000879794660419
-0.00110885717603
-0.00116582389397
-0.00118219093532
-0.00118697791254
-0.00118966611761
-0.00119262610093
-0.00119625891445
-0.00120087235091
-0.000878445443513
-0.00110677546145
-0.00116357278035
-0.00118000267103
-0.0011849382065
-0.00118778838643
-0.00119087274629
-0.00119466855809
-0.00119938724164
-0.000876910730124
-0.00110454536924
-0.00116117043186
-0.00117767766437
-0.00118277646635
-0.00118578180757
-0.00118903346641
-0.00119294947523
-0.00119784693534
-0.00120477603158
-0.000875129244903
-0.00110196579603
-0.00115844026502
-0.0011750411566
-0.0011803116322
-0.00118349582996
-0.00118691211004
-0.00119095037851
-0.0011959488178
-0.00120312634182
-0.000872953286692
-0.00109855210591
-0.00115487468266
-0.0011715522305
-0.00117699355109
-0.00118035770163
-0.00118390778442
-0.00118806024212
-0.00119314333272
-0.00120043400502
-0.000869557999271
-0.00109317070085
-0.00114906721567
-0.00116567150258
-0.00117123045615
-0.0011747451618
-0.00117840147821
-0.00118260762616
-0.00118767832874
-0.00119505619291
-0.00086291541896
-0.001082391605
-0.00113700479818
-0.00115324153339
-0.0011588319999
-0.00116242353132
-0.00116612649784
-0.00117027169945
-0.0011753017996
-0.00118247710987
-0.000847153298576
-0.00105716418771
-0.00110848389969
-0.00112370507117
-0.00112913326269
-0.0011327072312
-0.00113633291655
-0.00114035778728
-0.00114508302262
-0.000806177018478
-0.000992983680455
-0.00103649449458
-0.00104952837679
-0.00105457753111
-0.00105806697878
-0.00106151679664
-0.00106524280292
-0.00106956609338
-0.000688434312829
-0.000804682406158
-0.000833471508733
-0.000841830891741
-0.000845394326024
-0.000848324829906
-0.000851479550707
-0.000854959169244
-0.00085890451231
)
;
    }
    atmosphere
    {
        type            calculated;
        value           nonuniform List<scalar> 0();
    }
    floatingObject
    {
        type            calculated;
        value           nonuniform List<scalar> 0();
    }
    procBoundary10to9
    {
        type            processor;
        value           nonuniform List<scalar> 
15
(
-0.00119505119417
-0.00119927479911
-0.00120102393251
-0.00120286523527
-0.00120528641481
-0.00120837589948
-0.00121270471662
-0.00122047827137
-0.00111840516693
-0.00117740815022
-0.00117740815022
-0.000884835027096
-0.000884308217848
-0.000883736506204
-0.000883736506204
)
;
    }
    procBoundary10to11
    {
        type            processor;
        value           nonuniform List<scalar> 
23
(
-0.00123855191475
-0.00123855191475
-0.00128282658538
-0.00128604209672
-0.00124234304908
-0.00124234304908
-0.00124332192213
-0.00124374007957
-0.00121992324263
-0.00121992324263
-0.00120737151928
-0.00120737151928
-0.0012061908966
-0.0012061908966
-0.00121737528071
-0.00121604730636
-0.00121368681669
-0.00120848330364
-0.00119588140612
-0.00115182488111
-0.00115182488111
-0.00107555041392
-0.000864014590655
)
;
    }
}


// ************************************************************************* //
