/*--------------------------------*- C++ -*----------------------------------*\
| =========                 |                                                 |
| \\      /  F ield         | OpenFOAM: The Open Source CFD Toolbox           |
|  \\    /   O peration     | Version:  v2012                                 |
|   \\  /    A nd           | Website:  www.openfoam.com                      |
|    \\/     M anipulation  |                                                 |
\*---------------------------------------------------------------------------*/
FoamFile
{
    version     2.0;
    format      ascii;
    class       volVectorField;
    location    "4";
    object      U;
}
// * * * * * * * * * * * * * * * * * * * * * * * * * * * * * * * * * * * * * //

dimensions      [0 1 -1 0 0 0 0];


internalField   nonuniform List<vector> 
167
(
(0.0323032862321 0.00631856119474 3.85995316071e-23)
(0.0324088496217 0.00813459863893 -2.17663102618e-23)
(0.0326545007258 0.010008301057 -1.07354774347e-23)
(0.032965796094 0.0119554113503 1.22562988441e-24)
(0.033309226165 0.0140025941436 2.12742498504e-23)
(0.0336781914953 0.0161592896601 4.06660349919e-23)
(0.0340323111806 0.0184313826253 1.05844938876e-23)
(0.0343523155745 0.0208285697303 -1.12291679147e-23)
(0.0312107117287 0.00285353431037 1.77714218012e-22)
(0.0306683024859 0.00466114119653 7.30355763055e-25)
(0.0304822594564 0.00650551030303 -1.1055468836e-24)
(0.0305476434825 0.00836450384501 -2.9455826404e-23)
(0.0307347330452 0.0102719082254 -7.58909003951e-24)
(0.0309739144333 0.0122447649905 -3.13922181472e-24)
(0.0312388867801 0.0142963954845 -6.05679865331e-24)
(0.031494772619 0.0164336298296 1.79614290888e-23)
(0.0317300424041 0.0186617724265 5.75121963697e-24)
(0.0319200867663 0.0210178458271 -2.6052299753e-23)
(0.0320913423792 0.0234900287535 -7.7581310719e-23)
(0.0293408489692 0.00292277578241 1.64405988843e-22)
(0.0288184036709 0.00477132503238 6.00096677585e-23)
(0.02862250739 0.00664989649841 6.10844579309e-23)
(0.0286547584632 0.00854138191852 -2.78323828914e-24)
(0.0287902204065 0.0104717574653 -1.09303881146e-23)
(0.0289668445679 0.0124580738705 -6.70514263936e-24)
(0.0291590488985 0.0145051731067 -2.93976426603e-24)
(0.0293346981845 0.0166183498158 -3.33348953416e-24)
(0.0294851160744 0.0188053737496 -2.49360782728e-24)
(0.0295900513126 0.021093727616 -2.09396745963e-23)
(0.0296216649935 0.0234609794021 -7.26098859928e-23)
(0.0274353542868 0.00297953462041 4.04791208709e-22)
(0.0269320428524 0.00485484692814 2.19581826566e-22)
(0.0267321759072 0.0067607961056 1.2014889304e-22)
(0.0267363022728 0.00867192567168 1.73114099672e-23)
(0.0268329092213 0.010615414264 -1.60096960145e-23)
(0.0269600482106 0.0126102487141 -7.8154727582e-24)
(0.0270894855797 0.0146461309541 2.73009916124e-24)
(0.0272054014099 0.0167285107367 -1.70464400793e-23)
(0.0272932783768 0.0188691650595 -7.42072150505e-24)
(0.027329067976 0.0210709425123 -1.54018655229e-23)
(0.0262728508402 0.000988083121347 6.13693546314e-22)
(0.0254952935222 0.00302375644675 6.02778200218e-22)
(0.0250208642412 0.00492132639462 3.14339175714e-22)
(0.0248215421441 0.0068428990451 1.34691918062e-22)
(0.0248050181815 0.00876992091382 1.95060604669e-23)
(0.0248711056165 0.0107226255532 -1.29847368167e-23)
(0.0249610281395 0.012708736779 -4.74906447831e-24)
(0.0250450108166 0.0147285181656 -8.18045636916e-25)
(0.025117970591 0.0167864802274 4.23431945629e-24)
(0.0251568061952 0.0188792677647 -9.59385905924e-24)
(0.0251532911698 0.0210030807412 -1.18473686762e-23)
(0.0242576198385 0.00099430695485 5.94764222479e-22)
(0.0235344265235 0.00305901716976 6.38000864367e-22)
(0.0230905928437 0.00497322747864 3.03748539456e-22)
(0.0228934647509 0.00690542042857 1.373793979e-22)
(0.0228668506929 0.00884011682969 1.49753388929e-23)
(0.0229083598156 0.010796154803 -6.722126386e-24)
(0.0229692263066 0.0127761571223 -7.73607626196e-24)
(0.023026517909 0.0147779424543 -4.89517843505e-24)
(0.0230686235081 0.0168027809924 -2.33064895179e-23)
(0.0230788470949 0.0188562928252 -1.07362934325e-23)
(0.0230647756661 0.0209276622845 -2.19589455007e-23)
(0.0222237947207 0.000996620088014 3.69531127206e-22)
(0.0215627164005 0.00308337196542 6.6004961503e-22)
(0.0211480946965 0.0050077355047 3.28137281166e-22)
(0.0209582445365 0.00695123932928 1.50342275506e-22)
(0.0209228308607 0.00889450866026 2.16222210263e-23)
(0.0209479234269 0.0108478178198 -1.38493694877e-23)
(0.0209877673604 0.0128182993429 -1.30439846027e-23)
(0.0210246925257 0.0148040330099 2.9173493151e-23)
(0.0210499289922 0.0168053525246 -1.86339952866e-23)
(0.0210546383335 0.0188341081637 -1.96283627612e-23)
(0.0201813197805 0.00100199017801 5.71721476756e-22)
(0.0195766570443 0.00310383019851 8.27172244981e-22)
(0.019197000935 0.00503267554407 5.40381584596e-22)
(0.0190203377626 0.00698370160525 2.4004887105e-22)
(0.0189772730811 0.00893103570781 5.67978016221e-23)
(0.0189891864818 0.0108834986893 -7.34765587702e-25)
(0.019014874443 0.0128476647666 4.16712359288e-24)
(0.0190405651872 0.0148233941713 5.41645308264e-24)
(0.0190555460722 0.0168096280089 -1.16907013346e-23)
(0.0181311434512 0.000999351207339 9.12065075721e-22)
(0.0175789992246 0.00311448332652 1.06253686602e-21)
(0.0172368312192 0.00505250492916 6.89968693316e-22)
(0.0170733023192 0.00700715419428 3.19913075826e-22)
(0.0170283455408 0.00895657965303 5.91474507716e-23)
(0.0170318829928 0.0109085864976 2.51701888946e-23)
(0.0170519474598 0.0128713529706 7.93798657182e-24)
(0.0170688149052 0.0148399429041 3.3186992874e-24)
(0.0170766425623 0.0168124099612 -3.34083699018e-24)
(0.016068624998 0.000993003817865 8.43253251402e-22)
(0.0155801463901 0.00311865953131 1.24074207774e-21)
(0.0152714187698 0.00506485217929 8.184311417e-22)
(0.0151215967644 0.00702281511749 3.91751912795e-22)
(0.0150775495896 0.00897496737846 1.24140910609e-22)
(0.0150791903069 0.010931913616 3.22426180909e-23)
(0.015093716041 0.0128924645101 1.02474816977e-23)
(0.0151058661296 0.014851966912 1.92866565058e-25)
(0.0151111828768 0.0168132147901 1.11006260531e-23)
(0.0151091641356 0.0187738008175 -1.89679812841e-23)
(0.0140010163852 0.000987292624993 6.02307043086e-22)
(0.0135784088102 0.00311933341051 9.48611817079e-22)
(0.0133006463943 0.00506871696565 7.48113567829e-22)
(0.0131648733111 0.00703331929418 3.89829136369e-22)
(0.0131244723608 0.00899252061439 1.35945929779e-22)
(0.0131250244761 0.0109511236202 5.18163254804e-23)
(0.0131343239185 0.0129105829149 9.59425617784e-24)
(0.0131482336386 0.0148692518729 2.39616593969e-23)
(0.0131561804221 0.0168282010286 1.33346346429e-23)
(0.0131589093837 0.0187838654788 -9.6329737543e-24)
(0.0119388596345 0.000978229473224 4.03457080832e-22)
(0.0115768411938 0.00311400689121 9.62534434372e-22)
(0.011322543193 0.00506665043386 7.48234645311e-22)
(0.0111996680117 0.00704298336288 4.04597212291e-22)
(0.0111659256206 0.00900981620777 1.80914669257e-22)
(0.0111659079334 0.0109726369728 8.43171729479e-23)
(0.0111767280465 0.0129363106129 5.45070144657e-23)
(0.0111903885062 0.0148953402517 4.9952073056e-23)
(0.0112041255957 0.0168504982105 3.35146262705e-23)
(0.0112147149611 0.0188045409917 2.70974477007e-23)
(0.00989324405756 0.000965932360309 4.05578166994e-22)
(0.00956579940717 0.00310339076156 9.55186451193e-22)
(0.00933401709054 0.00506069026178 7.48622421817e-22)
(0.00922567770148 0.00706174117284 4.04355521348e-22)
(0.00919943840087 0.00904276270375 2.02762968851e-22)
(0.00920337529515 0.0110121818607 1.45499453371e-22)
(0.00921859423914 0.0129807313735 1.16365710966e-22)
(0.00923372649619 0.0149465156198 1.27727331761e-22)
(0.00925157600281 0.0169087256138 1.07991103688e-22)
(0.0092725714612 0.018870230395 7.49489317056e-23)
(0.00786648844293 0.000942250058058 8.20973788911e-22)
(0.00753270811803 0.00310361756888 1.15716279777e-21)
(0.0073255979814 0.00508821383398 7.60592212657e-22)
(0.0072374557107 0.00711863105783 4.05875473231e-22)
(0.00722239323233 0.00912060043709 2.41761161802e-22)
(0.00723339115171 0.0111073541052 2.41221006272e-22)
(0.0072542155159 0.0130908475728 2.17725137807e-22)
(0.00727313586622 0.0150713987432 2.75255436817e-22)
(0.00729160904109 0.0170528732742 2.16184802228e-22)
(0.00731393560914 0.0190316449419 1.76354152072e-22)
(0.00583360481304 0.000949170639541 1.09571357885e-21)
(0.00546682688702 0.00316529598669 1.47537046664e-21)
(0.00527749300068 0.00520489565402 8.52212193979e-22)
(0.00521498899468 0.00726904267029 4.49494409858e-22)
(0.00522047148824 0.00930057141129 3.6637129097e-22)
(0.00524585638637 0.0113192079162 4.28841648421e-22)
(0.00527062565558 0.0133355048843 3.50194514873e-22)
(0.00529237491613 0.0153478907777 4.65523489857e-22)
(0.00531115226098 0.0173638932636 4.37268902755e-22)
(0.00376063146744 0.00105136926575 6.71604797478e-22)
(0.00338048104965 0.00335642513442 8.66212440137e-22)
(0.003228856184 0.00545867875394 5.9058380097e-22)
(0.00320297358815 0.00755699282155 3.70019898825e-22)
(0.0032260840681 0.00963176069294 4.40352419145e-22)
(0.00325345129875 0.011699534156 6.6490904067e-22)
(0.00327171599157 0.0137718489437 3.12797710751e-22)
(0.00328750868867 0.0158478911905 6.82305221101e-22)
(0.00330029614653 0.0179296361737 7.08423368654e-22)
(0.00136785951741 0.00135303571728 2.81762588452e-22)
(0.00107381202511 0.00377408858238 4.44838731858e-22)
(0.000983226351855 0.00588106149723 4.00064067401e-22)
(0.000989526669213 0.00797857320407 4.35037497154e-22)
(0.00102360623441 0.0100903379507 4.78672864631e-22)
(0.00104367735012 0.0122311507806 6.70039104535e-22)
(0.00105515919366 0.0144016171681 5.53085491635e-22)
(0.00106340734397 0.0165842735815 1.02698357497e-21)
(0.00106657982524 0.0187764024133 9.76646027922e-22)
)
;

boundaryField
{
    back
    {
        type            noSlip;
    }
    sides
    {
        type            noSlip;
    }
    bottom
    {
        type            noSlip;
    }
    front
    {
        type            noSlip;
    }
    atmosphere
    {
        type            pressureInletOutletVelocity;
        value           nonuniform List<vector> 0();
    }
    floatingObject
    {
        type            movingWallVelocity;
        value           nonuniform List<vector> 0();
    }
    procBoundary10to9
    {
        type            processor;
        value           nonuniform List<vector> 
15
(
(0.0340721844895 0.00608902481433 7.14617450569e-23)
(0.0342260289118 0.00784994818668 -1.09788578221e-23)
(0.034541123523 0.00967721850112 -1.23770398498e-23)
(0.0349400989441 0.0115918175797 -7.18740944777e-25)
(0.0353868620972 0.0135991744521 1.32265325207e-23)
(0.0358729588023 0.0157359560022 5.43965528289e-23)
(0.0363750301232 0.0180284709025 2.16412677148e-23)
(0.0368611241785 0.020473343805 -1.68455605248e-23)
(0.0330385666381 0.00276976752118 1.79243545683e-22)
(0.0324741076291 0.0045250664307 8.89236588959e-23)
(0.0324741076291 0.0045250664307 8.89236588959e-23)
(0.0321225649077 0.000953989401036 -1.78495897475e-23)
(0.0302074227877 0.000965988083941 1.24635391157e-22)
(0.028257244346 0.00098091731817 2.63480488961e-22)
(0.028257244346 0.00098091731817 2.63480488961e-22)
)
;
    }
    procBoundary10to11
    {
        type            processor;
        value           nonuniform List<vector> 
23
(
(0.0346533258915 0.0233715593609 -6.55277086781e-23)
(0.0346533258915 0.0233715593609 -6.55277086781e-23)
(0.032212162999 0.0260573694446 -2.58165960063e-22)
(0.0296004240782 0.0258988730557 -3.02863331932e-22)
(0.027280337455 0.0233241516355 -9.02272132908e-23)
(0.027280337455 0.0233241516355 -9.02272132908e-23)
(0.0250859921525 0.0231450157568 -1.24183140296e-22)
(0.0229950286412 0.0229826904207 -1.8933452371e-22)
(0.0210279781686 0.0208581961973 -2.60189692631e-23)
(0.0210279781686 0.0208581961973 -2.60189692631e-23)
(0.019056226217 0.0188069196053 -1.82010900584e-23)
(0.019056226217 0.0188069196053 -1.82010900584e-23)
(0.0170728755644 0.0187887582593 -2.70648801969e-23)
(0.0170728755644 0.0187887582593 -2.70648801969e-23)
(0.0151049632832 0.0207284260157 -7.20563001897e-23)
(0.0131641747908 0.0207279004537 -5.85002557079e-23)
(0.011232607133 0.0207487921815 -9.71073094131e-24)
(0.0092980990379 0.0208291540822 6.40195855937e-23)
(0.00734093210171 0.0210073892144 1.9428486128e-22)
(0.00532992971481 0.0193836498902 3.01116918373e-22)
(0.00532992971481 0.0193836498902 3.01116918373e-22)
(0.00331435741793 0.0200160990078 4.22389555728e-22)
(0.00107169573211 0.0209789989847 7.67421010179e-22)
)
;
    }
}


// ************************************************************************* //
