/*--------------------------------*- C++ -*----------------------------------*\
| =========                 |                                                 |
| \\      /  F ield         | OpenFOAM: The Open Source CFD Toolbox           |
|  \\    /   O peration     | Version:  v2012                                 |
|   \\  /    A nd           | Website:  www.openfoam.com                      |
|    \\/     M anipulation  |                                                 |
\*---------------------------------------------------------------------------*/
FoamFile
{
    version     2.0;
    format      ascii;
    class       volVectorField;
    location    "4";
    object      U_0;
}
// * * * * * * * * * * * * * * * * * * * * * * * * * * * * * * * * * * * * * //

dimensions      [0 1 -1 0 0 0 0];


internalField   nonuniform List<vector> 
167
(
(0.0277207548217 0.00605353672753 3.61564682707e-23)
(0.0276667992118 0.00778572807871 -2.28961927985e-23)
(0.027705193899 0.00956875797718 -1.06333228037e-23)
(0.027757093808 0.0114156656301 1.32381911994e-24)
(0.0277834070966 0.0133504947652 2.06816553167e-23)
(0.0277706502667 0.015377811021 3.74532995739e-23)
(0.0276681594671 0.0174976930612 1.00330756307e-23)
(0.0274455701918 0.0197130852104 -1.16894188618e-23)
(0.0269156589497 0.00268936612133 1.79538469732e-22)
(0.0263007544547 0.00437979052146 -2.18835065215e-24)
(0.0260039777823 0.00610353708605 -1.56883979055e-24)
(0.0259171995795 0.0078343533926 -3.08694235502e-23)
(0.0259071496386 0.00960318939696 -8.95386146456e-24)
(0.0259004813051 0.0114232122721 -3.16050334135e-24)
(0.0258664000288 0.0133030022669 -3.3750123985e-24)
(0.0257626592972 0.0152435421116 1.62486338937e-23)
(0.0255709187343 0.0172425577501 5.54696704059e-24)
(0.0252561988422 0.0193292859902 -1.95975264466e-23)
(0.0248347788228 0.0214794033943 -7.87385146564e-23)
(0.025178680388 0.00270503280116 1.66798013766e-22)
(0.0245881620129 0.00439921566856 6.06293827009e-23)
(0.0242885623794 0.00611829057452 6.08483095027e-23)
(0.0241790670881 0.00784061951919 -2.99259523105e-24)
(0.0241314117606 0.00958812173745 -1.10257094869e-23)
(0.0240808029716 0.0113731856035 -6.73735532646e-24)
(0.0239979037503 0.0131947526439 -2.85484025378e-24)
(0.0238453329006 0.0150510360612 -3.86650770172e-24)
(0.0236083606106 0.0169409562065 -2.60135504174e-24)
(0.0232593707102 0.0188820960781 -1.87475008803e-23)
(0.0227602517984 0.020837610939 -7.32845668729e-23)
(0.023440069916 0.00271229868371 4.1036394111e-22)
(0.0228744537239 0.00439871642475 2.21416453178e-22)
(0.0225800983921 0.00610985855961 1.20164976577e-22)
(0.0224552871073 0.00781446258538 1.66697814206e-23)
(0.0223863063244 0.00953529548474 -1.78504816705e-23)
(0.0223090342852 0.0112861665899 -7.77443211674e-24)
(0.0221924573559 0.0130495077027 3.16585807422e-24)
(0.0220175146715 0.0148230757366 -1.7526995342e-23)
(0.0217652668702 0.0166091810134 -7.36077404401e-24)
(0.0214063564383 0.0183984979245 -1.53867861176e-23)
(0.0225283775417 0.000873875713046 6.19961146351e-22)
(0.0216982928333 0.00271148430643 6.06984999265e-22)
(0.0211686414594 0.00438953501647 3.1461264171e-22)
(0.0208852820783 0.0060845959833 1.33900822557e-22)
(0.0207545199157 0.00777234872964 1.85213223165e-23)
(0.0206747755645 0.0094679876004 -1.42258476327e-23)
(0.0205860413342 0.0111731817097 -4.61103453704e-24)
(0.0204568577094 0.0128812882104 -1.88671866006e-24)
(0.0202807559421 0.0145884803059 5.32886496879e-24)
(0.0200316695246 0.0162806733532 -9.82997327749e-24)
(0.0196996218952 0.0179417749014 -1.17147367064e-23)
(0.0207344864728 0.000866795862655 5.94848980304e-22)
(0.0199644292848 0.00270711189277 6.39099163663e-22)
(0.0194725852173 0.00437489040282 3.03312892604e-22)
(0.0192025301405 0.00605312694253 1.36529848976e-22)
(0.0190776918376 0.00772047838464 1.36523895373e-23)
(0.0189944142178 0.0093906373897 -6.84541166112e-24)
(0.018903955472 0.0110599813486 -7.99185831622e-24)
(0.0187832244014 0.0127191615168 -4.99221886088e-24)
(0.0186200752799 0.0143607072502 -2.43301735663e-23)
(0.0183976248109 0.0159804067877 -1.05597685797e-23)
(0.0181245321437 0.0175547993992 -2.211936287e-23)
(0.0189468244772 0.000857594940303 3.65925096954e-22)
(0.0182446079801 0.00269731190878 6.63872914869e-22)
(0.017789216261 0.00435223409864 3.28947532316e-22)
(0.0175379820291 0.00601888909188 1.4888939336e-22)
(0.0174204358923 0.00767191480465 2.03190477112e-23)
(0.0173423334897 0.00931621065326 -1.46485018023e-23)
(0.0172586356456 0.0109531085904 -1.32985906416e-23)
(0.0171527135089 0.0125735661993 3.02980289175e-23)
(0.0170170511759 0.014169679156 -1.98088192667e-23)
(0.0168449098721 0.0157441218549 -2.0817335593e-23)
(0.0171715718482 0.000853425950264 5.73925486811e-22)
(0.016531125537 0.00268930435412 8.31754116134e-22)
(0.0161180719164 0.00432960903589 5.42173010638e-22)
(0.0158914411218 0.00598521533246 2.39487887501e-22)
(0.0157819471119 0.00762420361307 5.57216516258e-23)
(0.0157116099529 0.00925040162586 -1.18688435113e-24)
(0.0156407510055 0.0108648270265 4.4655774687e-24)
(0.0155577859584 0.0124608487737 5.14663264518e-24)
(0.0154546068831 0.0140298394857 -1.18203587894e-23)
(0.0154059961375 0.000842873816682 9.16323699897e-22)
(0.0148230855031 0.00267668465019 1.06784868714e-21)
(0.0144545171053 0.00431120078632 6.91989477753e-22)
(0.0142516561452 0.00595592316756 3.18876866519e-22)
(0.0141551930719 0.00758358664817 5.65357185974e-23)
(0.0140961017407 0.00919737286196 2.54546883657e-23)
(0.0140449201632 0.0108006360676 7.50448773644e-24)
(0.0139846536576 0.0123825188364 2.97425097811e-24)
(0.0139134895919 0.0139344180683 -3.3751861898e-24)
(0.0136416661748 0.000830248957054 8.42536784775e-22)
(0.0131276687036 0.00266253633306 1.24457356782e-21)
(0.0127986931788 0.00429382892905 8.19148371714e-22)
(0.0126192120216 0.00593118974626 3.9036989947e-22)
(0.012537055629 0.0075523686332 1.22737094378e-22)
(0.0124937967998 0.00916414593728 3.11868124817e-23)
(0.0124593616145 0.0107608599201 1.00730429231e-23)
(0.0124222110836 0.012333041699 3.68345526213e-26)
(0.0123827531392 0.0138783119886 1.15031227767e-23)
(0.0123468636378 0.0153876851111 -1.91167638579e-23)
(0.0118829445891 0.000819819574001 5.98858037485e-22)
(0.0114396896213 0.00264943444277 9.49650477839e-22)
(0.0111470261855 0.00427546849293 7.48790625268e-22)
(0.0109899672383 0.00591223994074 3.88077031031e-22)
(0.0109230281728 0.00753502980794 1.33421384173e-22)
(0.0108937046463 0.00914529636803 5.12491571835e-23)
(0.0108727469344 0.0107411690764 8.87085087607e-24)
(0.0108606018257 0.0123174155031 2.44480533303e-23)
(0.0108518672909 0.0138712400654 1.31854183665e-23)
(0.0108545364429 0.0153945227756 -1.04329757746e-23)
(0.0101378048006 0.000807346344448 4.00091949828e-22)
(0.00975956223859 0.00263415965272 9.65507990343e-22)
(0.00949453764155 0.00425759335574 7.48371124462e-22)
(0.00935728116867 0.00590170838541 4.03114698662e-22)
(0.0093065017858 0.00752948215219 1.79752742845e-22)
(0.00928857582366 0.00914402394969 8.33054830506e-23)
(0.00928403923462 0.0107479540549 5.44689024735e-23)
(0.00928926755843 0.0123332527483 4.99356055016e-23)
(0.00930742892541 0.013898444895 3.31961326183e-23)
(0.00934264518995 0.015444061254 2.71618910057e-23)
(0.00841524301486 0.000792750125443 4.02709177747e-22)
(0.00807483191331 0.00261661142055 9.58259457882e-22)
(0.00783586648355 0.00424076827517 7.48169612666e-22)
(0.00771854880801 0.00590769116163 4.02554943243e-22)
(0.00768245147776 0.0075491363186 2.01236349218e-22)
(0.00767741653507 0.00917241192038 1.4514969353e-22)
(0.00768785915137 0.0107871281688 1.16243381066e-22)
(0.00770658642187 0.0123902945802 1.28123080598e-22)
(0.00774223103074 0.013980322293 1.0868246197e-22)
(0.00780281515233 0.0155601134649 7.42820144081e-23)
(0.00671580119824 0.000767214463471 8.22302738875e-22)
(0.00637097204694 0.00261217188647 1.1610258723e-21)
(0.00615977813541 0.00426169001833 7.62065482656e-22)
(0.00606666290506 0.00595718196106 4.02353839731e-22)
(0.00604672498841 0.00762042408939 2.39225312736e-22)
(0.00605459076346 0.00926446961913 2.41063148537e-22)
(0.00607705230186 0.0109010144479 2.16839515919e-22)
(0.00610602027546 0.0125304942845 2.75161226224e-22)
(0.00614811857995 0.0141580197037 2.16727828594e-22)
(0.00621474083189 0.0157816444757 1.75079854184e-22)
(0.00501341709677 0.000772761230184 1.09823452565e-21)
(0.00463709268558 0.0026709486962 1.48081064373e-21)
(0.00444575211476 0.00437507022922 8.52514309518e-22)
(0.00438103870483 0.00610411305312 4.47333927009e-22)
(0.0043849038249 0.00779839067762 3.66308440653e-22)
(0.00441050374869 0.00947802480677 4.28155614346e-22)
(0.00443952491353 0.0111539864872 3.50731887912e-22)
(0.00447271304367 0.0128259054415 4.66114019299e-22)
(0.00451424003531 0.0145040779811 4.35916388807e-22)
(0.0032735357725 0.000875509076506 6.70172064681e-22)
(0.00288320012664 0.00286043619094 8.66652138049e-22)
(0.00273130647778 0.00462814564717 5.88601545847e-22)
(0.00270531082904 0.00639159754421 3.68625805459e-22)
(0.00272841358577 0.0081308331083 4.40957070756e-22)
(0.00275682034595 0.00986265964855 6.65811146683e-22)
(0.00277877357991 0.0115998545481 3.13998552598e-22)
(0.00280313682218 0.013343749777 6.83140821946e-22)
(0.00283203039983 0.0151001228574 7.04745586012e-22)
(0.00120036463783 0.00118593982592 2.79775693255e-22)
(0.000897940641128 0.00328662005297 4.43651124058e-22)
(0.000807083661064 0.00505788126436 3.99207876714e-22)
(0.000813820505405 0.00682190367613 4.36148760938e-22)
(0.000848213482177 0.00860066563106 4.79787179924e-22)
(0.000868663897209 0.0104094662715 6.72367416294e-22)
(0.000881555599004 0.0122502027281 5.54443384181e-22)
(0.000892888908401 0.0141076998792 1.03503541449e-21)
(0.000901792102808 0.0159837209313 9.78298836869e-22)
)
;

boundaryField
{
    back
    {
        type            noSlip;
    }
    sides
    {
        type            noSlip;
    }
    bottom
    {
        type            noSlip;
    }
    front
    {
        type            noSlip;
    }
    atmosphere
    {
        type            pressureInletOutletVelocity;
        value           nonuniform List<vector> 0();
    }
    floatingObject
    {
        type            movingWallVelocity;
        value           nonuniform List<vector> 0();
    }
    procBoundary10to9
    {
        type            processor;
        value           nonuniform List<vector> 
15
(
(0.0294282505584 0.00596617159123 7.11517621142e-23)
(0.0294187991517 0.00768916354762 -1.2653396552e-23)
(0.0295211715382 0.00947620735669 -1.29773057888e-23)
(0.0296533092832 0.0113469896191 -1.21969392099e-24)
(0.0297726983757 0.0133045025289 1.34056279062e-23)
(0.0298637896496 0.0153838367832 5.28565958181e-23)
(0.0298919835019 0.0176080224553 1.98543231774e-23)
(0.0298119738631 0.0199682997629 -1.67480498842e-23)
(0.0286479407582 0.00266243578851 1.81893703463e-22)
(0.0280074068828 0.00433940700989 8.76121163347e-23)
(0.0280074068828 0.00433940700989 8.76121163347e-23)
(0.0278940914219 0.000889564472878 -2.01097087756e-23)
(0.0261072862378 0.000883441776029 1.2755239336e-22)
(0.0243193868157 0.000881950891632 2.64461167244e-22)
(0.0243193868157 0.000881950891632 2.64461167244e-22)
)
;
    }
    procBoundary10to11
    {
        type            processor;
        value           nonuniform List<vector> 
23
(
(0.0271059734923 0.0220363884212 -6.65012392445e-23)
(0.0271059734923 0.0220363884212 -6.65012392445e-23)
(0.0242598541625 0.0236584734083 -2.61340314864e-22)
(0.022122182027 0.0227834852655 -3.06916091853e-22)
(0.0209022720509 0.0201662187324 -9.1240515792e-23)
(0.0209022720509 0.0201662187324 -9.1240515792e-23)
(0.0192601955268 0.019543138641 -1.26213335845e-22)
(0.0177684553674 0.0190333866143 -1.93078636822e-22)
(0.0166271553424 0.0172514630158 -2.894818658e-23)
(0.0166271553424 0.0172514630158 -2.894818658e-23)
(0.0153312055811 0.0155631305611 -1.79170676936e-23)
(0.0153312055811 0.0155631305611 -1.79170676936e-23)
(0.0138338873608 0.0154485407625 -2.70862068993e-23)
(0.0138338873608 0.0154485407625 -2.70862068993e-23)
(0.0123278964028 0.0168486077714 -7.25311612393e-23)
(0.0108858920251 0.0168734330572 -5.93997043876e-23)
(0.0094156863101 0.0169583263835 -9.83963620397e-24)
(0.00789943137911 0.0171279054866 6.42141597238e-23)
(0.0063155489471 0.0174040386478 1.94215668797e-22)
(0.00457268032386 0.0161924281659 3.0104744783e-22)
(0.00457268032386 0.0161924281659 3.0104744783e-22)
(0.00287346900721 0.016873365806 4.23166792049e-22)
(0.000916666840157 0.017885826226 7.69139858144e-22)
)
;
    }
}


// ************************************************************************* //
