/*--------------------------------*- C++ -*----------------------------------*\
| =========                 |                                                 |
| \\      /  F ield         | OpenFOAM: The Open Source CFD Toolbox           |
|  \\    /   O peration     | Version:  v2012                                 |
|   \\  /    A nd           | Website:  www.openfoam.com                      |
|    \\/     M anipulation  |                                                 |
\*---------------------------------------------------------------------------*/
FoamFile
{
    version     2.0;
    format      ascii;
    class       surfaceScalarField;
    location    "5.2";
    object      alphaPhi0.water;
}
// * * * * * * * * * * * * * * * * * * * * * * * * * * * * * * * * * * * * * //

dimensions      [0 3 -1 0 0 0 0];
oriented        oriented;


internalField   nonuniform List<scalar> 
296
(
0.000104357564407
8.76732134622e-05
0.000118716370279
9.01413053526e-05
0.000132860355477
9.29326074459e-05
0.000147853331229
9.43831478892e-05
0.00016476862234
9.45933620587e-05
0.000183159320448
9.57312072722e-05
0.00019999922799
0.000100029434267
0.00021243348587
0.000104321014305
0.000220359020089
0.0001107600724
0.000228479685705
0.000114462529441
3.58891977304e-05
6.7293796439e-05
7.71890274472e-07
1.73707017078e-06
-2.21933894562e-07
1.11700679329e-05
6.34208145144e-05
2.28662080759e-05
6.70603838452e-05
3.51369948425e-05
7.01316817304e-05
7.17037289614e-05
7.61005515484e-05
7.15320558497e-05
9.11399198602e-05
7.13840386055e-05
0.000106500001518
7.23139952363e-05
0.000120809469546
7.58329965173e-05
0.000134087461537
7.96558653399e-05
0.000148554156712
7.99178207599e-05
0.000166289261201
7.6858546343e-05
0.00018689448716
7.51253202195e-05
0.000204230884364
8.26935512707e-05
0.000214155715147
9.43949908047e-05
0.000217896184006
0.000107017892718
0.000221943825576
0.000110511351028
3.18531341664e-05
6.37747335481e-05
1.13610246051e-07
2.24298728208e-06
-1.41343782038e-07
1.09150071209e-05
5.25067436802e-05
2.23795778139e-05
5.55966170858e-05
3.44947498123e-05
5.80173054696e-05
4.73764665364e-05
5.88231564326e-05
6.11663764939e-05
5.81384906146e-05
7.60134810925e-05
5.66860601881e-05
9.1934426865e-05
5.54642760245e-05
0.000108105966448
5.61438410519e-05
0.000121885654378
6.20549750945e-05
0.000132922878801
6.86204682497e-05
0.000145729393092
6.7112923687e-05
0.00016449421879
5.80945805286e-05
0.00018862726328
5.09919263899e-05
0.0002064270006
6.48944141559e-05
0.00021391442455
8.69067634423e-05
0.000214071916002
0.000106859380725
0.000215548237905
0.000109049413029
2.86774706495e-05
6.16910793059e-05
1.20842935484e-07
2.09603026678e-06
-2.08615793808e-08
1.0526084464e-05
4.19812433035e-05
2.15563458591e-05
4.45668772427e-05
3.32800576064e-05
4.62940837948e-05
4.58133518003e-05
4.62904935281e-05
5.93434729462e-05
4.46091366214e-05
7.4239557321e-05
4.17909404233e-05
9.08334307138e-05
3.88717337801e-05
0.00010851290079
3.84661644288e-05
0.000120911549875
4.96585831792e-05
0.00012803764372
6.14970187646e-05
0.000138048178159
5.7105231032e-05
0.000158815235741
3.73300062746e-05
0.000188053426025
2.17557502949e-05
0.000206327432409
4.66232956637e-05
0.000210893365461
8.23422324961e-05
0.000207659717901
0.000110092965021
0.000206999944743
0.000109682490296
2.55487120076e-05
6.00703329932e-05
1.45302192661e-08
2.11707919267e-06
4.4240118519e-08
9.90630683013e-06
3.20751881118e-05
2.03300316261e-05
3.41433595246e-05
3.13218468513e-05
3.53024779536e-05
4.30254298448e-05
3.45872336324e-05
5.55041397195e-05
3.21309550994e-05
6.93300926228e-05
2.79658466598e-05
8.65722015331e-05
2.16310112396e-05
0.000107808047185
1.72323223779e-05
0.000120053072609
3.74163609989e-05
0.000125141649843
5.64119582259e-05
0.000134521043317
4.772975767e-05
0.00015488206673
1.69726496042e-05
0.000185477542908
-8.83527455494e-06
0.000200581285994
3.15255081234e-05
0.000201155437234
8.17723734791e-05
0.000196386922554
0.000114862537548
0.000195455664767
0.000110469590689
2.32545530135e-05
5.52354786638e-05
-2.60035507523e-07
1.63934215285e-06
1.10613261947e-08
9.1238498361e-06
2.29512878836e-05
1.87306837355e-05
2.45364263237e-05
2.89214115457e-05
2.51116679562e-05
3.93224644929e-05
2.41861934748e-05
4.95927997158e-05
2.18608881314e-05
5.98771663928e-05
1.76821674656e-05
7.70451584184e-05
4.46430694408e-06
0.000109148303309
-1.48685570491e-05
0.000124241838542
2.23261888209e-05
0.000135157068475
4.55008597328e-05
0.000150743133105
3.21479813598e-05
0.000179902421541
-1.21811642923e-05
0.000188958831422
-1.78847485133e-05
0.000185796339059
3.469911049e-05
0.00018141822846
8.61575276393e-05
0.000180319721858
0.000115963666517
0.000184361205987
0.000106285792851
2.20341332912e-05
4.64974127683e-05
1.17459549313e-06
5.75977029516e-07
-1.12955708874e-07
8.06888555085e-06
1.48821075234e-05
1.66447982052e-05
1.59601464921e-05
2.55150020982e-05
1.62411103705e-05
3.45632655405e-05
1.51377053377e-05
4.42938634149e-05
1.21303062978e-05
5.59782354991e-05
5.99821595771e-06
7.55777216481e-05
-1.51338270076e-05
0.00012215458552
-6.14434943964e-05
0.00014448296694
0.00018998610356
0.000222137230467
0.000209959477679
0.000176207878651
0.000149784643408
0.000147667028188
0.000160812708295
0.00017872471306
1.99503889685e-05
-4.56962250821e-08
7.54607313879e-06
7.33555367172e-06
1.56310782881e-05
7.87461327453e-06
2.39382157998e-05
7.93347063835e-06
3.16384791267e-05
7.43703475069e-06
3.74899974223e-05
6.27858912903e-06
4.020550337e-05
3.28287284833e-06
3.17748162729e-05
-6.70267397546e-06
-2.96685551184e-05
6.95729216488e-06
3.77585185067e-07
1.44723666432e-05
3.58812727296e-07
2.20568361774e-05
3.48213764376e-07
2.91167273493e-05
3.76402817647e-07
3.49676910272e-05
4.2695812469e-07
3.77302375352e-05
5.19908045818e-07
3.04281006186e-05
5.9931139439e-07
7.59502806959e-07
6.97713997536e-06
-6.60046051504e-06
1.4505876265e-05
-7.17094655122e-06
2.20784598642e-05
-7.22553419302e-06
2.91332680517e-05
-6.6796685888e-06
3.49831713492e-05
-5.42410395737e-06
3.76478374291e-05
-2.14566765365e-06
3.03804653389e-05
7.86624557868e-06
3.11396454004e-05
7.61238094322e-06
1.56939800826e-05
2.39880009415e-05
3.16565289654e-05
3.74941624838e-05
4.04634263182e-05
3.18465935712e-05
)
;

boundaryField
{
    back
    {
        type            calculated;
        value           uniform 0;
    }
    sides
    {
        type            calculated;
        value           nonuniform List<scalar> 0();
    }
    bottom
    {
        type            calculated;
        value           uniform 0;
    }
    front
    {
        type            calculated;
        value           uniform 0;
    }
    atmosphere
    {
        type            calculated;
        value           nonuniform List<scalar> 7(-4.6668237494e-08 -7.86820984037e-09 1.58104280364e-12 -3.06623187034e-10 5.11373041224e-08 -3.45079285679e-08 1.53609401711e-08);
    }
    floatingObject
    {
        type            calculated;
        value           uniform 0;
    }
    procBoundary3to4
    {
        type            processor;
        value           nonuniform List<scalar> 
13
(
-0.000102305526783
-0.00010449972533
-0.000107077021088
-7.45891840227e-05
-7.87549406949e-05
-8.24004102976e-05
-8.46299043421e-05
-8.59331177469e-05
-8.97253639241e-05
-8.64223444475e-05
4.80638731567e-05
-6.16978040991e-05
-7.19272623019e-05
)
;
    }
    procBoundary3to5
    {
        type            processor;
        value           nonuniform List<scalar> 10(-0.000109375566603 -0.000111508564862 -0.000114120972704 -0.000116873995548 -0.000116756667038 -0.000118691223501 -0.00012239776224 -7.49351104133e-05 -2.1723390517e-06 2.17762755415e-07);
    }
    procBoundary3to6
    {
        type            processor;
        value           nonuniform List<scalar> 8(1.58763451282e-05 6.11319821487e-05 8.82854065952e-05 0.000102821121864 8.88469136024e-05 3.58740609476e-05 2.12099741097e-07 -1.08799952621e-08);
    }
    procBoundary3to8
    {
        type            processor;
        value           nonuniform List<scalar> 8(-1.42138969495e-05 -1.52537848531e-05 -1.55210346817e-05 -1.43497376987e-05 -1.12632173077e-05 -5.11609152654e-06 1.64822293841e-05 6.29860287128e-05);
    }
}


// ************************************************************************* //
