/*--------------------------------*- C++ -*----------------------------------*\
| =========                 |                                                 |
| \\      /  F ield         | OpenFOAM: The Open Source CFD Toolbox           |
|  \\    /   O peration     | Version:  v2012                                 |
|   \\  /    A nd           | Website:  www.openfoam.com                      |
|    \\/     M anipulation  |                                                 |
\*---------------------------------------------------------------------------*/
FoamFile
{
    version     2.0;
    format      ascii;
    class       volScalarField;
    location    "5.2";
    object      epsilon;
}
// * * * * * * * * * * * * * * * * * * * * * * * * * * * * * * * * * * * * * //

dimensions      [0 2 -3 0 0 0 0];


internalField   nonuniform List<scalar> 
164
(
0.000645176186817
0.000651403276697
0.000658566224365
0.000667852514706
0.000683347436099
0.000717806694139
0.000810766561138
0.00108998645805
0.00194714571005
0.00430180442631
0.00990671188438
0.0228272961932
0.0804784484938
0.000510371219113
0.000534281678315
0.000588664070992
0.000611646605913
0.000630015721118
0.00063607449612
0.00064220805676
0.000648911421345
0.000656565090881
0.000666200954223
0.000681641043039
0.000715500738251
0.000808354023093
0.00109446212246
0.00197574827746
0.00435524956922
0.0100370295359
0.0247817779113
0.103585259841
0.000505783230179
0.000530114315332
0.000584275670589
0.000607283396282
0.000618648121947
0.00062596783789
0.000632209671131
0.000638586971964
0.000645739444431
0.000654042852808
0.000664365341721
0.000680655583104
0.000716042421736
0.000811413105583
0.00110519528982
0.00200782312075
0.00441837849934
0.0103302577334
0.0300697944635
0.149366513503
0.000501116684316
0.000525961061027
0.000579891048131
0.000602833320571
0.000614131364683
0.000621243959202
0.000627072754476
0.000633044688993
0.000640341180485
0.000649430285817
0.000660683188975
0.000678547313325
0.000718754402644
0.000821148963339
0.00112474904529
0.00204802730304
0.00448640260426
0.0103508640252
0.0296326988958
0.14753117129
0.00049654529372
0.000521971472309
0.000575628607917
0.000598317550919
0.000609075385127
0.000614974569352
0.000618614902933
0.000621875031331
0.000627770866249
0.000637423916411
0.000649434073671
0.000669593822325
0.000722496584002
0.000841997419911
0.00116625455672
0.00211859389241
0.00456884600807
0.0101515029825
0.0236168918846
0.063893938448
0.000492172575094
0.000518270267065
0.000571590955258
0.000593681309926
0.000602965348165
0.000605305216888
0.000601705094869
0.000593121264476
0.000591175266791
0.000600110485588
0.000612820487024
0.000637847312223
0.000724490223986
0.000880379057368
0.00124518653303
0.00223733615668
0.00465449301484
0.009874020107
0.0215114990379
0.0498528107476
0.000488164413931
0.000515023879437
0.000567933135091
0.000589053053126
0.000595692805189
0.000590992774561
0.000569909654607
0.000522626554813
0.00061654537698
0.000616075855683
0.000635608356916
0.000713869257164
0.000717791904538
0.000957160257903
0.00138818900782
0.0024201920805
0.00476978547247
0.00983439106672
0.024077481606
0.0894186193893
0.000484609628369
0.000512206404393
0.000564777748983
0.000584922677401
0.000589299305052
0.000579400013346
0.000543604308127
0.000563771169095
0.000482316896944
0.000510652782174
0.000563100506046
0.000582682359933
0.000585610438885
0.000572486283709
0.000529394159876
0.000522427318189
0.000482269931239
0.000510626419669
0.000563081065719
0.000582669350491
0.000585601085971
0.000572476915802
0.000529406237036
0.000522568313238
0.000484546171209
0.000512151999982
0.00056473705072
0.000584889660816
0.000589268859992
0.00057936738778
0.000543599754977
0.000563843929681
)
;

boundaryField
{
    back
    {
        lowReCorrection 0;
        blending        stepwise;
        n               2;
        type            epsilonWallFunction;
        value           nonuniform List<scalar> 
164
(
0.000645176186817
0.000651403276697
0.000658566224365
0.000667852514706
0.000683347436099
0.000717806694139
0.000810766561138
0.00108998645805
0.00194714571005
0.00430180442631
0.00990671188438
0.0228272961932
0.0804784484938
0.000510371219113
0.000534281678315
0.000588664070992
0.000611646605913
0.000630015721118
0.00063607449612
0.00064220805676
0.000648911421345
0.000656565090881
0.000666200954223
0.000681641043039
0.000715500738251
0.000808354023093
0.00109446212246
0.00197574827746
0.00435524956922
0.0100370295359
0.0247817779113
0.103585259841
0.000505783230179
0.000530114315332
0.000584275670589
0.000607283396282
0.000618648121947
0.00062596783789
0.000632209671131
0.000638586971964
0.000645739444431
0.000654042852808
0.000664365341721
0.000680655583104
0.000716042421736
0.000811413105583
0.00110519528982
0.00200782312075
0.00441837849934
0.0103302577334
0.0300697944635
0.149366513503
0.000501116684316
0.000525961061027
0.000579891048131
0.000602833320571
0.000614131364683
0.000621243959202
0.000627072754476
0.000633044688993
0.000640341180485
0.000649430285817
0.000660683188975
0.000678547313325
0.000718754402644
0.000821148963339
0.00112474904529
0.00204802730304
0.00448640260426
0.0103508640252
0.0296326988958
0.14753117129
0.00049654529372
0.000521971472309
0.000575628607917
0.000598317550919
0.000609075385127
0.000614974569352
0.000618614902933
0.000621875031331
0.000627770866249
0.000637423916411
0.000649434073671
0.000669593822325
0.000722496584002
0.000841997419911
0.00116625455672
0.00211859389241
0.00456884600807
0.0101515029825
0.0236168918846
0.063893938448
0.000492172575094
0.000518270267065
0.000571590955258
0.000593681309926
0.000602965348165
0.000605305216888
0.000601705094869
0.000593121264476
0.000591175266791
0.000600110485588
0.000612820487024
0.000637847312223
0.000724490223986
0.000880379057368
0.00124518653303
0.00223733615668
0.00465449301484
0.009874020107
0.0215114990379
0.0498528107476
0.000488164413931
0.000515023879437
0.000567933135091
0.000589053053126
0.000595692805189
0.000590992774561
0.000569909654607
0.000522626554813
0.00061654537698
0.000616075855683
0.000635608356916
0.000713869257164
0.000717791904538
0.000957160257903
0.00138818900782
0.0024201920805
0.00476978547247
0.00983439106672
0.024077481606
0.0894186193893
0.000484609628369
0.000512206404393
0.000564777748983
0.000584922677401
0.000589299305052
0.000579400013346
0.000543604308127
0.000563771169095
0.000482316896944
0.000510652782174
0.000563100506046
0.000582682359933
0.000585610438885
0.000572486283709
0.000529394159876
0.000522427318189
0.000482269931239
0.000510626419669
0.000563081065719
0.000582669350491
0.000585601085971
0.000572476915802
0.000529406237036
0.000522568313238
0.000484546171209
0.000512151999982
0.00056473705072
0.000584889660816
0.000589268859992
0.00057936738778
0.000543599754977
0.000563843929681
)
;
    }
    sides
    {
        lowReCorrection 0;
        blending        stepwise;
        n               2;
        type            epsilonWallFunction;
        value           nonuniform List<scalar> 0();
    }
    bottom
    {
        lowReCorrection 0;
        blending        stepwise;
        n               2;
        type            epsilonWallFunction;
        value           nonuniform List<scalar> 10(0.000510371219113 0.000505783230179 0.000501116684316 0.00049654529372 0.000492172575094 0.000488164413931 0.000484609628369 0.000482316896944 0.000482269931239 0.000484546171209);
    }
    front
    {
        lowReCorrection 0;
        blending        stepwise;
        n               2;
        type            epsilonWallFunction;
        value           nonuniform List<scalar> 
164
(
0.000645176186817
0.000651403276697
0.000658566224365
0.000667852514706
0.000683347436099
0.000717806694139
0.000810766561138
0.00108998645805
0.00194714571005
0.00430180442631
0.00990671188438
0.0228272961932
0.0804784484938
0.000510371219113
0.000534281678315
0.000588664070992
0.000611646605913
0.000630015721118
0.00063607449612
0.00064220805676
0.000648911421345
0.000656565090881
0.000666200954223
0.000681641043039
0.000715500738251
0.000808354023093
0.00109446212246
0.00197574827746
0.00435524956922
0.0100370295359
0.0247817779113
0.103585259841
0.000505783230179
0.000530114315332
0.000584275670589
0.000607283396282
0.000618648121947
0.00062596783789
0.000632209671131
0.000638586971964
0.000645739444431
0.000654042852808
0.000664365341721
0.000680655583104
0.000716042421736
0.000811413105583
0.00110519528982
0.00200782312075
0.00441837849934
0.0103302577334
0.0300697944635
0.149366513503
0.000501116684316
0.000525961061027
0.000579891048131
0.000602833320571
0.000614131364683
0.000621243959202
0.000627072754476
0.000633044688993
0.000640341180485
0.000649430285817
0.000660683188975
0.000678547313325
0.000718754402644
0.000821148963339
0.00112474904529
0.00204802730304
0.00448640260426
0.0103508640252
0.0296326988958
0.14753117129
0.00049654529372
0.000521971472309
0.000575628607917
0.000598317550919
0.000609075385127
0.000614974569352
0.000618614902933
0.000621875031331
0.000627770866249
0.000637423916411
0.000649434073671
0.000669593822325
0.000722496584002
0.000841997419911
0.00116625455672
0.00211859389241
0.00456884600807
0.0101515029825
0.0236168918846
0.063893938448
0.000492172575094
0.000518270267065
0.000571590955258
0.000593681309926
0.000602965348165
0.000605305216888
0.000601705094869
0.000593121264476
0.000591175266791
0.000600110485588
0.000612820487024
0.000637847312223
0.000724490223986
0.000880379057368
0.00124518653303
0.00223733615668
0.00465449301484
0.009874020107
0.0215114990379
0.0498528107476
0.000488164413931
0.000515023879437
0.000567933135091
0.000589053053126
0.000595692805189
0.000590992774561
0.000569909654607
0.000522626554813
0.00061654537698
0.000616075855683
0.000635608356916
0.000713869257164
0.000717791904538
0.000957160257903
0.00138818900782
0.0024201920805
0.00476978547247
0.00983439106672
0.024077481606
0.0894186193893
0.000484609628369
0.000512206404393
0.000564777748983
0.000584922677401
0.000589299305052
0.000579400013346
0.000543604308127
0.000563771169095
0.000482316896944
0.000510652782174
0.000563100506046
0.000582682359933
0.000585610438885
0.000572486283709
0.000529394159876
0.000522427318189
0.000482269931239
0.000510626419669
0.000563081065719
0.000582669350491
0.000585601085971
0.000572476915802
0.000529406237036
0.000522568313238
0.000484546171209
0.000512151999982
0.00056473705072
0.000584889660816
0.000589268859992
0.00057936738778
0.000543599754977
0.000563843929681
)
;
    }
    atmosphere
    {
        type            inletOutlet;
        inletValue      uniform 0.1;
        value           nonuniform List<scalar> 7(0.0804784484938 0.1 0.1 0.1 0.1 0.0498528107476 0.1);
    }
    floatingObject
    {
        lowReCorrection 0;
        blending        stepwise;
        n               2;
        type            epsilonWallFunction;
        value           nonuniform List<scalar> 8(0.00061654537698 0.000616075855683 0.000635608356916 0.000713869257164 0.000563771169095 0.000522427318189 0.000522568313238 0.000563843929681);
    }
    procBoundary3to4
    {
        type            processor;
        value           nonuniform List<scalar> 
13
(
0.000647893166398
0.00065371011769
0.000660508927221
0.000514767896958
0.0005383543058
0.000592965868599
0.000615869986851
0.000633731267574
0.000639444964101
0.000639444964101
0.000622865668873
0.000622865668873
0.000622865668873
)
;
    }
    procBoundary3to5
    {
        type            processor;
        value           nonuniform List<scalar> 10(0.000669728501567 0.000685898757376 0.000722303279808 0.000817486568557 0.00109239573831 0.00192835452588 0.00427666149874 0.0101062616461 0.0250330304929 0.0640591891274);
    }
    procBoundary3to6
    {
        type            processor;
        value           nonuniform List<scalar> 8(0.000984426327874 0.00111777615655 0.00160645100891 0.00264365240755 0.0048934676558 0.00972550842373 0.0242305546788 0.0973964625377);
    }
    procBoundary3to8
    {
        type            processor;
        value           nonuniform List<scalar> 8(0.000488100839627 0.000514971138107 0.000567890876187 0.00058902338029 0.000595661081872 0.000590926459419 0.000569714509994 0.000522350155582);
    }
}


// ************************************************************************* //
