/*--------------------------------*- C++ -*----------------------------------*\
| =========                 |                                                 |
| \\      /  F ield         | OpenFOAM: The Open Source CFD Toolbox           |
|  \\    /   O peration     | Version:  v2012                                 |
|   \\  /    A nd           | Website:  www.openfoam.com                      |
|    \\/     M anipulation  |                                                 |
\*---------------------------------------------------------------------------*/
FoamFile
{
    version     2.0;
    format      ascii;
    class       volScalarField;
    location    "4.7";
    object      epsilon;
}
// * * * * * * * * * * * * * * * * * * * * * * * * * * * * * * * * * * * * * //

dimensions      [0 2 -3 0 0 0 0];


internalField   nonuniform List<scalar> 
164
(
0.00086297021125
0.000867912116584
0.000874640076576
0.00088597447469
0.00091106490197
0.00098157323829
0.0012151942166
0.00207056112652
0.00527463977717
0.0160911517487
0.0471978252452
0.133111784246
0.000863832282484
0.000868840362127
0.000875601542276
0.00088690452877
0.000911931563417
0.000982776581309
0.00121987858571
0.00209807601622
0.0053938090313
0.0164187980545
0.0486973338378
0.148968906309
0.000876364811834
0.000887703753496
0.00091281419494
0.000984258894198
0.00122482419526
0.00212327247718
0.00551228286267
0.0168360855991
0.0498890347579
0.159612721925
0.000876979740608
0.00088847083701
0.000913980190375
0.000986853315737
0.00123300088292
0.00215613484227
0.00563822629179
0.0172424459883
0.0510076582981
0.160297832193
0.00087747644326
0.000889347234324
0.000915786968228
0.00099078269475
0.00124056663899
0.00217291903424
0.00573869170464
0.0178319614615
0.0528539772215
0.161486703835
0.000877913104741
0.000890558090307
0.000918974014545
0.000998185498617
0.00125350729402
0.00219295574908
0.00585895858637
0.0186007613502
0.0549838448425
0.16286284348
0.000878343091662
0.00089234487738
0.00092444911069
0.00101220488212
0.00128258837699
0.00224310036797
0.00596007665684
0.0188624460487
0.055604054541
0.163228215092
0.000878767247263
0.000894773832247
0.000932529510584
0.00103417847706
0.00133316713578
0.00234225682381
0.0060987640949
0.0188719896639
0.0553943066572
0.163080686953
0.000879087674227
0.000897497422583
0.000942018728206
0.00106022658351
0.00139416687682
0.00246623933395
0.00627777156085
0.0188623582122
0.0548515997752
0.162750159519
0.000879106994038
0.00089978742765
0.000950545401564
0.00108386913944
0.00145043803721
0.00258504934219
0.00645450842935
0.0188390397266
0.0542101568711
0.162351134494
0.000878633050786
0.000900890693711
0.000955671827581
0.00109839065072
0.00148543017501
0.00266204803878
0.00656169144741
0.0186870300589
0.0533244248737
0.161788714155
0.000877655672202
0.000900722083717
0.000957063416103
0.00110289948371
0.00149855626254
0.00270265626247
0.00665316134404
0.0186629692843
0.052644827713
0.161257371312
0.00087639552057
0.000899941196612
0.000956620075919
0.00110221668359
0.00149875807405
0.00271900060376
0.00673098044597
0.0187605002067
0.0523575407377
0.160986804207
0.000874917757921
0.000898730164581
0.000955138687324
0.00109931772965
0.00149475092872
0.00272957158898
0.00680550078847
0.0188931007336
0.0522467893401
0.160823209192
0.000873016816787
0.000896342806461
0.000950740032472
0.00109119688275
0.00148570348957
0.00274217074972
0.00687648418402
0.0188622891692
0.0515703152951
0.160368902861
0.000870768919895
0.000892785263944
0.000943264899532
0.00107748725237
0.00147238661484
0.00276169902029
0.00692504996457
0.0185849234027
0.0502910951336
0.159576117597
)
;

boundaryField
{
    back
    {
        lowReCorrection 0;
        blending        stepwise;
        n               2;
        type            epsilonWallFunction;
        value           nonuniform List<scalar> 
164
(
0.00086297021125
0.000867912116584
0.000874640076576
0.00088597447469
0.00091106490197
0.00098157323829
0.0012151942166
0.00207056112652
0.00527463977717
0.0160911517487
0.0471978252452
0.133111784246
0.000863832282484
0.000868840362127
0.000875601542276
0.00088690452877
0.000911931563417
0.000982776581309
0.00121987858571
0.00209807601622
0.0053938090313
0.0164187980545
0.0486973338378
0.148968906309
0.000876364811834
0.000887703753496
0.00091281419494
0.000984258894198
0.00122482419526
0.00212327247718
0.00551228286267
0.0168360855991
0.0498890347579
0.159612721925
0.000876979740608
0.00088847083701
0.000913980190375
0.000986853315737
0.00123300088292
0.00215613484227
0.00563822629179
0.0172424459883
0.0510076582981
0.160297832193
0.00087747644326
0.000889347234324
0.000915786968228
0.00099078269475
0.00124056663899
0.00217291903424
0.00573869170464
0.0178319614615
0.0528539772215
0.161486703835
0.000877913104741
0.000890558090307
0.000918974014545
0.000998185498617
0.00125350729402
0.00219295574908
0.00585895858637
0.0186007613502
0.0549838448425
0.16286284348
0.000878343091662
0.00089234487738
0.00092444911069
0.00101220488212
0.00128258837699
0.00224310036797
0.00596007665684
0.0188624460487
0.055604054541
0.163228215092
0.000878767247263
0.000894773832247
0.000932529510584
0.00103417847706
0.00133316713578
0.00234225682381
0.0060987640949
0.0188719896639
0.0553943066572
0.163080686953
0.000879087674227
0.000897497422583
0.000942018728206
0.00106022658351
0.00139416687682
0.00246623933395
0.00627777156085
0.0188623582122
0.0548515997752
0.162750159519
0.000879106994038
0.00089978742765
0.000950545401564
0.00108386913944
0.00145043803721
0.00258504934219
0.00645450842935
0.0188390397266
0.0542101568711
0.162351134494
0.000878633050786
0.000900890693711
0.000955671827581
0.00109839065072
0.00148543017501
0.00266204803878
0.00656169144741
0.0186870300589
0.0533244248737
0.161788714155
0.000877655672202
0.000900722083717
0.000957063416103
0.00110289948371
0.00149855626254
0.00270265626247
0.00665316134404
0.0186629692843
0.052644827713
0.161257371312
0.00087639552057
0.000899941196612
0.000956620075919
0.00110221668359
0.00149875807405
0.00271900060376
0.00673098044597
0.0187605002067
0.0523575407377
0.160986804207
0.000874917757921
0.000898730164581
0.000955138687324
0.00109931772965
0.00149475092872
0.00272957158898
0.00680550078847
0.0188931007336
0.0522467893401
0.160823209192
0.000873016816787
0.000896342806461
0.000950740032472
0.00109119688275
0.00148570348957
0.00274217074972
0.00687648418402
0.0188622891692
0.0515703152951
0.160368902861
0.000870768919895
0.000892785263944
0.000943264899532
0.00107748725237
0.00147238661484
0.00276169902029
0.00692504996457
0.0185849234027
0.0502910951336
0.159576117597
)
;
    }
    sides
    {
        lowReCorrection 0;
        blending        stepwise;
        n               2;
        type            epsilonWallFunction;
        value           nonuniform List<scalar> 0();
    }
    bottom
    {
        lowReCorrection 0;
        blending        stepwise;
        n               2;
        type            epsilonWallFunction;
        value           nonuniform List<scalar> 0();
    }
    front
    {
        lowReCorrection 0;
        blending        stepwise;
        n               2;
        type            epsilonWallFunction;
        value           nonuniform List<scalar> 
164
(
0.00086297021125
0.000867912116584
0.000874640076576
0.00088597447469
0.00091106490197
0.00098157323829
0.0012151942166
0.00207056112652
0.00527463977717
0.0160911517487
0.0471978252452
0.133111784246
0.000863832282484
0.000868840362127
0.000875601542276
0.00088690452877
0.000911931563417
0.000982776581309
0.00121987858571
0.00209807601622
0.0053938090313
0.0164187980545
0.0486973338378
0.148968906309
0.000876364811834
0.000887703753496
0.00091281419494
0.000984258894198
0.00122482419526
0.00212327247718
0.00551228286267
0.0168360855991
0.0498890347579
0.159612721925
0.000876979740608
0.00088847083701
0.000913980190375
0.000986853315737
0.00123300088292
0.00215613484227
0.00563822629179
0.0172424459883
0.0510076582981
0.160297832193
0.00087747644326
0.000889347234324
0.000915786968228
0.00099078269475
0.00124056663899
0.00217291903424
0.00573869170464
0.0178319614615
0.0528539772215
0.161486703835
0.000877913104741
0.000890558090307
0.000918974014545
0.000998185498617
0.00125350729402
0.00219295574908
0.00585895858637
0.0186007613502
0.0549838448425
0.16286284348
0.000878343091662
0.00089234487738
0.00092444911069
0.00101220488212
0.00128258837699
0.00224310036797
0.00596007665684
0.0188624460487
0.055604054541
0.163228215092
0.000878767247263
0.000894773832247
0.000932529510584
0.00103417847706
0.00133316713578
0.00234225682381
0.0060987640949
0.0188719896639
0.0553943066572
0.163080686953
0.000879087674227
0.000897497422583
0.000942018728206
0.00106022658351
0.00139416687682
0.00246623933395
0.00627777156085
0.0188623582122
0.0548515997752
0.162750159519
0.000879106994038
0.00089978742765
0.000950545401564
0.00108386913944
0.00145043803721
0.00258504934219
0.00645450842935
0.0188390397266
0.0542101568711
0.162351134494
0.000878633050786
0.000900890693711
0.000955671827581
0.00109839065072
0.00148543017501
0.00266204803878
0.00656169144741
0.0186870300589
0.0533244248737
0.161788714155
0.000877655672202
0.000900722083717
0.000957063416103
0.00110289948371
0.00149855626254
0.00270265626247
0.00665316134404
0.0186629692843
0.052644827713
0.161257371312
0.00087639552057
0.000899941196612
0.000956620075919
0.00110221668359
0.00149875807405
0.00271900060376
0.00673098044597
0.0187605002067
0.0523575407377
0.160986804207
0.000874917757921
0.000898730164581
0.000955138687324
0.00109931772965
0.00149475092872
0.00272957158898
0.00680550078847
0.0188931007336
0.0522467893401
0.160823209192
0.000873016816787
0.000896342806461
0.000950740032472
0.00109119688275
0.00148570348957
0.00274217074972
0.00687648418402
0.0188622891692
0.0515703152951
0.160368902861
0.000870768919895
0.000892785263944
0.000943264899532
0.00107748725237
0.00147238661484
0.00276169902029
0.00692504996457
0.0185849234027
0.0502910951336
0.159576117597
)
;
    }
    atmosphere
    {
        type            inletOutlet;
        inletValue      uniform 0.1;
        value           nonuniform List<scalar> 
16
(
0.133111784246
0.148968906309
0.159612721925
0.1
0.1
0.1
0.1
0.1
0.1
0.1
0.1
0.1
0.1
0.1
0.1
0.1
)
;
    }
    floatingObject
    {
        lowReCorrection 0;
        blending        stepwise;
        n               2;
        type            epsilonWallFunction;
        value           nonuniform List<scalar> 0();
    }
    procBoundary5to0
    {
        type            processor;
        value           nonuniform List<scalar> 
12
(
0.000861880483061
0.000866769221446
0.000873484203098
0.000884880096114
0.000910028130207
0.000979959817031
0.00120841719483
0.00203367997974
0.00513101926518
0.0156783377868
0.0436128724835
0.104112846684
)
;
    }
    procBoundary5to3
    {
        type            processor;
        value           nonuniform List<scalar> 10(0.000868723140242 0.000889660781159 0.000936777056142 0.00106691054236 0.00147088155816 0.0028144089219 0.00702509288023 0.0183997078361 0.0492026113139 0.158704266898);
    }
    procBoundary5to4
    {
        type            processor;
        value           nonuniform List<scalar> 
18
(
0.000858910145481
0.000859695155612
0.000864445774635
0.000869540219914
0.000869540219914
0.000870040194545
0.000870326138451
0.000870415229581
0.000870316701058
0.000870017353495
0.000869483807445
0.000868667784907
0.000867533979181
0.00086609833499
0.000864420537613
0.000862551863161
0.000860480503571
0.000858259857163
)
;
    }
}


// ************************************************************************* //
