/*--------------------------------*- C++ -*----------------------------------*\
| =========                 |                                                 |
| \\      /  F ield         | OpenFOAM: The Open Source CFD Toolbox           |
|  \\    /   O peration     | Version:  v2012                                 |
|   \\  /    A nd           | Website:  www.openfoam.com                      |
|    \\/     M anipulation  |                                                 |
\*---------------------------------------------------------------------------*/
FoamFile
{
    version     2.0;
    format      ascii;
    class       volScalarField;
    location    "4.7";
    object      k_0;
}
// * * * * * * * * * * * * * * * * * * * * * * * * * * * * * * * * * * * * * //

dimensions      [0 2 -2 0 0 0 0];


internalField   nonuniform List<scalar> 
164
(
0.00226314226721
0.00227177415054
0.00228349939773
0.0023031848362
0.00234646562725
0.00246601922948
0.00284322861901
0.00405608166126
0.00756559675389
0.0159137576401
0.0326083865983
0.0650917062495
0.00226464920618
0.00227339366053
0.00228517254638
0.00230479640396
0.00234795346053
0.00246803426746
0.00285053071106
0.00409193568253
0.00767912428715
0.0161290539085
0.0332954413111
0.070163579782
0.00228650035684
0.00230618082484
0.00234946822594
0.00247051531964
0.00285822989439
0.00412463136054
0.00779116346273
0.0164011916245
0.0338364443995
0.0734671154697
0.00228756982811
0.00230750917987
0.00235146855003
0.00247485479146
0.00287093644
0.00416708089162
0.00790938994764
0.016664050337
0.0343403652444
0.0736771953656
0.00228843350049
0.00230902636531
0.00235456648935
0.00248141990115
0.00288266860345
0.00418867838338
0.00800306938309
0.0170417450526
0.0351641211881
0.0740410381301
0.00228919263798
0.0023111217331
0.00236002610452
0.00249376479808
0.00290268046134
0.00421438846735
0.00811449701462
0.0175281117401
0.0361025648056
0.0744610794802
0.00228994004875
0.00231421200712
0.0023693905863
0.00251706021067
0.00294740298684
0.00427839085277
0.00820759433444
0.0176921247524
0.0363735447115
0.0745724034292
0.00229067720393
0.002318409614
0.00238317742054
0.00255335764132
0.00302438948037
0.00440356415491
0.00833442947265
0.0176980919034
0.0362820156718
0.0745274635443
0.00229123400677
0.00232311188157
0.00239931725526
0.00259605434037
0.00311595487458
0.00455762021424
0.00849672687466
0.0176920698279
0.0360446532252
0.0744267293606
0.00229126757645
0.002327061886
0.00241377376556
0.00263450616965
0.00319924455611
0.00470284368855
0.00865545894717
0.0176774856732
0.0357630949168
0.0743050283995
0.0022904439919
0.00232896370114
0.00242244453268
0.00265798507346
0.00325049483734
0.00479577255774
0.00875101689601
0.0175822658358
0.0353724742725
0.0741333231004
0.00228874510586
0.00232867310073
0.00242479556876
0.00266525402734
0.00326961553329
0.00484442081629
0.00883215515386
0.017567170383
0.0350712941442
0.073970922803
0.00228655377076
0.00232732700025
0.00242404668607
0.00266415388259
0.00326990907415
0.00486393230607
0.00890089214505
0.0176283201199
0.0349435866046
0.0738881578034
0.00228398268348
0.00232523864154
0.00242154351012
0.00265948048278
0.00326407809233
0.00487653088059
0.00896646749459
0.0177112880399
0.034894291996
0.0738380924887
0.00228067319881
0.00232111902319
0.00241410324584
0.00264636694801
0.00325089354578
0.00489152542586
0.00902870822186
0.017692026655
0.0345924384662
0.0736989710838
0.0022767565726
0.0023149733451
0.00240143278399
0.00262415457337
0.00323143848647
0.00491472116402
0.00907116904172
0.0175181605803
0.0340179951245
0.073455882793
)
;

boundaryField
{
    back
    {
        type            kqRWallFunction;
        value           nonuniform List<scalar> 
164
(
0.00226314226721
0.00227177415054
0.00228349939773
0.0023031848362
0.00234646562725
0.00246601922948
0.00284322861901
0.00405608166126
0.00756559675389
0.0159137576401
0.0326083865983
0.0650917062495
0.00226464920618
0.00227339366053
0.00228517254638
0.00230479640396
0.00234795346053
0.00246803426746
0.00285053071106
0.00409193568253
0.00767912428715
0.0161290539085
0.0332954413111
0.070163579782
0.00228650035684
0.00230618082484
0.00234946822594
0.00247051531964
0.00285822989439
0.00412463136054
0.00779116346273
0.0164011916245
0.0338364443995
0.0734671154697
0.00228756982811
0.00230750917987
0.00235146855003
0.00247485479146
0.00287093644
0.00416708089162
0.00790938994764
0.016664050337
0.0343403652444
0.0736771953656
0.00228843350049
0.00230902636531
0.00235456648935
0.00248141990115
0.00288266860345
0.00418867838338
0.00800306938309
0.0170417450526
0.0351641211881
0.0740410381301
0.00228919263798
0.0023111217331
0.00236002610452
0.00249376479808
0.00290268046134
0.00421438846735
0.00811449701462
0.0175281117401
0.0361025648056
0.0744610794802
0.00228994004875
0.00231421200712
0.0023693905863
0.00251706021067
0.00294740298684
0.00427839085277
0.00820759433444
0.0176921247524
0.0363735447115
0.0745724034292
0.00229067720393
0.002318409614
0.00238317742054
0.00255335764132
0.00302438948037
0.00440356415491
0.00833442947265
0.0176980919034
0.0362820156718
0.0745274635443
0.00229123400677
0.00232311188157
0.00239931725526
0.00259605434037
0.00311595487458
0.00455762021424
0.00849672687466
0.0176920698279
0.0360446532252
0.0744267293606
0.00229126757645
0.002327061886
0.00241377376556
0.00263450616965
0.00319924455611
0.00470284368855
0.00865545894717
0.0176774856732
0.0357630949168
0.0743050283995
0.0022904439919
0.00232896370114
0.00242244453268
0.00265798507346
0.00325049483734
0.00479577255774
0.00875101689601
0.0175822658358
0.0353724742725
0.0741333231004
0.00228874510586
0.00232867310073
0.00242479556876
0.00266525402734
0.00326961553329
0.00484442081629
0.00883215515386
0.017567170383
0.0350712941442
0.073970922803
0.00228655377076
0.00232732700025
0.00242404668607
0.00266415388259
0.00326990907415
0.00486393230607
0.00890089214505
0.0176283201199
0.0349435866046
0.0738881578034
0.00228398268348
0.00232523864154
0.00242154351012
0.00265948048278
0.00326407809233
0.00487653088059
0.00896646749459
0.0177112880399
0.034894291996
0.0738380924887
0.00228067319881
0.00232111902319
0.00241410324584
0.00264636694801
0.00325089354578
0.00489152542586
0.00902870822186
0.017692026655
0.0345924384662
0.0736989710838
0.0022767565726
0.0023149733451
0.00240143278399
0.00262415457337
0.00323143848647
0.00491472116402
0.00907116904172
0.0175181605803
0.0340179951245
0.073455882793
)
;
    }
    sides
    {
        type            kqRWallFunction;
        value           nonuniform List<scalar> 0();
    }
    bottom
    {
        type            kqRWallFunction;
        value           nonuniform List<scalar> 0();
    }
    front
    {
        type            kqRWallFunction;
        value           nonuniform List<scalar> 
164
(
0.00226314226721
0.00227177415054
0.00228349939773
0.0023031848362
0.00234646562725
0.00246601922948
0.00284322861901
0.00405608166126
0.00756559675389
0.0159137576401
0.0326083865983
0.0650917062495
0.00226464920618
0.00227339366053
0.00228517254638
0.00230479640396
0.00234795346053
0.00246803426746
0.00285053071106
0.00409193568253
0.00767912428715
0.0161290539085
0.0332954413111
0.070163579782
0.00228650035684
0.00230618082484
0.00234946822594
0.00247051531964
0.00285822989439
0.00412463136054
0.00779116346273
0.0164011916245
0.0338364443995
0.0734671154697
0.00228756982811
0.00230750917987
0.00235146855003
0.00247485479146
0.00287093644
0.00416708089162
0.00790938994764
0.016664050337
0.0343403652444
0.0736771953656
0.00228843350049
0.00230902636531
0.00235456648935
0.00248141990115
0.00288266860345
0.00418867838338
0.00800306938309
0.0170417450526
0.0351641211881
0.0740410381301
0.00228919263798
0.0023111217331
0.00236002610452
0.00249376479808
0.00290268046134
0.00421438846735
0.00811449701462
0.0175281117401
0.0361025648056
0.0744610794802
0.00228994004875
0.00231421200712
0.0023693905863
0.00251706021067
0.00294740298684
0.00427839085277
0.00820759433444
0.0176921247524
0.0363735447115
0.0745724034292
0.00229067720393
0.002318409614
0.00238317742054
0.00255335764132
0.00302438948037
0.00440356415491
0.00833442947265
0.0176980919034
0.0362820156718
0.0745274635443
0.00229123400677
0.00232311188157
0.00239931725526
0.00259605434037
0.00311595487458
0.00455762021424
0.00849672687466
0.0176920698279
0.0360446532252
0.0744267293606
0.00229126757645
0.002327061886
0.00241377376556
0.00263450616965
0.00319924455611
0.00470284368855
0.00865545894717
0.0176774856732
0.0357630949168
0.0743050283995
0.0022904439919
0.00232896370114
0.00242244453268
0.00265798507346
0.00325049483734
0.00479577255774
0.00875101689601
0.0175822658358
0.0353724742725
0.0741333231004
0.00228874510586
0.00232867310073
0.00242479556876
0.00266525402734
0.00326961553329
0.00484442081629
0.00883215515386
0.017567170383
0.0350712941442
0.073970922803
0.00228655377076
0.00232732700025
0.00242404668607
0.00266415388259
0.00326990907415
0.00486393230607
0.00890089214505
0.0176283201199
0.0349435866046
0.0738881578034
0.00228398268348
0.00232523864154
0.00242154351012
0.00265948048278
0.00326407809233
0.00487653088059
0.00896646749459
0.0177112880399
0.034894291996
0.0738380924887
0.00228067319881
0.00232111902319
0.00241410324584
0.00264636694801
0.00325089354578
0.00489152542586
0.00902870822186
0.017692026655
0.0345924384662
0.0736989710838
0.0022767565726
0.0023149733451
0.00240143278399
0.00262415457337
0.00323143848647
0.00491472116402
0.00907116904172
0.0175181605803
0.0340179951245
0.073455882793
)
;
    }
    atmosphere
    {
        type            inletOutlet;
        inletValue      uniform 0.1;
        value           nonuniform List<scalar> 
16
(
0.0650917062495
0.070163579782
0.1
0.1
0.1
0.1
0.1
0.1
0.1
0.1
0.1
0.1
0.1
0.1
0.1
0.1
)
;
    }
    floatingObject
    {
        type            kqRWallFunction;
        value           nonuniform List<scalar> 0();
    }
    procBoundary5to0
    {
        type            processor;
        value           nonuniform List<scalar> 
12
(
0.00226123665547
0.00226977934811
0.00228148712764
0.00230128780989
0.0023446851387
0.00246331620915
0.00283264782658
0.00400777250514
0.0074276326426
0.0156404050946
0.0309355456342
0.0552566052636
)
;
    }
    procBoundary5to3
    {
        type            processor;
        value           nonuniform List<scalar> 10(0.00227318917534 0.00230956904451 0.00239040863808 0.00260695373343 0.00322923601828 0.00497705895594 0.00915832461599 0.0174015768574 0.0335253577576 0.0731880857386);
    }
    procBoundary5to4
    {
        type            processor;
        value           nonuniform List<scalar> 
18
(
0.00225603833216
0.00225741274312
0.00226572131253
0.00227461432108
0.00227461432108
0.00227548615386
0.00227598469463
0.0022761400131
0.00227596824149
0.00227544632833
0.00227451594112
0.00227309260872
0.00227111424873
0.00226860797847
0.00226567721466
0.00226241079526
0.00225878732702
0.00225489947763
)
;
    }
}


// ************************************************************************* //
