/*--------------------------------*- C++ -*----------------------------------*\
| =========                 |                                                 |
| \\      /  F ield         | OpenFOAM: The Open Source CFD Toolbox           |
|  \\    /   O peration     | Version:  v2012                                 |
|   \\  /    A nd           | Website:  www.openfoam.com                      |
|    \\/     M anipulation  |                                                 |
\*---------------------------------------------------------------------------*/
FoamFile
{
    version     2.0;
    format      ascii;
    class       volScalarField;
    location    "4.7";
    object      nut;
}
// * * * * * * * * * * * * * * * * * * * * * * * * * * * * * * * * * * * * * //

dimensions      [0 2 -1 0 0 0 0];


internalField   nonuniform List<scalar> 
164
(
0.000524105208177
0.00052509226833
0.000526436435206
0.00052870057873
0.000533682160445
0.000547287666759
0.000588289543729
0.00070378565375
0.000958319325467
0.00137293778873
0.00192622317828
0.00250880642145
0.000524276153831
0.000525276194049
0.000526626899972
0.000528885368221
0.000533854812793
0.000547536492241
0.000589160818044
0.000707217718383
0.000966234331796
0.00138605180384
0.00196549051023
0.00260127462697
0.000526778283166
0.000529045486787
0.000534037350465
0.000547847480671
0.000590112796271
0.000710623600676
0.000974656050028
0.00140066081867
0.00199867145844
0.00277727759372
0.000526901385167
0.000529201085323
0.00053427802244
0.000548375357398
0.000591602216013
0.000714870447186
0.000984488670233
0.00141772679195
0.00202647783303
0.00302881976198
0.000527002688147
0.000529381008405
0.000534646087495
0.000549143876247
0.000592962544592
0.000718018358589
0.000993402606097
0.00143845073731
0.00205583339184
0.00304068350858
0.000527094701851
0.000529632066586
0.000535289569089
0.000550564943902
0.00059531145323
0.000721381709175
0.00100305546356
0.00146129364363
0.00208394766862
0.00304812285824
0.0005271891788
0.000530006433393
0.000536402154329
0.000553270028239
0.000600293963627
0.000727926426986
0.00101078203401
0.00147038465984
0.00209330947977
0.00304976256862
0.000527285942449
0.000530515928826
0.000538036462003
0.000557453212345
0.000608610973792
0.000739190414481
0.00101909381818
0.00147134532194
0.00209085116459
0.0030481814229
0.000527363755389
0.000531086675596
0.000539939959089
0.000562304366169
0.0006181520343
0.000752083366829
0.00102811078545
0.00147023635768
0.00208371133524
0.00304583645583
0.000527380111958
0.000531566581276
0.000541632775107
0.000566598835648
0.000626498560318
0.00076347344698
0.00103577401509
0.00146728343354
0.00207401379834
0.00304320865738
0.000527293471286
0.000531796528075
0.000542622625725
0.000569109337149
0.000631296336361
0.000770025915385
0.00103904831742
0.00146043412525
0.00206061567167
0.00303960635113
0.000527100087307
0.000531756314546
0.000542843261193
0.000569742225615
0.000632732767957
0.000772736062571
0.00104108870972
0.00145552612735
0.00204863564759
0.00303629797195
0.000526845361664
0.000531582063636
0.000542684154347
0.000569399954204
0.000632173539542
0.000772992506125
0.00104250753237
0.0014538893459
0.00204154198077
0.00303461107975
0.000526543645034
0.00053131528072
0.000542313676035
0.000568650323351
0.000630984875919
0.00077263967333
0.00104382112726
0.00145335434425
0.00203656329751
0.00303363028542
0.000526153884887
0.000530814205822
0.000541392390467
0.000567018372805
0.000629148862051
0.000772500298198
0.00104486590628
0.00144957798843
0.00202728263009
0.00303222741323
0.000525696882259
0.000530097466459
0.000539950473727
0.000564595701844
0.000627047784135
0.000773374011907
0.00104507973241
0.0014404758282
0.00201082148065
0.00302507791728
)
;

boundaryField
{
    back
    {
        type            nutkWallFunction;
        blending        stepwise;
        Cmu             0.09;
        kappa           0.41;
        E               9.8;
        value           nonuniform List<scalar> 
164
(
5.52573332289e-05
5.53528906008e-05
5.54825280284e-05
5.56997237127e-05
5.61746084781e-05
5.74639025579e-05
6.13241654637e-05
7.21087295592e-05
9.56872864781e-05
0.000134003881473
0.000229038618517
0.000314858058964
5.52739935785e-05
5.5370771748e-05
5.55009718493e-05
5.57174564414e-05
5.61909011627e-05
5.74858715704e-05
6.1398537525e-05
7.24056387535e-05
9.63551501496e-05
0.000134923436657
0.000235334173363
0.000325841180931
5.55156108654e-05
5.57327185744e-05
5.62076462765e-05
5.75130215374e-05
6.14776592819e-05
7.26818834586e-05
9.70241170457e-05
0.000136032843283
0.00023797196292
0.000336091262756
5.55274266692e-05
5.57474062549e-05
5.62297430714e-05
5.75600972437e-05
6.16061135632e-05
7.30351405482e-05
9.77471659163e-05
0.00013716381241
0.000239973746183
0.000343203586261
5.55370123682e-05
5.57642304914e-05
5.62638374135e-05
5.76305334216e-05
6.17241573863e-05
7.32372192218e-05
9.834231128e-05
0.000138688717245
0.000242778121
0.000344096982469
5.55455078807e-05
5.5787519764e-05
5.63237537213e-05
5.77621963102e-05
6.1925727499e-05
7.34683266494e-05
9.90252115651e-05
0.000140545071638
0.000245793913088
0.0003449633307
5.55539641713e-05
5.58219490869e-05
5.64266008669e-05
5.80104693541e-05
6.23678351436e-05
7.39989472899e-05
9.95853835583e-05
0.000141205237614
0.000246692592394
0.00034518393617
5.55623890062e-05
5.58687081692e-05
5.65776200753e-05
5.83946539422e-05
6.31162975229e-05
7.49920266928e-05
0.000100294854485
0.000141254583004
0.000246408642383
0.000345070960639
5.55688651074e-05
5.5921047133e-05
5.67537178841e-05
5.88420118506e-05
6.39880026998e-05
7.61759776969e-05
0.000101159908413
0.000141224184909
0.000245649866738
0.000344848861785
5.55695354148e-05
5.59649899644e-05
5.69107383612e-05
5.9240501328e-05
6.47638748468e-05
7.72592123082e-05
0.000101973268216
0.00014112758227
0.000244713361058
0.000344585715392
5.5560637948e-05
5.5986108948e-05
5.70041190421e-05
5.94799682944e-05
6.52291391861e-05
7.79280203359e-05
0.000102429758586
0.000140722527581
0.000243410526129
0.000344216879332
5.55419288039e-05
5.59827604203e-05
5.70282727644e-05
5.95504924888e-05
6.53936139691e-05
7.82593270518e-05
0.000102798824705
0.000140575983097
0.000242356517476
0.000343870269874
5.55176613523e-05
5.59675365702e-05
5.70184563127e-05
5.95339613099e-05
6.5382464701e-05
7.83726339645e-05
0.00010310310978
0.000140707202399
0.000241852986625
0.000343693478968
5.54891077281e-05
5.59439961232e-05
5.69894940138e-05
5.94804662429e-05
6.53146890279e-05
7.84336868492e-05
0.000103391282605
0.000140919676797
0.000241596603517
0.000343587528084
5.54523004456e-05
5.58981372419e-05
5.69076406782e-05
5.93413867566e-05
6.51813252198e-05
7.85126612075e-05
0.000103659197899
0.000140780952485
0.000240609347106
0.000343327412293
5.54088137809e-05
5.58303990326e-05
5.67710456125e-05
5.91132984495e-05
6.4998478745e-05
7.86597028811e-05
0.000103830073544
0.000140102153121
0.000238753572798
0.000342749780003
)
;
    }
    sides
    {
        type            nutkWallFunction;
        blending        stepwise;
        Cmu             0.09;
        kappa           0.41;
        E               9.8;
        value           nonuniform List<scalar> 0();
    }
    bottom
    {
        type            nutkWallFunction;
        blending        stepwise;
        Cmu             0.09;
        kappa           0.41;
        E               9.8;
        value           nonuniform List<scalar> 0();
    }
    front
    {
        type            nutkWallFunction;
        blending        stepwise;
        Cmu             0.09;
        kappa           0.41;
        E               9.8;
        value           nonuniform List<scalar> 
164
(
5.52573332289e-05
5.53528906008e-05
5.54825280284e-05
5.56997237127e-05
5.61746084781e-05
5.74639025579e-05
6.13241654637e-05
7.21087295592e-05
9.56872864781e-05
0.000134003881473
0.000229038618517
0.000314858058964
5.52739935785e-05
5.5370771748e-05
5.55009718493e-05
5.57174564414e-05
5.61909011627e-05
5.74858715704e-05
6.1398537525e-05
7.24056387535e-05
9.63551501496e-05
0.000134923436657
0.000235334173363
0.000325841180931
5.55156108654e-05
5.57327185744e-05
5.62076462765e-05
5.75130215374e-05
6.14776592819e-05
7.26818834586e-05
9.70241170457e-05
0.000136032843283
0.00023797196292
0.000336091262756
5.55274266692e-05
5.57474062549e-05
5.62297430714e-05
5.75600972437e-05
6.16061135632e-05
7.30351405482e-05
9.77471659163e-05
0.00013716381241
0.000239973746183
0.000343203586261
5.55370123682e-05
5.57642304914e-05
5.62638374135e-05
5.76305334216e-05
6.17241573863e-05
7.32372192218e-05
9.834231128e-05
0.000138688717245
0.000242778121
0.000344096982469
5.55455078807e-05
5.5787519764e-05
5.63237537213e-05
5.77621963102e-05
6.1925727499e-05
7.34683266494e-05
9.90252115651e-05
0.000140545071638
0.000245793913088
0.0003449633307
5.55539641713e-05
5.58219490869e-05
5.64266008669e-05
5.80104693541e-05
6.23678351436e-05
7.39989472899e-05
9.95853835583e-05
0.000141205237614
0.000246692592394
0.00034518393617
5.55623890062e-05
5.58687081692e-05
5.65776200753e-05
5.83946539422e-05
6.31162975229e-05
7.49920266928e-05
0.000100294854485
0.000141254583004
0.000246408642383
0.000345070960639
5.55688651074e-05
5.5921047133e-05
5.67537178841e-05
5.88420118506e-05
6.39880026998e-05
7.61759776969e-05
0.000101159908413
0.000141224184909
0.000245649866738
0.000344848861785
5.55695354148e-05
5.59649899644e-05
5.69107383612e-05
5.9240501328e-05
6.47638748468e-05
7.72592123082e-05
0.000101973268216
0.00014112758227
0.000244713361058
0.000344585715392
5.5560637948e-05
5.5986108948e-05
5.70041190421e-05
5.94799682944e-05
6.52291391861e-05
7.79280203359e-05
0.000102429758586
0.000140722527581
0.000243410526129
0.000344216879332
5.55419288039e-05
5.59827604203e-05
5.70282727644e-05
5.95504924888e-05
6.53936139691e-05
7.82593270518e-05
0.000102798824705
0.000140575983097
0.000242356517476
0.000343870269874
5.55176613523e-05
5.59675365702e-05
5.70184563127e-05
5.95339613099e-05
6.5382464701e-05
7.83726339645e-05
0.00010310310978
0.000140707202399
0.000241852986625
0.000343693478968
5.54891077281e-05
5.59439961232e-05
5.69894940138e-05
5.94804662429e-05
6.53146890279e-05
7.84336868492e-05
0.000103391282605
0.000140919676797
0.000241596603517
0.000343587528084
5.54523004456e-05
5.58981372419e-05
5.69076406782e-05
5.93413867566e-05
6.51813252198e-05
7.85126612075e-05
0.000103659197899
0.000140780952485
0.000240609347106
0.000343327412293
5.54088137809e-05
5.58303990326e-05
5.67710456125e-05
5.91132984495e-05
6.4998478745e-05
7.86597028811e-05
0.000103830073544
0.000140102153121
0.000238753572798
0.000342749780003
)
;
    }
    atmosphere
    {
        type            calculated;
        value           nonuniform List<scalar> 
16
(
0.00250880642145
0.00260127462697
0.00277727759372
0.009
0.009
0.009
0.009
0.009
0.009
0.009
0.009
0.009
0.009
0.009
0.009
0.009
)
;
    }
    floatingObject
    {
        type            nutkWallFunction;
        blending        stepwise;
        Cmu             0.09;
        kappa           0.41;
        E               9.8;
        value           nonuniform List<scalar> 0();
    }
    procBoundary5to0
    {
        type            processor;
        value           nonuniform List<scalar> 
12
(
0.000523888981169
0.000524865976549
0.000526208018414
0.000528485285915
0.000533477322963
0.00054696475439
0.000587089975332
0.000699348463352
0.000949090026903
0.00135578394488
0.00186043597465
0.00235074766159
)
;
    }
    procBoundary5to3
    {
        type            processor;
        value           nonuniform List<scalar> 10(0.000525278404311 0.000529466902538 0.000538718164209 0.000562774572034 0.000626726599955 0.000777273010608 0.00104796572773 0.0014338372454 0.00199116276583 0.00277379717807);
    }
    procBoundary5to4
    {
        type            processor;
        value           nonuniform List<scalar> 
18
(
0.000523293184733
0.000523448991737
0.000524397811633
0.000525414908214
0.000525414908214
0.000525514810605
0.000525572939274
0.000525593252739
0.000525577934165
0.000525524041094
0.000525424074104
0.000525267013066
0.000525044845737
0.000524759920065
0.000524424386849
0.000524048664101
0.000523629963039
0.000523180397492
)
;
    }
}


// ************************************************************************* //
