/*--------------------------------*- C++ -*----------------------------------*\
| =========                 |                                                 |
| \\      /  F ield         | OpenFOAM: The Open Source CFD Toolbox           |
|  \\    /   O peration     | Version:  v2012                                 |
|   \\  /    A nd           | Website:  www.openfoam.com                      |
|    \\/     M anipulation  |                                                 |
\*---------------------------------------------------------------------------*/
FoamFile
{
    version     2.0;
    format      ascii;
    class       volVectorField;
    location    "5.9";
    object      ddt0(rho,U);
}
// * * * * * * * * * * * * * * * * * * * * * * * * * * * * * * * * * * * * * //

dimensions      [1 -2 -2 0 0 0 0];


internalField   nonuniform List<vector> 
164
(
(-148.053700567 23.886511829 -9.96127782257e-21)
(-153.198288178 27.3628738143 1.27227488969e-20)
(-158.885723924 31.0600521267 2.0415687669e-20)
(-165.057315926 35.0005201582 -2.49508188976e-20)
(-171.589270507 39.1936440774 -4.99083095008e-20)
(-178.297230858 43.769799568 6.07205719557e-20)
(-185.006405142 49.0945322346 1.02584022968e-18)
(-191.995955702 54.6795204522 -1.8985021814e-18)
(-199.44420071 57.2698415981 5.93651023604e-19)
(-122.141670759 27.282882921 -2.24550024406e-17)
(15.0329957376 3.90321626783 4.64093942367e-19)
(-0.151673174855 1.34687732332 -9.24472716863e-20)
(-151.172351081 18.9572347522 -1.87575942898e-21)
(-156.518374845 21.901002674 5.4208286667e-21)
(-162.44405187 25.0813442066 1.29323804799e-20)
(-168.883661101 28.550534729 -2.68623970339e-20)
(-175.751534546 32.3642304703 -3.70802864798e-20)
(-182.927578447 36.6797132016 3.7129976579e-20)
(-190.411966906 41.8812863186 9.50182516155e-20)
(-198.623719698 47.377102594 3.07398492461e-19)
(-208.078616072 49.4039561894 4.11413637268e-18)
(-143.739223388 25.1971250265 -1.27299618905e-17)
(11.1694501778 4.40833420149 -8.14671118886e-20)
(0.0155641850305 0.510852876681 -1.33092399648e-19)
(-165.469582211 18.8461320262 6.68938848937e-21)
(-172.216814397 21.7542545849 -5.99404957543e-20)
(-179.476043008 25.0276870395 -1.27505258486e-19)
(-187.186669569 28.805582747 -2.56445329285e-19)
(-195.446943746 33.4401983148 -9.42744877158e-19)
(-204.704374495 37.69321511 -1.46127312858e-18)
(-216.177357074 40.6116072332 9.93036791745e-18)
(-159.091373731 22.1516579389 2.69298945001e-18)
(6.34385726536 4.52981459146 1.92975202355e-18)
(-0.0522505798335 0.194070160642 3.29564837064e-20)
(-167.931501988 12.2420009107 2.29431172294e-20)
(-174.990096382 14.5569639362 -9.60685470888e-20)
(-182.623279977 17.2243360424 -2.46474300851e-19)
(-190.756581258 20.2716938416 -7.76164935001e-19)
(-199.567600967 24.0208370996 -4.40703064638e-19)
(-209.580443099 26.5119951148 -1.68659869814e-18)
(-222.581559627 29.5294708097 5.18060290895e-18)
(-169.060071274 16.4722696782 2.09172416213e-18)
(2.12876976577 4.25965027478 3.05358670388e-18)
(-0.13053744577 0.0392633061508 1.20816537385e-19)
(-169.796257477 5.37163399897 -1.77042704688e-21)
(-177.149267078 7.05438311295 -8.56693122056e-20)
(-185.103714222 9.07390259133 -2.76448131552e-19)
(-193.506553187 11.2976502978 -7.5715693558e-19)
(-202.649943719 14.1873116261 5.03219492365e-19)
(-212.846110896 14.7916281251 -6.70902920146e-19)
(-226.372764949 17.5123213202 1.33652175577e-17)
(-175.373866261 9.49212798735 4.08382503321e-18)
(-0.55855239716 3.89359962655 5.59729227027e-18)
(-0.185902352683 -0.0344103894706 1.09282447106e-19)
(-171.024968279 -1.8039987701 -1.0080368342e-20)
(-178.657189451 -0.790683766316 -5.74512658257e-20)
(-186.894566805 0.583689987277 -1.13628673822e-19)
(-195.422249251 1.97161109474 -4.93522057319e-19)
(-204.677110641 4.19526846147 1.58876478804e-18)
(-215.027440699 3.60056074594 -4.56804074918e-18)
(-228.477577367 6.8605213371 -1.8379271385e-18)
(-179.260943994 3.0804092954 1.07262552966e-17)
(-2.2710814609 3.57888840984 5.58611393898e-18)
(-0.215971275378 -0.0549176397001 4.99870070155e-20)
(-171.584916144 -9.29591863251 -4.78202183797e-21)
(-179.527982913 -8.96636423381 7.51164049757e-20)
(-188.01842673 -8.2307240529 5.16858808136e-19)
(-196.668083558 -7.55454594393 7.12870348377e-19)
(-205.838841019 -5.89166660824 6.24144999061e-19)
(-216.661155885 -6.98377100372 5.70056325497e-18)
(-229.919766056 -3.08105171733 8.56474830536e-18)
(-181.151678557 -3.52695163043 9.87245087993e-18)
(-3.68619501689 3.12463290463 1.68861433925e-18)
(-0.232511373051 -0.0501273970238 -7.8540292645e-21)
(-171.456064822 -17.1757736202 6.47767677565e-20)
(-179.732576653 -17.5273815245 3.22254150889e-19)
(-188.501601491 -17.4161176932 1.18520891358e-18)
(-197.371104104 -17.3017717557 3.62043967774e-18)
(-206.811810786 -15.8524250326 6.31295137983e-18)
(-218.17797668 -16.7097538859 7.81766667092e-18)
(-231.456677684 -12.9797647548 7.64400085795e-18)
(-184.420459772 -10.6585439295 -2.58094000301e-18)
(-6.82974294282 2.80650992337 -3.19843880782e-18)
(-0.256411548382 0.00302995055576 -1.65604870689e-21)
(-170.61063098 -25.3598209239 1.9264106998e-19)
(-179.243399506 -26.4258740894 8.99429806923e-19)
(-188.39756384 -26.9814832263 2.65017520022e-18)
(-197.756208302 -27.3942763529 6.71478726532e-18)
(-207.932136653 -25.9911859277 7.52949725446e-18)
(-219.823555558 -26.8258574107 9.17120777125e-18)
(-233.059102105 -22.5314543932 7.45466432289e-18)
(-188.541042742 -18.8532996218 -2.7407774482e-18)
(-13.3691352682 2.97092582739 -7.85191127227e-18)
(-0.282862844711 0.0434898419221 -3.03042700473e-20)
(-168.977914099 -33.9117575112 3.13362522434e-19)
(-178.038748224 -35.7763830268 1.34202131098e-18)
(-187.719145415 -37.0412341761 3.63526204011e-18)
(-197.84190703 -37.9230712438 8.49538997237e-18)
(-209.073193914 -36.773808109 7.6288918754e-18)
(-221.401867577 -37.7343217323 3.65109952792e-18)
(-233.479223956 -32.5765158787 -8.10551850392e-19)
(-192.334933165 -26.0577913681 -2.45423837758e-17)
(-21.8857927423 1.33216359956 -1.36648383334e-17)
(-0.308932324995 0.0205928465449 -3.78931295595e-20)
(-166.483212988 -42.90701097 3.69293522081e-19)
(-176.036781419 -45.634869192 1.41619619622e-18)
(-186.400947201 -47.6643796376 3.70385208052e-18)
(-197.408733885 -49.2533754457 9.73288847989e-18)
(-209.865631867 -48.5390491333 6.63152905822e-18)
(-222.847838711 -50.4014871806 -4.45714839803e-18)
(-234.029174066 -44.6600017876 -1.23997799139e-17)
(-193.357831573 -34.4143568364 -3.60239469403e-17)
(-29.5152118424 -1.0649866458 -1.791985403e-17)
(-0.323901263798 -0.0747726756117 -8.41647611125e-20)
(-163.065211846 -52.3472489453 2.61252843224e-19)
(-173.157326719 -56.0053060433 1.02338167376e-18)
(-184.249943772 -58.9492496024 3.06646422746e-18)
(-196.257171527 -61.5131645995 1.04977636572e-17)
(-209.688808252 -61.5430041241 3.46068488839e-18)
(-224.039498522 -64.6779425908 -5.07717907246e-18)
(-235.268621242 -59.5802555046 -1.42963741742e-17)
(-191.474390509 -44.7649343191 -4.23372410569e-17)
(-32.7596382301 -3.06113769764 -1.25524366538e-17)
(-0.333183764528 -0.119480823742 -5.89341656217e-20)
(-158.623627316 -62.2231417343 1.1080142975e-19)
(-169.252782692 -66.9326728998 5.9184585702e-19)
(-181.042310259 -70.9798166012 1.85895108299e-18)
(-194.027282194 -74.6279811405 6.18025838103e-18)
(-208.305227589 -76.2900955294 3.21321086669e-18)
(-223.482391497 -81.2203487281 6.20315943181e-20)
(-235.851268923 -75.2928090229 1.81236508433e-17)
(-194.93957661 -54.0185111512 -1.27558952017e-17)
(-36.1704350218 -3.53276206844 -5.58642406093e-18)
(-0.349311896218 -0.0516387763169 -1.41990054729e-20)
(-153.06593691 -72.5476601368 1.30880674654e-19)
(-164.237629136 -78.4083219525 3.59598547319e-19)
(-176.687677221 -83.6213544036 9.18105423901e-19)
(-190.451452041 -88.434156771 3.64980991832e-18)
(-205.4034718 -91.7557988932 3.78878889193e-18)
(-221.081639383 -98.2751547341 2.49257084575e-18)
(-233.847755503 -96.1971279634 6.11871156558e-18)
(-201.288066612 -70.9802367879 -9.95611099726e-18)
(-43.2579612795 -7.06065555989 1.68349909676e-19)
(-0.366281234202 -0.0621813437211 1.65316179455e-20)
(-146.362559388 -83.3737592969 4.91852512643e-19)
(-158.103540375 -90.4644382229 7.04584090481e-19)
(-171.220628187 -96.8844632034 8.55142321551e-19)
(-185.624866759 -102.895439114 1.53384441331e-18)
(-200.938786534 -107.899336257 1.55505665777e-18)
(-216.708692494 -115.560604553 2.41835920969e-18)
(-229.343894973 -115.618538797 1.26551423712e-17)
(-202.140245022 -86.5429526519 2.34308552304e-18)
(-50.4614875292 -11.7131548206 -3.71532860956e-19)
(-0.385655817391 -0.106334384369 1.89760181608e-20)
(-138.425889167 -94.7382763262 2.6043424777e-18)
(-150.833787514 -103.167245445 3.8764143995e-18)
(-164.647681444 -110.864962228 3.31616851069e-18)
(-179.681353711 -117.938732949 2.87091636966e-18)
(-195.242970177 -124.127992891 7.75682087431e-19)
(-210.939940277 -131.739004503 -1.57330175537e-19)
(-222.864937352 -132.321451139 8.71145019369e-18)
(-200.958671716 -96.6244739023 3.25767715499e-18)
(-58.6346361324 -14.1890404447 -4.36444235197e-18)
(-0.407958019164 -0.101590187612 -1.64159987264e-20)
)
;

boundaryField
{
    back
    {
        type            calculated;
        value           uniform (0 0 0);
    }
    sides
    {
        type            calculated;
        value           nonuniform List<vector> 0();
    }
    bottom
    {
        type            calculated;
        value           nonuniform List<vector> 0();
    }
    front
    {
        type            calculated;
        value           uniform (0 0 0);
    }
    atmosphere
    {
        type            calculated;
        value           nonuniform List<vector> 
16
(
(-8.61132763979e-05 1.34687732333 -2.82608680234e-24)
(-0.000344812827209 0.510852876237 -6.29921652848e-22)
(0.000111601033201 0.194070160657 -1.46248356622e-22)
(2.1463944286e-09 0.0392633061434 -1.70574174632e-28)
(-1.04598119399e-08 -0.0344103894207 9.42212204795e-28)
(-1.23710971604e-08 -0.0549176399023 3.56298396388e-28)
(-3.28191005228e-06 -0.0501273970196 1.40446358682e-24)
(1.27489014629e-05 0.00302995055562 1.99477360598e-24)
(-0.000117548082731 0.0434890133614 -5.42854496805e-23)
(-0.000350430789469 0.0205928465449 -4.28624061382e-22)
(-0.00178502408758 -0.0747726747369 -2.35276791681e-21)
(-0.000584268729062 -0.119411588464 1.08610173885e-22)
(-0.000458055611642 -0.0524569143502 -5.54034290101e-22)
(-0.00106258916056 -0.0630267375487 -7.92594786915e-22)
(0.0540000778488 -0.105761847566 -2.25228232408e-23)
(-0.0605071229743 -0.100953331141 -2.14047358515e-20)
)
;
    }
    floatingObject
    {
        type            calculated;
        value           nonuniform List<vector> 0();
    }
    procBoundary5to0
    {
        type            processor;
        value           nonuniform List<vector> 
12
(
(-144.407542412 28.6307652463 -4.05649760042e-21)
(-149.370731941 32.6372682136 1.58041817536e-20)
(-154.861332156 36.8298253623 4.85823404577e-20)
(-160.827872911 41.1806951593 -3.11942926237e-20)
(-167.153545955 45.6625417907 -8.18082732937e-20)
(-173.625733384 50.2996550068 2.5531688251e-19)
(-179.881386614 55.2851767376 9.63988071875e-19)
(-185.766092657 60.1655612505 9.85421756062e-19)
(-191.500084195 60.043350257 -3.79104211914e-18)
(-88.1952295145 29.2465897224 -2.20849210921e-17)
(2.5028621755 0.0433193509415 9.46717780944e-20)
(-0.426792243263 0.593136941607 -5.41203122113e-20)
)
;
    }
    procBoundary5to3
    {
        type            processor;
        value           nonuniform List<vector> 10((-129.111190149 -106.716119344 1.25126421463e-17) (-142.261759599 -116.642700336 1.24634161631e-17) (-156.949083051 -125.650846814 1.53405658749e-17) (-172.960847503 -133.755133234 1.44015002466e-17) (-189.539394747 -140.696794946 8.26264204661e-18) (-206.777046989 -146.467884312 4.45421774781e-18) (-216.398606172 -146.074957875 9.48243104091e-18) (-212.805336165 -100.95552353 1.76413921334e-18) (-77.0734601743 -12.4867900065 1.98249595756e-18) (-0.431989531996 0.0214755498709 2.28659932752e-20));
    }
    procBoundary5to4
    {
        type            processor;
        value           nonuniform List<vector> 
18
(
(-143.491005975 20.5881633119 1.94355749592e-21)
(-146.427294288 16.2133720548 2.22287674804e-21)
(-153.735541546 13.8318058428 -5.58849244551e-21)
(-159.297449051 16.2201816999 -4.42884955921e-21)
(-159.297449051 16.2201816999 -4.42884955921e-21)
(-161.502766046 10.2184937598 -4.06268647548e-21)
(-163.092455483 3.97395162365 -2.00094379616e-20)
(-164.038684895 -2.52748631968 1.51829550869e-20)
(-164.309001269 -9.33626364756 1.37736891583e-20)
(-163.863110944 -16.4721962849 2.56374084944e-20)
(-162.658261501 -23.9077530124 1.39365777199e-20)
(-160.659143991 -31.6365856738 6.04324709826e-20)
(-157.792357737 -39.7374294863 8.57795890706e-20)
(-153.965732972 -48.2118980655 7.28286633095e-20)
(-149.105796353 -57.0373879264 3.57699663989e-20)
(-143.137058221 -66.2091825146 7.46243323419e-20)
(-135.97186147 -75.7613972255 4.40983818235e-19)
(-127.515318968 -85.708460646 2.30438359335e-18)
)
;
    }
}


// ************************************************************************* //
