/*--------------------------------*- C++ -*----------------------------------*\
| =========                 |                                                 |
| \\      /  F ield         | OpenFOAM: The Open Source CFD Toolbox           |
|  \\    /   O peration     | Version:  v2012                                 |
|   \\  /    A nd           | Website:  www.openfoam.com                      |
|    \\/     M anipulation  |                                                 |
\*---------------------------------------------------------------------------*/
FoamFile
{
    version     2.0;
    format      ascii;
    class       volScalarField;
    location    "1.5";
    object      ddt0(k);
}
// * * * * * * * * * * * * * * * * * * * * * * * * * * * * * * * * * * * * * //

dimensions      [0 2 -3 0 0 0 0];


internalField   nonuniform List<scalar> 
164
(
-0.00898763533118
-0.0107275497732
-0.0111257901636
-0.011202710395
-0.0112183348943
-0.0112299842086
-0.0112449071585
-0.0112629561784
-0.00898675781687
-0.0107306871319
-0.0111336836928
-0.01121242399
-0.0112283962433
-0.0112399982448
-0.0112547596723
-0.0112725112281
-0.00898848070152
-0.0107290343387
-0.0111377125064
-0.0112193440691
-0.0112362956553
-0.0112480987072
-0.0112628303853
-0.0112804125088
-0.0113004024329
-0.0113220777552
-0.00899135549189
-0.0107233185746
-0.0111381931066
-0.0112236087617
-0.0112420380488
-0.0112543089154
-0.0112691786522
-0.0112867663302
-0.0113065607018
-0.0113279274839
-0.00899462404072
-0.0107139253816
-0.0111353639289
-0.0112252581437
-0.0112456136384
-0.0112586118034
-0.0112738409733
-0.0112916617063
-0.0113115660226
-0.0113329776995
-0.00899847659862
-0.0107006800703
-0.0111290781217
-0.0112242326536
-0.0112469563124
-0.011260970892
-0.0112768274904
-0.0112951872046
-0.011315572601
-0.0113374243654
-0.00899414208342
-0.0106872684219
-0.0111214849493
-0.0112211326926
-0.0112461599665
-0.0112613249442
-0.0112781333914
-0.011297390193
-0.0113186929778
-0.0113414821087
-0.00898319853109
-0.0106716512048
-0.0111121305634
-0.0112161959594
-0.0112432958213
-0.0112597783319
-0.0112778246106
-0.0112985369026
-0.0113213743314
-0.0113452658637
-0.00896935967177
-0.0106523512165
-0.0110992831977
-0.0112082999261
-0.0112378323702
-0.0112557863764
-0.0112752636448
-0.0112976093041
-0.0113224325716
-0.0113491684535
-0.0089523575493
-0.0106290341554
-0.0110825976599
-0.0111971273027
-0.011229550715
-0.0112493407831
-0.0112706098008
-0.011294995876
-0.0113221372261
-0.0113514698192
-0.00893185038179
-0.0106013629958
-0.0110617080773
-0.0111823343336
-0.0112181630804
-0.0112402010176
-0.0112636624344
-0.0112905372376
-0.0113205029611
-0.0113529768013
-0.0089074638192
-0.0105689926422
-0.0110362350046
-0.0111635410958
-0.0112033350352
-0.0112280772761
-0.0112541661091
-0.0112840066975
-0.0113173387166
-0.0113535591494
-0.00887880118857
-0.0105316188564
-0.0110058236492
-0.0111403586166
-0.0111846978186
-0.0112126366025
-0.0112418207968
-0.0112751399722
-0.0113124257715
-0.0113530552282
-0.00884547754146
-0.0104890659712
-0.010970196097
-0.0111124156551
-0.0111618651351
-0.011193514404
-0.0112262947077
-0.0112636468421
-0.0113055233984
-0.0113512860573
-0.00880716234119
-0.0104413141939
-0.0109292006411
-0.0110794061599
-0.01113446277
-0.0111703386134
-0.0112072431541
-0.0112492222565
-0.0112963705985
-0.0113480859169
-0.00876361295659
-0.010388586468
-0.0108828861461
-0.0110411393299
-0.0111021902135
-0.0111427598163
-0.0111843254501
-0.0112315680006
-0.0112847952399
-0.0113432490784
-0.00871475619221
-0.0103314068468
-0.0108315701013
-0.0109976530145
-0.0110648485443
-0.011110508836
-0.0111572373249
-0.0110225136921
)
;

boundaryField
{
    back
    {
        type            calculated;
        value           nonuniform List<scalar> 
164
(
-0.00898763533118
-0.0107275497732
-0.0111257901636
-0.011202710395
-0.0112183348943
-0.0112299842086
-0.0112449071585
-0.0112629561784
-0.00898675781687
-0.0107306871319
-0.0111336836928
-0.01121242399
-0.0112283962433
-0.0112399982448
-0.0112547596723
-0.0112725112281
-0.00898848070152
-0.0107290343387
-0.0111377125064
-0.0112193440691
-0.0112362956553
-0.0112480987072
-0.0112628303853
-0.0112804125088
-0.0113004024329
-0.0113220777552
-0.00899135549189
-0.0107233185746
-0.0111381931066
-0.0112236087617
-0.0112420380488
-0.0112543089154
-0.0112691786522
-0.0112867663302
-0.0113065607018
-0.0113279274839
-0.00899462404071
-0.0107139253816
-0.0111353639289
-0.0112252581437
-0.0112456136384
-0.0112586118034
-0.0112738409733
-0.0112916617063
-0.0113115660226
-0.0113329776995
-0.00899847659862
-0.0107006800703
-0.0111290781217
-0.0112242326536
-0.0112469563124
-0.011260970892
-0.0112768274904
-0.0112951872046
-0.011315572601
-0.0113374243654
-0.00899414208342
-0.0106872684219
-0.0111214849493
-0.0112211326926
-0.0112461599665
-0.0112613249442
-0.0112781333914
-0.011297390193
-0.0113186929778
-0.0113414821087
-0.00898319853109
-0.0106716512048
-0.0111121305634
-0.0112161959594
-0.0112432958213
-0.0112597783319
-0.0112778246106
-0.0112985369026
-0.0113213743314
-0.0113452658637
-0.00896935967177
-0.0106523512165
-0.0110992831977
-0.0112082999261
-0.0112378323702
-0.0112557863764
-0.0112752636448
-0.0112976093041
-0.0113224325716
-0.0113491684535
-0.0089523575493
-0.0106290341554
-0.0110825976599
-0.0111971273027
-0.011229550715
-0.0112493407831
-0.0112706098008
-0.011294995876
-0.0113221372261
-0.0113514698192
-0.00893185038179
-0.0106013629958
-0.0110617080773
-0.0111823343336
-0.0112181630804
-0.0112402010176
-0.0112636624344
-0.0112905372376
-0.0113205029611
-0.0113529768013
-0.0089074638192
-0.0105689926422
-0.0110362350046
-0.0111635410958
-0.0112033350352
-0.0112280772761
-0.0112541661091
-0.0112840066975
-0.0113173387166
-0.0113535591494
-0.00887880118857
-0.0105316188564
-0.0110058236492
-0.0111403586166
-0.0111846978186
-0.0112126366025
-0.0112418207968
-0.0112751399722
-0.0113124257715
-0.0113530552282
-0.00884547754146
-0.0104890659712
-0.010970196097
-0.0111124156551
-0.0111618651351
-0.011193514404
-0.0112262947077
-0.0112636468421
-0.0113055233984
-0.0113512860573
-0.00880716234119
-0.0104413141939
-0.0109292006411
-0.0110794061599
-0.01113446277
-0.0111703386134
-0.0112072431541
-0.0112492222565
-0.0112963705985
-0.0113480859169
-0.00876361295659
-0.010388586468
-0.0108828861461
-0.0110411393299
-0.0111021902135
-0.0111427598163
-0.0111843254501
-0.0112315680006
-0.0112847952399
-0.0113432490784
-0.00871475619221
-0.0103314068468
-0.0108315701013
-0.0109976530145
-0.0110648485443
-0.011110508836
-0.0111572373249
-0.0110225136921
)
;
    }
    sides
    {
        type            calculated;
        value           nonuniform List<scalar> 0();
    }
    bottom
    {
        type            calculated;
        value           nonuniform List<scalar> 
17
(
-0.00898763533118
-0.00898675781687
-0.00898848070152
-0.00899135549189
-0.00899462404071
-0.00899847659862
-0.00899414208342
-0.00898319853109
-0.00896935967177
-0.0089523575493
-0.00893185038179
-0.0089074638192
-0.00887880118857
-0.00884547754146
-0.00880716234119
-0.00876361295659
-0.00871475619221
)
;
    }
    front
    {
        type            calculated;
        value           nonuniform List<scalar> 
164
(
-0.00898763533118
-0.0107275497732
-0.0111257901636
-0.011202710395
-0.0112183348943
-0.0112299842086
-0.0112449071585
-0.0112629561784
-0.00898675781687
-0.0107306871319
-0.0111336836928
-0.01121242399
-0.0112283962433
-0.0112399982448
-0.0112547596723
-0.0112725112281
-0.00898848070152
-0.0107290343387
-0.0111377125064
-0.0112193440691
-0.0112362956553
-0.0112480987072
-0.0112628303853
-0.0112804125088
-0.0113004024329
-0.0113220777552
-0.00899135549189
-0.0107233185746
-0.0111381931066
-0.0112236087617
-0.0112420380488
-0.0112543089154
-0.0112691786522
-0.0112867663302
-0.0113065607018
-0.0113279274839
-0.00899462404071
-0.0107139253816
-0.0111353639289
-0.0112252581437
-0.0112456136384
-0.0112586118034
-0.0112738409733
-0.0112916617063
-0.0113115660226
-0.0113329776995
-0.00899847659862
-0.0107006800703
-0.0111290781217
-0.0112242326536
-0.0112469563124
-0.011260970892
-0.0112768274904
-0.0112951872046
-0.011315572601
-0.0113374243654
-0.00899414208342
-0.0106872684219
-0.0111214849493
-0.0112211326926
-0.0112461599665
-0.0112613249442
-0.0112781333914
-0.011297390193
-0.0113186929778
-0.0113414821087
-0.00898319853109
-0.0106716512048
-0.0111121305634
-0.0112161959594
-0.0112432958213
-0.0112597783319
-0.0112778246106
-0.0112985369026
-0.0113213743314
-0.0113452658637
-0.00896935967177
-0.0106523512165
-0.0110992831977
-0.0112082999261
-0.0112378323702
-0.0112557863764
-0.0112752636448
-0.0112976093041
-0.0113224325716
-0.0113491684535
-0.0089523575493
-0.0106290341554
-0.0110825976599
-0.0111971273027
-0.011229550715
-0.0112493407831
-0.0112706098008
-0.011294995876
-0.0113221372261
-0.0113514698192
-0.00893185038179
-0.0106013629958
-0.0110617080773
-0.0111823343336
-0.0112181630804
-0.0112402010176
-0.0112636624344
-0.0112905372376
-0.0113205029611
-0.0113529768013
-0.0089074638192
-0.0105689926422
-0.0110362350046
-0.0111635410958
-0.0112033350352
-0.0112280772761
-0.0112541661091
-0.0112840066975
-0.0113173387166
-0.0113535591494
-0.00887880118857
-0.0105316188564
-0.0110058236492
-0.0111403586166
-0.0111846978186
-0.0112126366025
-0.0112418207968
-0.0112751399722
-0.0113124257715
-0.0113530552282
-0.00884547754146
-0.0104890659712
-0.010970196097
-0.0111124156551
-0.0111618651351
-0.011193514404
-0.0112262947077
-0.0112636468421
-0.0113055233984
-0.0113512860573
-0.00880716234119
-0.0104413141939
-0.0109292006411
-0.0110794061599
-0.01113446277
-0.0111703386134
-0.0112072431541
-0.0112492222565
-0.0112963705985
-0.0113480859169
-0.00876361295659
-0.010388586468
-0.0108828861461
-0.0110411393299
-0.0111021902135
-0.0111427598163
-0.0111843254501
-0.0112315680006
-0.0112847952399
-0.0113432490784
-0.00871475619221
-0.0103314068468
-0.0108315701013
-0.0109976530145
-0.0110648485443
-0.011110508836
-0.0111572373249
-0.0110225136921
)
;
    }
    atmosphere
    {
        type            calculated;
        value           nonuniform List<scalar> 0();
    }
    floatingObject
    {
        type            calculated;
        value           nonuniform List<scalar> 0();
    }
    procBoundary4to0
    {
        type            processor;
        value           nonuniform List<scalar> 8(-0.00898818845982 -0.010721074455 -0.0111153097366 -0.0111908104799 -0.0112062257953 -0.0112179767016 -0.0112331138679 -0.0112514956553);
    }
    procBoundary4to3
    {
        type            processor;
        value           nonuniform List<scalar> 
13
(
-0.0112105112658
-0.0112705503458
-0.0113367775889
-0.00866083787093
-0.0102707889484
-0.0107760187369
-0.0109492755874
-0.0110734668607
-0.0112105112658
-0.011125804174
-0.0109492755874
-0.0110734668607
-0.0109754037381
)
;
    }
    procBoundary4to5
    {
        type            processor;
        value           nonuniform List<scalar> 
18
(
-0.011283736847
-0.0112928290077
-0.0112928290077
-0.0113150980371
-0.0113439952008
-0.0113494301244
-0.0113544898687
-0.0113595403445
-0.0113648341668
-0.0113704146388
-0.0113771625454
-0.0113823840562
-0.0113873491583
-0.0113920257646
-0.0113963360983
-0.0114001934289
-0.0114034615835
-0.011406141278
)
;
    }
}


// ************************************************************************* //
