/*--------------------------------*- C++ -*----------------------------------*\
| =========                 |                                                 |
| \\      /  F ield         | OpenFOAM: The Open Source CFD Toolbox           |
|  \\    /   O peration     | Version:  v2012                                 |
|   \\  /    A nd           | Website:  www.openfoam.com                      |
|    \\/     M anipulation  |                                                 |
\*---------------------------------------------------------------------------*/
FoamFile
{
    version     2.0;
    format      ascii;
    class       volScalarField;
    location    "1.5";
    object      ddt0(epsilon);
}
// * * * * * * * * * * * * * * * * * * * * * * * * * * * * * * * * * * * * * //

dimensions      [0 2 -4 0 0 0 0];


internalField   nonuniform List<scalar> 
164
(
-0.014508395372
-0.0143852367687
-0.015284610808
-0.0154907471316
-0.0155406025067
-0.0155691599319
-0.0156003745725
-0.0156369836655
-0.0145101786285
-0.0143944308919
-0.0153030678564
-0.0155131795191
-0.0155641808014
-0.0155930815273
-0.015624457211
-0.015661080735
-0.014516006924
-0.0143951128892
-0.0153143548757
-0.0155302899943
-0.0155835754026
-0.0156133032752
-0.0156451186039
-0.0156820262356
-0.0157240265041
-0.0157702703174
-0.0145230123397
-0.0143882825663
-0.0153188177118
-0.0155421561503
-0.0155986649349
-0.0156297394432
-0.0156623298314
-0.0156998569125
-0.0157422500707
-0.0157887939315
-0.0145296057601
-0.0143743487
-0.0153166705473
-0.0155486986307
-0.0156092950817
-0.0156422297807
-0.0156760188149
-0.0157145891159
-0.0157579171838
-0.0158053763828
-0.0145345934613
-0.0143529177565
-0.0153075773883
-0.0155496435763
-0.0156152048198
-0.0156505721483
-0.0156860636847
-0.0157262281698
-0.0157711409751
-0.0158201968492
-0.0145183035301
-0.0143317345518
-0.0152962460207
-0.0155465701164
-0.0156166563322
-0.0156547817786
-0.0156924118951
-0.0157347095523
-0.0157819623843
-0.0158334719451
-0.0144949913549
-0.0143025046133
-0.015278268659
-0.0155379378327
-0.0156129686319
-0.015654058649
-0.0156946075742
-0.0157401457233
-0.0157909423728
-0.0158459702327
-0.0144644823715
-0.0142655917624
-0.015252718821
-0.0155227226596
-0.015603510247
-0.0156482163695
-0.0156920558047
-0.0157411757648
-0.0157959765554
-0.0158558654187
-0.0144260251023
-0.0142203883558
-0.0152189284067
-0.0155002680527
-0.0155877284917
-0.0156367922917
-0.015684627911
-0.0157380987631
-0.0157977521466
-0.0158629968751
-0.0143788179793
-0.0141662601012
-0.0151761729064
-0.0154698531788
-0.0155649838002
-0.0156192296316
-0.0156718420705
-0.0157305078025
-0.0157959524749
-0.0158675768796
-0.0143220122093
-0.0141025809676
-0.0151237190576
-0.0154307034664
-0.0155345620657
-0.01559489429
-0.0156531368533
-0.0157179087092
-0.015790160885
-0.0158692887342
-0.0142547408957
-0.0140288259752
-0.0150609011811
-0.0153820464098
-0.0154957007763
-0.0155630840867
-0.0156278798648
-0.0156997509968
-0.015779929931
-0.0158678088661
-0.0141761988836
-0.0139447188385
-0.0149872230594
-0.0153231705286
-0.0154476270824
-0.015523053991
-0.0155953917284
-0.0156754486537
-0.0157647906966
-0.0158628121488
-0.0140857434789
-0.0138502959402
-0.0149024589187
-0.0152535218251
-0.0153896212138
-0.0154740649531
-0.0155549849024
-0.0156444032037
-0.0157442605997
-0.0158540204256
-0.0139829795281
-0.0137460435797
-0.0148067925227
-0.0151728163613
-0.0153211398849
-0.0154154563508
-0.0155059964976
-0.0156060404284
-0.0157180020131
-0.0158411502201
-0.0138679436257
-0.0136330354593
-0.0147009797314
-0.0150812513248
-0.0152419117062
-0.0153467480428
-0.015447864705
-0.0151522112613
)
;

boundaryField
{
    back
    {
        type            calculated;
        value           nonuniform List<scalar> 
164
(
-0.014508395372
-0.0143852367687
-0.015284610808
-0.0154907471316
-0.0155406025067
-0.0155691599319
-0.0156003745725
-0.0156369836655
-0.0145101786285
-0.0143944308919
-0.0153030678564
-0.0155131795191
-0.0155641808014
-0.0155930815273
-0.015624457211
-0.015661080735
-0.014516006924
-0.0143951128892
-0.0153143548757
-0.0155302899943
-0.0155835754026
-0.0156133032752
-0.0156451186039
-0.0156820262356
-0.0157240265041
-0.0157702703174
-0.0145230123397
-0.0143882825663
-0.0153188177118
-0.0155421561503
-0.0155986649349
-0.0156297394432
-0.0156623298314
-0.0156998569125
-0.0157422500707
-0.0157887939315
-0.0145296057601
-0.0143743487
-0.0153166705473
-0.0155486986307
-0.0156092950817
-0.0156422297807
-0.0156760188149
-0.0157145891159
-0.0157579171838
-0.0158053763828
-0.0145345934613
-0.0143529177565
-0.0153075773883
-0.0155496435763
-0.0156152048198
-0.0156505721483
-0.0156860636847
-0.0157262281698
-0.0157711409751
-0.0158201968492
-0.0145183035301
-0.0143317345518
-0.0152962460207
-0.0155465701164
-0.0156166563322
-0.0156547817786
-0.0156924118951
-0.0157347095523
-0.0157819623843
-0.0158334719451
-0.0144949913549
-0.0143025046133
-0.015278268659
-0.0155379378327
-0.0156129686319
-0.015654058649
-0.0156946075742
-0.0157401457233
-0.0157909423728
-0.0158459702327
-0.0144644823715
-0.0142655917624
-0.015252718821
-0.0155227226596
-0.015603510247
-0.0156482163695
-0.0156920558047
-0.0157411757648
-0.0157959765554
-0.0158558654187
-0.0144260251023
-0.0142203883558
-0.0152189284067
-0.0155002680527
-0.0155877284917
-0.0156367922917
-0.015684627911
-0.0157380987631
-0.0157977521466
-0.0158629968751
-0.0143788179793
-0.0141662601012
-0.0151761729064
-0.0154698531788
-0.0155649838002
-0.0156192296316
-0.0156718420705
-0.0157305078025
-0.0157959524749
-0.0158675768796
-0.0143220122093
-0.0141025809676
-0.0151237190576
-0.0154307034664
-0.0155345620657
-0.01559489429
-0.0156531368533
-0.0157179087092
-0.015790160885
-0.0158692887342
-0.0142547408957
-0.0140288259752
-0.0150609011811
-0.0153820464098
-0.0154957007763
-0.0155630840867
-0.0156278798648
-0.0156997509968
-0.015779929931
-0.0158678088661
-0.0141761988836
-0.0139447188385
-0.0149872230594
-0.0153231705286
-0.0154476270824
-0.015523053991
-0.0155953917284
-0.0156754486537
-0.0157647906966
-0.0158628121488
-0.0140857434789
-0.0138502959402
-0.0149024589187
-0.0152535218251
-0.0153896212138
-0.0154740649531
-0.0155549849024
-0.0156444032037
-0.0157442605997
-0.0158540204256
-0.0139829795281
-0.0137460435797
-0.0148067925227
-0.0151728163613
-0.0153211398849
-0.0154154563508
-0.0155059964976
-0.0156060404284
-0.0157180020131
-0.0158411502201
-0.0138679436257
-0.0136330354593
-0.0147009797314
-0.0150812513248
-0.0152419117062
-0.0153467480428
-0.015447864705
-0.0151522112613
)
;
    }
    sides
    {
        type            calculated;
        value           nonuniform List<scalar> 0();
    }
    bottom
    {
        type            calculated;
        value           nonuniform List<scalar> 
17
(
-0.014508395372
-0.0145101786285
-0.014516006924
-0.0145230123397
-0.0145296057601
-0.0145345934613
-0.0145183035301
-0.0144949913549
-0.0144644823715
-0.0144260251023
-0.0143788179793
-0.0143220122093
-0.0142547408957
-0.0141761988836
-0.0140857434789
-0.0139829795281
-0.0138679436257
)
;
    }
    front
    {
        type            calculated;
        value           nonuniform List<scalar> 
164
(
-0.014508395372
-0.0143852367687
-0.015284610808
-0.0154907471316
-0.0155406025067
-0.0155691599319
-0.0156003745725
-0.0156369836655
-0.0145101786285
-0.0143944308919
-0.0153030678564
-0.0155131795191
-0.0155641808014
-0.0155930815273
-0.015624457211
-0.015661080735
-0.014516006924
-0.0143951128892
-0.0153143548757
-0.0155302899943
-0.0155835754026
-0.0156133032752
-0.0156451186039
-0.0156820262356
-0.0157240265041
-0.0157702703174
-0.0145230123397
-0.0143882825663
-0.0153188177118
-0.0155421561503
-0.0155986649349
-0.0156297394432
-0.0156623298314
-0.0156998569125
-0.0157422500707
-0.0157887939315
-0.0145296057601
-0.0143743487
-0.0153166705473
-0.0155486986307
-0.0156092950817
-0.0156422297807
-0.0156760188149
-0.0157145891159
-0.0157579171838
-0.0158053763828
-0.0145345934613
-0.0143529177565
-0.0153075773883
-0.0155496435763
-0.0156152048198
-0.0156505721483
-0.0156860636847
-0.0157262281698
-0.0157711409751
-0.0158201968492
-0.0145183035301
-0.0143317345518
-0.0152962460207
-0.0155465701164
-0.0156166563322
-0.0156547817786
-0.0156924118951
-0.0157347095523
-0.0157819623843
-0.0158334719451
-0.0144949913549
-0.0143025046133
-0.015278268659
-0.0155379378327
-0.0156129686319
-0.015654058649
-0.0156946075742
-0.0157401457233
-0.0157909423728
-0.0158459702327
-0.0144644823715
-0.0142655917624
-0.015252718821
-0.0155227226596
-0.015603510247
-0.0156482163695
-0.0156920558047
-0.0157411757648
-0.0157959765554
-0.0158558654187
-0.0144260251023
-0.0142203883558
-0.0152189284067
-0.0155002680527
-0.0155877284917
-0.0156367922917
-0.015684627911
-0.0157380987631
-0.0157977521466
-0.0158629968751
-0.0143788179793
-0.0141662601012
-0.0151761729064
-0.0154698531788
-0.0155649838002
-0.0156192296316
-0.0156718420705
-0.0157305078025
-0.0157959524749
-0.0158675768796
-0.0143220122093
-0.0141025809676
-0.0151237190576
-0.0154307034664
-0.0155345620657
-0.01559489429
-0.0156531368533
-0.0157179087092
-0.015790160885
-0.0158692887342
-0.0142547408957
-0.0140288259752
-0.0150609011811
-0.0153820464098
-0.0154957007763
-0.0155630840867
-0.0156278798648
-0.0156997509968
-0.015779929931
-0.0158678088661
-0.0141761988836
-0.0139447188385
-0.0149872230594
-0.0153231705286
-0.0154476270824
-0.015523053991
-0.0155953917284
-0.0156754486537
-0.0157647906966
-0.0158628121488
-0.0140857434789
-0.0138502959402
-0.0149024589187
-0.0152535218251
-0.0153896212138
-0.0154740649531
-0.0155549849024
-0.0156444032037
-0.0157442605997
-0.0158540204256
-0.0139829795281
-0.0137460435797
-0.0148067925227
-0.0151728163613
-0.0153211398849
-0.0154154563508
-0.0155059964976
-0.0156060404284
-0.0157180020131
-0.0158411502201
-0.0138679436257
-0.0136330354593
-0.0147009797314
-0.0150812513248
-0.0152419117062
-0.0153467480428
-0.015447864705
-0.0151522112613
)
;
    }
    atmosphere
    {
        type            calculated;
        value           nonuniform List<scalar> 0();
    }
    floatingObject
    {
        type            calculated;
        value           nonuniform List<scalar> 0();
    }
    procBoundary4to0
    {
        type            processor;
        value           nonuniform List<scalar> 8(-0.0145046255471 -0.0143698298297 -0.0152611904078 -0.0154641181929 -0.0155131457464 -0.015541517772 -0.0155727193966 -0.0156094370815);
    }
    procBoundary4to3
    {
        type            processor;
        value           nonuniform List<scalar> 
13
(
-0.0155600125234
-0.015685647819
-0.01582428625
-0.0137414283464
-0.0135132818988
-0.0145866696682
-0.0149796944212
-0.0152678240455
-0.0155600125234
-0.0153803030356
-0.0149796944212
-0.0152678240455
-0.0150527928194
)
;
    }
    procBoundary4to5
    {
        type            processor;
        value           nonuniform List<scalar> 
18
(
-0.0156790106767
-0.0157029531494
-0.0157029531494
-0.0157494100851
-0.0158192806291
-0.015837901913
-0.0158553090508
-0.015871961353
-0.0158881405479
-0.0159038155343
-0.0159199952868
-0.0159330377746
-0.0159445575686
-0.0159543908914
-0.0159623756
-0.0159683767119
-0.0159722470152
-0.015974098854
)
;
    }
}


// ************************************************************************* //
