/*--------------------------------*- C++ -*----------------------------------*\
| =========                 |                                                 |
| \\      /  F ield         | OpenFOAM: The Open Source CFD Toolbox           |
|  \\    /   O peration     | Version:  v2012                                 |
|   \\  /    A nd           | Website:  www.openfoam.com                      |
|    \\/     M anipulation  |                                                 |
\*---------------------------------------------------------------------------*/
FoamFile
{
    version     2.0;
    format      ascii;
    class       volScalarField;
    location    "1.5";
    object      k;
}
// * * * * * * * * * * * * * * * * * * * * * * * * * * * * * * * * * * * * * //

dimensions      [0 2 -2 0 0 0 0];


internalField   nonuniform List<scalar> 
164
(
0.00959287211735
0.0117794005534
0.0123742847561
0.0125419296573
0.0125895723315
0.012610252092
0.0126274632545
0.0126461664954
0.00959574963251
0.0117867928748
0.0123858886721
0.0125558270587
0.0126045106814
0.01262578037
0.012643506418
0.0126627648186
0.00959784106117
0.0117910069602
0.012394568563
0.0125673503223
0.0126174694698
0.0126395724355
0.0126580104848
0.0126780312327
0.0127005779571
0.0127257572342
0.00959876586472
0.0117918592462
0.0124000468038
0.0125762549252
0.0126282396564
0.0126514478586
0.0126708102205
0.0126918049594
0.0127154331013
0.0127418279044
0.00959793068172
0.0117891688144
0.0124021203695
0.0125823154167
0.0126365944554
0.012661193467
0.0126817098936
0.012703908873
0.0127288742726
0.0127567763502
0.00959491171218
0.0117826426798
0.0124005374152
0.0125852636482
0.0126422719187
0.0126685632525
0.0126904790641
0.0127141246109
0.0127406935138
0.01277039379
0.00958941584721
0.0117719771749
0.0123949816182
0.0125847788025
0.0126449750595
0.0126732827764
0.0126968606108
0.0127222081206
0.0127506505415
0.012782430922
0.0095808586018
0.0117569626098
0.0123851767287
0.0125805370328
0.0126443836076
0.0126750551721
0.0127005796019
0.0127278979345
0.0127584905196
0.0127926332233
0.00956875424494
0.0117372820553
0.0123707883623
0.0125721859968
0.0126401482318
0.0126735532039
0.0127013364018
0.0127309265066
0.0127639727659
0.0128007757288
0.00955273320386
0.0117125886741
0.0123514212453
0.012559313876
0.0126318785053
0.0126684172911
0.0126987988318
0.0127309835356
0.0127668130664
0.0128066151538
0.00953242395428
0.0116825420242
0.0123266704725
0.0125414877155
0.0126191570349
0.0126592668828
0.0126926274445
0.0127277698315
0.0127667479167
0.0128099172462
0.00950745261211
0.0116468124897
0.0122961381294
0.0125182627487
0.0126015445582
0.0126456984903
0.0126824657552
0.0127209809346
0.0127635327585
0.0128105090423
0.00947745614365
0.0116051229658
0.0122594655223
0.0124892074095
0.0125785928518
0.0126272903591
0.0126679404789
0.0127103061509
0.0127569334372
0.0128082471258
0.00944211224916
0.0115573057065
0.0122163822452
0.0124539368888
0.0125498664625
0.0126036145455
0.0126486677815
0.0126954299945
0.0127467228825
0.0128030072699
0.00940118088947
0.0115033539318
0.012166764016
0.0124121644521
0.0125149791973
0.0125742607277
0.0126242674328
0.0126760434883
0.0127326926975
0.0127947066977
0.00935454887465
0.0114434699919
0.012110701972
0.0123637701333
0.0124736539461
0.0125388766405
0.012594393495
0.0126518617579
0.0127146871383
0.0127833395218
0.00930230402995
0.0113781770198
0.0120486178916
0.0123089153353
0.0124258064417
0.0124972395754
0.0125587646478
0.01237167713
)
;

boundaryField
{
    back
    {
        type            kqRWallFunction;
        value           nonuniform List<scalar> 
164
(
0.00959287211735
0.0117794005534
0.0123742847561
0.0125419296573
0.0125895723315
0.012610252092
0.0126274632545
0.0126461664954
0.00959574963251
0.0117867928748
0.0123858886721
0.0125558270587
0.0126045106814
0.01262578037
0.012643506418
0.0126627648186
0.00959784106117
0.0117910069602
0.012394568563
0.0125673503223
0.0126174694698
0.0126395724355
0.0126580104848
0.0126780312327
0.0127005779571
0.0127257572342
0.00959876586472
0.0117918592462
0.0124000468038
0.0125762549252
0.0126282396564
0.0126514478586
0.0126708102205
0.0126918049594
0.0127154331013
0.0127418279044
0.00959793068172
0.0117891688144
0.0124021203695
0.0125823154167
0.0126365944554
0.012661193467
0.0126817098936
0.012703908873
0.0127288742726
0.0127567763502
0.00959491171218
0.0117826426798
0.0124005374152
0.0125852636482
0.0126422719187
0.0126685632525
0.0126904790641
0.0127141246109
0.0127406935138
0.01277039379
0.00958941584721
0.0117719771749
0.0123949816182
0.0125847788025
0.0126449750595
0.0126732827764
0.0126968606108
0.0127222081206
0.0127506505415
0.012782430922
0.0095808586018
0.0117569626098
0.0123851767287
0.0125805370328
0.0126443836076
0.0126750551721
0.0127005796019
0.0127278979345
0.0127584905196
0.0127926332233
0.00956875424494
0.0117372820553
0.0123707883623
0.0125721859968
0.0126401482318
0.0126735532039
0.0127013364018
0.0127309265066
0.0127639727659
0.0128007757288
0.00955273320386
0.0117125886741
0.0123514212453
0.012559313876
0.0126318785053
0.0126684172911
0.0126987988318
0.0127309835356
0.0127668130664
0.0128066151538
0.00953242395428
0.0116825420242
0.0123266704725
0.0125414877155
0.0126191570349
0.0126592668828
0.0126926274445
0.0127277698315
0.0127667479167
0.0128099172462
0.00950745261211
0.0116468124897
0.0122961381294
0.0125182627487
0.0126015445582
0.0126456984903
0.0126824657552
0.0127209809346
0.0127635327585
0.0128105090423
0.00947745614365
0.0116051229658
0.0122594655223
0.0124892074095
0.0125785928518
0.0126272903591
0.0126679404789
0.0127103061509
0.0127569334372
0.0128082471258
0.00944211224916
0.0115573057065
0.0122163822452
0.0124539368888
0.0125498664625
0.0126036145455
0.0126486677815
0.0126954299945
0.0127467228825
0.0128030072699
0.00940118088947
0.0115033539318
0.012166764016
0.0124121644521
0.0125149791973
0.0125742607277
0.0126242674328
0.0126760434883
0.0127326926975
0.0127947066977
0.00935454887465
0.0114434699919
0.012110701972
0.0123637701333
0.0124736539461
0.0125388766405
0.012594393495
0.0126518617579
0.0127146871383
0.0127833395218
0.00930230402995
0.0113781770198
0.0120486178916
0.0123089153353
0.0124258064417
0.0124972395754
0.0125587646478
0.01237167713
)
;
    }
    sides
    {
        type            kqRWallFunction;
        value           nonuniform List<scalar> 0();
    }
    bottom
    {
        type            kqRWallFunction;
        value           nonuniform List<scalar> 
17
(
0.00959287211735
0.00959574963251
0.00959784106117
0.00959876586472
0.00959793068172
0.00959491171218
0.00958941584721
0.0095808586018
0.00956875424494
0.00955273320386
0.00953242395428
0.00950745261211
0.00947745614365
0.00944211224916
0.00940118088947
0.00935454887465
0.00930230402995
)
;
    }
    front
    {
        type            kqRWallFunction;
        value           nonuniform List<scalar> 
164
(
0.00959287211735
0.0117794005534
0.0123742847561
0.0125419296573
0.0125895723315
0.012610252092
0.0126274632545
0.0126461664954
0.00959574963251
0.0117867928748
0.0123858886721
0.0125558270587
0.0126045106814
0.01262578037
0.012643506418
0.0126627648186
0.00959784106117
0.0117910069602
0.012394568563
0.0125673503223
0.0126174694698
0.0126395724355
0.0126580104848
0.0126780312327
0.0127005779571
0.0127257572342
0.00959876586472
0.0117918592462
0.0124000468038
0.0125762549252
0.0126282396564
0.0126514478586
0.0126708102205
0.0126918049594
0.0127154331013
0.0127418279044
0.00959793068172
0.0117891688144
0.0124021203695
0.0125823154167
0.0126365944554
0.012661193467
0.0126817098936
0.012703908873
0.0127288742726
0.0127567763502
0.00959491171218
0.0117826426798
0.0124005374152
0.0125852636482
0.0126422719187
0.0126685632525
0.0126904790641
0.0127141246109
0.0127406935138
0.01277039379
0.00958941584721
0.0117719771749
0.0123949816182
0.0125847788025
0.0126449750595
0.0126732827764
0.0126968606108
0.0127222081206
0.0127506505415
0.012782430922
0.0095808586018
0.0117569626098
0.0123851767287
0.0125805370328
0.0126443836076
0.0126750551721
0.0127005796019
0.0127278979345
0.0127584905196
0.0127926332233
0.00956875424494
0.0117372820553
0.0123707883623
0.0125721859968
0.0126401482318
0.0126735532039
0.0127013364018
0.0127309265066
0.0127639727659
0.0128007757288
0.00955273320386
0.0117125886741
0.0123514212453
0.012559313876
0.0126318785053
0.0126684172911
0.0126987988318
0.0127309835356
0.0127668130664
0.0128066151538
0.00953242395428
0.0116825420242
0.0123266704725
0.0125414877155
0.0126191570349
0.0126592668828
0.0126926274445
0.0127277698315
0.0127667479167
0.0128099172462
0.00950745261211
0.0116468124897
0.0122961381294
0.0125182627487
0.0126015445582
0.0126456984903
0.0126824657552
0.0127209809346
0.0127635327585
0.0128105090423
0.00947745614365
0.0116051229658
0.0122594655223
0.0124892074095
0.0125785928518
0.0126272903591
0.0126679404789
0.0127103061509
0.0127569334372
0.0128082471258
0.00944211224916
0.0115573057065
0.0122163822452
0.0124539368888
0.0125498664625
0.0126036145455
0.0126486677815
0.0126954299945
0.0127467228825
0.0128030072699
0.00940118088947
0.0115033539318
0.012166764016
0.0124121644521
0.0125149791973
0.0125742607277
0.0126242674328
0.0126760434883
0.0127326926975
0.0127947066977
0.00935454887465
0.0114434699919
0.012110701972
0.0123637701333
0.0124736539461
0.0125388766405
0.012594393495
0.0126518617579
0.0127146871383
0.0127833395218
0.00930230402995
0.0113781770198
0.0120486178916
0.0123089153353
0.0124258064417
0.0124972395754
0.0125587646478
0.01237167713
)
;
    }
    atmosphere
    {
        type            inletOutlet;
        inletValue      nonuniform List<scalar> 0();
        value           nonuniform List<scalar> 0();
    }
    floatingObject
    {
        type            kqRWallFunction;
        value           nonuniform List<scalar> 0();
    }
    procBoundary4to0
    {
        type            processor;
        value           nonuniform List<scalar> 8(0.00958776778554 0.0117692292246 0.0123603411573 0.0125260288685 0.012572853577 0.0125931114622 0.012609974221 0.0126283040893);
    }
    procBoundary4to3
    {
        type            processor;
        value           nonuniform List<scalar> 
13
(
0.0126226698833
0.0126926208837
0.0127690477792
0.00924486104887
0.0113085046237
0.0119814475571
0.0122481773025
0.0124493243542
0.0126226698833
0.0125172402278
0.0122481773025
0.0124493243542
0.0123119051565
)
;
    }
    procBoundary4to5
    {
        type            processor;
        value           nonuniform List<scalar> 
18
(
0.0126672300358
0.0126844506883
0.0126844506883
0.0127087158154
0.0127541357528
0.0127714158333
0.0127879412042
0.0128034780547
0.0128177538205
0.0128304980842
0.0128414699587
0.0128504755696
0.0128572991416
0.0128618578416
0.0128641174695
0.0128640559785
0.0128617008889
0.0128572481839
)
;
    }
}


// ************************************************************************* //
