/*--------------------------------*- C++ -*----------------------------------*\
| =========                 |                                                 |
| \\      /  F ield         | OpenFOAM: The Open Source CFD Toolbox           |
|  \\    /   O peration     | Version:  v2012                                 |
|   \\  /    A nd           | Website:  www.openfoam.com                      |
|    \\/     M anipulation  |                                                 |
\*---------------------------------------------------------------------------*/
FoamFile
{
    version     2.0;
    format      ascii;
    class       volScalarField;
    location    "5.9";
    object      nut;
}
// * * * * * * * * * * * * * * * * * * * * * * * * * * * * * * * * * * * * * //

dimensions      [0 2 -1 0 0 0 0];


internalField   nonuniform List<scalar> 
164
(
0.000271688503395
0.000404369605993
0.000417667941978
0.000422927696193
0.000425244205662
0.000426513649027
0.000427464662333
0.00042838091347
0.000272171627988
0.000405052774108
0.000418340702915
0.00042356312948
0.000425831890274
0.000427052424138
0.000427955886083
0.000428824363393
0.000429786357105
0.000430982614225
0.000432789608634
0.0002726057555
0.000405664420015
0.000418941564733
0.00042412924087
0.000426354726969
0.000427532027729
0.00042839361937
0.000429219831553
0.000430135064754
0.00043126941842
0.000432963237826
0.000436236359795
0.000443916248587
0.000272986162626
0.000406206664418
0.000419472047795
0.000424627184906
0.000426813517386
0.000427952624788
0.00042877780871
0.000429567118227
0.000430439824691
0.000431511590361
0.000433077358316
0.000436031779709
0.000442944097113
0.000460743623458
0.000273320263812
0.000406679614754
0.000419932095407
0.000425057513457
0.000427209170951
0.000428315071028
0.000429108988839
0.000429866755466
0.000430702776506
0.000431718232458
0.000433162586045
0.00043580594089
0.000441964606552
0.00045833153368
0.000273601215779
0.000407083139215
0.000420323051432
0.000425421697141
0.000427543082922
0.000428620630194
0.000429388340608
0.00043011998819
0.000430926174768
0.0004318974209
0.000433248755448
0.000435657039958
0.000441261830681
0.000456662588338
0.000273834201722
0.000407419292468
0.000420647015003
0.000425721244687
0.000427816511105
0.00042887030047
0.000429616488158
0.000430327211071
0.000431110612461
0.000432051065189
0.000433344032602
0.000435615076474
0.000440921470614
0.000455911267093
0.000274025005723
0.000407692600026
0.000420906849105
0.0004259584004
0.000428030887275
0.000429064924597
0.000429793747894
0.000430488098304
0.000431254870229
0.0004321763259
0.000433440847194
0.000435657256569
0.000440875554669
0.000455867464769
0.000274173577974
0.000407906279819
0.000421104385061
0.000426134607751
0.000428187506857
0.000429205298664
0.000429920274429
0.000430602018073
0.000431357069276
0.000432268221174
0.000433524968204
0.000435740789175
0.000441001755735
0.000456255506789
0.000274278598995
0.000408059830496
0.000421241230254
0.000426251705694
0.000428287608789
0.000429292063513
0.000429996149387
0.000430668411668
0.000431415537054
0.000432322380875
0.000433584284714
0.000435831482402
0.000441209367535
0.000456855372808
0.000502781995444
0.000617474482709
0.000274341278866
0.00040815493454
0.000421319299461
0.00042631133202
0.000428332388003
0.000429325891555
0.000430021559675
0.00043068694123
0.000431429075765
0.000432335567346
0.000433609471232
0.000435901233689
0.000441423673022
0.000457499939659
0.000504176110332
0.000618085705931
0.000274362080966
0.000408194062301
0.00042134045471
0.00042631478771
0.000428322727743
0.000429307384136
0.00042999691298
0.000430657803078
0.000431397530462
0.00043230665394
0.000433595783782
0.000435932707564
0.000441575455672
0.000457969336638
0.000505224742733
0.000619182002712
)
;

boundaryField
{
    back
    {
        type            nutkWallFunction;
        blending        stepwise;
        Cmu             0.09;
        kappa           0.41;
        E               9.8;
        value           nonuniform List<scalar> 
164
(
3.94884364645e-05
4.36548934998e-05
4.49652164389e-05
4.54828912109e-05
4.57106394754e-05
4.58351377871e-05
4.59281550824e-05
4.60175923001e-05
3.95520076105e-05
4.37218599413e-05
4.50308671876e-05
4.55447287373e-05
4.57677144634e-05
4.58873687599e-05
4.59756943787e-05
4.60604178182e-05
4.61539601036e-05
4.62693172255e-05
4.64408820239e-05
3.96089501339e-05
4.37816969588e-05
4.5089350155e-05
4.55996450493e-05
4.58182929327e-05
4.59336635381e-05
4.60178562528e-05
4.60984180617e-05
4.61873681668e-05
4.6296725189e-05
4.64575124393e-05
4.6763047798e-05
4.74722337763e-05
3.96587452762e-05
4.38346203514e-05
4.51408146336e-05
4.56477569317e-05
4.58624804662e-05
4.59740600918e-05
4.60546607747e-05
4.61316031975e-05
4.62164179342e-05
4.63198029829e-05
4.64685840597e-05
4.67443106049e-05
4.73811498589e-05
4.90097828623e-05
3.9702257192e-05
4.38806496255e-05
4.51852706725e-05
4.56891380866e-05
4.59003748334e-05
4.60086604241e-05
4.60861855086e-05
4.6160045116e-05
4.62413269035e-05
4.63394106989e-05
4.64769652935e-05
4.67239088333e-05
4.7290162084e-05
4.87810224578e-05
3.97387649464e-05
4.39197942363e-05
4.52228673955e-05
4.57239490527e-05
4.59321317227e-05
4.60376021793e-05
4.6112553263e-05
4.61838695621e-05
4.62622914636e-05
4.63562424789e-05
4.6485282685e-05
4.67106930824e-05
4.72253865795e-05
4.86226194737e-05
3.97689438573e-05
4.3952261889e-05
4.5253834678e-05
4.57523523042e-05
4.59578908361e-05
4.60609977707e-05
4.61338297098e-05
4.62031051251e-05
4.6279335764e-05
4.63704121915e-05
4.64941480417e-05
4.67071166186e-05
4.71942231243e-05
4.8550870298e-05
3.97935298309e-05
4.39785339397e-05
4.52784694426e-05
4.57745911964e-05
4.5977807446e-05
4.60789394871e-05
4.61500531039e-05
4.62177184933e-05
4.62923284696e-05
4.63816059074e-05
4.65027611792e-05
4.67108488802e-05
4.71897243383e-05
4.85448306056e-05
3.98125580885e-05
4.39989584376e-05
4.52969670502e-05
4.57908158584e-05
4.59920214432e-05
4.60915170327e-05
4.61612477084e-05
4.62276556916e-05
4.63010967801e-05
4.63893599473e-05
4.65098038567e-05
4.67179547406e-05
4.72007655086e-05
4.85789018041e-05
3.98258633612e-05
4.40134692689e-05
4.53095007872e-05
4.58012283928e-05
4.60006691401e-05
4.60988057197e-05
4.61674341173e-05
4.62328782147e-05
4.63055013498e-05
4.63932954213e-05
4.65142055928e-05
4.67253776393e-05
4.72192260487e-05
4.86344684187e-05
5.27741849632e-05
6.30161525668e-05
3.98336617183e-05
4.40222612477e-05
4.53162812675e-05
4.58060073739e-05
4.60038881512e-05
4.61008927908e-05
4.61686547443e-05
4.62333823294e-05
4.63054647943e-05
4.63931615398e-05
4.6515192121e-05
4.6730700639e-05
4.72385379936e-05
4.86961797404e-05
5.29199843358e-05
6.31410659407e-05
3.98360071677e-05
4.40256156165e-05
4.53175134924e-05
4.58052994246e-05
4.60017842487e-05
4.60978595875e-05
4.6164976505e-05
4.62292214652e-05
4.63010197145e-05
4.63889233385e-05
4.65124349624e-05
4.67325170341e-05
4.72527667833e-05
4.87436003183e-05
5.3032619708e-05
6.32846985103e-05
)
;
    }
    sides
    {
        type            nutkWallFunction;
        blending        stepwise;
        Cmu             0.09;
        kappa           0.41;
        E               9.8;
        value           nonuniform List<scalar> 0();
    }
    bottom
    {
        type            nutkWallFunction;
        blending        stepwise;
        Cmu             0.09;
        kappa           0.41;
        E               9.8;
        value           nonuniform List<scalar> 
12
(
2.09170995268e-05
2.09511596187e-05
2.09816678975e-05
2.10083465415e-05
2.10316586358e-05
2.10512180133e-05
2.10673865547e-05
2.10805585799e-05
2.10907529986e-05
2.10978812986e-05
2.11020592605e-05
2.11033158315e-05
)
;
    }
    front
    {
        type            nutkWallFunction;
        blending        stepwise;
        Cmu             0.09;
        kappa           0.41;
        E               9.8;
        value           nonuniform List<scalar> 
164
(
3.94884364645e-05
4.36548934998e-05
4.49652164389e-05
4.54828912109e-05
4.57106394754e-05
4.58351377871e-05
4.59281550824e-05
4.60175923001e-05
3.95520076105e-05
4.37218599413e-05
4.50308671876e-05
4.55447287373e-05
4.57677144634e-05
4.58873687599e-05
4.59756943787e-05
4.60604178182e-05
4.61539601036e-05
4.62693172255e-05
4.64408820239e-05
3.96089501339e-05
4.37816969588e-05
4.5089350155e-05
4.55996450493e-05
4.58182929327e-05
4.59336635381e-05
4.60178562528e-05
4.60984180617e-05
4.61873681668e-05
4.6296725189e-05
4.64575124393e-05
4.6763047798e-05
4.74722337763e-05
3.96587452762e-05
4.38346203514e-05
4.51408146336e-05
4.56477569317e-05
4.58624804662e-05
4.59740600918e-05
4.60546607747e-05
4.61316031975e-05
4.62164179342e-05
4.63198029829e-05
4.64685840597e-05
4.67443106049e-05
4.73811498589e-05
4.90097828623e-05
3.9702257192e-05
4.38806496255e-05
4.51852706725e-05
4.56891380866e-05
4.59003748334e-05
4.60086604241e-05
4.60861855086e-05
4.6160045116e-05
4.62413269035e-05
4.63394106989e-05
4.64769652935e-05
4.67239088333e-05
4.7290162084e-05
4.87810224578e-05
3.97387649464e-05
4.39197942363e-05
4.52228673955e-05
4.57239490527e-05
4.59321317227e-05
4.60376021793e-05
4.6112553263e-05
4.61838695621e-05
4.62622914636e-05
4.63562424789e-05
4.6485282685e-05
4.67106930824e-05
4.72253865795e-05
4.86226194737e-05
3.97689438573e-05
4.3952261889e-05
4.5253834678e-05
4.57523523042e-05
4.59578908361e-05
4.60609977707e-05
4.61338297098e-05
4.62031051251e-05
4.6279335764e-05
4.63704121915e-05
4.64941480417e-05
4.67071166186e-05
4.71942231243e-05
4.8550870298e-05
3.97935298309e-05
4.39785339397e-05
4.52784694426e-05
4.57745911964e-05
4.5977807446e-05
4.60789394871e-05
4.61500531039e-05
4.62177184933e-05
4.62923284696e-05
4.63816059074e-05
4.65027611792e-05
4.67108488802e-05
4.71897243383e-05
4.85448306056e-05
3.98125580885e-05
4.39989584376e-05
4.52969670502e-05
4.57908158584e-05
4.59920214432e-05
4.60915170327e-05
4.61612477084e-05
4.62276556916e-05
4.63010967801e-05
4.63893599473e-05
4.65098038567e-05
4.67179547406e-05
4.72007655086e-05
4.85789018041e-05
3.98258633612e-05
4.40134692689e-05
4.53095007872e-05
4.58012283928e-05
4.60006691401e-05
4.60988057197e-05
4.61674341173e-05
4.62328782147e-05
4.63055013498e-05
4.63932954213e-05
4.65142055928e-05
4.67253776393e-05
4.72192260487e-05
4.86344684187e-05
5.27741849632e-05
6.30161525668e-05
3.98336617183e-05
4.40222612477e-05
4.53162812675e-05
4.58060073739e-05
4.60038881512e-05
4.61008927908e-05
4.61686547443e-05
4.62333823294e-05
4.63054647943e-05
4.63931615398e-05
4.6515192121e-05
4.6730700639e-05
4.72385379936e-05
4.86961797404e-05
5.29199843358e-05
6.31410659407e-05
3.98360071677e-05
4.40256156165e-05
4.53175134924e-05
4.58052994246e-05
4.60017842487e-05
4.60978595875e-05
4.6164976505e-05
4.62292214652e-05
4.63010197145e-05
4.63889233385e-05
4.65124349624e-05
4.67325170341e-05
4.72527667833e-05
4.87436003183e-05
5.3032619708e-05
6.32846985103e-05
)
;
    }
    atmosphere
    {
        type            calculated;
        value           nonuniform List<scalar> 0();
    }
    floatingObject
    {
        type            nutkWallFunction;
        blending        stepwise;
        Cmu             0.09;
        kappa           0.41;
        E               9.8;
        value           nonuniform List<scalar> 0();
    }
    procBoundary7to6
    {
        type            processor;
        value           nonuniform List<scalar> 
11
(
0.000505800124528
0.00050220764264
0.000500082415339
0.000499502121955
0.000500060725287
0.000501330342002
0.000501330342002
0.000615564757752
0.000859532573066
0.000854877019638
0.000854658594532
)
;
    }
    procBoundary7to8
    {
        type            processor;
        value           nonuniform List<scalar> 
17
(
0.000271144303816
0.000403608109188
0.000416918982317
0.000422219636413
0.000424588803659
0.000425912618009
0.00042691773988
0.000427888306953
0.000429393509935
0.000429393509935
0.000430649760573
0.000432545732977
0.000436316770866
0.000436316770866
0.000444551186383
0.000463154363304
0.000463154363304
)
;
    }
    procBoundary7to9
    {
        type            processor;
        value           nonuniform List<scalar> 
16
(
0.000274339314036
0.000408177585644
0.000421305470612
0.000426262798732
0.000428259165914
0.000429237007102
0.00042992263739
0.000430581561332
0.000431321876588
0.000432237159052
0.000433545065467
0.000435926006303
0.000441657588766
0.000458219175969
0.000506001187349
0.000622325661773
)
;
    }
}


// ************************************************************************* //
