/*--------------------------------*- C++ -*----------------------------------*\
| =========                 |                                                 |
| \\      /  F ield         | OpenFOAM: The Open Source CFD Toolbox           |
|  \\    /   O peration     | Version:  v2012                                 |
|   \\  /    A nd           | Website:  www.openfoam.com                      |
|    \\/     M anipulation  |                                                 |
\*---------------------------------------------------------------------------*/
FoamFile
{
    version     2.0;
    format      ascii;
    class       volScalarField;
    location    "6";
    object      nut;
}
// * * * * * * * * * * * * * * * * * * * * * * * * * * * * * * * * * * * * * //

dimensions      [0 2 -1 0 0 0 0];


internalField   nonuniform List<scalar> 
167
(
0.00020606213171
0.000250739495524
0.000257311775297
0.00026019423972
0.000261805322397
0.000262995937381
0.000264065501802
0.000265136790765
0.000251015569616
0.000371010185354
0.00038244545651
0.000387179126329
0.000389562851178
0.000391125660124
0.000392429338804
0.00039371001765
0.000257624360314
0.000382670799304
0.000395053903676
0.000400112930523
0.000402572294395
0.000404121489632
0.000405390398257
0.000406635166817
0.00026046527029
0.000387533159958
0.000400294063832
0.000405466986257
0.000407927755151
0.00040944127242
0.000410671567692
0.000411889211135
0.000413267620666
0.00026195743273
0.000389913727046
0.000402817150512
0.000408009773206
0.000410436050412
0.000411899860106
0.000413082201495
0.000414258685933
0.000415607998705
0.000417403813869
0.000262950038892
0.000391374001896
0.000404317833521
0.000409489910735
0.000411867001201
0.000413274653872
0.000414404053811
0.000415532438656
0.000416835454921
0.000418577386692
0.000263749381066
0.000392489348992
0.000405432467932
0.000410569264062
0.000412893775792
0.000414244954016
0.000415320438614
0.000416398050211
0.000417648526445
0.000419325019284
0.000264464688577
0.000393471052707
0.000406397144937
0.00041149560675
0.00041376952317
0.000415067541248
0.0004160909244
0.000417118845298
0.000418316264094
0.000419926045744
0.000265132462298
0.000394381648228
0.000407294442474
0.000412356451785
0.000414584861185
0.000415834803894
0.000416810462177
0.00041779033114
0.000418936920892
0.000420481205614
0.000265762215468
0.000395256999505
0.000408152442125
0.00041318054845
0.000415368158551
0.000416575451047
0.000417508419146
0.000418444777591
0.000419542756022
0.000421023153263
0.000266356005659
0.000396090168937
0.000408975238925
0.000413974415545
0.00041612557967
0.00041729485962
0.000418190007841
0.00041908704915
0.00042013976898
0.000421558585481
0.000266912387097
0.000396884323465
0.000409761711965
0.000414735929355
0.000416855118287
0.000417990908971
0.000418852108039
0.000419713633044
0.000420724928525
0.000422084591907
0.000267429208509
0.000397636274906
0.000410509724711
0.000415462312256
0.000417552847868
0.000418658721772
0.000419489692526
0.000420319290714
0.000421292266791
0.000422595047271
0.000267903877073
0.000398342190964
0.000411215499853
0.000416148422633
0.000418213653912
0.000419293317362
0.000420097795434
0.00042089908162
0.000421836854295
0.000423084715082
0.000268336740179
0.000398998657113
0.00041187418621
0.000416790444191
0.000418833458494
0.000419890186712
0.000420671433311
0.000421447370383
0.000422352890782
0.000423550314906
0.000268729302815
0.000399606208933
0.000412483683505
0.000417385812336
0.000419409188272
0.000420445386043
0.000421205877387
0.000421958922459
0.000422835775082
0.000423983464401
0.000269078556155
0.000400157680951
0.000413041702399
0.000417932156749
0.0004199381379
0.000420956250729
0.000421697932395
0.000269382182507
0.000400656062812
0.000413547756964
0.000418429129753
0.000420420385095
0.00041400055038
0.000418875848267
)
;

boundaryField
{
    back
    {
        type            nutkWallFunction;
        blending        stepwise;
        Cmu             0.09;
        kappa           0.41;
        E               9.8;
        value           nonuniform List<scalar> 
167
(
3.41568922234e-05
3.66970459631e-05
3.75676328489e-05
3.79466343426e-05
3.81579338451e-05
3.83144207598e-05
3.84555962708e-05
3.85976949615e-05
3.67321470939e-05
4.03579940044e-05
4.14824982708e-05
4.19444656223e-05
4.21760879642e-05
4.23280608712e-05
4.24552665034e-05
4.25807542042e-05
3.76158223781e-05
4.15171932039e-05
4.27324701673e-05
4.32250976106e-05
4.34633702893e-05
4.36135434326e-05
4.37370214756e-05
4.3858747163e-05
3.79941813893e-05
4.19991402352e-05
4.32506343177e-05
4.37540519437e-05
4.39922757472e-05
4.41388587264e-05
4.42585437776e-05
4.43775170021e-05
4.45130281714e-05
3.8191581371e-05
4.22340173094e-05
4.34990504474e-05
4.40042665916e-05
4.42390735108e-05
4.43807908585e-05
4.44957906403e-05
4.46107919897e-05
4.47433074935e-05
4.4920935138e-05
3.832183318e-05
4.23770342236e-05
4.3645764251e-05
4.41488997673e-05
4.43788801138e-05
4.45151088833e-05
4.46249337647e-05
4.47352268704e-05
4.48631866336e-05
4.50353419193e-05
3.84260704702e-05
4.24854928884e-05
4.37539603401e-05
4.42535918929e-05
4.44784142248e-05
4.46091133809e-05
4.47136518246e-05
4.48189442247e-05
4.49417053413e-05
4.51073148377e-05
3.85190238911e-05
4.25805058783e-05
4.38471526498e-05
4.43429967232e-05
4.45628561088e-05
4.46883403911e-05
4.47877628218e-05
4.48881412962e-05
4.50056319324e-05
4.51645512547e-05
3.86056520634e-05
4.26684774608e-05
4.39336213276e-05
4.44258783472e-05
4.46412751499e-05
4.47620326262e-05
4.48567497224e-05
4.49523809248e-05
4.50648213868e-05
4.52171832949e-05
3.86872302583e-05
4.27528433825e-05
4.40161778011e-05
4.45051361313e-05
4.47165421848e-05
4.4833106044e-05
4.49236010183e-05
4.50149183932e-05
4.5122529725e-05
4.52684807916e-05
3.87641009565e-05
4.28330464841e-05
4.40952671708e-05
4.45814314186e-05
4.47893026167e-05
4.4902139876e-05
4.49888934687e-05
4.50763129355e-05
4.51794240672e-05
4.53191814926e-05
3.88360829779e-05
4.29093868461e-05
4.41708232883e-05
4.46546119195e-05
4.48594004879e-05
4.49689632862e-05
4.505236629e-05
4.51362649897e-05
4.52352292278e-05
4.53689773323e-05
3.89029203417e-05
4.29815881761e-05
4.42426478511e-05
4.47244188544e-05
4.49264729262e-05
4.50331270407e-05
4.51135526272e-05
4.51942616796e-05
4.52893440112e-05
4.54172655487e-05
3.89642632832e-05
4.30492947161e-05
4.43104062032e-05
4.47903990958e-05
4.49900629043e-05
4.50941721792e-05
4.51719795649e-05
4.52498417191e-05
4.5341336791e-05
4.54636453466e-05
3.9020164258e-05
4.31122367969e-05
4.43736483571e-05
4.48521771072e-05
4.50497767083e-05
4.51516710716e-05
4.5227180304e-05
4.53024946347e-05
4.53907073305e-05
4.55078452373e-05
3.90709086536e-05
4.31703714616e-05
4.44321741844e-05
4.49095118472e-05
4.51053087642e-05
4.52052441226e-05
4.52787077056e-05
4.5351748251e-05
4.54370331598e-05
4.55491626989e-05
3.91160865476e-05
4.32231438334e-05
4.44857313307e-05
4.49621448678e-05
4.51563815705e-05
4.52546075107e-05
4.53262720567e-05
3.91553152361e-05
4.32707186212e-05
4.45343142438e-05
4.50100674439e-05
4.52030256425e-05
4.45778007199e-05
4.50532231938e-05
)
;
    }
    sides
    {
        type            nutkWallFunction;
        blending        stepwise;
        Cmu             0.09;
        kappa           0.41;
        E               9.8;
        value           nonuniform List<scalar> 8(1.80590795344e-05 1.94211292137e-05 1.98877827435e-05 2.00909110445e-05 2.02041519619e-05 2.0288014445e-05 2.0363669298e-05 2.04398168403e-05);
    }
    bottom
    {
        type            nutkWallFunction;
        blending        stepwise;
        Cmu             0.09;
        kappa           0.41;
        E               9.8;
        value           nonuniform List<scalar> 
18
(
1.80590795344e-05
1.94399457369e-05
1.99136110591e-05
2.0116393148e-05
2.02221841285e-05
2.02919867534e-05
2.03478468192e-05
2.03976590072e-05
2.04440808149e-05
2.04877957789e-05
2.0528987545e-05
2.05675591385e-05
2.06033735017e-05
2.06362433225e-05
2.06661968058e-05
2.06933869675e-05
2.07175942394e-05
2.07386136355e-05
)
;
    }
    front
    {
        type            nutkWallFunction;
        blending        stepwise;
        Cmu             0.09;
        kappa           0.41;
        E               9.8;
        value           nonuniform List<scalar> 
167
(
3.41568922234e-05
3.66970459631e-05
3.75676328489e-05
3.79466343426e-05
3.81579338451e-05
3.83144207598e-05
3.84555962708e-05
3.85976949615e-05
3.67321470939e-05
4.03579940044e-05
4.14824982708e-05
4.19444656223e-05
4.21760879642e-05
4.23280608712e-05
4.24552665034e-05
4.25807542042e-05
3.76158223781e-05
4.15171932039e-05
4.27324701673e-05
4.32250976106e-05
4.34633702893e-05
4.36135434326e-05
4.37370214756e-05
4.3858747163e-05
3.79941813893e-05
4.19991402352e-05
4.32506343177e-05
4.37540519437e-05
4.39922757472e-05
4.41388587264e-05
4.42585437776e-05
4.43775170021e-05
4.45130281714e-05
3.8191581371e-05
4.22340173094e-05
4.34990504474e-05
4.40042665916e-05
4.42390735108e-05
4.43807908585e-05
4.44957906403e-05
4.46107919897e-05
4.47433074935e-05
4.4920935138e-05
3.832183318e-05
4.23770342236e-05
4.3645764251e-05
4.41488997673e-05
4.43788801138e-05
4.45151088833e-05
4.46249337647e-05
4.47352268704e-05
4.48631866336e-05
4.50353419193e-05
3.84260704702e-05
4.24854928884e-05
4.37539603401e-05
4.42535918929e-05
4.44784142248e-05
4.46091133809e-05
4.47136518246e-05
4.48189442247e-05
4.49417053413e-05
4.51073148377e-05
3.85190238911e-05
4.25805058783e-05
4.38471526498e-05
4.43429967232e-05
4.45628561088e-05
4.46883403911e-05
4.47877628218e-05
4.48881412962e-05
4.50056319324e-05
4.51645512547e-05
3.86056520634e-05
4.26684774608e-05
4.39336213276e-05
4.44258783472e-05
4.46412751499e-05
4.47620326262e-05
4.48567497224e-05
4.49523809248e-05
4.50648213868e-05
4.52171832949e-05
3.86872302583e-05
4.27528433825e-05
4.40161778011e-05
4.45051361313e-05
4.47165421848e-05
4.4833106044e-05
4.49236010183e-05
4.50149183932e-05
4.5122529725e-05
4.52684807916e-05
3.87641009565e-05
4.28330464841e-05
4.40952671708e-05
4.45814314186e-05
4.47893026167e-05
4.4902139876e-05
4.49888934687e-05
4.50763129355e-05
4.51794240672e-05
4.53191814926e-05
3.88360829779e-05
4.29093868461e-05
4.41708232883e-05
4.46546119195e-05
4.48594004879e-05
4.49689632862e-05
4.505236629e-05
4.51362649897e-05
4.52352292278e-05
4.53689773323e-05
3.89029203417e-05
4.29815881761e-05
4.42426478511e-05
4.47244188544e-05
4.49264729262e-05
4.50331270407e-05
4.51135526272e-05
4.51942616796e-05
4.52893440112e-05
4.54172655487e-05
3.89642632832e-05
4.30492947161e-05
4.43104062032e-05
4.47903990958e-05
4.49900629043e-05
4.50941721792e-05
4.51719795649e-05
4.52498417191e-05
4.5341336791e-05
4.54636453466e-05
3.9020164258e-05
4.31122367969e-05
4.43736483571e-05
4.48521771072e-05
4.50497767083e-05
4.51516710716e-05
4.5227180304e-05
4.53024946347e-05
4.53907073305e-05
4.55078452373e-05
3.90709086536e-05
4.31703714616e-05
4.44321741844e-05
4.49095118472e-05
4.51053087642e-05
4.52052441226e-05
4.52787077056e-05
4.5351748251e-05
4.54370331598e-05
4.55491626989e-05
3.91160865476e-05
4.32231438334e-05
4.44857313307e-05
4.49621448678e-05
4.51563815705e-05
4.52546075107e-05
4.53262720567e-05
3.91553152361e-05
4.32707186212e-05
4.45343142438e-05
4.50100674439e-05
4.52030256425e-05
4.45778007199e-05
4.50532231938e-05
)
;
    }
    atmosphere
    {
        type            calculated;
        value           nonuniform List<scalar> 0();
    }
    floatingObject
    {
        type            nutkWallFunction;
        blending        stepwise;
        Cmu             0.09;
        kappa           0.41;
        E               9.8;
        value           nonuniform List<scalar> 0();
    }
    procBoundary2to0
    {
        type            processor;
        value           nonuniform List<scalar> 
14
(
0.000422430802315
0.000423277378091
0.00042438163337
0.000421423023513
0.000422430802315
0.000422147026277
0.000269644651234
0.000401095549218
0.000421423023513
0.000420855200777
0.000401095549218
0.000414399625578
0.000420855200777
0.000419270087488
)
;
    }
    procBoundary2to1
    {
        type            processor;
        value           nonuniform List<scalar> 
18
(
0.000266319771664
0.000395124885452
0.000408034569904
0.000408034569904
0.000415103560505
0.000415103560505
0.0004203232916
0.00042138569405
0.000422017463218
0.000422512535641
0.000422968013537
0.000423405003166
0.000423833648045
0.000424250805516
0.000424652057792
0.000425036983278
0.000425401519416
0.000425743984118
)
;
    }
}


// ************************************************************************* //
