/*--------------------------------*- C++ -*----------------------------------*\
| =========                 |                                                 |
| \\      /  F ield         | OpenFOAM: The Open Source CFD Toolbox           |
|  \\    /   O peration     | Version:  v2012                                 |
|   \\  /    A nd           | Website:  www.openfoam.com                      |
|    \\/     M anipulation  |                                                 |
\*---------------------------------------------------------------------------*/
FoamFile
{
    version     2.0;
    format      ascii;
    class       volScalarField;
    location    "6";
    object      p;
}
// * * * * * * * * * * * * * * * * * * * * * * * * * * * * * * * * * * * * * //

dimensions      [1 -1 -2 0 0 0 0];


internalField   nonuniform List<scalar> 
167
(
8344.86757007
7855.21269232
7365.50409091
6875.75215421
6385.96649145
5896.15813603
5406.34130154
4916.53359375
8344.89065628
7855.23311671
7365.51902851
6875.75806494
6385.96031269
5896.13712732
5406.30208372
4916.47172592
8344.9592539
7855.29674964
7365.57166736
6875.79389768
6385.97318328
5896.12059532
5406.24913167
4916.37656006
8345.07549011
7855.40548823
7365.66420239
6875.86168379
6386.00713842
5896.11101118
5406.18628658
4916.24836546
4426.32016124
8345.24593419
7855.56553356
7365.80281919
6875.96796153
6386.06921379
5896.11614118
5406.12109248
4916.09910292
4426.06887616
3936.05546289
8345.48088804
7855.78771788
7365.99886433
6876.12467658
6386.17227673
5896.15005001
5406.06919809
4915.94371173
4425.79036213
3935.63129426
8345.79336483
7856.08526234
7366.26642215
6876.34663119
6386.33214016
5896.22999129
5406.04957377
4915.80316949
4425.50547007
3935.17594484
8346.19860674
7856.47385363
7366.62172382
6876.65120387
6386.56735815
5896.37591516
5406.08426412
4915.70204493
4425.24123293
3934.7176047
8346.71371333
7856.9708853
7367.08285889
6877.05757909
6386.89881759
5896.61052273
5406.19791717
4915.6677179
4425.02775165
3934.2891956
8347.3567321
7857.59496741
7367.66932083
6877.58652234
6387.3488768
5896.95833988
5406.41748592
4915.72981305
4424.89859579
3933.92687642
8348.14680927
7858.36565819
7368.40153119
6878.25983735
6387.94115783
5897.44533803
5406.77196852
4915.92086196
4424.88925154
3933.67105012
8349.1033034
7859.30284898
7369.30032844
6879.0997382
6388.70005704
5898.09861504
5407.29191908
4916.27487107
4425.0377652
3933.56674948
8350.24557216
7860.42632398
7370.38656093
6880.12888623
6389.65060065
5898.94623381
5408.00847655
4916.82731194
4425.38697668
3933.66601409
8351.5924006
7861.75556516
7371.6810606
6881.36994091
6390.81758157
5900.01588543
5408.95378794
4917.61682024
4425.98316164
3934.02409497
8353.16154253
7863.30891235
7373.20318391
6882.84393373
6392.22473573
5901.33500606
5410.16029001
4918.68148151
4426.87206313
3934.69665166
8354.96924936
7865.10280234
7374.97019925
6884.56988344
6393.89395393
5902.92897343
5411.65714179
4920.057154
4428.09664608
3935.73818955
8357.02874067
7867.15107453
7376.99720792
6886.56458429
6395.84279632
5904.8186598
5413.47127927
8359.35012879
7869.4647808
7379.29650043
6888.84022059
6398.08781883
7381.87513179
6891.40761158
)
;

boundaryField
{
    back
    {
        type            calculated;
        value           nonuniform List<scalar> 
167
(
8344.86757007
7855.21269232
7365.50409091
6875.75215421
6385.96649145
5896.15813603
5406.34130154
4916.53359375
8344.89065628
7855.23311671
7365.51902851
6875.75806494
6385.96031269
5896.13712732
5406.30208372
4916.47172592
8344.9592539
7855.29674964
7365.57166736
6875.79389768
6385.97318328
5896.12059532
5406.24913167
4916.37656006
8345.07549011
7855.40548823
7365.66420239
6875.86168379
6386.00713842
5896.11101118
5406.18628658
4916.24836546
4426.32016124
8345.24593419
7855.56553356
7365.80281919
6875.96796153
6386.06921379
5896.11614118
5406.12109248
4916.09910292
4426.06887616
3936.05546289
8345.48088804
7855.78771788
7365.99886433
6876.12467658
6386.17227673
5896.15005001
5406.06919809
4915.94371173
4425.79036213
3935.63129426
8345.79336483
7856.08526234
7366.26642215
6876.34663119
6386.33214016
5896.22999129
5406.04957377
4915.80316949
4425.50547007
3935.17594484
8346.19860674
7856.47385363
7366.62172382
6876.65120387
6386.56735815
5896.37591516
5406.08426412
4915.70204493
4425.24123293
3934.7176047
8346.71371333
7856.9708853
7367.08285889
6877.05757909
6386.89881759
5896.61052273
5406.19791717
4915.6677179
4425.02775165
3934.2891956
8347.3567321
7857.59496741
7367.66932083
6877.58652234
6387.3488768
5896.95833988
5406.41748592
4915.72981305
4424.89859579
3933.92687642
8348.14680927
7858.36565819
7368.40153119
6878.25983735
6387.94115783
5897.44533803
5406.77196852
4915.92086196
4424.88925154
3933.67105012
8349.1033034
7859.30284898
7369.30032844
6879.0997382
6388.70005704
5898.09861504
5407.29191908
4916.27487107
4425.0377652
3933.56674948
8350.24557216
7860.42632398
7370.38656093
6880.12888623
6389.65060065
5898.94623381
5408.00847655
4916.82731194
4425.38697668
3933.66601409
8351.5924006
7861.75556516
7371.6810606
6881.36994091
6390.81758157
5900.01588543
5408.95378794
4917.61682024
4425.98316164
3934.02409497
8353.16154253
7863.30891235
7373.20318391
6882.84393373
6392.22473573
5901.33500606
5410.16029001
4918.68148151
4426.87206313
3934.69665166
8354.96924936
7865.10280234
7374.97019925
6884.56988344
6393.89395393
5902.92897343
5411.65714179
4920.057154
4428.09664608
3935.73818955
8357.02874067
7867.15107453
7376.99720792
6886.56458429
6395.84279632
5904.8186598
5413.47127927
8359.35012879
7869.4647808
7379.29650043
6888.84022059
6398.08781883
7381.87513179
6891.40761158
)
;
    }
    sides
    {
        type            calculated;
        value           nonuniform List<scalar> 8(8344.86757007 7855.21269232 7365.50409091 6875.75215421 6385.96649145 5896.15813603 5406.34130154 4916.53359375);
    }
    bottom
    {
        type            calculated;
        value           nonuniform List<scalar> 
18
(
8589.67584189
8589.6989079
8589.76752458
8589.88384369
8590.05438647
8590.28944224
8590.60200783
8591.00732315
8591.52247971
8592.1655188
8592.95559285
8593.91205482
8595.0542584
8596.40098579
8597.96981137
8599.77749273
8601.83703157
8604.15834603
)
;
    }
    front
    {
        type            calculated;
        value           nonuniform List<scalar> 
167
(
8344.86757007
7855.21269232
7365.50409091
6875.75215421
6385.96649145
5896.15813603
5406.34130154
4916.53359375
8344.89065628
7855.23311671
7365.51902851
6875.75806494
6385.96031269
5896.13712732
5406.30208372
4916.47172592
8344.9592539
7855.29674964
7365.57166736
6875.79389768
6385.97318328
5896.12059532
5406.24913167
4916.37656006
8345.07549011
7855.40548823
7365.66420239
6875.86168379
6386.00713842
5896.11101118
5406.18628658
4916.24836546
4426.32016124
8345.24593419
7855.56553356
7365.80281919
6875.96796153
6386.06921379
5896.11614118
5406.12109248
4916.09910292
4426.06887616
3936.05546289
8345.48088804
7855.78771788
7365.99886433
6876.12467658
6386.17227673
5896.15005001
5406.06919809
4915.94371173
4425.79036213
3935.63129426
8345.79336483
7856.08526234
7366.26642215
6876.34663119
6386.33214016
5896.22999129
5406.04957377
4915.80316949
4425.50547007
3935.17594484
8346.19860674
7856.47385363
7366.62172382
6876.65120387
6386.56735815
5896.37591516
5406.08426412
4915.70204493
4425.24123293
3934.7176047
8346.71371333
7856.9708853
7367.08285889
6877.05757909
6386.89881759
5896.61052273
5406.19791717
4915.6677179
4425.02775165
3934.2891956
8347.3567321
7857.59496741
7367.66932083
6877.58652234
6387.3488768
5896.95833988
5406.41748592
4915.72981305
4424.89859579
3933.92687642
8348.14680927
7858.36565819
7368.40153119
6878.25983735
6387.94115783
5897.44533803
5406.77196852
4915.92086196
4424.88925154
3933.67105012
8349.1033034
7859.30284898
7369.30032844
6879.0997382
6388.70005704
5898.09861504
5407.29191908
4916.27487107
4425.0377652
3933.56674948
8350.24557216
7860.42632398
7370.38656093
6880.12888623
6389.65060065
5898.94623381
5408.00847655
4916.82731194
4425.38697668
3933.66601409
8351.5924006
7861.75556516
7371.6810606
6881.36994091
6390.81758157
5900.01588543
5408.95378794
4917.61682024
4425.98316164
3934.02409497
8353.16154253
7863.30891235
7373.20318391
6882.84393373
6392.22473573
5901.33500606
5410.16029001
4918.68148151
4426.87206313
3934.69665166
8354.96924936
7865.10280234
7374.97019925
6884.56988344
6393.89395393
5902.92897343
5411.65714179
4920.057154
4428.09664608
3935.73818955
8357.02874067
7867.15107453
7376.99720792
6886.56458429
6395.84279632
5904.8186598
5413.47127927
8359.35012879
7869.4647808
7379.29650043
6888.84022059
6398.08781883
7381.87513179
6891.40761158
)
;
    }
    atmosphere
    {
        type            calculated;
        value           nonuniform List<scalar> 0();
    }
    floatingObject
    {
        type            calculated;
        value           nonuniform List<scalar> 0();
    }
    procBoundary2to0
    {
        type            processor;
        value           nonuniform List<scalar> 
14
(
4921.7751328
4429.6970687
3937.19323329
5907.02219363
4921.7751328
5415.62066107
8361.9411372
7872.05119869
5907.02219363
6400.63849163
7872.05119869
7384.73788073
6400.63849163
6894.27011943
)
;
    }
    procBoundary2to1
    {
        type            processor;
        value           nonuniform List<scalar> 
18
(
4426.75556081
4426.66958398
4426.52159892
4426.52159892
3936.4206393
3936.4206393
3446.08441515
3445.49379135
3444.83890376
3444.15015759
3443.46416457
3442.82116296
3442.26555423
3441.85246993
3441.64456065
3441.70977877
3442.11802963
3442.93224898
)
;
    }
}


// ************************************************************************* //
