/*--------------------------------*- C++ -*----------------------------------*\
| =========                 |                                                 |
| \\      /  F ield         | OpenFOAM: The Open Source CFD Toolbox           |
|  \\    /   O peration     | Version:  v2012                                 |
|   \\  /    A nd           | Website:  www.openfoam.com                      |
|    \\/     M anipulation  |                                                 |
\*---------------------------------------------------------------------------*/
FoamFile
{
    version     2.0;
    format      ascii;
    class       volScalarField;
    location    "6";
    object      p_rgh;
}
// * * * * * * * * * * * * * * * * * * * * * * * * * * * * * * * * * * * * * //

dimensions      [1 -1 -2 0 0 0 0];


internalField   nonuniform List<scalar> 
167
(
8589.67584189
8589.63745158
8589.54515717
8589.40964844
8589.24181679
8589.05285301
8588.85669514
8588.67034823
8589.6989079
8589.65775647
8589.56009477
8589.41568163
8589.23621383
8589.0323548
8588.81802575
8588.61165085
8589.76752458
8589.72151612
8589.61286333
8589.45206934
8589.2497154
8589.01591339
8588.76640091
8588.51332804
8589.88384369
8589.8305846
8589.70608452
8589.5206738
8589.28416795
8589.00659929
8588.7023246
8588.38803998
8588.06320476
8590.05438647
8589.99098301
8589.84540812
8589.62784493
8589.34674515
8589.01171613
8588.63591102
8588.23257051
8587.81381725
8587.38651609
8590.28944224
8590.21348763
8590.04202457
8589.78530602
8589.4502251
8589.04536719
8588.58202441
8588.07152821
8587.52617494
8586.95581802
8590.60200783
8590.51132956
8590.31007061
8590.00786371
8589.61048929
8589.12479061
8588.56053335
8587.92602804
8587.23193678
8586.4681985
8591.00732315
8590.90013935
8590.66574125
8590.31283331
8589.84596328
8589.27036138
8588.59355953
8587.82042117
8586.95587994
8585.9785566
8591.52247971
8591.39731657
8591.12705877
8590.71935847
8590.17748564
8589.50482241
8588.70583794
8587.78213283
8586.73070795
8585.51952924
8592.1655188
8592.02143804
8591.71357396
8591.24831845
8590.6274834
8589.85261845
8588.9247828
8587.8403048
8586.5903353
8585.17064164
8592.95559285
8592.79209139
8592.44569647
8591.92155566
8591.21947436
8590.33903874
8589.27756588
8588.02263283
8586.58749236
8584.97642653
8593.91205482
8593.72915037
8593.34426245
8592.7611757
8591.97805346
8590.9895782
8589.79160811
8588.3877017
8586.76775487
8584.91040969
8595.0542584
8594.85237409
8594.43001389
8593.78952865
8592.9279267
8591.83652372
8590.51473703
8588.95166501
8587.12541548
8585.02246529
8596.40098579
8596.1812509
8595.72386078
8595.02942057
8594.09311142
8592.90894449
8591.46452866
8589.74464782
8587.73351805
8585.40133172
8597.96981137
8597.73370266
8597.24455633
8596.50247296
8595.49922575
8594.22844361
8592.67184713
8590.81290239
8588.6338913
8586.09763701
8599.77749273
8599.52724061
8599.0107017
8598.22647832
8597.16686724
8595.81745639
8594.16782346
8592.18940128
8589.86691194
8587.15193279
8601.83703157
8601.57594723
8601.037723
8600.21533164
8599.10037886
8597.67977553
8595.97048206
8604.15834603
8603.88878911
8603.33459715
8602.4880371
8601.33770513
8605.90958965
8605.05043858
)
;

boundaryField
{
    back
    {
        type            fixedFluxPressure;
        gradient        uniform 0;
        value           nonuniform List<scalar> 
167
(
8589.67584189
8589.63745158
8589.54515717
8589.40964844
8589.24181679
8589.05285301
8588.85669514
8588.67034823
8589.6989079
8589.65775647
8589.56009477
8589.41568163
8589.23621383
8589.0323548
8588.81802575
8588.61165085
8589.76752458
8589.72151612
8589.61286333
8589.45206934
8589.2497154
8589.01591339
8588.76640091
8588.51332804
8589.88384369
8589.8305846
8589.70608452
8589.5206738
8589.28416795
8589.00659929
8588.7023246
8588.38803998
8588.06320476
8590.05438647
8589.99098301
8589.84540812
8589.62784493
8589.34674515
8589.01171613
8588.63591102
8588.23257051
8587.81381725
8587.38651609
8590.28944224
8590.21348763
8590.04202457
8589.78530602
8589.4502251
8589.04536719
8588.58202441
8588.07152821
8587.52617494
8586.95581802
8590.60200783
8590.51132956
8590.31007061
8590.00786371
8589.61048929
8589.12479061
8588.56053335
8587.92602804
8587.23193678
8586.4681985
8591.00732315
8590.90013935
8590.66574125
8590.31283331
8589.84596328
8589.27036138
8588.59355953
8587.82042117
8586.95587994
8585.9785566
8591.52247971
8591.39731657
8591.12705877
8590.71935847
8590.17748564
8589.50482241
8588.70583794
8587.78213283
8586.73070795
8585.51952924
8592.1655188
8592.02143804
8591.71357396
8591.24831845
8590.6274834
8589.85261845
8588.9247828
8587.8403048
8586.5903353
8585.17064164
8592.95559285
8592.79209139
8592.44569647
8591.92155566
8591.21947436
8590.33903874
8589.27756588
8588.02263283
8586.58749236
8584.97642653
8593.91205482
8593.72915037
8593.34426245
8592.7611757
8591.97805346
8590.9895782
8589.79160811
8588.3877017
8586.76775487
8584.91040969
8595.0542584
8594.85237409
8594.43001389
8593.78952865
8592.9279267
8591.83652372
8590.51473703
8588.95166501
8587.12541548
8585.02246529
8596.40098579
8596.1812509
8595.72386078
8595.02942057
8594.09311142
8592.90894449
8591.46452866
8589.74464782
8587.73351805
8585.40133172
8597.96981137
8597.73370266
8597.24455633
8596.50247296
8595.49922575
8594.22844361
8592.67184713
8590.81290239
8588.6338913
8586.09763701
8599.77749273
8599.52724061
8599.0107017
8598.22647832
8597.16686724
8595.81745639
8594.16782346
8592.18940128
8589.86691194
8587.15193279
8601.83703157
8601.57594723
8601.037723
8600.21533164
8599.10037886
8597.67977553
8595.97048206
8604.15834603
8603.88878911
8603.33459715
8602.4880371
8601.33770513
8605.90958965
8605.05043858
)
;
    }
    sides
    {
        type            fixedFluxPressure;
        gradient        uniform 0;
        value           nonuniform List<scalar> 8(8589.67584189 8589.63745158 8589.54515717 8589.40964844 8589.24181679 8589.05285301 8588.85669514 8588.67034823);
    }
    bottom
    {
        type            fixedFluxPressure;
        gradient        uniform 0;
        value           nonuniform List<scalar> 
18
(
8589.67584189
8589.6989079
8589.76752458
8589.88384369
8590.05438647
8590.28944224
8590.60200783
8591.00732315
8591.52247971
8592.1655188
8592.95559285
8593.91205482
8595.0542584
8596.40098579
8597.96981137
8599.77749273
8601.83703157
8604.15834603
)
;
    }
    front
    {
        type            fixedFluxPressure;
        gradient        uniform 0;
        value           nonuniform List<scalar> 
167
(
8589.67584189
8589.63745158
8589.54515717
8589.40964844
8589.24181679
8589.05285301
8588.85669514
8588.67034823
8589.6989079
8589.65775647
8589.56009477
8589.41568163
8589.23621383
8589.0323548
8588.81802575
8588.61165085
8589.76752458
8589.72151612
8589.61286333
8589.45206934
8589.2497154
8589.01591339
8588.76640091
8588.51332804
8589.88384369
8589.8305846
8589.70608452
8589.5206738
8589.28416795
8589.00659929
8588.7023246
8588.38803998
8588.06320476
8590.05438647
8589.99098301
8589.84540812
8589.62784493
8589.34674515
8589.01171613
8588.63591102
8588.23257051
8587.81381725
8587.38651609
8590.28944224
8590.21348763
8590.04202457
8589.78530602
8589.4502251
8589.04536719
8588.58202441
8588.07152821
8587.52617494
8586.95581802
8590.60200783
8590.51132956
8590.31007061
8590.00786371
8589.61048929
8589.12479061
8588.56053335
8587.92602804
8587.23193678
8586.4681985
8591.00732315
8590.90013935
8590.66574125
8590.31283331
8589.84596328
8589.27036138
8588.59355953
8587.82042117
8586.95587994
8585.9785566
8591.52247971
8591.39731657
8591.12705877
8590.71935847
8590.17748564
8589.50482241
8588.70583794
8587.78213283
8586.73070795
8585.51952924
8592.1655188
8592.02143804
8591.71357396
8591.24831845
8590.6274834
8589.85261845
8588.9247828
8587.8403048
8586.5903353
8585.17064164
8592.95559285
8592.79209139
8592.44569647
8591.92155566
8591.21947436
8590.33903874
8589.27756588
8588.02263283
8586.58749236
8584.97642653
8593.91205482
8593.72915037
8593.34426245
8592.7611757
8591.97805346
8590.9895782
8589.79160811
8588.3877017
8586.76775487
8584.91040969
8595.0542584
8594.85237409
8594.43001389
8593.78952865
8592.9279267
8591.83652372
8590.51473703
8588.95166501
8587.12541548
8585.02246529
8596.40098579
8596.1812509
8595.72386078
8595.02942057
8594.09311142
8592.90894449
8591.46452866
8589.74464782
8587.73351805
8585.40133172
8597.96981137
8597.73370266
8597.24455633
8596.50247296
8595.49922575
8594.22844361
8592.67184713
8590.81290239
8588.6338913
8586.09763701
8599.77749273
8599.52724061
8599.0107017
8598.22647832
8597.16686724
8595.81745639
8594.16782346
8592.18940128
8589.86691194
8587.15193279
8601.83703157
8601.57594723
8601.037723
8600.21533164
8599.10037886
8597.67977553
8595.97048206
8604.15834603
8603.88878911
8603.33459715
8602.4880371
8601.33770513
8605.90958965
8605.05043858
)
;
    }
    atmosphere
    {
        type            totalPressure;
        rho             rho;
        psi             none;
        gamma           1;
        p0              nonuniform List<scalar> 0();
        value           nonuniform List<scalar> 0();
    }
    floatingObject
    {
        type            fixedFluxPressure;
        gradient        nonuniform List<scalar> 0();
        value           nonuniform List<scalar> 0();
    }
    procBoundary2to0
    {
        type            processor;
        value           nonuniform List<scalar> 
14
(
8593.90723435
8591.46473954
8588.60976007
8599.88316626
8593.90723435
8598.09443172
8606.74933982
8606.47478126
8599.88316626
8603.88837844
8606.47478126
8608.77469167
8603.88837844
8607.91748122
)
;
    }
    procBoundary2to1
    {
        type            processor;
        value           nonuniform List<scalar> 
18
(
8588.51433619
8588.42627004
8588.27570251
8588.27570251
8587.76757093
8587.76757093
8586.99787256
8586.3545486
8585.66491028
8584.97616357
8584.29017055
8583.64716893
8583.14310933
8582.80134983
8582.6136264
8582.71193029
8583.1554749
8583.99821796
)
;
    }
}


// ************************************************************************* //
