/*--------------------------------*- C++ -*----------------------------------*\
| =========                 |                                                 |
| \\      /  F ield         | OpenFOAM: The Open Source CFD Toolbox           |
|  \\    /   O peration     | Version:  v2012                                 |
|   \\  /    A nd           | Website:  www.openfoam.com                      |
|    \\/     M anipulation  |                                                 |
\*---------------------------------------------------------------------------*/
FoamFile
{
    version     2.0;
    format      ascii;
    class       surfaceScalarField;
    location    "0.9";
    object      alphaPhi0.water;
}
// * * * * * * * * * * * * * * * * * * * * * * * * * * * * * * * * * * * * * //

dimensions      [0 3 -1 0 0 0 0];
oriented        oriented;


internalField   nonuniform List<scalar> 
300
(
-8.42231400527e-05
0.000894514223489
-9.833988737e-05
0.0009231543578
-0.000114013593251
0.000955270142483
-0.000131456807333
0.000990981599194
-0.000150913045152
0.00103043399303
-0.000172667513751
0.00107381080579
-0.000197036479565
0.0011211468363
-0.000224365712438
0.00117175508217
-0.000255073260096
0.00122325876676
-0.000207422554543
0.00120125791476
2.3342126191e-11
0.000359449868176
-1.9910403452e-12
-5.56429317861e-05
-6.62985389909e-05
-7.83925679914e-05
0.000967363651314
-9.21037631831e-05
0.00100469210227
-0.000107640829785
0.00104597018548
-0.000125259647802
0.00109142862609
-0.000145255170405
0.00114114215818
-0.000167808174631
0.00119430818594
-0.000192593951277
0.00124804436677
-0.000156920779619
0.00122840197403
-4.73838400195e-12
0.000369143475501
-2.64042114135e-13
-4.11483813464e-05
0.000975700094994
-5.09234330333e-05
0.00101446643534
-6.22954849664e-05
0.00105734134859
-7.54926699579e-05
0.00110462481243
-9.08784926773e-05
0.00115652737587
-0.000108705559239
0.00121213525681
-0.000126525689211
0.00126586439805
-0.000105139535543
0.00125042099166
-2.86894886693e-12
0.000377825438558
1.07929360166e-15
-2.42552176277e-06
0.000980187156026
-8.12046463838e-06
0.0010201606086
-1.51224090509e-05
0.0010643423566
-2.35828046042e-05
0.00111308417312
-3.39535584002e-05
0.00116689712314
-4.7770849865e-05
0.00122595254869
-5.81630631613e-05
0.00127625660992
-5.27918465386e-05
0.00127130194625
-8.12077842166e-13
0.000395888438366
1.56954399722e-14
3.7572588713e-05
0.0009806248693
3.61074226625e-05
0.00102162495572
3.3654932849e-05
0.00106679386975
3.03036921889e-05
0.00111643434435
2.62367470013e-05
0.00117096304038
2.19281689281e-05
0.00123026112677
5.84351443425e-06
0.00129234126432
-3.5144172876e-06
0.00129016031996
-1.34825523386e-13
0.00041893040014
7.0192800445e-15
7.84514216482e-05
0.000977117917813
8.11242341871e-05
0.00101895129155
8.30902948845e-05
0.001064826817
8.45931249522e-05
0.00111493044402
8.60351231707e-05
0.00116952000076
8.74160378127e-05
0.0012288793844
8.75770427996e-05
0.00129218025939
5.93680295109e-05
0.00130214645423
6.00223372423e-07
0.000447312986174
6.00211471058e-07
0.000120201817384
0.000969646973698
0.000126875749289
0.00101227650497
0.000133025850085
0.00105867575022
0.000139090273369
0.00110886500105
0.000145690637514
0.00116291866139
0.00015412583757
0.00122044347907
0.000165806102873
0.00128049999409
0.000129097667146
0.00130429948912
-1.13732750313e-07
0.000488304952663
4.86478701868e-07
0.00016272808533
0.000958380474255
0.000173188319619
0.00100181545619
0.000183076828985
0.00104878635883
0.000192932277088
0.0010990086531
0.000203769220435
0.00115208088736
0.00021693090295
0.00120728118885
0.000235583804937
0.00126184685313
0.000196424503047
0.00128900228262
-4.56635933627e-07
0.000541220349738
3.24725771421e-08
0.00020609807731
0.000943362914652
0.00022007866312
0.000987834150947
0.000233205152599
0.00103565914164
0.000245891882687
0.00108632122508
0.00025896422083
0.00113900793801
0.000273503941343
0.00119274106108
0.000292377320596
0.00124297330893
0.000316222135764
0.00126850999705
4.41489999536e-06
0.000620258219341
1.11967131429e-06
0.00025050680455
0.000924656046034
0.000267826453948
0.000970513937974
0.000283762743673
0.0010197223526
0.00029842535637
0.00107165819957
0.000312124135426
0.00112530886003
0.000324967077892
0.00117989801334
0.000334914197256
0.00123302621031
0.000339562956432
0.00126329759441
1.14444209869e-05
0.000782794402223
1.13597722668e-05
0.000296306235259
0.000902182599349
0.000316945010643
0.000949874814597
0.000335564548139
0.00100110261102
0.000351925928328
0.00105529676149
0.000365830498531
0.00111140437492
0.000377754829785
0.00116797392409
0.0003931886999
0.00121759257285
0.000443076233492
0.00121341139657
0.00011131463823
0.000624771881449
-4.67278262018e-06
0.000343937044211
0.000875746434286
0.000368076221805
0.000925735558147
0.000389566237885
0.000979612735701
0.000407841401486
0.00103702193951
0.000421472481163
0.00109777379585
0.000425542910435
0.00116390408897
0.000402926732795
0.0012402092419
0.000303028719865
0.00131331048007
-2.74711665175e-05
0.000836681317049
6.98663581217e-06
0.000393901526076
0.000845004528955
0.0004218645536
0.00089777276269
0.000446721803907
0.000954755994587
0.000468068368524
0.00101567613121
0.000484699224378
0.00108114384942
0.000491815648886
0.00115678859207
0.000482536815465
0.00124948879944
0.000432959225234
0.00136288812326
-2.37892471053e-05
0.00126445494014
3.46195576655e-06
0.000446662921851
0.000809533238111
0.000478788535668
0.000865647821821
0.000507384270704
0.000926161279633
0.000532998705342
0.000990063029942
0.000557474000878
0.00105667004765
0.000579986710131
0.00113427732571
0.000589964828123
0.00123951179225
0.000620829184072
0.00133202426386
-1.39149063652e-06
0.00186003742089
2.0576323072e-06
0.000502800814411
0.000768774944727
0.000539363404856
0.000829086470302
0.000571357345765
0.000894169036443
0.000599653873066
0.000961768543682
0.000631310877659
0.00102501523689
0.000697056701023
0.00106853352017
0.000867715550962
0.00106885440504
0.00125190930139
0.000947831078549
0.00259946648266
0.000449775477168
-6.99380482232e-05
0.000563113209151
0.000604544584746
0.000639523098727
0.000666649406387
0.000682340920705
0.000669380893756
0.0005764786797
0.000278454492008
9.40721814726e-05
)
;

boundaryField
{
    back
    {
        type            calculated;
        value           uniform 0;
    }
    sides
    {
        type            calculated;
        value           nonuniform List<scalar> 0();
    }
    bottom
    {
        type            calculated;
        value           nonuniform List<scalar> 0();
    }
    front
    {
        type            calculated;
        value           uniform 0;
    }
    atmosphere
    {
        type            calculated;
        value           nonuniform List<scalar> 
16
(
0
0
0
0
0
1.18953345709e-11
0
-2.62981053879e-09
-3.32895996154e-11
-1.76507207435e-09
7.33378633445e-05
0
3.04334967411e-15
1.35654789897e-14
0.00259873842368
0
)
;
    }
    floatingObject
    {
        type            calculated;
        value           nonuniform List<scalar> 0();
    }
    procBoundary5to0
    {
        type            processor;
        value           nonuniform List<scalar> 
12
(
-0.000881759749006
-0.000909037992876
-0.000939597061818
-0.000973539302045
-0.00101097896788
-0.00105205776595
-0.00109677819339
-0.00114442581893
-0.00119255185806
-0.00117082228797
-0.000354209496159
7.95133926954e-12
)
;
    }
    procBoundary5to3
    {
        type            processor;
        value           nonuniform List<scalar> 10(0.000721972681819 0.000787656639983 0.000859192376148 0.000934644378612 0.00100932588196 0.00108149547152 0.00116175797883 0.00124585570288 0.000421993317261 6.32627238078e-07);
    }
    procBoundary5to4
    {
        type            processor;
        value           nonuniform List<scalar> 
18
(
7.14685256924e-05
4.62429498016e-05
0.000903914020283
0.000933809601252
3.2811260451e-05
-2.0623220144e-06
-3.80111682844e-05
-7.49453979587e-05
-0.000112731835385
-0.000151462544304
-0.000191081422072
-0.000231800727842
-0.000273833406375
-0.000317501257636
-0.00036315968615
-0.000411191227893
-0.000462041363944
-0.000516309541645
)
;
    }
}


// ************************************************************************* //
