/*--------------------------------*- C++ -*----------------------------------*\
| =========                 |                                                 |
| \\      /  F ield         | OpenFOAM: The Open Source CFD Toolbox           |
|  \\    /   O peration     | Version:  v2012                                 |
|   \\  /    A nd           | Website:  www.openfoam.com                      |
|    \\/     M anipulation  |                                                 |
\*---------------------------------------------------------------------------*/
FoamFile
{
    version     2.0;
    format      ascii;
    class       volScalarField;
    location    "0.9";
    object      ddt0(k);
}
// * * * * * * * * * * * * * * * * * * * * * * * * * * * * * * * * * * * * * //

dimensions      [0 2 -3 0 0 0 0];


internalField   nonuniform List<scalar> 
164
(
-0.0260121649838
-0.0259934974588
-0.0259702952515
-0.0259356754681
-0.0258591933941
-0.0256321462438
-0.0249727971691
-0.0234791790806
-0.0214403224575
-0.0212089744617
-0.0240786807562
-0.0114530569819
-0.0260474671971
-0.0260319021374
-0.0260125843126
-0.0259840382733
-0.0259225418585
-0.0257456026824
-0.0252508995101
-0.0242109855918
-0.0231479580647
-0.0244329560279
-0.0289299156698
-0.0135483275376
-0.0260597345744
-0.0260379002366
-0.0259917873094
-0.0258642823195
-0.0255297652674
-0.0249281632089
-0.0248252878652
-0.0276476341381
-0.0340687775065
-0.0156051213742
-0.0261118215162
-0.0260971585611
-0.0260664475954
-0.025985973704
-0.025801727489
-0.025604017034
-0.0264022700955
-0.030668055461
-0.039076342006
-0.017349502045
-0.0261679846059
-0.0261607467492
-0.0261429229576
-0.0260977005902
-0.0260359533109
-0.0262516658461
-0.0277914029731
-0.0332229937119
-0.0434909218837
-0.0199820724003
-0.0262276409633
-0.026227858657
-0.0262205217971
-0.0261928561446
-0.0261632328031
-0.0264250403432
-0.0282472423469
-0.0346245856986
-0.0470860353874
-0.18620999081
-0.0262908958944
-0.026299367396
-0.0263033577025
-0.0262943083117
-0.0263006581235
-0.0266352007711
-0.0285991660878
-0.0353507480505
-0.0521027881058
-0.138322057495
-0.0263571156464
-0.0263744941772
-0.0263904426689
-0.0263999962861
-0.0264386038732
-0.0268276009075
-0.0288756940467
-0.0357087846374
-0.0471316698776
0.0399819026623
-0.0264254651051
-0.0264522699729
-0.0264805773509
-0.0265083273326
-0.0265754730443
-0.0270013938837
-0.0290576505024
-0.0356070288775
-0.0422274574013
0.0879536142018
-0.026495071465
-0.0265316928511
-0.0265725018465
-0.0266175933161
-0.0267087002338
-0.0271516873851
-0.0291372659231
-0.0350844097039
-0.0339641439235
0.14723641582
-0.0265651255972
-0.0266118365336
-0.0266651200069
-0.0267265040847
-0.02683705795
-0.027281020996
-0.0291651724638
-0.034963078781
-0.0384984003387
0.163290938761
-0.0266349055799
-0.0266919389485
-0.0267576354571
-0.0268343254996
-0.0269604767413
-0.0273917051475
-0.0290850498899
-0.0336330283759
-0.028346461963
0.11796162872
-0.026703826882
-0.0267714838645
-0.0268497199466
-0.0269410936699
-0.0270795560778
-0.0274864548297
-0.0289492350509
-0.0318247451925
-0.00828252348403
0.088481170585
-0.0267714572474
-0.0268501851165
-0.0269414564714
-0.0270480535629
-0.027199171396
-0.0275841066967
-0.0288295297433
-0.0303047388067
-0.00807023316787
0.0335197039016
-0.0268373777124
-0.0269276979677
-0.0270328370723
-0.0271567219365
-0.0273266547169
-0.0277073008715
-0.0289412161965
-0.0306170815072
-0.0168685711373
0.00836379030828
-0.0269011788189
-0.0270033923478
-0.0271228581336
-0.0272658277124
-0.027462804668
-0.0278567199083
-0.0289884581415
-0.0301700373281
-0.0178529892539
-0.0242472508399
)
;

boundaryField
{
    back
    {
        type            calculated;
        value           nonuniform List<scalar> 
164
(
-0.0260121649838
-0.0259934974588
-0.0259702952515
-0.0259356754681
-0.0258591933941
-0.0256321462438
-0.0249727971691
-0.0234791790806
-0.0214403224575
-0.0212089744617
-0.0240786807562
-0.0114530569819
-0.0260474671971
-0.0260319021374
-0.0260125843126
-0.0259840382733
-0.0259225418585
-0.0257456026824
-0.0252508995101
-0.0242109855918
-0.0231479580647
-0.0244329560279
-0.0289299156698
-0.0135483275376
-0.0260597345744
-0.0260379002366
-0.0259917873094
-0.0258642823195
-0.0255297652674
-0.0249281632089
-0.0248252878652
-0.0276476341381
-0.0340687775065
-0.0156051213742
-0.0261118215162
-0.0260971585611
-0.0260664475954
-0.025985973704
-0.025801727489
-0.025604017034
-0.0264022700955
-0.030668055461
-0.039076342006
-0.017349502045
-0.0261679846059
-0.0261607467492
-0.0261429229576
-0.0260977005902
-0.0260359533109
-0.0262516658461
-0.0277914029731
-0.0332229937119
-0.0434909218837
-0.0199820724003
-0.0262276409633
-0.026227858657
-0.0262205217971
-0.0261928561446
-0.0261632328031
-0.0264250403432
-0.0282472423469
-0.0346245856986
-0.0470860353874
-0.18620999081
-0.0262908958944
-0.026299367396
-0.0263033577025
-0.0262943083117
-0.0263006581235
-0.0266352007711
-0.0285991660878
-0.0353507480505
-0.0521027881058
-0.138322057495
-0.0263571156464
-0.0263744941772
-0.0263904426689
-0.0263999962861
-0.0264386038732
-0.0268276009075
-0.0288756940467
-0.0357087846374
-0.0471316698776
0.0399819026623
-0.0264254651051
-0.0264522699729
-0.0264805773509
-0.0265083273326
-0.0265754730443
-0.0270013938837
-0.0290576505024
-0.0356070288775
-0.0422274574013
0.0879536142018
-0.026495071465
-0.0265316928511
-0.0265725018465
-0.0266175933161
-0.0267087002338
-0.0271516873851
-0.0291372659231
-0.0350844097039
-0.0339641439235
0.14723641582
-0.0265651255972
-0.0266118365336
-0.0266651200069
-0.0267265040847
-0.02683705795
-0.027281020996
-0.0291651724638
-0.034963078781
-0.0384984003387
0.163290938761
-0.0266349055799
-0.0266919389485
-0.0267576354571
-0.0268343254996
-0.0269604767413
-0.0273917051475
-0.0290850498899
-0.0336330283759
-0.028346461963
0.11796162872
-0.026703826882
-0.0267714838645
-0.0268497199466
-0.0269410936699
-0.0270795560778
-0.0274864548297
-0.0289492350509
-0.0318247451925
-0.00828252348403
0.088481170585
-0.0267714572474
-0.0268501851165
-0.0269414564714
-0.0270480535629
-0.027199171396
-0.0275841066967
-0.0288295297433
-0.0303047388067
-0.00807023316787
0.0335197039016
-0.0268373777124
-0.0269276979677
-0.0270328370723
-0.0271567219365
-0.0273266547169
-0.0277073008715
-0.0289412161965
-0.0306170815072
-0.0168685711373
0.00836379030828
-0.0269011788189
-0.0270033923478
-0.0271228581336
-0.0272658277124
-0.027462804668
-0.0278567199083
-0.0289884581415
-0.0301700373281
-0.0178529892539
-0.0242472508399
)
;
    }
    sides
    {
        type            calculated;
        value           nonuniform List<scalar> 0();
    }
    bottom
    {
        type            calculated;
        value           nonuniform List<scalar> 0();
    }
    front
    {
        type            calculated;
        value           nonuniform List<scalar> 
164
(
-0.0260121649838
-0.0259934974588
-0.0259702952515
-0.0259356754681
-0.0258591933941
-0.0256321462438
-0.0249727971691
-0.0234791790806
-0.0214403224575
-0.0212089744617
-0.0240786807562
-0.0114530569819
-0.0260474671971
-0.0260319021374
-0.0260125843126
-0.0259840382733
-0.0259225418585
-0.0257456026824
-0.0252508995101
-0.0242109855918
-0.0231479580647
-0.0244329560279
-0.0289299156698
-0.0135483275376
-0.0260597345744
-0.0260379002366
-0.0259917873094
-0.0258642823195
-0.0255297652674
-0.0249281632089
-0.0248252878652
-0.0276476341381
-0.0340687775065
-0.0156051213742
-0.0261118215162
-0.0260971585611
-0.0260664475954
-0.025985973704
-0.025801727489
-0.025604017034
-0.0264022700955
-0.030668055461
-0.039076342006
-0.017349502045
-0.0261679846059
-0.0261607467492
-0.0261429229576
-0.0260977005902
-0.0260359533109
-0.0262516658461
-0.0277914029731
-0.0332229937119
-0.0434909218837
-0.0199820724003
-0.0262276409633
-0.026227858657
-0.0262205217971
-0.0261928561446
-0.0261632328031
-0.0264250403432
-0.0282472423469
-0.0346245856986
-0.0470860353874
-0.18620999081
-0.0262908958944
-0.026299367396
-0.0263033577025
-0.0262943083117
-0.0263006581235
-0.0266352007711
-0.0285991660878
-0.0353507480505
-0.0521027881058
-0.138322057495
-0.0263571156464
-0.0263744941772
-0.0263904426689
-0.0263999962861
-0.0264386038732
-0.0268276009075
-0.0288756940467
-0.0357087846374
-0.0471316698776
0.0399819026623
-0.0264254651051
-0.0264522699729
-0.0264805773509
-0.0265083273326
-0.0265754730443
-0.0270013938837
-0.0290576505024
-0.0356070288775
-0.0422274574013
0.0879536142018
-0.026495071465
-0.0265316928511
-0.0265725018465
-0.0266175933161
-0.0267087002338
-0.0271516873851
-0.0291372659231
-0.0350844097039
-0.0339641439235
0.14723641582
-0.0265651255972
-0.0266118365336
-0.0266651200069
-0.0267265040847
-0.02683705795
-0.027281020996
-0.0291651724638
-0.034963078781
-0.0384984003387
0.163290938761
-0.0266349055799
-0.0266919389485
-0.0267576354571
-0.0268343254996
-0.0269604767413
-0.0273917051475
-0.0290850498899
-0.0336330283759
-0.028346461963
0.11796162872
-0.026703826882
-0.0267714838645
-0.0268497199466
-0.0269410936699
-0.0270795560778
-0.0274864548297
-0.0289492350509
-0.0318247451925
-0.00828252348403
0.088481170585
-0.0267714572474
-0.0268501851165
-0.0269414564714
-0.0270480535629
-0.027199171396
-0.0275841066967
-0.0288295297433
-0.0303047388067
-0.00807023316787
0.0335197039016
-0.0268373777124
-0.0269276979677
-0.0270328370723
-0.0271567219365
-0.0273266547169
-0.0277073008715
-0.0289412161965
-0.0306170815072
-0.0168685711373
0.00836379030828
-0.0269011788189
-0.0270033923478
-0.0271228581336
-0.0272658277124
-0.027462804668
-0.0278567199083
-0.0289884581415
-0.0301700373281
-0.0178529892539
-0.0242472508399
)
;
    }
    atmosphere
    {
        type            calculated;
        value           nonuniform List<scalar> 
16
(
0
0
0
0
0
-3.01104252037
0.214672490473
-0.443893835852
0.0615356106158
-0.0320221898303
0.16474658796
0
-4.89386750752e-07
-6.72241302332e-07
0.00836379505057
0
)
;
    }
    floatingObject
    {
        type            calculated;
        value           nonuniform List<scalar> 0();
    }
    procBoundary5to0
    {
        type            processor;
        value           nonuniform List<scalar> 
12
(
-0.0259817832484
-0.0259604270907
-0.0259339513256
-0.0258940177785
-0.0258034456224
-0.0255274580542
-0.0247050289669
-0.0227597443188
-0.0197561088457
-0.018060819881
-0.0195188450586
-0.00941185760186
)
;
    }
    procBoundary5to3
    {
        type            processor;
        value           nonuniform List<scalar> 10(-0.0269631042494 -0.0270771804158 -0.0272096774923 -0.0273675961444 -0.0275753826289 -0.0279434582338 -0.0287631312702 -0.0269313405213 0.0346207850647 0.0131126558203);
    }
    procBoundary5to4
    {
        type            processor;
        value           nonuniform List<scalar> 
18
(
-0.0260280882804
-0.0260607882846
-0.0260865228402
-0.0260744705964
-0.0260744705964
-0.0261218177424
-0.0261723797853
-0.0262261220738
-0.0262828287626
-0.026341880723
-0.0264025604137
-0.0264641021928
-0.026525722248
-0.0265867114849
-0.0266464675882
-0.0267044630246
-0.0267603038627
-0.0268136372728
)
;
    }
}


// ************************************************************************* //
