/*--------------------------------*- C++ -*----------------------------------*\
| =========                 |                                                 |
| \\      /  F ield         | OpenFOAM: The Open Source CFD Toolbox           |
|  \\    /   O peration     | Version:  v2012                                 |
|   \\  /    A nd           | Website:  www.openfoam.com                      |
|    \\/     M anipulation  |                                                 |
\*---------------------------------------------------------------------------*/
FoamFile
{
    version     2.0;
    format      ascii;
    class       volScalarField;
    location    "3.8";
    object      rAU;
}
// * * * * * * * * * * * * * * * * * * * * * * * * * * * * * * * * * * * * * //

dimensions      [-1 3 1 0 0 0 0];


internalField   nonuniform List<scalar> 
166
(
2.19762426219e-05
2.17989484166e-05
2.17771790268e-05
2.17697424586e-05
2.17658853616e-05
2.17634326495e-05
2.17614552415e-05
2.17591525102e-05
2.17563366527e-05
2.17529608635e-05
2.17487455217e-05
2.17432100986e-05
2.17352024482e-05
2.17249289564e-05
2.16672977744e-05
2.17600290679e-05
2.13979305796e-05
3.36741872492e-05
0.00083758310649
0.011615348356
2.19778844491e-05
2.180056417e-05
2.17788455589e-05
2.17715122596e-05
2.17676898034e-05
2.17650055149e-05
2.17628197526e-05
2.17604086813e-05
2.17574855056e-05
2.17539551689e-05
2.1749722771e-05
2.17442155167e-05
2.17354853453e-05
2.17256446914e-05
2.16673541688e-05
2.16808014584e-05
2.13325478403e-05
3.56189955914e-05
0.00117741935426
0.00948456484516
2.19795499543e-05
2.18020500704e-05
2.1780238138e-05
2.17730317158e-05
2.17692780828e-05
2.17664678032e-05
2.17640788162e-05
2.17615437928e-05
2.17586187569e-05
2.17550777382e-05
2.17507881348e-05
2.17454948099e-05
2.17372334798e-05
2.17268875965e-05
2.16718056447e-05
2.1488749345e-05
2.14268243732e-05
3.86292165163e-05
0.00175043980582
0.0146632423947
2.19808636567e-05
2.18034591622e-05
2.17813939374e-05
2.17742568723e-05
2.17705102993e-05
2.17675816929e-05
2.17651185507e-05
2.17625323208e-05
2.17595385745e-05
2.17561297881e-05
2.17520250934e-05
2.1746986664e-05
2.17395022942e-05
2.17300443152e-05
2.16782385183e-05
2.14164352714e-05
2.13459383809e-05
4.07544193464e-05
0.00249576591504
0.0149431711447
2.19820224268e-05
2.18047395182e-05
2.17823153017e-05
2.17751957292e-05
2.17714430638e-05
2.17684216156e-05
2.1765903546e-05
2.17633549666e-05
2.17605256972e-05
2.17571910066e-05
2.17532349013e-05
2.17483813879e-05
2.17413999567e-05
2.17343526661e-05
2.16853241365e-05
2.14507569589e-05
2.13701636665e-05
4.28435827948e-05
0.00337613175968
0.015256894143
2.19833776908e-05
2.18059340134e-05
2.17830467106e-05
2.17759447628e-05
2.17722094543e-05
2.1769137047e-05
2.17666294559e-05
2.17641160637e-05
2.17613844689e-05
2.17582265035e-05
2.17543591675e-05
2.17495805431e-05
2.1743002418e-05
2.17371430444e-05
2.16916327382e-05
2.15026610083e-05
2.1407874257e-05
4.48843473286e-05
0.00432859005537
0.015709519791
2.19843140689e-05
2.18070138988e-05
2.17835730831e-05
2.17765472279e-05
2.17728089779e-05
2.17697210222e-05
2.17672048202e-05
2.17647712813e-05
2.17622005968e-05
2.17591679681e-05
2.17554127331e-05
2.1750866899e-05
2.17445665297e-05
2.17368566051e-05
2.16931160837e-05
2.15404120968e-05
2.1502605574e-05
4.6572303456e-05
0.00520273386263
0.0201207969968
2.19851839404e-05
2.18078494304e-05
2.17839002559e-05
2.17769733054e-05
2.17732552e-05
2.17701765161e-05
2.1767736077e-05
2.17654213708e-05
2.17629320593e-05
2.17600870516e-05
2.17566921411e-05
2.17526217795e-05
2.17464510067e-05
2.17353626128e-05
2.16920404101e-05
2.15651783933e-05
2.16151061069e-05
4.80128703627e-05
0.00576101091114
0.0203960987827
2.19862537081e-05
2.18086945326e-05
2.17842017821e-05
2.19869804076e-05
2.19877068821e-05
2.19884850946e-05
)
;

boundaryField
{
    back
    {
        type            calculated;
        value           nonuniform List<scalar> 
166
(
2.19762426219e-05
2.17989484166e-05
2.17771790268e-05
2.17697424586e-05
2.17658853616e-05
2.17634326495e-05
2.17614552415e-05
2.17591525102e-05
2.17563366527e-05
2.17529608635e-05
2.17487455217e-05
2.17432100986e-05
2.17352024482e-05
2.17249289564e-05
2.16672977744e-05
2.17600290679e-05
2.13979305796e-05
3.36741872492e-05
0.00083758310649
0.011615348356
2.19778844491e-05
2.180056417e-05
2.17788455589e-05
2.17715122596e-05
2.17676898034e-05
2.17650055149e-05
2.17628197526e-05
2.17604086813e-05
2.17574855056e-05
2.17539551689e-05
2.1749722771e-05
2.17442155167e-05
2.17354853453e-05
2.17256446914e-05
2.16673541688e-05
2.16808014584e-05
2.13325478403e-05
3.56189955914e-05
0.00117741935426
0.00948456484516
2.19795499543e-05
2.18020500704e-05
2.1780238138e-05
2.17730317158e-05
2.17692780828e-05
2.17664678032e-05
2.17640788162e-05
2.17615437928e-05
2.17586187569e-05
2.17550777382e-05
2.17507881348e-05
2.17454948099e-05
2.17372334798e-05
2.17268875965e-05
2.16718056447e-05
2.1488749345e-05
2.14268243732e-05
3.86292165163e-05
0.00175043980582
0.0146632423947
2.19808636567e-05
2.18034591622e-05
2.17813939374e-05
2.17742568723e-05
2.17705102993e-05
2.17675816929e-05
2.17651185507e-05
2.17625323208e-05
2.17595385745e-05
2.17561297881e-05
2.17520250934e-05
2.1746986664e-05
2.17395022942e-05
2.17300443152e-05
2.16782385183e-05
2.14164352714e-05
2.13459383809e-05
4.07544193464e-05
0.00249576591504
0.0149431711447
2.19820224268e-05
2.18047395182e-05
2.17823153017e-05
2.17751957292e-05
2.17714430638e-05
2.17684216156e-05
2.1765903546e-05
2.17633549666e-05
2.17605256972e-05
2.17571910066e-05
2.17532349013e-05
2.17483813879e-05
2.17413999567e-05
2.17343526661e-05
2.16853241365e-05
2.14507569589e-05
2.13701636665e-05
4.28435827948e-05
0.00337613175968
0.015256894143
2.19833776908e-05
2.18059340134e-05
2.17830467106e-05
2.17759447628e-05
2.17722094543e-05
2.1769137047e-05
2.17666294559e-05
2.17641160637e-05
2.17613844689e-05
2.17582265035e-05
2.17543591675e-05
2.17495805431e-05
2.1743002418e-05
2.17371430444e-05
2.16916327382e-05
2.15026610083e-05
2.1407874257e-05
4.48843473286e-05
0.00432859005537
0.015709519791
2.19843140689e-05
2.18070138988e-05
2.17835730831e-05
2.17765472279e-05
2.17728089779e-05
2.17697210222e-05
2.17672048202e-05
2.17647712813e-05
2.17622005968e-05
2.17591679681e-05
2.17554127331e-05
2.1750866899e-05
2.17445665297e-05
2.17368566051e-05
2.16931160837e-05
2.15404120968e-05
2.1502605574e-05
4.6572303456e-05
0.00520273386263
0.0201207969968
2.19851839404e-05
2.18078494304e-05
2.17839002559e-05
2.17769733054e-05
2.17732552e-05
2.17701765161e-05
2.1767736077e-05
2.17654213708e-05
2.17629320593e-05
2.17600870516e-05
2.17566921411e-05
2.17526217795e-05
2.17464510067e-05
2.17353626128e-05
2.16920404101e-05
2.15651783933e-05
2.16151061069e-05
4.80128703627e-05
0.00576101091114
0.0203960987827
2.19862537081e-05
2.18086945326e-05
2.17842017821e-05
2.19869804076e-05
2.19877068821e-05
2.19884850946e-05
)
;
    }
    sides
    {
        type            calculated;
        value           nonuniform List<scalar> 0();
    }
    bottom
    {
        type            calculated;
        value           nonuniform List<scalar> 
12
(
2.19762426219e-05
2.19778844491e-05
2.19795499543e-05
2.19808636567e-05
2.19820224268e-05
2.19833776908e-05
2.19843140689e-05
2.19851839404e-05
2.19862537081e-05
2.19869804076e-05
2.19877068821e-05
2.19884850946e-05
)
;
    }
    front
    {
        type            calculated;
        value           nonuniform List<scalar> 
166
(
2.19762426219e-05
2.17989484166e-05
2.17771790268e-05
2.17697424586e-05
2.17658853616e-05
2.17634326495e-05
2.17614552415e-05
2.17591525102e-05
2.17563366527e-05
2.17529608635e-05
2.17487455217e-05
2.17432100986e-05
2.17352024482e-05
2.17249289564e-05
2.16672977744e-05
2.17600290679e-05
2.13979305796e-05
3.36741872492e-05
0.00083758310649
0.011615348356
2.19778844491e-05
2.180056417e-05
2.17788455589e-05
2.17715122596e-05
2.17676898034e-05
2.17650055149e-05
2.17628197526e-05
2.17604086813e-05
2.17574855056e-05
2.17539551689e-05
2.1749722771e-05
2.17442155167e-05
2.17354853453e-05
2.17256446914e-05
2.16673541688e-05
2.16808014584e-05
2.13325478403e-05
3.56189955914e-05
0.00117741935426
0.00948456484516
2.19795499543e-05
2.18020500704e-05
2.1780238138e-05
2.17730317158e-05
2.17692780828e-05
2.17664678032e-05
2.17640788162e-05
2.17615437928e-05
2.17586187569e-05
2.17550777382e-05
2.17507881348e-05
2.17454948099e-05
2.17372334798e-05
2.17268875965e-05
2.16718056447e-05
2.1488749345e-05
2.14268243732e-05
3.86292165163e-05
0.00175043980582
0.0146632423947
2.19808636567e-05
2.18034591622e-05
2.17813939374e-05
2.17742568723e-05
2.17705102993e-05
2.17675816929e-05
2.17651185507e-05
2.17625323208e-05
2.17595385745e-05
2.17561297881e-05
2.17520250934e-05
2.1746986664e-05
2.17395022942e-05
2.17300443152e-05
2.16782385183e-05
2.14164352714e-05
2.13459383809e-05
4.07544193464e-05
0.00249576591504
0.0149431711447
2.19820224268e-05
2.18047395182e-05
2.17823153017e-05
2.17751957292e-05
2.17714430638e-05
2.17684216156e-05
2.1765903546e-05
2.17633549666e-05
2.17605256972e-05
2.17571910066e-05
2.17532349013e-05
2.17483813879e-05
2.17413999567e-05
2.17343526661e-05
2.16853241365e-05
2.14507569589e-05
2.13701636665e-05
4.28435827948e-05
0.00337613175968
0.015256894143
2.19833776908e-05
2.18059340134e-05
2.17830467106e-05
2.17759447628e-05
2.17722094543e-05
2.1769137047e-05
2.17666294559e-05
2.17641160637e-05
2.17613844689e-05
2.17582265035e-05
2.17543591675e-05
2.17495805431e-05
2.1743002418e-05
2.17371430444e-05
2.16916327382e-05
2.15026610083e-05
2.1407874257e-05
4.48843473286e-05
0.00432859005537
0.015709519791
2.19843140689e-05
2.18070138988e-05
2.17835730831e-05
2.17765472279e-05
2.17728089779e-05
2.17697210222e-05
2.17672048202e-05
2.17647712813e-05
2.17622005968e-05
2.17591679681e-05
2.17554127331e-05
2.1750866899e-05
2.17445665297e-05
2.17368566051e-05
2.16931160837e-05
2.15404120968e-05
2.1502605574e-05
4.6572303456e-05
0.00520273386263
0.0201207969968
2.19851839404e-05
2.18078494304e-05
2.17839002559e-05
2.17769733054e-05
2.17732552e-05
2.17701765161e-05
2.1767736077e-05
2.17654213708e-05
2.17629320593e-05
2.17600870516e-05
2.17566921411e-05
2.17526217795e-05
2.17464510067e-05
2.17353626128e-05
2.16920404101e-05
2.15651783933e-05
2.16151061069e-05
4.80128703627e-05
0.00576101091114
0.0203960987827
2.19862537081e-05
2.18086945326e-05
2.17842017821e-05
2.19869804076e-05
2.19877068821e-05
2.19884850946e-05
)
;
    }
    atmosphere
    {
        type            calculated;
        value           nonuniform List<scalar> 8(0.011615348356 0.00948456484516 0.0146632423947 0.0149431711447 0.015256894143 0.015709519791 0.0201207969968 0.0203960987827);
    }
    floatingObject
    {
        type            calculated;
        value           nonuniform List<scalar> 0();
    }
    procBoundary9to6
    {
        type            processor;
        value           nonuniform List<scalar> 4(2.1479227852e-05 3.21742661332e-05 0.000625654078811 0.0119789438784);
    }
    procBoundary9to7
    {
        type            processor;
        value           nonuniform List<scalar> 
16
(
2.19741095673e-05
2.17970365467e-05
2.17751566499e-05
2.17676695723e-05
2.17638438127e-05
2.17616907185e-05
2.17599742253e-05
2.17578767082e-05
2.17552503996e-05
2.17520079061e-05
2.17479223496e-05
2.17427006375e-05
2.17345634219e-05
2.17263302327e-05
2.16717641228e-05
2.17574944483e-05
)
;
    }
    procBoundary9to10
    {
        type            processor;
        value           nonuniform List<scalar> 
15
(
2.17773099898e-05
2.17736772792e-05
2.17706011944e-05
2.17682110808e-05
2.17659900393e-05
2.17636321879e-05
2.17610327139e-05
2.17581098493e-05
2.18096584284e-05
2.17773099898e-05
2.17844705679e-05
2.18096584284e-05
2.18105068829e-05
2.1811180886e-05
2.1988964397e-05
)
;
    }
    procBoundary9to11
    {
        type            processor;
        value           nonuniform List<scalar> 9(2.17544002644e-05 2.17485920624e-05 2.17360662908e-05 2.16945780156e-05 2.15895358218e-05 2.17102798565e-05 4.94594367419e-05 0.00597800478622 0.0205788175011);
    }
}


// ************************************************************************* //
