/*--------------------------------*- C++ -*----------------------------------*\
| =========                 |                                                 |
| \\      /  F ield         | OpenFOAM: The Open Source CFD Toolbox           |
|  \\    /   O peration     | Version:  v2012                                 |
|   \\  /    A nd           | Website:  www.openfoam.com                      |
|    \\/     M anipulation  |                                                 |
\*---------------------------------------------------------------------------*/
FoamFile
{
    version     2.0;
    format      ascii;
    class       surfaceVectorField;
    location    "3.8";
    object      Uf;
}
// * * * * * * * * * * * * * * * * * * * * * * * * * * * * * * * * * * * * * //

dimensions      [0 1 -1 0 0 0 0];


internalField   nonuniform List<vector> 
300
(
(0.0165159877306 0.00158347968516 -3.57119746541e-22)
(0.0165169999744 0.000815153997346 -4.89384179948e-22)
(0.0152620776922 0.00315451803698 -1.76715613434e-22)
(0.0149606050228 0.00239958487108 -2.25376692105e-22)
(0.014573240355 0.00475397416435 -3.81651626884e-23)
(0.0140051396777 0.0039633923914 -1.02153218853e-22)
(0.0143133940459 0.00643240415197 3.17102457015e-23)
(0.0135329964342 0.00561188565279 2.48659309993e-23)
(0.0143048969222 0.00823975201168 8.23828529937e-24)
(0.0133835900756 0.0073512713202 9.69773827883e-24)
(0.0143996226056 0.010224793159 -2.39554803176e-24)
(0.0133647041686 0.00923971068549 -4.65292616597e-24)
(0.0145258112929 0.0124372943355 7.53606046636e-25)
(0.0133735109034 0.0113268597498 5.2714053968e-24)
(0.0146524144688 0.0149342692653 3.59509260469e-24)
(0.0133642400655 0.013661907614 1.95933074455e-24)
(0.0147608987025 0.0177818631974 7.01521071133e-24)
(0.0133142424737 0.0163054481329 1.00621132096e-23)
(0.0148366692965 0.0210597601413 5.14113833608e-25)
(0.013196903497 0.0193301075817 1.70763246352e-23)
(0.0148679047236 0.0248632774868 -1.40909329372e-23)
(0.0129942969291 0.0228195700178 -9.00226513724e-24)
(0.0148534153393 0.0293067863537 -6.03544729261e-23)
(0.0126796591459 0.0268733629041 -4.90643465878e-23)
(0.0148243686257 0.0345427483767 -1.72652673057e-22)
(0.0122545163835 0.0316103475094 -1.75627146934e-22)
(0.0147603265486 0.0407183662633 -9.61165791616e-22)
(0.0117557606388 0.0371958381381 -5.55005265003e-22)
(0.0143077162124 0.0477598841833 -3.14565648305e-22)
(0.0112266760333 0.0434957711402 -1.73115083219e-21)
(0.0132106687684 0.0558322966172 -2.01231337305e-21)
(0.00996898292073 0.0530936548892 4.73510182986e-22)
(0.014304108628 0.0647335298276 -1.15991419598e-20)
(0.00811012767997 0.054566045777 -5.26423468713e-21)
(0.0710032217097 0.0753599728677 -1.50540959105e-20)
(0.0105315994047 0.0562889603137 -1.84988869888e-20)
(0.282742331359 0.106400554769 -1.29220912745e-20)
(0.111962555451 0.0749311118314 -1.54684111655e-20)
(0.272657848944 0.434430627811 -1.47473064396e-20)
(0.0149331192545 0.00159948092642 -3.57641125512e-22)
(0.014917182054 0.000810050023972 -4.86200808159e-22)
(0.0136720616141 0.00317899732611 -1.50814297524e-22)
(0.013380803874 0.0024020639802 -2.03223699254e-22)
(0.0129311467159 0.00478520589003 -3.91221251654e-23)
(0.0123987741271 0.00395453591134 -9.57424540844e-23)
(0.0125702052487 0.00646543691922 2.85342357663e-24)
(0.0118527918387 0.00559028169803 -2.04548913181e-23)
(0.0124125720479 0.00826674950134 -3.1934731865e-24)
(0.011582515404 0.00730814297257 -1.3929565929e-23)
(0.0123104705011 0.0102346929418 3.01402726259e-24)
(0.0113971999146 0.00916372487874 -8.04343232404e-24)
(0.0121872959342 0.0124195138746 6.47713009472e-24)
(0.0111892722253 0.011203345783 4.0412852757e-24)
(0.0120050792692 0.0148692968362 8.42635134942e-24)
(0.0109150750982 0.0134729574378 2.9962374656e-24)
(0.0117354838249 0.0176516098148 2.01232271334e-23)
(0.0105324423723 0.0160274626899 8.2511393613e-24)
(0.0113472185694 0.0208372837112 7.55994566432e-24)
(0.0100114974171 0.0189312603803 1.34335043096e-23)
(0.0108104750618 0.0245222298819 -4.39756787879e-23)
(0.00930927836449 0.0222633074073 -1.12193562179e-23)
(0.010103481251 0.0288073209033 -1.64337020596e-22)
(0.00839414454747 0.0261126155715 -1.08166306023e-22)
(0.00923623341054 0.0338285882621 -5.57979738879e-22)
(0.00723255347354 0.0305840194245 -3.32535651215e-22)
(0.00824058107253 0.0397180575731 -1.32499030557e-21)
(0.00586547528006 0.0358642881213 -1.08641267655e-21)
(0.0068963078068 0.0466197572716 -9.43075000895e-22)
(0.004324211535 0.0417934636524 -1.93362930342e-21)
(0.00480722964879 0.0542065337391 -2.7784111311e-21)
(0.00238169499433 0.0508104207939 -1.4501063174e-21)
(0.00392032929727 0.0631707766265 -1.21639797161e-20)
(-0.000854256098153 0.0510771915072 -6.37445140066e-21)
(0.0346941794031 0.0759211944957 -1.89132022438e-20)
(-0.00221958970412 0.0527019946945 -1.60604893469e-20)
(-0.0166557395005 0.166448487426 -1.72936263306e-20)
(0.0214388163384 0.0719081405217 -1.18557574929e-20)
(-0.495176911834 0.378032035639 -7.81138884425e-21)
(0.013350724977 0.00157990219179 -3.31783381901e-22)
(0.0133369613341 0.000789971681476 -4.85536829509e-22)
(0.0120881426841 0.00314381913801 -1.48151855814e-22)
(0.0118166092762 0.00236185826358 -2.15776536963e-22)
(0.0113018512596 0.00472488353306 -7.70752202371e-23)
(0.0108175324223 0.00387338896822 -1.48152620814e-22)
(0.0108479967392 0.00637029592503 -3.72378808238e-23)
(0.0102073454456 0.00546309793768 -6.48884251854e-23)
(0.0105517544082 0.00812664830663 -1.87795250665e-23)
(0.00982629401974 0.00712247990779 -3.56550353329e-23)
(0.010267891756 0.0100299066526 -7.01617431093e-24)
(0.00949422998978 0.0089060342299 -1.32655841823e-23)
(0.00991631294792 0.012132459013 5.60392646579e-25)
(0.00908712152276 0.0108526930504 -4.539019827e-24)
(0.00945037701266 0.0144764749364 2.82102547748e-24)
(0.00857149226196 0.0130017950708 1.96109574247e-24)
(0.00883120093712 0.0171185553684 1.56141653752e-24)
(0.0078907193803 0.0154018004776 7.34387426488e-24)
(0.00801595951169 0.0201172469001 -5.3457975726e-24)
(0.00701298121885 0.0181078468293 5.91276978123e-24)
(0.00695566214074 0.0235607276053 -7.54099834528e-23)
(0.00586571844917 0.021185450455 -5.00183464866e-24)
(0.00561061409014 0.0275508047829 -2.76364936642e-22)
(0.004403724192 0.0247098814738 -1.44222755222e-22)
(0.00398525312457 0.0321929749846 -8.60968588881e-22)
(0.00258983746723 0.0287670476175 -4.54989364243e-22)
(0.00212414445224 0.0375951691603 -1.6950516744e-21)
(0.000462649655663 0.0335125126194 -1.43145849155e-21)
(1.40846628218e-05 0.0438128955121 -2.44066061993e-21)
(-0.00189408977596 0.038794862236 -2.61096678528e-21)
(-0.00296450443899 0.0506018031412 -5.04614658696e-21)
(-0.00440757934979 0.0468011232659 -1.41881181106e-21)
(-0.00576349833632 0.0584084150842 -1.02709610314e-20)
(-0.00866099140288 0.0457962896561 -7.24254096352e-21)
(-0.0026622626513 0.0676372356287 -9.0030445959e-21)
(-0.0114481541483 0.0473068567069 -1.57328393696e-20)
(-0.281906290711 0.0950916477142 -2.37352000648e-21)
(-0.00601348885666 0.0631445456913 -1.57917035447e-20)
(-0.503641564698 0.0447148058043 6.13992215776e-21)
(0.0118001915795 0.00153748206758 -3.69529984572e-22)
(0.0117991829396 0.000753902549534 -5.0363171045e-22)
(0.0105405440786 0.00305430721906 -2.15777301963e-22)
(0.0102995210339 0.00228012968102 -2.51074114079e-22)
(0.0097193039476 0.00457931357166 -1.35965825763e-22)
(0.00929234142082 0.00372647412652 -2.2992812646e-22)
(0.00918541295156 0.00615704170072 -6.33055796946e-23)
(0.00862954364423 0.00524034448994 -9.67610513986e-23)
(0.00876805065554 0.00782926595025 -3.01410944487e-23)
(0.00815412356749 0.0068097859834 -4.69303673065e-23)
(0.00832315774144 0.00963685831256 -1.07884296983e-23)
(0.00768681332198 0.00848582216918 -1.32295725879e-23)
(0.00776798778992 0.0116077438371 -3.13831673111e-24)
(0.00711650111995 0.0102989198619 -5.50192574336e-24)
(0.0070513282604 0.0137868833024 6.48394452988e-24)
(0.00639264528142 0.0122811711385 -2.60842597109e-24)
(0.00612634162037 0.0162207417737 1.16952275086e-23)
(0.00545710082234 0.0144716556262 -3.34252774044e-24)
(0.00493874346606 0.0189640357624 6.25673270517e-24)
(0.00426979375267 0.0169131603973 -1.01600086073e-23)
(0.00342573197585 0.0220737676055 -7.38146064183e-23)
(0.00275590646462 0.0196547277018 -9.20733742802e-24)
(0.00153462276055 0.02562875299 -3.22847182824e-22)
(0.000848464991256 0.0227548863455 -1.3367889963e-22)
(-0.000736339406836 0.0297229339977 -1.02547926691e-21)
(-0.00150476176871 0.0262691814391 -4.71887167185e-22)
(-0.00328086963218 0.0344390962122 -2.34737360243e-21)
(-0.00425398514877 0.0303086605063 -1.48032959739e-21)
(-0.00596125401417 0.0396870375108 -1.58911797641e-21)
(-0.00714244805501 0.0346584739214 -3.11237588602e-21)
(-0.00959525490871 0.0453766733163 -3.61520618762e-21)
(-0.0100974693098 0.0413616649039 8.25240526931e-22)
(-0.0134775709503 0.0517977308536 -1.27044193016e-20)
(-0.0150821202115 0.0394355656024 -8.45862415904e-21)
(-0.0107853436116 0.0594666674392 -2.25214983184e-20)
(-0.0191171771448 0.0408665177324 -1.97239424395e-20)
(-0.215548931284 0.0625644907441 -7.27826138049e-21)
(-0.0091122559332 0.0591852799012 -3.18417239909e-20)
(-0.330430392822 -0.050841175159 1.28853823442e-20)
(0.0103037579483 0.00147603927196 -3.85175839957e-22)
(0.0103228754493 0.000706952171877 -4.7634566099e-22)
(0.00905790680956 0.00291772402392 -2.65224938576e-22)
(0.00885759301357 0.00216486047704 -2.47500254358e-22)
(0.00821227646365 0.0043591374535 -1.90723352096e-22)
(0.00785074180789 0.00352274671586 -2.2460316737e-22)
(0.00761287737446 0.0058412464922 -8.03858390105e-23)
(0.00714732896761 0.00493520840381 -7.67379614777e-23)
(0.00709336393484 0.0074010914707 -3.00188454457e-23)
(0.00659426567993 0.00638816402788 -3.46277654216e-23)
(0.00651195496841 0.00906917222514 -7.94306863288e-24)
(0.00601880993626 0.0079268537051 -9.83396394152e-24)
(0.00578590633916 0.0108719053333 -4.97203498334e-24)
(0.00531391451196 0.00957354287276 -5.04442975891e-24)
(0.00486172346258 0.012845121943 -1.24348982414e-23)
(0.00441960140931 0.0113527557472 -4.58589757083e-24)
(0.00368619916242 0.0150164792001 -2.51977638563e-23)
(0.00328588576735 0.0132908212865 -1.52331996973e-23)
(0.00219591518757 0.0174303246068 -2.56240787405e-23)
(0.00185600137836 0.01541530314 -2.49627266835e-23)
(0.000322767858058 0.0201191917986 -6.90716306396e-23)
(6.69641104374e-05 0.01776195521 -3.66657465486e-23)
(-0.00199502336346 0.0231516228695 -2.82718883991e-22)
(-0.00218417480045 0.0203648726725 -9.84226109925e-23)
(-0.00476268641881 0.0265689733323 -9.26737497664e-22)
(-0.00492241724254 0.0232385186669 -3.46305488894e-22)
(-0.00779031555139 0.0304197815678 -2.24533188098e-21)
(-0.00810512790379 0.0264635049981 -1.13524180836e-21)
(-0.010803392704 0.034622526662 -6.9801738268e-22)
(-0.011345477471 0.0297263935844 -2.7436424276e-21)
(-0.0149294109907 0.0389282142486 -4.01817744449e-21)
(-0.0144033206737 0.0350089529235 1.77399909244e-22)
(-0.0197038665501 0.0440400952809 -1.54781472969e-20)
(-0.0201940625246 0.0325407933231 -7.86269490351e-21)
(-0.0124857276607 0.0497805508674 -2.90441681121e-20)
(-0.0248567191029 0.0339379647867 -1.6601137173e-20)
(-0.125633254704 0.0360567440474 -1.16780802662e-20)
(0.00461278961952 0.052726537917 -2.49763305195e-20)
(-0.155384455657 -0.031340880741 2.0876418089e-21)
(0.00888843374547 0.00139357533979 -3.38670075391e-22)
(0.00892906457407 0.000650382004588 -3.32318902736e-22)
(0.00766450006867 0.00273572318459 -2.06878483152e-22)
(0.0075152266468 0.00202197402576 -1.123423639e-22)
(0.00680468406907 0.00407447626249 -1.10617776751e-22)
(0.00651180667647 0.00327192596423 -6.10690641081e-23)
(0.00615492897595 0.00544099048102 -3.09798878888e-23)
(0.00578065544371 0.00456291414136 9.05906525433e-24)
(0.00555520780609 0.00686039487825 -1.44428839173e-23)
(0.0051747539363 0.00587944003652 -3.08657026073e-24)
(0.00486736514674 0.00836449048459 -6.93532506755e-24)
(0.00451466142168 0.00725916353243 -1.01594681507e-23)
(0.00400955290519 0.00997094625815 -4.6582923464e-24)
(0.00370746315724 0.00871572438193 -6.70002553416e-24)
(0.00292584549578 0.0116997014443 -7.38419902671e-24)
(0.00269088055512 0.0102645048545 2.53431115937e-24)
(0.00156138161601 0.0135728590063 -1.49981625244e-23)
(0.00141276733417 0.0119208821191 2.54471232063e-24)
(-0.000146255005333 0.0156044001734 -3.60043944916e-23)
(-0.000175541222987 0.0136997325177 -5.54753497849e-24)
(-0.00227048152565 0.0178363723739 -6.60167269014e-23)
(-0.00216507128566 0.0156170907627 -4.35026568852e-23)
(-0.00487883765082 0.020268070431 -1.62009215896e-22)
(-0.00461602909795 0.0176780411896 -8.44466139316e-23)
(-0.00796490839741 0.0229241550138 -5.54809799589e-22)
(-0.0075787156672 0.0198603336857 -2.37876791831e-22)
(-0.0112808334377 0.0257991968403 -1.63355235498e-21)
(-0.0109803904867 0.0222184180132 -8.5135984917e-22)
(-0.0144645946324 0.0288496722548 -1.86822513568e-21)
(-0.0143961244685 0.0244071416093 -2.39166879278e-21)
(-0.0190468148756 0.0320093502094 -3.66711754978e-21)
(-0.0175630811722 0.0283572156287 -1.74459803512e-21)
(-0.0246738388738 0.0359471229399 -8.98568477964e-21)
(-0.0241318517737 0.0256813514819 -5.44882129079e-21)
(-0.0124925818415 0.0410295831801 -1.25332995805e-20)
(-0.0299392670072 0.0268640144212 -1.16713236784e-20)
(-0.048562958849 0.0464712797745 -1.12106084444e-20)
(-0.00082620754034 0.0423786338146 -1.20156445043e-20)
(-0.0702675127375 0.014758267846 -2.34141746369e-21)
(0.00757859684057 0.00128585900132 -1.05991191245e-22)
(0.00764300836446 0.000584308095634 -1.62071961198e-22)
(0.00638243571262 0.00252276060894 3.34670551433e-23)
(0.0062781276207 0.00185573205667 9.35918754925e-23)
(0.00551830757197 0.0037389695019 5.86077778971e-23)
(0.00529532194277 0.00298368118069 9.57837194314e-23)
(0.0048349522646 0.00496850630206 3.69523828824e-23)
(0.00455086784419 0.00414025785335 6.48311604617e-23)
(0.00417813993556 0.00623712451172 1.19684550593e-24)
(0.00390589127508 0.00530695825409 -4.31928799407e-24)
(0.00341354058702 0.00755796397091 -9.9241686173e-24)
(0.00319362811331 0.00651263334242 -1.35623834045e-23)
(0.0024630336859 0.00894535659601 4.92577971619e-25)
(0.00231991238438 0.00776429788757 -5.01396661407e-24)
(0.0012727564933 0.0104111493375 1.24632225067e-23)
(0.00122500069998 0.00906901881932 1.32584152055e-23)
(-0.000209967093399 0.0119604795465 1.19953398666e-23)
(-0.000136621244249 0.0104321457296 2.76030153839e-23)
(-0.00204710220178 0.0136052328313 -1.30457973721e-23)
(-0.00182031653198 0.01185400723 1.10443670847e-23)
(-0.00431176873994 0.015335724909 -6.19325439153e-23)
(-0.00389564980668 0.0133310603 -2.56617331125e-23)
(-0.00706268354788 0.0171447608525 -1.60314189867e-22)
(-0.00642515428747 0.0148448557658 -9.35172770903e-23)
(-0.010277179498 0.0190187367625 -5.34426841411e-22)
(-0.00945281897398 0.0163415313013 -2.45486546786e-22)
(-0.0137058256063 0.020915077556 -1.60947628697e-21)
(-0.0128768474812 0.0178504085002 -9.22612140726e-22)
(-0.0170579006345 0.0228711720666 -2.26804169222e-21)
(-0.0163522817127 0.0190682434734 -2.84302000542e-21)
(-0.0220777069297 0.0251537272824 -3.52630177613e-21)
(-0.0198456514968 0.0218189083334 -5.12231783488e-21)
(-0.0285213070987 0.0278879403795 -8.13446018955e-21)
(-0.026866087114 0.0190284524642 -6.65478447524e-21)
(-0.0191570847335 0.0312671596566 -1.11536686022e-20)
(-0.0333152739858 0.0197182582499 -1.11325628704e-20)
(-0.0330737616699 0.0437336587345 -3.14645352361e-21)
(-0.0132962804072 0.0305719832966 -1.09403769431e-20)
(-0.0382106623847 0.0252020633142 1.02479579511e-21)
(0.00637956666844 0.00116916619937 3.75111055397e-23)
(0.00647364499011 0.000519018652877 -7.52879390817e-23)
(0.00522267495421 0.00228027440242 1.55908539781e-22)
(0.00516673799128 0.0016772307958 1.85214746113e-22)
(0.00436531581722 0.00336572517907 1.02007101996e-22)
(0.0042096003942 0.00266993678981 1.08987514901e-22)
(0.00366537460665 0.0044495769458 2.35594895853e-23)
(0.00297346146058 0.00555094371615 -1.90785169045e-23)
(0.00216222889385 0.00668193221285 -8.65218140127e-24)
(0.0011599028262 0.0078417883307 7.7518706198e-24)
(-8.4189957553e-05 0.00903915966215 2.83982080827e-23)
(-0.00162030895055 0.0102659005452 2.6652042602e-23)
(-0.00350546491879 0.011514229204 -1.57156865567e-24)
(-0.0058011960578 0.0127620854217 -5.72464662874e-23)
(-0.00855046922358 0.0139803699966 -1.7868963401e-22)
(-0.0117201382285 0.0151090104014 -6.33671846101e-22)
(-0.0151135496629 0.0161165088747 -2.15615585918e-21)
(-0.018673606481 0.0170876619198 -5.69729614807e-21)
(-0.0240000573973 0.0184968184508 -8.25080053399e-21)
(-0.0306432629815 0.0197131798674 -9.65288715606e-21)
(-0.0257878846696 0.0205108439975 -1.09192712113e-20)
(-0.0226935640104 0.0291767645816 -6.76912762439e-21)
(0.00530110429361 0.00103821861719 7.24157014915e-23)
(0.00543524506875 0.000454391197151 -3.70789263956e-23)
(0.00418879327931 0.00202481390983 1.38293721234e-22)
(0.0045186655191 0.000383923257691 5.44671167782e-23)
(0.00372049188016 0.000316769953447 2.0142500479e-22)
)
;

boundaryField
{
    back
    {
        type            calculated;
        value           uniform (0 0 0);
    }
    sides
    {
        type            calculated;
        value           nonuniform List<vector> 0();
    }
    bottom
    {
        type            calculated;
        value           uniform (0 0 0);
    }
    front
    {
        type            calculated;
        value           uniform (0 0 0);
    }
    atmosphere
    {
        type            calculated;
        value           nonuniform List<vector> 8((0.439572983503 0.280151601417 -1.38610319652e-20) (-0.0983949038162 0.934277951519 -1.56335809141e-20) (-0.565199327566 0.103555462447 1.08032256283e-23) (0 -0.110646503751 0) (0 -0.138990367573 0) (0 -0.0386460364084 0) (-0.0594143615614 0.0116815500815 4.64360505338e-21) (-0.0276164077585 0.0100337631416 -2.59401346316e-21));
    }
    floatingObject
    {
        type            calculated;
        value           nonuniform List<vector> 0();
    }
    procBoundary9to6
    {
        type            processor;
        value           nonuniform List<vector> 4((0.0170118909262 0.0560226207445 -1.09488000195e-20) (0.0211583652895 0.0578952062167 -1.50199796676e-20) (0.142999627826 0.0714697103207 -2.92932812937e-20) (0.4464104718 0.0672424618993 -4.20368164331e-20));
    }
    procBoundary9to7
    {
        type            processor;
        value           nonuniform List<vector> 
16
(
(0.018101002706 0.000808396969728 -4.51199866847e-22)
(0.016532060985 0.00235340336489 -2.29567199209e-22)
(0.0156047560552 0.00389533773383 -1.32905546944e-22)
(0.0152112129117 0.0055216558146 5.57904990146e-23)
(0.0151902882525 0.00724325105781 2.41954369982e-23)
(0.0153486755895 0.00912025546045 2.43764642577e-24)
(0.0155846361623 0.0112032871011 -2.55524734001e-24)
(0.0158597503036 0.0135441583289 -2.26921903056e-24)
(0.0161605736325 0.016206573607 7.82293491082e-24)
(0.0164740390856 0.0192647249049 5.09016642781e-24)
(0.0167977680974 0.0228053174156 1.94434575316e-24)
(0.0171238689177 0.0269331465531 2.63519501016e-23)
(0.0174917775789 0.0317674841054 5.83830529633e-23)
(0.0179329490551 0.0374609424226 1.64370945721e-22)
(0.0182697719501 0.0438693200655 -1.44272956685e-21)
(0.0180425838261 0.0536173218974 1.62092280791e-21)
)
;
    }
    procBoundary9to10
    {
        type            processor;
        value           nonuniform List<vector> 
15
(
(0.00346667437934 0.00368521551475 4.89813137269e-23)
(0.00280421466908 0.004693226021 -2.47684924895e-23)
(0.00206233637197 0.00571746764203 -1.29012035176e-23)
(0.00115982294751 0.00676055799223 2.22469191265e-25)
(2.74463785331e-05 0.00781933698649 1.53462978199e-23)
(-0.00136345383997 0.00888857610093 3.32578766616e-23)
(-0.00306873642531 0.00995728700694 1.1068903171e-23)
(-0.00514350733712 0.0110100577919 -1.65512622448e-23)
(0.0041799570703 0.00149059834864 1.88581150877e-22)
(0.00335162522253 0.00297485334252 5.59617266321e-23)
(0.00325926681166 0.0023450178972 3.49486402379e-23)
(0.00434965168958 0.000916464267713 7.90865229895e-23)
(0.00352929771182 0.00079816328511 1.55554790483e-22)
(0.00283733685384 0.000664543627775 3.49803196411e-22)
(0.00305588585275 0.000255004501299 4.55246007468e-22)
)
;
    }
    procBoundary9to11
    {
        type            processor;
        value           nonuniform List<vector> 9((-0.00764351231552 0.0120100073872 -7.91773734629e-23) (-0.0105815124704 0.0128830746044 -2.70202985019e-22) (-0.0138843715745 0.0136504659032 -1.08131466006e-21) (-0.0173234251181 0.0140540083341 -3.53968197659e-21) (-0.0212547740151 0.01570302025 -6.87032359909e-21) (-0.0280824391698 0.0126373474375 -1.02078529499e-20) (-0.0341092672842 0.0125425511182 -1.36827775252e-20) (-0.0219636842925 0.0190874395708 -1.37486061692e-20) (-0.0190677726928 0.0150293041449 -2.46303588233e-21));
    }
}


// ************************************************************************* //
