/*--------------------------------*- C++ -*----------------------------------*\
| =========                 |                                                 |
| \\      /  F ield         | OpenFOAM: The Open Source CFD Toolbox           |
|  \\    /   O peration     | Version:  v2012                                 |
|   \\  /    A nd           | Website:  www.openfoam.com                      |
|    \\/     M anipulation  |                                                 |
\*---------------------------------------------------------------------------*/
FoamFile
{
    version     2.0;
    format      ascii;
    class       volVectorField;
    location    "0.9";
    object      ddt0(rho,U);
}
// * * * * * * * * * * * * * * * * * * * * * * * * * * * * * * * * * * * * * //

dimensions      [1 -2 -2 0 0 0 0];


internalField   nonuniform List<vector> 
167
(
(-38.10340958 11.735820149 2.12608977533e-19)
(-41.2806141908 15.1547125559 -4.61472874814e-20)
(-45.3496448744 18.6556091758 -1.67999611297e-20)
(-50.3915784501 22.2438190781 9.42281261128e-21)
(-56.4978325986 25.9220471451 3.6697752565e-20)
(-63.775022697 29.680078339 -8.49407116983e-20)
(-72.3497578899 33.4989497298 3.12614054608e-20)
(-82.3670123314 37.3356909652 3.56328215447e-20)
(-36.5841357365 4.26185512791 3.2260658551e-18)
(-38.6067654484 6.42419790519 -7.56601487633e-19)
(-41.043672197 8.95541503111 -4.95564371818e-20)
(-44.2663812917 11.495855231 -2.31792605629e-20)
(-48.3851460267 14.0551264642 -2.14385414824e-24)
(-53.4739125085 16.6238260198 1.44262885434e-20)
(-59.6139929165 19.1888246664 2.97058308829e-20)
(-66.9013085602 21.723863707 -2.58233864487e-20)
(-75.444997233 24.1919621764 2.13562442559e-20)
(-85.3760156921 26.5374940642 -1.00086300569e-19)
(-96.8308704672 28.635984653 -1.1697773317e-19)
(-38.7140658643 3.12197150622 -1.7269285661e-18)
(-40.7010440614 4.47223068785 -6.16934419732e-19)
(-43.1295591449 6.15621601557 -3.7031789713e-19)
(-46.3456124847 7.81875556057 -4.02062480537e-20)
(-50.4479228622 9.4442255505 7.43611300883e-21)
(-55.5022930393 11.0093076127 -3.23852358109e-21)
(-61.5809085328 12.4875301542 -1.858766656e-20)
(-68.7676072923 13.8395987442 -3.94429901915e-20)
(-77.1575763789 15.0146097957 8.4629888294e-22)
(-86.8596158867 15.94757199 1.1000761326e-19)
(-97.9929539367 16.4996393317 1.03244351024e-19)
(-40.0504945502 1.98504474966 4.15422676831e-18)
(-41.9814376897 2.53386410824 2.36042131312e-19)
(-44.3683076158 3.38114840866 -4.15546939289e-19)
(-47.5307107378 4.18046333595 -4.51778955682e-20)
(-51.5571733451 4.89310088965 -5.27356162639e-20)
(-56.5056436772 5.48376598759 -8.21550145779e-21)
(-62.4391995363 5.91495099094 -4.91545547061e-21)
(-69.4302383329 6.13641236358 1.07963199755e-20)
(-77.5604157663 6.08889599324 -1.60940641879e-20)
(-86.9202903888 5.69865932342 -3.8899250356e-20)
(-37.4083043607 -0.406136955857 2.90149430436e-19)
(-40.6077357307 0.871073874344 -5.28236149379e-19)
(-42.4637208422 0.635308238261 1.48939739474e-20)
(-44.7782064078 0.668916878742 -1.04746451436e-19)
(-47.8451400572 0.631168967455 -3.1972391263e-20)
(-51.7433791996 0.463135046828 -1.81466133471e-20)
(-56.5234745184 0.119454001028 -2.94571084221e-20)
(-62.2398821545 -0.446367287173 -3.30550459357e-20)
(-68.9545323035 -1.29283085713 5.36046423723e-20)
(-76.7373722108 -2.48660159624 1.25015418532e-20)
(-85.6615443381 -4.10352831629 1.38219753845e-21)
(-37.4030410156 -0.835668452309 -3.10297309391e-19)
(-40.4108075247 -0.207561103949 -1.07293054346e-18)
(-42.1734135483 -1.19816535412 1.25361709357e-19)
(-44.3880082298 -1.94585707439 6.51742559629e-20)
(-47.3226179584 -2.78489756582 2.43983665343e-21)
(-51.0469563452 -3.79211028558 -2.82385899741e-20)
(-55.6046947995 -5.02127988627 -4.80185273292e-20)
(-61.0425002349 -6.5260664193 -2.70206815244e-20)
(-67.4140814135 -8.37259850309 -9.17609371127e-20)
(-74.7756919579 -10.6294070443 -1.41604983985e-20)
(-83.1887998341 -13.3753946247 3.64285942959e-20)
(-36.6924354374 -1.24310609124 -7.75212139131e-20)
(-39.4905499095 -1.23668748539 -6.42972724285e-19)
(-41.1444408177 -2.94455868614 -4.21432611549e-19)
(-43.2352064097 -4.4328336121 -1.85097912274e-20)
(-46.0054919352 -6.02922769625 -1.78338705806e-20)
(-49.5164645435 -7.82637649621 -6.63734444479e-20)
(-53.8056528743 -9.88506406453 -7.80625997586e-20)
(-58.9132748377 -12.2657620765 4.43691530949e-20)
(-64.8845156601 -15.0372967661 -3.10939377166e-20)
(-71.7646564901 -18.2727680694 -8.42391606489e-20)
(-35.3126440527 -1.62459427504 7.84699939052e-19)
(-37.8863834507 -2.20491117996 3.01186372998e-18)
(-39.4185196449 -4.58505843846 -2.84357483999e-19)
(-41.3649819386 -6.76584739218 1.49594981141e-20)
(-43.9434445249 -9.06864859824 -2.02457398987e-20)
(-47.2072603713 -11.6000151075 -1.30518291706e-20)
(-51.1886017753 -14.4269901197 -1.37820184434e-20)
(-55.9220870286 -17.6144427548 -1.90674638346e-20)
(-61.444068296 -21.2345691352 1.56117573115e-20)
(-33.3077461017 -1.97728721789 1.42186222332e-18)
(-35.6446664501 -3.10293870246 1.19560202278e-19)
(-37.0443149494 -6.10379531286 -3.36051575547e-19)
(-38.829197378 -8.92260725091 -1.97757110244e-19)
(-41.192411768 -11.8748414741 -9.42457704276e-20)
(-44.1802380937 -15.0793506588 2.62132050109e-20)
(-47.8202666667 -18.6084357542 -5.63680307719e-20)
(-52.1415032071 -22.5300898183 -4.90877564436e-20)
(-57.1754605855 -26.920585144 -6.81375901822e-20)
(-30.7263973341 -2.29941785245 5.35690426029e-19)
(-32.817185827 -3.92371188502 1.6347986162e-18)
(-34.0759341797 -7.48771512293 1.04268569937e-18)
(-35.6848239331 -10.8843127136 5.94450531778e-20)
(-37.8128642302 -14.4237494691 -1.24476631916e-20)
(-40.5000906902 -18.2357238596 -1.68088675821e-20)
(-43.770169714 -22.3966577799 -1.693777656e-20)
(-47.6474200077 -26.9782355193 -6.74164640484e-20)
(-52.1592530252 -32.0580517127 5.72510981272e-20)
(-57.3330376634 -37.7148726124 -8.08083672402e-20)
(-27.6200097357 -2.59083006857 -2.71476663916e-20)
(-29.4606626331 -4.66277057171 6.60084914771e-19)
(-30.5726366428 -8.72626972269 2.83296686553e-19)
(-31.9935674674 -12.6350142923 1.93227253978e-19)
(-33.8693882435 -16.6947576517 -5.26751179524e-20)
(-36.2349709831 -21.0445518368 2.60499210569e-20)
(-39.1107307194 -25.7640548299 -4.56583644082e-20)
(-42.517328904 -30.9274528351 6.4774881786e-20)
(-46.4772149639 -36.6147432887 -2.8721441351e-20)
(-51.0151091836 -42.9065690643 -6.93484330961e-20)
(-24.0461076672 -2.85364685283 4.16358565406e-18)
(-25.6434219072 -5.31884133795 4.76281699686e-18)
(-26.6063371308 -9.81078305703 8.90416314667e-19)
(-27.8292766613 -14.1606821193 1.04058699823e-19)
(-29.4380237807 -18.669687204 4.60224865824e-20)
(-31.4640264417 -23.4843442101 -6.81355954385e-20)
(-33.925110493 -28.6865116367 2.39346452394e-20)
(-36.8385326208 -34.3520643738 1.10598328075e-20)
(-40.2225724244 -40.5630620556 -1.34610353526e-20)
(-44.0976178147 -47.4021073297 1.5069956746e-21)
(-20.0659745723 -3.09421507005 -1.832481696e-18)
(-21.4474696433 -5.89664425302 6.61125550816e-19)
(-22.2636567044 -10.7340787705 -1.41534548392e-19)
(-23.2783569791 -15.4481531046 1.11505434757e-19)
(-24.6057348708 -20.3318138769 1.41685462123e-19)
(-26.2764769285 -25.5358217745 6.93889343774e-20)
(-28.3060803673 -31.1424877658 1.04264423154e-19)
(-30.7082177529 -37.2284012525 7.02523527574e-20)
(-33.4972317408 -43.8769420952 -1.10868432479e-20)
(-36.6877437211 -51.1718829404 6.05762321238e-20)
(-15.6891622937 -3.32382372262 4.21516760204e-19)
(-16.9127604144 -6.40561247275 1.62452046897e-18)
(-17.5831479607 -11.4848242153 2.43533024086e-19)
(-18.370541864 -16.4786311039 1.65628736876e-19)
(-19.3974839436 -21.6593299729 9.69062958455e-20)
(-20.6956236479 -27.1750309553 3.65118145216e-19)
(-22.276829984 -33.1057177176 5.13584573603e-19)
(-24.1504912825 -39.5277018269 6.16895717865e-19)
(-26.3261580576 -46.524252129 -1.6709382702e-19)
(-28.8133205894 -54.1801081198 4.47452378746e-19)
(-10.8233500316 -3.5146807365 9.2230460447e-19)
(-12.0000650025 -6.79749504669 5.10370900769e-18)
(-12.5101945644 -12.0050246522 4.14675930172e-19)
(-13.031625123 -17.1896195969 -5.6888693221e-20)
(-13.7321506192 -22.5842533455 3.18357979095e-19)
(-14.6388142867 -28.3258656399 8.72796896251e-19)
(-15.7544700372 -34.4906609037 -1.57034313103e-19)
(-17.0821828435 -41.154325963 1.2208080573e-18)
(-18.6264769579 -48.4005377208 -3.35032367915e-20)
(-5.68952547192 -3.4219680675 1.46578057221e-19)
(-6.99992022688 -6.78431522198 5.40811519823e-19)
(-7.33633761164 -12.0856609485 2.77590583848e-20)
(-7.57360793785 -17.377744014 -2.2256582716e-19)
(-7.96208288615 -22.8789138217 6.03568030179e-19)
(-8.50565646828 -28.7236035792 1.44793641357e-18)
(-9.18806184932 -34.9918498661 -9.02369613555e-19)
(-10.0030788525 -41.7616839243 2.85050187474e-18)
(-10.9499081528 -49.117103601 -5.61963173848e-19)
(-2.3865114568 -2.33606496038 2.82796303449e-20)
(-3.47419824706 -5.64246958445 2.05381110285e-19)
(-3.61993318057 -11.1348798126 2.4446456935e-19)
(-3.63592691672 -16.3626090963 1.12930229869e-18)
(-3.72619606665 -21.7099188243 3.26458748401e-19)
(-3.88929385898 -27.3382877405 6.61292955502e-19)
(-4.11257834524 -33.3593172551 4.04904766791e-19)
(-4.3906097585 -39.8659709273 1.96539754545e-18)
(-4.72066798867 -46.9488560459 4.56068478928e-19)
)
;

boundaryField
{
    back
    {
        type            calculated;
        value           uniform (0 0 0);
    }
    sides
    {
        type            calculated;
        value           uniform (0 0 0);
    }
    bottom
    {
        type            calculated;
        value           uniform (0 0 0);
    }
    front
    {
        type            calculated;
        value           uniform (0 0 0);
    }
    atmosphere
    {
        type            calculated;
        value           nonuniform List<vector> 0();
    }
    floatingObject
    {
        type            calculated;
        value           nonuniform List<vector> 0();
    }
    procBoundary10to9
    {
        type            processor;
        value           nonuniform List<vector> 
15
(
(-34.3185327893 14.4484015427 1.02212282455e-20)
(-37.3927876084 18.7341431147 -7.96225051157e-20)
(-41.3383630855 23.1688272764 -1.69324261275e-20)
(-46.24386411 27.7768478845 -3.75397196279e-20)
(-52.2085820913 32.5787231547 -2.11300466008e-20)
(-59.3507110982 37.5847129597 -7.25912127125e-20)
(-67.8107161412 42.7933810631 6.14397830979e-20)
(-77.7536921627 48.1875500503 -3.5384454151e-20)
(-33.6648282284 5.38905493898 1.73765592747e-18)
(-35.6973274917 8.36009301052 -2.74910434381e-19)
(-35.6973274917 8.36009301052 -2.74910434381e-19)
(-32.9307406931 0.967295267547 1.22306642058e-18)
(-35.1879208534 0.501551974273 -2.19985946952e-19)
(-36.6763789742 0.0402707410522 -1.20196995909e-18)
(-36.6763789742 0.0402707410522 -1.20196995909e-18)
)
;
    }
    procBoundary10to11
    {
        type            processor;
        value           nonuniform List<vector> 
23
(
(-93.9966021849 41.0902006774 -1.18391747536e-19)
(-93.9966021849 41.0902006774 -1.18391747536e-19)
(-109.932649453 30.4056960883 1.15382970813e-19)
(-110.644813536 16.5749975254 6.72437852087e-20)
(-97.6081177056 4.81843948028 -1.81424323877e-19)
(-97.6081177056 4.81843948028 -1.81424323877e-19)
(-95.8078719864 -6.29726184303 -2.33902028099e-20)
(-92.7194291308 -16.7674966115 8.61917354435e-20)
(-79.6072711615 -22.0515045328 5.54406281054e-20)
(-79.6072711615 -22.0515045328 5.54406281054e-20)
(-67.7957562208 -25.3628064268 -2.40810836599e-20)
(-67.7957562208 -25.3628064268 -2.40810836599e-20)
(-62.9557095706 -31.8557463659 -7.52989098097e-21)
(-62.9557095706 -31.8557463659 -7.52989098097e-21)
(-63.2009917338 -44.0266209424 -6.354912303e-21)
(-56.1573324653 -49.8830452523 -5.22182499182e-21)
(-48.4853744695 -54.9522100945 1.53217986971e-21)
(-40.2962766057 -59.1994558041 3.23067853617e-20)
(-31.6210574015 -62.5824299681 1.69509669877e-19)
(-20.3919478365 -56.3121234902 -5.27216000271e-19)
(-20.3919478365 -56.3121234902 -5.27216000271e-19)
(-12.0299984589 -57.141385039 1.4832922422e-18)
(-5.10234060724 -54.6941006423 1.83289664836e-18)
)
;
    }
}


// ************************************************************************* //
