/*--------------------------------*- C++ -*----------------------------------*\
| =========                 |                                                 |
| \\      /  F ield         | OpenFOAM: The Open Source CFD Toolbox           |
|  \\    /   O peration     | Version:  v2012                                 |
|   \\  /    A nd           | Website:  www.openfoam.com                      |
|    \\/     M anipulation  |                                                 |
\*---------------------------------------------------------------------------*/
FoamFile
{
    version     2.0;
    format      ascii;
    class       volScalarField;
    location    "0.9";
    object      nut;
}
// * * * * * * * * * * * * * * * * * * * * * * * * * * * * * * * * * * * * * //

dimensions      [0 2 -1 0 0 0 0];


internalField   nonuniform List<scalar> 
167
(
0.00164116935531
0.00164283599913
0.00164358148591
0.00164427074402
0.0016450367289
0.00164589309672
0.00164683867329
0.00164788356389
0.00160074660298
0.00163265032581
0.00163977542525
0.00164145085343
0.00164220908701
0.00164291202525
0.00164369103907
0.00164455869909
0.00164551298163
0.00164656256845
0.00164779377354
0.0015993692685
0.0016312524001
0.00163837733607
0.00164006577665
0.00164084203596
0.0016415643928
0.00164236252698
0.00164324781636
0.00164421718558
0.00164527836645
0.00164651271619
0.00159797687588
0.00162984739408
0.00163697717847
0.00163868385284
0.00163948366169
0.00164023129074
0.00164105461333
0.0016419637379
0.00164295460518
0.00164403315352
0.00108754350816
0.00159657247775
0.00162843811569
0.00163557877404
0.00163730940303
0.00163813870694
0.00163891777024
0.0016397725052
0.00164071157394
0.00164172958968
0.00164283096803
0.00108637163428
0.00159516006745
0.00162702805265
0.00163418607013
0.00163594698288
0.00163681227853
0.00163762933342
0.00163852192253
0.00163949731506
0.00164054929073
0.0016416779195
0.00108518710337
0.00159374257908
0.00162562065603
0.00163280322758
0.00163460156746
0.00163551003847
0.00163637209234
0.0016373092399
0.00163832767858
0.00163941763161
0.00108399262563
0.00159232307028
0.00162421950888
0.00163143486117
0.00163327883578
0.00163423848804
0.00163515302917
0.00163614154697
0.00163720773967
0.00108279086383
0.00159090433933
0.00162282831854
0.00163008613263
0.00163198530095
0.00163300507444
0.00163397998123
0.00163502615467
0.00163614564507
0.00108158384215
0.00158948772668
0.00162144963494
0.00162876151467
0.00163072706775
0.00163181687093
0.00163286035581
0.00163397085525
0.00163514883001
0.00163638313777
0.0010803705506
0.00158806590288
0.00162007646781
0.0016274561081
0.00162950097181
0.00163067147332
0.00163179159762
0.00163297195149
0.00163421202671
0.00163550036129
0.0010791334166
0.00158658590125
0.00161864922214
0.00162611071164
0.00162824890692
0.00162951080893
0.00163071469531
0.00163196930445
0.00163327398791
0.00163461777482
0.00107776960056
0.00158477787823
0.00161685902996
0.00162440749997
0.0016266510856
0.0016280132442
0.00162930547837
0.00163063582506
0.00163200478814
0.00163340280711
0.00107577288382
0.00158143862919
0.00161334297008
0.00162094044626
0.00162329001531
0.00162475544952
0.00162613554085
0.00162753861213
0.00162896797712
0.00163041570962
0.0010709107402
0.00157175405392
0.00160275927533
0.00161022833779
0.00161265010878
0.0016142090222
0.00161566790562
0.00161713392665
0.00161861341478
0.00105425653281
0.00153819580439
0.00156614536168
0.0015729584933
0.00157534505114
0.00157697173649
0.00157849605802
0.00158001342721
0.00158153315593
0.000878651767683
0.00105286216921
0.00106656205648
0.00107005515031
0.00107168812267
0.00107304404636
0.00107436681429
0.00107568665888
0.00107700556101
)
;

boundaryField
{
    back
    {
        type            nutkWallFunction;
        blending        stepwise;
        Cmu             0.09;
        kappa           0.41;
        E               9.8;
        value           nonuniform List<scalar> 
167
(
0.000157197825606
0.000157334291198
0.000157394206663
0.000157449429794
0.00015751074603
0.000157579200212
0.000157654617215
0.00015773749519
0.000153748904675
0.000156483481153
0.000157081826918
0.000157219013507
0.000157279921322
0.000157336193075
0.000157398495458
0.00015746778863
0.000157543826658
0.000157626994309
0.000157722723181
0.000153633660717
0.000156367243953
0.000156965770626
0.00015710403286
0.000157166367232
0.000157224160501
0.000157287951844
0.00015735860775
0.000157435795026
0.000157519825849
0.000157615739292
0.000153517500969
0.000156250721255
0.000156849838469
0.000156989602116
0.000157053815956
0.000157113612807
0.000157179394434
0.000157251925494
0.00015733079462
0.000157416172435
0.000140591599338
0.000153400675958
0.00015613413924
0.000156734327793
0.000156876056449
0.000156942635599
0.000157004941651
0.000157073225939
0.00015714813792
0.000157229157314
0.00015731634942
0.000140459856034
0.000153283492774
0.000156017765469
0.000156619541295
0.00015676374679
0.000156833220687
0.000156898572442
0.000156969887784
0.000157047697361
0.00015713141877
0.000157220806608
0.000140327090391
0.000153166180537
0.000155901862223
0.000156505797149
0.000156653056476
0.000156726009524
0.000156794979126
0.000156869870344
0.000156951123581
0.000157037900739
0.000140193591124
0.000153048971617
0.000155786701238
0.000156393449663
0.000156544425616
0.00015662150853
0.000156694706031
0.00015677373086
0.000156858833204
0.000140059634098
0.000152932078517
0.000155672567375
0.000156282901229
0.000156438366215
0.000156520305676
0.000156598374696
0.000156682054876
0.000156771462959
0.000139925430224
0.000152815610493
0.000155559670941
0.00015617451956
0.000156335379507
0.000156422981802
0.000156506593064
0.000156595472262
0.000156689608774
0.000156788031078
0.000139790891672
0.000152699035988
0.000155447524914
0.000156067994623
0.00015623530027
0.000156329436631
0.000156419251509
0.000156513789104
0.000156612958707
0.000156715763809
0.000139654245578
0.000152578306937
0.000155331598131
0.000155958851147
0.000156133754211
0.000156235307321
0.000156331918479
0.000156432483666
0.000156536899892
0.000156644210657
0.000139504700061
0.000152432013039
0.000155187418793
0.000155821946264
0.000156005470239
0.000156115196659
0.000156219014551
0.000156325767628
0.000156435444483
0.000156547206263
0.000139287127084
0.000152161273287
0.000154903061869
0.000155541908798
0.000155734205291
0.00015585244317
0.00015596352512
0.000156076325763
0.00015619106087
0.000156307040501
0.000138749645771
0.000151357380016
0.000154025304827
0.00015465393948
0.000154852413892
0.000154978550195
0.000155096358601
0.000155214630111
0.000155333841685
0.000136852919594
0.000148490155724
0.000150899911061
0.00015147390879
0.000151669842087
0.000151802011304
0.000151925708175
0.000152048773751
0.000152171933238
0.000129144030519
0.000136698332498
0.000138272061026
0.000138662533427
0.000138841302619
0.000138989020855
0.00013913292599
0.000139276294586
0.000139419304568
)
;
    }
    sides
    {
        type            nutkWallFunction;
        blending        stepwise;
        Cmu             0.09;
        kappa           0.41;
        E               9.8;
        value           nonuniform List<scalar> 9(6.87269419683e-05 7.27427685943e-05 7.35791912341e-05 7.37867153578e-05 7.3881724593e-05 7.39602308613e-05 7.40367101622e-05 7.41129038657e-05 7.41889065368e-05);
    }
    bottom
    {
        type            nutkWallFunction;
        blending        stepwise;
        Cmu             0.09;
        kappa           0.41;
        E               9.8;
        value           nonuniform List<scalar> 
13
(
7.48119059757e-05
7.47418943478e-05
7.46713390452e-05
7.46003934902e-05
7.45292042804e-05
7.44578834978e-05
7.43863844626e-05
7.43137649953e-05
7.42342897682e-05
7.41186608139e-05
7.38330124448e-05
7.28249326876e-05
6.87269419683e-05
)
;
    }
    front
    {
        type            nutkWallFunction;
        blending        stepwise;
        Cmu             0.09;
        kappa           0.41;
        E               9.8;
        value           nonuniform List<scalar> 
167
(
0.000157197825606
0.000157334291198
0.000157394206663
0.000157449429794
0.00015751074603
0.000157579200212
0.000157654617215
0.00015773749519
0.000153748904675
0.000156483481153
0.000157081826918
0.000157219013507
0.000157279921322
0.000157336193075
0.000157398495458
0.00015746778863
0.000157543826658
0.000157626994309
0.000157722723181
0.000153633660717
0.000156367243953
0.000156965770626
0.00015710403286
0.000157166367232
0.000157224160501
0.000157287951844
0.00015735860775
0.000157435795026
0.000157519825849
0.000157615739292
0.000153517500969
0.000156250721255
0.000156849838469
0.000156989602116
0.000157053815956
0.000157113612807
0.000157179394434
0.000157251925494
0.00015733079462
0.000157416172435
0.000140591599338
0.000153400675958
0.00015613413924
0.000156734327793
0.000156876056449
0.000156942635599
0.000157004941651
0.000157073225939
0.00015714813792
0.000157229157314
0.00015731634942
0.000140459856034
0.000153283492774
0.000156017765469
0.000156619541295
0.00015676374679
0.000156833220687
0.000156898572442
0.000156969887784
0.000157047697361
0.00015713141877
0.000157220806608
0.000140327090391
0.000153166180537
0.000155901862223
0.000156505797149
0.000156653056476
0.000156726009524
0.000156794979126
0.000156869870344
0.000156951123581
0.000157037900739
0.000140193591124
0.000153048971617
0.000155786701238
0.000156393449663
0.000156544425616
0.00015662150853
0.000156694706031
0.00015677373086
0.000156858833204
0.000140059634098
0.000152932078517
0.000155672567375
0.000156282901229
0.000156438366215
0.000156520305676
0.000156598374696
0.000156682054876
0.000156771462959
0.000139925430224
0.000152815610493
0.000155559670941
0.00015617451956
0.000156335379507
0.000156422981802
0.000156506593064
0.000156595472262
0.000156689608774
0.000156788031078
0.000139790891672
0.000152699035988
0.000155447524914
0.000156067994623
0.00015623530027
0.000156329436631
0.000156419251509
0.000156513789104
0.000156612958707
0.000156715763809
0.000139654245578
0.000152578306937
0.000155331598131
0.000155958851147
0.000156133754211
0.000156235307321
0.000156331918479
0.000156432483666
0.000156536899892
0.000156644210657
0.000139504700061
0.000152432013039
0.000155187418793
0.000155821946264
0.000156005470239
0.000156115196659
0.000156219014551
0.000156325767628
0.000156435444483
0.000156547206263
0.000139287127084
0.000152161273287
0.000154903061869
0.000155541908798
0.000155734205291
0.00015585244317
0.00015596352512
0.000156076325763
0.00015619106087
0.000156307040501
0.000138749645771
0.000151357380016
0.000154025304827
0.00015465393948
0.000154852413892
0.000154978550195
0.000155096358601
0.000155214630111
0.000155333841685
0.000136852919594
0.000148490155724
0.000150899911061
0.00015147390879
0.000151669842087
0.000151802011304
0.000151925708175
0.000152048773751
0.000152171933238
0.000129144030519
0.000136698332498
0.000138272061026
0.000138662533427
0.000138841302619
0.000138989020855
0.00013913292599
0.000139276294586
0.000139419304568
)
;
    }
    atmosphere
    {
        type            calculated;
        value           nonuniform List<scalar> 0();
    }
    floatingObject
    {
        type            nutkWallFunction;
        blending        stepwise;
        Cmu             0.09;
        kappa           0.41;
        E               9.8;
        value           nonuniform List<scalar> 0();
    }
    procBoundary10to9
    {
        type            processor;
        value           nonuniform List<scalar> 
15
(
0.00164254982396
0.00164421362974
0.00164495129246
0.0016456321452
0.00164639072338
0.0016472415852
0.00164818442258
0.00164922981086
0.00160210139848
0.00163403545756
0.00163403545756
0.00109094474959
0.00108983393958
0.00108869877621
0.00108869877621
)
;
    }
    procBoundary10to11
    {
        type            processor;
        value           nonuniform List<scalar> 
23
(
0.00164911510352
0.00164911510352
0.00164969014515
0.00164839932875
0.00164527892721
0.00164527892721
0.00164409112454
0.00164295872099
0.00164057995567
0.00164057995567
0.00163834173877
0.00163834173877
0.00163732747378
0.00163732747378
0.00163767054887
0.00163683556226
0.00163600000377
0.00163483047171
0.00163188533186
0.00162010292407
0.00162010292407
0.00158305543763
0.00107832285998
)
;
    }
}


// ************************************************************************* //
