/*--------------------------------*- C++ -*----------------------------------*\
| =========                 |                                                 |
| \\      /  F ield         | OpenFOAM: The Open Source CFD Toolbox           |
|  \\    /   O peration     | Version:  v2012                                 |
|   \\  /    A nd           | Website:  www.openfoam.com                      |
|    \\/     M anipulation  |                                                 |
\*---------------------------------------------------------------------------*/
FoamFile
{
    version     2.0;
    format      ascii;
    class       volVectorField;
    location    "1.3";
    object      ddtCorrDdt0(U);
}
// * * * * * * * * * * * * * * * * * * * * * * * * * * * * * * * * * * * * * //

dimensions      [0 1 -2 0 0 0 0];


internalField   nonuniform List<vector> 
164
(
(0.0286610614862 -0.00726425349434 2.97337512527e-21)
(0.02784065959 -0.0182115843131 1.54280394084e-21)
(0.0259635138064 -0.0301383872879 5.12573799976e-22)
(0.0226139714419 -0.0429093137578 4.09476230544e-21)
(0.0166000415908 -0.0564865577538 2.50392548873e-20)
(0.00601148284085 -0.0731135042634 1.43329052269e-19)
(-0.0138707533492 -0.0959114713068 6.8237067217e-19)
(-0.0491731872625 -0.135487017866 1.48722867627e-18)
(-0.0116478737182 -0.176463426173 6.9144931271e-18)
(0.0173657425623 -0.207576310148 1.78311500254e-18)
(0.030960207406 -0.247738105104 1.24574393429e-19)
(0.0461937904785 -0.327741237749 3.39794665009e-18)
(0.18971563312 -0.330628078347 7.03121185444e-18)
(0.164279845987 -0.300887822406 5.81305291216e-18)
(0.0413689288961 -0.00761005169824 -5.40055962695e-22)
(0.0406576039762 -0.019349733558 1.85716320694e-21)
(0.0390352834977 -0.0323132146613 -2.52868202821e-22)
(0.0365529463813 -0.0466146056478 -4.66452933016e-22)
(0.0329616342735 -0.0620130841469 4.01023384359e-21)
(0.0280893146934 -0.0801373319562 2.3226545509e-20)
(0.0225555861854 -0.103654210268 1.58771595264e-19)
(0.0166924008283 -0.140249103549 6.20391579764e-19)
(0.0399816183382 -0.175470908784 1.19669683478e-18)
(0.0570866112088 -0.207873519307 1.24684415321e-18)
(0.075174100017 -0.239196475693 1.18361299647e-18)
(0.100548029718 -0.274587544099 2.60144431926e-18)
(0.157742252647 -0.294217702796 -3.81611436129e-18)
(0.176661495366 -0.3006380758 -2.03330221296e-18)
(0.0546713112018 -0.00781000731597 1.0789903734e-21)
(0.0541966303952 -0.0201145156484 -2.60161201105e-21)
(0.0530472586607 -0.0336204247923 -3.57176067534e-22)
(0.051670027925 -0.0485972375484 -2.38627152136e-23)
(0.0500972246012 -0.0646257738861 8.76458065471e-22)
(0.0484372930104 -0.0829392130895 2.23404960878e-21)
(0.0475088678502 -0.104956689085 1.3625059366e-20)
(0.0486203763769 -0.133083756993 1.04457570653e-19)
(0.0621698932123 -0.162353796158 1.03326974547e-19)
(0.0811204553184 -0.188555505399 2.17155430311e-19)
(0.102985311928 -0.212499095945 2.01700908354e-19)
(0.130242732441 -0.23557663691 5.38365745788e-20)
(0.166776410722 -0.254366483947 2.92118695384e-19)
(0.199224041335 -0.272269962786 2.68958601565e-19)
(0.0683251431043 -0.00785104128221 2.52696747875e-21)
(0.0681065643506 -0.0204560893309 3.63507111124e-21)
(0.0674235851083 -0.03409807272 -5.05912481171e-22)
(0.0670134509693 -0.0491697022463 1.85802451831e-22)
(0.0669974048942 -0.0650632091317 2.64339669679e-22)
(0.0676335319284 -0.0825963834045 6.20794993696e-22)
(0.0697794423253 -0.102383234966 1.04334790273e-21)
(0.0748523192329 -0.124739191595 8.9023375987e-21)
(0.0865978707497 -0.147641634554 9.29890599028e-21)
(0.103430663177 -0.168930228809 1.36016370338e-20)
(0.124186981212 -0.188003866973 6.45952893515e-21)
(0.149435063699 -0.204967189109 6.95665417962e-21)
(0.18020741838 -0.220294862939 -4.2944753193e-20)
(0.216934823682 -0.233802976294 1.27748883418e-22)
(0.0820413595854 -0.0077457894548 1.58465136546e-21)
(0.0820598179631 -0.0203938553411 1.295235231e-21)
(0.0817606872304 -0.0338529637226 -3.27493890314e-22)
(0.0821159311223 -0.0485979189439 -1.98491464726e-22)
(0.0832455640275 -0.0638467600412 2.66902139229e-22)
(0.0854191642704 -0.0801017541019 2.06431863058e-22)
(0.0893055815521 -0.0975624024115 2.9064305468e-22)
(0.0958829061344 -0.115993747382 2.74595565033e-23)
(0.10652515826 -0.13436681052 9.03170232868e-22)
(0.121198222817 -0.151364054935 -6.88257681354e-22)
(0.139661399107 -0.166080412077 9.27307843072e-22)
(0.16222784406 -0.177971207858 -1.20740998391e-21)
(0.189865962281 -0.187161101182 6.11274246646e-21)
(0.225008750114 -0.191648488253 -1.01112354144e-20)
(0.0955715886224 -0.00752694450497 7.05551499895e-22)
(0.0957818887976 -0.0200065720112 -1.98689168369e-21)
(0.0957489414397 -0.0330634374615 -2.51369435319e-22)
(0.0966293221608 -0.0472287758365 -1.09057295884e-22)
(0.0984802593006 -0.0616067479341 2.68624997235e-22)
(0.101482598816 -0.0765008869065 5.1188019935e-23)
(0.106081813868 -0.0919106730257 3.38848376929e-22)
(0.112870417895 -0.107483383572 8.65448744162e-23)
(0.122476800791 -0.122500184044 -1.41042903401e-22)
(0.135144535809 -0.136003922542 -7.45497263544e-22)
(0.150889267691 -0.147027586291 -2.03406689921e-23)
(0.169959375117 -0.154553078059 1.6900867913e-22)
(0.193037310797 -0.157676323742 -2.50546432646e-21)
(0.222131386413 -0.153433973459 3.04888015665e-21)
(0.108729186447 -0.00722818799907 1.09957665846e-21)
(0.109079829578 -0.0193888365463 9.14149575538e-22)
(0.109199047379 -0.0319162523493 1.28300695373e-23)
(0.110387587871 -0.0453819247848 1.86221141893e-22)
(0.112614908936 -0.058838305314 1.82721401532e-22)
(0.115951633676 -0.0724701562274 -4.04467733909e-23)
(0.120661813545 -0.0861832343275 -2.51043688005e-23)
(0.127076964174 -0.0996159562027 1.21103402883e-22)
(0.135496987932 -0.11218173698 -2.77845194516e-22)
(0.146065161572 -0.123095143669 -7.11421461493e-22)
(0.158764838761 -0.131399009084 -4.17045771056e-22)
(0.173590461527 -0.135852730716 -2.9714892531e-22)
(0.190594923831 -0.134737232352 8.22727376929e-24)
(0.210139704002 -0.124052346396 -3.01686819701e-21)
(0.121386680568 -0.00688079826615 1.16296552112e-21)
(0.121834146616 -0.0186310991556 1.91613421967e-21)
(0.122015647897 -0.0305703238263 -2.16922444301e-22)
(0.123346281334 -0.0433033223286 -2.41245126368e-22)
(0.125705921168 -0.0558833301049 1.82333025543e-22)
(0.129065567125 -0.0684251772975 8.26339098406e-23)
(0.133549040808 -0.0807985410284 3.01995446178e-23)
(0.139305111629 -0.0926731226848 5.54780308816e-23)
(0.146431618359 -0.103563422947 2.83081641266e-23)
(0.154904057576 -0.112825650147 -4.25042009156e-22)
(0.164529697342 -0.119631864429 -2.18876784321e-22)
(0.174933766516 -0.122886432511 -5.42698091403e-22)
(0.185436657025 -0.120947516742 1.21284502513e-21)
(0.194555122067 -0.110418274353 -2.15149615354e-21)
(0.133472195538 -0.00651059162352 6.51715922644e-22)
(0.133984778171 -0.0178089411705 -2.06542262127e-21)
(0.134168428792 -0.0291488528061 -5.11635019082e-22)
(0.135531011733 -0.0411680867216 5.72676890442e-23)
(0.137871978564 -0.0529602728425 2.20330387231e-22)
(0.141081260428 -0.0646013764972 1.4287009234e-22)
(0.145176770459 -0.0759599507485 1.38572060795e-22)
(0.150180148061 -0.0867588089359 6.13608185825e-23)
(0.156053545646 -0.0966172191356 1.31399809832e-22)
(0.16263577901 -0.105050085584 2.96470007042e-22)
(0.169575311832 -0.111460496668 2.60931832221e-22)
(0.176235215499 -0.115147318081 -7.37044034541e-23)
(0.181507634673 -0.11540724829 1.49510144462e-22)
(0.183380830531 -0.111784257211 1.41057278428e-21)
(0.144960925349 -0.00613307894667 -2.37494750163e-22)
(0.145516001626 -0.0169678559542 -6.6350358092e-22)
(0.145669398089 -0.0277247849966 -3.07499770082e-22)
(0.147003731505 -0.0390752026722 5.76802436359e-22)
(0.14925060526 -0.0501816547951 1.66415752811e-22)
(0.152238508481 -0.0610996420775 7.953143755e-23)
(0.155908902508 -0.0717167728791 -3.22284470629e-23)
(0.160199835654 -0.0818194360035 -1.18061115981e-23)
(0.164990412577 -0.0911325118617 4.81948030189e-23)
(0.170044922657 -0.0993296125774 1.57962041418e-22)
(0.174949994337 -0.106055128927 1.87700678131e-22)
(0.179024953358 -0.110964296114 1.50625425268e-22)
(0.18116756463 -0.11385688641 2.79012523817e-22)
(0.179761719627 -0.114383804581 -2.75672518241e-21)
(0.155854802998 -0.0057566551447 -1.11464022813e-22)
(0.156437948066 -0.016129359637 -2.47370489641e-21)
(0.156552599198 -0.0263316898186 4.61773691541e-22)
(0.157838426732 -0.0370654605226 -3.44725587722e-23)
(0.159972904249 -0.0475811565879 1.14360699704e-22)
(0.16274060665 -0.0579252625912 -3.87905926507e-23)
(0.166031656932 -0.0680139409388 -1.42086865647e-22)
(0.169734020929 -0.0776965092999 1.56637848568e-23)
(0.173683428374 -0.0867913772883 -4.06842637505e-23)
(0.177625416742 -0.0951055307484 -2.30596786611e-22)
(0.18118019409 -0.102474737211 3.73534809513e-22)
(0.183792889755 -0.108836248133 -1.50666404431e-22)
(0.184627787608 -0.11436748386 3.56169009544e-22)
(0.182294643428 -0.118765357275 -8.4915989714e-22)
(0.182400193969 -0.0832555461728 -1.52899195207e-22)
(0.185615734824 -0.0918497725781 -9.97545330223e-23)
(0.188360527564 -0.0999032336403 -1.78407697477e-22)
(0.190269678529 -0.107481083689 -1.30690729874e-22)
(0.190973377221 -0.115078019317 -1.49221830946e-21)
(0.19006012549 -0.123780028112 -4.89702128559e-21)
(0.197917445992 -0.106327369875 6.48110768337e-22)
(0.198533919329 -0.11470388366 -2.89191193576e-23)
(0.19874135957 -0.123460199684 5.50488968798e-22)
(0.206175841113 -0.123268848607 5.08336394753e-21)
)
;

boundaryField
{
    back
    {
        type            calculated;
        value           uniform (0 0 0);
    }
    sides
    {
        type            calculated;
        value           nonuniform List<vector> 0();
    }
    bottom
    {
        type            calculated;
        value           uniform (0 0 0);
    }
    front
    {
        type            calculated;
        value           uniform (0 0 0);
    }
    atmosphere
    {
        type            calculated;
        value           nonuniform List<vector> 0();
    }
    floatingObject
    {
        type            calculated;
        value           nonuniform List<vector> 4((0 1.00745367914e-27 -1.25931709893e-28) (0 1.00745367914e-27 -1.25931709893e-28) (0 0 0) (0 2.01490735828e-27 -1.25931709893e-28));
    }
    procBoundary8to3
    {
        type            processor;
        value           nonuniform List<vector> 8((0.0167099032103 -0.00687704899283 1.28937226816e-21) (0.0160362505491 -0.017004184955 -1.64836081159e-22) (0.0145001770726 -0.027563534297 2.22115531151e-21) (0.0116599844299 -0.0375795448168 1.52588276565e-20) (0.00625263068006 -0.0455457770526 1.01785837933e-19) (-0.00423623342339 -0.0494076242665 4.7967845575e-19) (-0.024171498877 -0.0470483829287 1.60199307975e-18) (-0.0581098371342 -0.0323847190899 2.8336882543e-18));
    }
    procBoundary8to6
    {
        type            processor;
        value           nonuniform List<vector> 
16
(
(0.208831983238 -0.170608874159 6.10953628485e-18)
(0.126500941302 -0.179943773851 3.66572707533e-18)
(0.130873770989 -0.332802371448 -3.97370726564e-20)
(0.181015681834 -0.339878290853 -3.8336818781e-19)
(0.235554785695 -0.300053849107 -4.40389633925e-19)
(0.261799633274 -0.249989556942 2.0124615311e-19)
(0.271632527355 -0.197255204541 -5.04454502691e-20)
(0.261810267589 -0.144272882578 1.85493089108e-21)
(0.232288649854 -0.102710120393 -8.12407238484e-21)
(0.198358749503 -0.0863372844894 -8.95369635033e-21)
(0.178445411325 -0.109186416356 -1.02560809113e-20)
(0.173670613585 -0.115529633986 1.51794323534e-20)
(0.174583859997 -0.126490479393 -3.55586473085e-20)
(0.185320533124 -0.140303387083 -4.69201456045e-21)
(0.200043771413 -0.137260812245 -2.80333544559e-20)
(0.205491009068 -0.129724125704 4.20525065772e-21)
)
;
    }
    procBoundary8to7
    {
        type            processor;
        value           nonuniform List<vector> 
17
(
(0.166170191936 -0.0053855112234 -1.96944997396e-22)
(0.166775215416 -0.0153009185874 -3.7211286404e-21)
(0.166861863099 -0.0249761495829 -1.9311321568e-22)
(0.168108351218 -0.035139413101 8.76287326793e-23)
(0.170151354848 -0.0451402374645 3.09515999599e-23)
(0.172746243531 -0.0550224510536 6.01415132828e-24)
(0.175751873161 -0.0647341421602 4.82641314432e-23)
(0.179029970122 -0.0741814835654 -7.00671900008e-23)
(0.179029970122 -0.0741814835654 -7.00671900008e-23)
(0.191289176995 -0.0802139615614 -1.31588281671e-22)
(0.194097332181 -0.0891626829164 1.19405638862e-23)
(0.196395610343 -0.0978635224137 1.65895894518e-22)
(0.196395610343 -0.0978635224137 1.65895894518e-22)
(0.206578931694 -0.105441336992 1.25325622271e-21)
(0.206840910156 -0.114602897872 -1.04365198677e-21)
(0.206840910156 -0.114602897872 -1.04365198677e-21)
(0.214731058714 -0.124716309622 1.2145983596e-21)
)
;
    }
}


// ************************************************************************* //
