/*--------------------------------*- C++ -*----------------------------------*\
| =========                 |                                                 |
| \\      /  F ield         | OpenFOAM: The Open Source CFD Toolbox           |
|  \\    /   O peration     | Version:  v2012                                 |
|   \\  /    A nd           | Website:  www.openfoam.com                      |
|    \\/     M anipulation  |                                                 |
\*---------------------------------------------------------------------------*/
FoamFile
{
    version     2.0;
    format      ascii;
    class       volScalarField;
    location    "1.3";
    object      k_0;
}
// * * * * * * * * * * * * * * * * * * * * * * * * * * * * * * * * * * * * * //

dimensions      [0 2 -2 0 0 0 0];


internalField   nonuniform List<scalar> 
164
(
0.0109635388639
0.0134116158609
0.0141986511956
0.0145044444466
0.0146381687861
0.0146884388762
0.0145772253916
0.0139957796118
0.013251426903
0.0130562907429
0.0131585699176
0.0134866120935
0.0144442990943
0.015164452285
0.0110326649011
0.0134690486251
0.0142586101245
0.0145707950007
0.0147177965559
0.0148092643632
0.0148660836125
0.0148467853133
0.01490237613
0.0150027542901
0.015150162818
0.0153421454408
0.015583420558
0.0158424041244
0.0111080581758
0.0135400829307
0.0143311247912
0.0146455436887
0.0147962626168
0.0148978431326
0.0149911214786
0.0150880365994
0.0152061196289
0.0153413675438
0.0154894481093
0.015648759293
0.0158183684114
0.015994227657
0.0111859215626
0.0136203389909
0.0144114259952
0.0147244298565
0.0148733347337
0.0149731663701
0.0150664840741
0.0151685748119
0.0152852732012
0.0154137047299
0.0155498693661
0.0156917559151
0.015839094987
0.0159919769863
0.0112628958368
0.0137049773745
0.0144946682241
0.0148033222877
0.0149472679536
0.0150415571781
0.0151280611234
0.0152213776478
0.015326012223
0.0154407816011
0.0155630383714
0.015690850433
0.015823863808
0.0159630398618
0.0113363839915
0.0137898062151
0.0145768068287
0.0148789218876
0.0150160542885
0.0151034829224
0.0151822314253
0.0152661367009
0.0153592331969
0.0154612904901
0.0155706165987
0.0156855632983
0.01580542082
0.0159313934975
0.0114046132919
0.0138716702773
0.0146548809921
0.0149489508633
0.0150782465676
0.0151584072653
0.015229599644
0.0153049302896
0.0153880611455
0.015479131197
0.0155770144079
0.0156803488748
0.015788274769
0.0159020293552
0.0114665400316
0.0139484416846
0.0147269608813
0.0150120526751
0.0151330795444
0.0152060366837
0.0152701730834
0.0153378498108
0.0154123889053
0.0154940444641
0.0155820475238
0.0156753716839
0.0157734065289
0.0158779589887
0.0115216970474
0.0140188633524
0.0147919579507
0.0150675821431
0.0151803235856
0.0152464229285
0.0153041232063
0.0153650226808
0.015432121064
0.0155056778739
0.0155851818442
0.015669961378
0.0157600523153
0.0158592224247
0.0115700145864
0.0140823041722
0.0148493848741
0.0151153857238
0.015220107415
0.0152798570184
0.0153317844748
0.0153867215051
0.0154473679207
0.0155139153464
0.0155860783535
0.0156634675623
0.0157466736696
0.0158414168207
0.0116116511185
0.0141384899234
0.0148991181874
0.0151556001752
0.0152527526241
0.0153067401295
0.0153535517356
0.015403268025
0.0154582975983
0.0155187772756
0.0155845747688
0.0156555260255
0.0157326057405
0.0158231916457
0.0154651441773
0.01552035431
0.0155806219575
0.0156459629329
0.0157178051282
0.0158052777444
0.0156346958989
0.0157022191098
0.0157882696754
0.0157712603771
)
;

boundaryField
{
    back
    {
        type            kqRWallFunction;
        value           nonuniform List<scalar> 
164
(
0.0109635388639
0.0134116158609
0.0141986511956
0.0145044444466
0.0146381687861
0.0146884388762
0.0145772253916
0.0139957796118
0.013251426903
0.0130562907429
0.0131585699176
0.0134866120935
0.0144442990943
0.015164452285
0.0110326649011
0.0134690486251
0.0142586101245
0.0145707950007
0.0147177965559
0.0148092643632
0.0148660836125
0.0148467853133
0.01490237613
0.0150027542901
0.015150162818
0.0153421454408
0.015583420558
0.0158424041244
0.0111080581758
0.0135400829307
0.0143311247912
0.0146455436887
0.0147962626168
0.0148978431326
0.0149911214786
0.0150880365994
0.0152061196289
0.0153413675438
0.0154894481093
0.015648759293
0.0158183684114
0.015994227657
0.0111859215626
0.0136203389909
0.0144114259952
0.0147244298565
0.0148733347337
0.0149731663701
0.0150664840741
0.0151685748119
0.0152852732012
0.0154137047299
0.0155498693661
0.0156917559151
0.015839094987
0.0159919769863
0.0112628958368
0.0137049773745
0.0144946682241
0.0148033222877
0.0149472679536
0.0150415571781
0.0151280611234
0.0152213776478
0.015326012223
0.0154407816011
0.0155630383714
0.015690850433
0.015823863808
0.0159630398618
0.0113363839915
0.0137898062151
0.0145768068287
0.0148789218876
0.0150160542885
0.0151034829224
0.0151822314253
0.0152661367009
0.0153592331969
0.0154612904901
0.0155706165987
0.0156855632983
0.01580542082
0.0159313934975
0.0114046132919
0.0138716702773
0.0146548809921
0.0149489508633
0.0150782465676
0.0151584072653
0.015229599644
0.0153049302896
0.0153880611455
0.015479131197
0.0155770144079
0.0156803488748
0.015788274769
0.0159020293552
0.0114665400316
0.0139484416846
0.0147269608813
0.0150120526751
0.0151330795444
0.0152060366837
0.0152701730834
0.0153378498108
0.0154123889053
0.0154940444641
0.0155820475238
0.0156753716839
0.0157734065289
0.0158779589887
0.0115216970474
0.0140188633524
0.0147919579507
0.0150675821431
0.0151803235856
0.0152464229285
0.0153041232063
0.0153650226808
0.015432121064
0.0155056778739
0.0155851818442
0.015669961378
0.0157600523153
0.0158592224247
0.0115700145864
0.0140823041722
0.0148493848741
0.0151153857238
0.015220107415
0.0152798570184
0.0153317844748
0.0153867215051
0.0154473679207
0.0155139153464
0.0155860783535
0.0156634675623
0.0157466736696
0.0158414168207
0.0116116511185
0.0141384899234
0.0148991181874
0.0151556001752
0.0152527526241
0.0153067401295
0.0153535517356
0.015403268025
0.0154582975983
0.0155187772756
0.0155845747688
0.0156555260255
0.0157326057405
0.0158231916457
0.0154651441773
0.01552035431
0.0155806219575
0.0156459629329
0.0157178051282
0.0158052777444
0.0156346958989
0.0157022191098
0.0157882696754
0.0157712603771
)
;
    }
    sides
    {
        type            kqRWallFunction;
        value           nonuniform List<scalar> 0();
    }
    bottom
    {
        type            kqRWallFunction;
        value           nonuniform List<scalar> 
11
(
0.0109635388639
0.0110326649011
0.0111080581758
0.0111859215626
0.0112628958368
0.0113363839915
0.0114046132919
0.0114665400316
0.0115216970474
0.0115700145864
0.0116116511185
)
;
    }
    front
    {
        type            kqRWallFunction;
        value           nonuniform List<scalar> 
164
(
0.0109635388639
0.0134116158609
0.0141986511956
0.0145044444466
0.0146381687861
0.0146884388762
0.0145772253916
0.0139957796118
0.013251426903
0.0130562907429
0.0131585699176
0.0134866120935
0.0144442990943
0.015164452285
0.0110326649011
0.0134690486251
0.0142586101245
0.0145707950007
0.0147177965559
0.0148092643632
0.0148660836125
0.0148467853133
0.01490237613
0.0150027542901
0.015150162818
0.0153421454408
0.015583420558
0.0158424041244
0.0111080581758
0.0135400829307
0.0143311247912
0.0146455436887
0.0147962626168
0.0148978431326
0.0149911214786
0.0150880365994
0.0152061196289
0.0153413675438
0.0154894481093
0.015648759293
0.0158183684114
0.015994227657
0.0111859215626
0.0136203389909
0.0144114259952
0.0147244298565
0.0148733347337
0.0149731663701
0.0150664840741
0.0151685748119
0.0152852732012
0.0154137047299
0.0155498693661
0.0156917559151
0.015839094987
0.0159919769863
0.0112628958368
0.0137049773745
0.0144946682241
0.0148033222877
0.0149472679536
0.0150415571781
0.0151280611234
0.0152213776478
0.015326012223
0.0154407816011
0.0155630383714
0.015690850433
0.015823863808
0.0159630398618
0.0113363839915
0.0137898062151
0.0145768068287
0.0148789218876
0.0150160542885
0.0151034829224
0.0151822314253
0.0152661367009
0.0153592331969
0.0154612904901
0.0155706165987
0.0156855632983
0.01580542082
0.0159313934975
0.0114046132919
0.0138716702773
0.0146548809921
0.0149489508633
0.0150782465676
0.0151584072653
0.015229599644
0.0153049302896
0.0153880611455
0.015479131197
0.0155770144079
0.0156803488748
0.015788274769
0.0159020293552
0.0114665400316
0.0139484416846
0.0147269608813
0.0150120526751
0.0151330795444
0.0152060366837
0.0152701730834
0.0153378498108
0.0154123889053
0.0154940444641
0.0155820475238
0.0156753716839
0.0157734065289
0.0158779589887
0.0115216970474
0.0140188633524
0.0147919579507
0.0150675821431
0.0151803235856
0.0152464229285
0.0153041232063
0.0153650226808
0.015432121064
0.0155056778739
0.0155851818442
0.015669961378
0.0157600523153
0.0158592224247
0.0115700145864
0.0140823041722
0.0148493848741
0.0151153857238
0.015220107415
0.0152798570184
0.0153317844748
0.0153867215051
0.0154473679207
0.0155139153464
0.0155860783535
0.0156634675623
0.0157466736696
0.0158414168207
0.0116116511185
0.0141384899234
0.0148991181874
0.0151556001752
0.0152527526241
0.0153067401295
0.0153535517356
0.015403268025
0.0154582975983
0.0155187772756
0.0155845747688
0.0156555260255
0.0157326057405
0.0158231916457
0.0154651441773
0.01552035431
0.0155806219575
0.0156459629329
0.0157178051282
0.0158052777444
0.0156346958989
0.0157022191098
0.0157882696754
0.0157712603771
)
;
    }
    atmosphere
    {
        type            inletOutlet;
        inletValue      nonuniform List<scalar> 0();
        value           nonuniform List<scalar> 0();
    }
    floatingObject
    {
        type            kqRWallFunction;
        value           nonuniform List<scalar> 4(0.013251426903 0.0130562907429 0.0131585699176 0.0134866120935);
    }
    procBoundary8to3
    {
        type            processor;
        value           nonuniform List<scalar> 8(0.0109052280338 0.0133713627055 0.0141559502174 0.0144508707375 0.0145567511167 0.014524923098 0.0141386041091 0.0121771281661);
    }
    procBoundary8to6
    {
        type            processor;
        value           nonuniform List<scalar> 
16
(
0.0134177621771
0.0145669019449
0.0156713247086
0.0160911573435
0.01617915234
0.016158028539
0.0161169072092
0.0160730279922
0.0160327261187
0.0160029132988
0.0159865822944
0.0159732386874
0.0159583599871
0.015945063957
0.015937336467
0.0159326449381
)
;
    }
    procBoundary8to7
    {
        type            processor;
        value           nonuniform List<scalar> 
17
(
0.011646915773
0.0141874161376
0.0149413033755
0.0151885689651
0.0152787146665
0.0153275516453
0.0153698659326
0.0154150141432
0.0154150141432
0.015468155559
0.0155188075624
0.0155742405988
0.0155742405988
0.0156216364179
0.0156855551716
0.0156855551716
0.0157537282284
)
;
    }
}


// ************************************************************************* //
