/*--------------------------------*- C++ -*----------------------------------*\
| =========                 |                                                 |
| \\      /  F ield         | OpenFOAM: The Open Source CFD Toolbox           |
|  \\    /   O peration     | Version:  v2012                                 |
|   \\  /    A nd           | Website:  www.openfoam.com                      |
|    \\/     M anipulation  |                                                 |
\*---------------------------------------------------------------------------*/
FoamFile
{
    version     2.0;
    format      ascii;
    class       surfaceScalarField;
    location    "0.1";
    object      alphaPhi0.water;
}
// * * * * * * * * * * * * * * * * * * * * * * * * * * * * * * * * * * * * * //

dimensions      [0 3 -1 0 0 0 0];
oriented        oriented;


internalField   nonuniform List<scalar> 
300
(
-0.000164314156248
0.00024426079133
-0.000184162203528
0.000235995479909
-0.000203958546062
0.000225772105352
-0.000223432543633
0.000213359956311
-0.000242254364553
0.000198567751515
-0.000260041946423
0.000181261866735
-0.00027637456201
0.000161388999698
-0.000290813058037
0.000138998099195
-0.000302922934828
0.000114242937676
-0.000312302948918
8.73517501017e-05
-0.000318724370055
5.93152572737e-05
2.51495741311e-05
-0.000172682088651
-0.000194477739486
-0.000216442786581
0.000247737115586
-0.000238269799847
0.000235186935972
-0.000259569331923
0.000219867249786
-0.000279880011248
0.000201572512776
-0.000298682331324
0.000180191290806
-0.00031542323765
0.000155739007134
-0.000329545615598
0.000128365315493
-0.00034052949236
9.83356234387e-05
-0.000348070669691
6.68565950606e-05
2.81051387018e-05
-0.000229099470206
0.000272176978605
-0.000253662883416
0.000259750302902
-0.000277894129162
0.000244098452021
-0.000301235927042
0.000224914269989
-0.000323046165733
0.000202001496816
-0.000342625323387
0.000175318164316
-0.00035925383136
0.000144993823241
-0.000372250953116
0.000111332744999
-0.000381205811421
7.58116929696e-05
3.15560274113e-05
-0.000241680292568
0.000299439629774
-0.000269429315127
0.000287499266328
-0.000297140090911
0.000271809174571
-0.000324141296187
0.000251915427562
-0.000349639498983
0.000227499664197
-0.0003727472271
0.000198425897938
-0.000392528923219
0.000164775519073
-0.000408084085051
0.000126887904914
-0.000418848320701
8.65762694422e-05
3.56253030895e-05
-0.00025383599454
0.000329912320422
-0.000285296101062
0.000318959302164
-0.000317143178404
0.000303656190505
-0.000348581229349
0.00028335342556
-0.000378629408657
0.000257547807568
-0.00040616099103
0.000225957476335
-0.000429952877494
0.000188567405256
-0.000448801710067
0.000145736748324
-0.000461918171355
9.96932526054e-05
4.04769477539e-05
-0.000265085439787
0.000364017277279
-0.000300860012407
0.000354733795365
-0.000337629220108
0.000340425331429
-0.000374462801621
0.000320186951704
-0.000410156168577
0.000293241140656
-0.00044327952342
0.00025908083119
-0.00047222845071
0.000217516332281
-0.000495380232141
0.000168888543286
-0.000511610556392
0.0001159243396
4.63355501296e-05
-0.000274773645425
0.000402199394157
-0.000315542479058
0.000395502544866
-0.000358166905294
0.000383049689285
-0.000401569504906
0.000363589497199
-0.000444299116417
0.000335970724243
-0.000484543683862
0.000299325402264
-0.000520198789832
0.000253171438029
-0.000549061406762
0.000197751178434
-0.000569502467823
0.000136366537185
5.35209401597e-05
-0.000282016035452
0.000444901196267
-0.000328524556259
0.000442010981804
-0.000378088058151
0.000432613125802
-0.000429491041495
0.000414992432205
-0.000481015306148
0.000387494971749
-0.000530388488162
0.000348698587751
-0.000574858843355
0.000297641793204
-0.000611429124493
0.000234321485167
-0.000637708686039
0.000162647832101
6.25135873357e-05
-0.000285632942168
0.000492520980086
-0.000338663513292
0.000495041475099
-0.000396397029148
0.000490346584788
-0.000457525068286
0.000476120434545
-0.00052004550421
0.000450015407922
-0.000581176659709
0.000409829746012
-0.000637345068115
0.000353810201614
-0.000684495965661
0.00028147242192
-0.000719108790672
0.000197263352392
7.40845600582e-05
-0.000284065212267
0.000545343688155
-0.000344379762893
0.000555355960423
-0.000411632515781
0.000557599295853
-0.000484510470075
0.000548998371167
-0.000560761526923
0.000526266492467
-0.000637066159178
0.000486134379538
-0.000708871405993
0.000425615448479
-0.000770775730443
0.000343376760606
-0.000817667675124
0.000244159589439
8.95566050496e-05
-0.000275279370084
0.000603436302589
-0.000343522277664
0.000623598822292
-0.000421690573572
0.000635767572706
-0.000508624915172
0.00063593272605
-0.000601947536517
0.000619589123898
-0.000697793751383
0.000581980593975
-0.00079056943064
0.000518391140669
-0.00087328342202
0.00042609078921
-0.000938857961157
0.000309740999127
0.000111290523944
-0.000256658036145
0.000666491772095
-0.000333194670969
0.000700135438332
-0.000423581771357
0.000726154684967
-0.000527077982084
0.000739428979838
-0.000641420578746
0.000733931745916
-0.000762319241552
0.000702879286361
-0.000883139940202
0.000639211883774
-0.000995327488218
0.000538278383592
-0.00109018544234
0.000404610410605
0.000143320036208
-0.000224890061459
0.000733609852377
-0.000309562543877
0.000784807936242
-0.000413142144551
0.00082973433664
-0.000535712103824
0.000861999023527
-0.000675561236177
0.000873780957412
-0.00082833231626
0.000855650443363
-0.000986283684803
0.000797163325023
-0.00113993444535
0.000691930143563
-0.00128231906108
0.000547014189798
0.000190745611673
-0.000175869863604
0.000802950294402
-0.000267635130892
0.000876573287585
-0.000384659416192
0.000946758761665
-0.000528448161783
0.00100578794864
-0.000698591178627
0.00104392414128
-0.000891395792527
0.00104845521881
-0.00109782922797
0.00100359678298
-0.00130921692409
0.000903317432171
-0.00153163414502
0.00076946788309
0.000251359865163
-0.000104569302981
0.000871230765686
-0.00020112304511
0.000973127217763
-0.000330487334657
0.00107612330616
-0.000496644680229
0.00117194560576
-0.000701646634627
0.00124892640232
-0.000943896116645
0.00129070499823
-0.00121291335047
0.00127261412235
-0.001508897967
0.00119930418828
-0.0017281832957
0.00112911167089
0.000287311940451
-5.33850045314e-06
-0.000102155167825
-0.000240507282528
-0.000428217124091
-0.000670781909434
-0.000971372345493
-0.00132044799494
-0.00176317602238
-0.00174686014936
)
;

boundaryField
{
    back
    {
        type            calculated;
        value           uniform 0;
    }
    sides
    {
        type            calculated;
        value           nonuniform List<scalar> 0();
    }
    bottom
    {
        type            calculated;
        value           nonuniform List<scalar> 0();
    }
    front
    {
        type            calculated;
        value           uniform 0;
    }
    atmosphere
    {
        type            calculated;
        value           uniform 0;
    }
    floatingObject
    {
        type            calculated;
        value           nonuniform List<scalar> 0();
    }
    procBoundary5to0
    {
        type            processor;
        value           nonuniform List<scalar> 
12
(
-0.000224567382849
-0.000216147460921
-0.000205975793707
-0.000193885993554
-0.000179745969545
-0.000163474324248
-0.000145056421899
-0.000124559607179
-0.000102133061122
-7.79717436201e-05
-5.28937312272e-05
-2.25951590476e-05
)
;
    }
    procBoundary5to3
    {
        type            processor;
        value           nonuniform List<scalar> 10(0.000934065465077 0.00106994412296 0.00121447577771 0.00135965584497 0.00149149158929 0.00159129575543 0.00162169050895 0.00164204032871 0.00165733400176 0.000221924647953);
    }
    procBoundary5to4
    {
        type            processor;
        value           nonuniform List<scalar> 
18
(
0.000144620712893
0.000151281471421
0.000265661363422
0.000257791092497
0.000204659529242
0.000214417538741
0.000223363176786
0.000230980335203
0.000236591366746
0.000239314065937
0.000238012995111
0.00023124235567
0.000217186632684
0.000193602480151
0.000157771941834
0.0001065294538
3.62888772431e-05
-5.74960025652e-05
)
;
    }
}


// ************************************************************************* //
