/*--------------------------------*- C++ -*----------------------------------*\
| =========                 |                                                 |
| \\      /  F ield         | OpenFOAM: The Open Source CFD Toolbox           |
|  \\    /   O peration     | Version:  v2012                                 |
|   \\  /    A nd           | Website:  www.openfoam.com                      |
|    \\/     M anipulation  |                                                 |
\*---------------------------------------------------------------------------*/
FoamFile
{
    version     2.0;
    format      ascii;
    class       volScalarField;
    location    "0.1";
    object      epsilon_0;
}
// * * * * * * * * * * * * * * * * * * * * * * * * * * * * * * * * * * * * * //

dimensions      [0 2 -3 0 0 0 0];


internalField   nonuniform List<scalar> 
164
(
0.18691177308
0.186920450092
0.186929433603
0.186938506299
0.186947442727
0.186956000962
0.186963941297
0.186971165383
0.18698057215
0.187053630208
0.188224121703
0.204304840008
0.186951978771
0.186962379849
0.186973188853
0.186984142466
0.186994969853
0.187005378654
0.187015070991
0.187023907398
0.187035094703
0.187115160972
0.188341525303
0.204521851411
0.187020593653
0.187033970684
0.187047247219
0.187060064977
0.187072051927
0.187083010601
0.187096512574
0.187185019165
0.188475064106
0.204766450893
0.187071935995
0.187088417973
0.187104861831
0.187120809319
0.187135799703
0.187149555414
0.187166084539
0.18726486668
0.188628014564
0.205043790211
0.187127537792
0.187147971174
0.187168493493
0.187188511911
0.187207436881
0.187224889776
0.187245407096
0.187356852432
0.188804627328
0.205360454464
0.187187725418
0.187213180583
0.18723893423
0.187264251042
0.187288343553
0.187310704931
0.187336524035
0.187463793717
0.18901050436
0.205724991154
0.187252832805
0.187284658053
0.18731711037
0.187349312932
0.187380224651
0.18740913839
0.187442080784
0.187589442945
0.189253161458
0.206148697866
0.187323189848
0.187363072585
0.187404103924
0.187445243278
0.187485183646
0.187522907865
0.187565539468
0.187738884775
0.189542887962
0.206646840296
0.187399108542
0.187449152113
0.187501158963
0.187553899479
0.187605809473
0.187655487257
0.187711480598
0.187919138234
0.189894097905
0.207240627553
0.187480861534
0.18754366945
0.187609685954
0.187677503105
0.187745293097
0.187811310212
0.187886019885
0.188140082493
0.190327516017
0.20796060283
0.187568655981
0.187647423009
0.187731267642
0.187818666659
0.187907548536
0.187996000494
0.188097388486
0.188415903393
0.19087382643
0.20885285307
0.18766260259
0.187761198795
0.187867626145
0.187980390022
0.18809733037
0.188216666642
0.188356664142
0.188767353532
0.191579965895
0.209991141987
0.187762669155
0.187885716231
0.188020567364
0.188166037283
0.18832025869
0.188482195487
0.188678668503
0.189225314292
0.192520615532
0.211501832126
0.187868635242
0.188021527942
0.188191859149
0.188379172668
0.188582701062
0.188803532874
0.189083094205
0.189836258134
0.193821735618
0.213613968022
0.187979678396
0.188168586898
0.188382963967
0.188623262358
0.188891454876
0.189193794924
0.189595959455
0.190672854451
0.195717970908
0.216727590566
0.188094794221
0.188327741155
0.18859410411
0.18890069563
0.189252625642
0.189667502581
0.190251733084
0.191862864243
0.198678881252
0.221334824648
)
;

boundaryField
{
    back
    {
        lowReCorrection 0;
        blending        stepwise;
        n               2;
        type            epsilonWallFunction;
        value           nonuniform List<scalar> 
164
(
0.18691177308
0.186920450092
0.186929433603
0.186938506299
0.186947442727
0.186956000962
0.186963941297
0.186971165383
0.18698057215
0.187053630208
0.188224121703
0.204304840008
0.186951978771
0.186962379849
0.186973188853
0.186984142466
0.186994969853
0.187005378654
0.187015070991
0.187023907398
0.187035094703
0.187115160972
0.188341525303
0.204521851411
0.187020593653
0.187033970684
0.187047247219
0.187060064977
0.187072051927
0.187083010601
0.187096512574
0.187185019165
0.188475064106
0.204766450893
0.187071935995
0.187088417973
0.187104861831
0.187120809319
0.187135799703
0.187149555414
0.187166084539
0.18726486668
0.188628014564
0.205043790211
0.187127537792
0.187147971174
0.187168493493
0.187188511911
0.187207436881
0.187224889776
0.187245407096
0.187356852432
0.188804627328
0.205360454464
0.187187725418
0.187213180583
0.18723893423
0.187264251042
0.187288343553
0.187310704931
0.187336524035
0.187463793717
0.18901050436
0.205724991154
0.187252832805
0.187284658053
0.18731711037
0.187349312932
0.187380224651
0.18740913839
0.187442080784
0.187589442945
0.189253161458
0.206148697866
0.187323189848
0.187363072585
0.187404103924
0.187445243278
0.187485183646
0.187522907865
0.187565539468
0.187738884775
0.189542887962
0.206646840296
0.187399108542
0.187449152113
0.187501158963
0.187553899479
0.187605809473
0.187655487257
0.187711480598
0.187919138234
0.189894097905
0.207240627553
0.187480861534
0.18754366945
0.187609685954
0.187677503105
0.187745293097
0.187811310212
0.187886019885
0.188140082493
0.190327516017
0.20796060283
0.187568655981
0.187647423009
0.187731267642
0.187818666659
0.187907548536
0.187996000494
0.188097388486
0.188415903393
0.19087382643
0.20885285307
0.18766260259
0.187761198795
0.187867626145
0.187980390022
0.18809733037
0.188216666642
0.188356664142
0.188767353532
0.191579965895
0.209991141987
0.187762669155
0.187885716231
0.188020567364
0.188166037283
0.18832025869
0.188482195487
0.188678668503
0.189225314292
0.192520615532
0.211501832126
0.187868635242
0.188021527942
0.188191859149
0.188379172668
0.188582701062
0.188803532874
0.189083094205
0.189836258134
0.193821735618
0.213613968022
0.187979678396
0.188168586898
0.188382963967
0.188623262358
0.188891454876
0.189193794924
0.189595959455
0.190672854451
0.195717970908
0.216727590566
0.188094794221
0.188327741155
0.18859410411
0.18890069563
0.189252625642
0.189667502581
0.190251733084
0.191862864243
0.198678881252
0.221334824648
)
;
    }
    sides
    {
        lowReCorrection 0;
        blending        stepwise;
        n               2;
        type            epsilonWallFunction;
        value           nonuniform List<scalar> 0();
    }
    bottom
    {
        lowReCorrection 0;
        blending        stepwise;
        n               2;
        type            epsilonWallFunction;
        value           nonuniform List<scalar> 0();
    }
    front
    {
        lowReCorrection 0;
        blending        stepwise;
        n               2;
        type            epsilonWallFunction;
        value           nonuniform List<scalar> 
164
(
0.18691177308
0.186920450092
0.186929433603
0.186938506299
0.186947442727
0.186956000962
0.186963941297
0.186971165383
0.18698057215
0.187053630208
0.188224121703
0.204304840008
0.186951978771
0.186962379849
0.186973188853
0.186984142466
0.186994969853
0.187005378654
0.187015070991
0.187023907398
0.187035094703
0.187115160972
0.188341525303
0.204521851411
0.187020593653
0.187033970684
0.187047247219
0.187060064977
0.187072051927
0.187083010601
0.187096512574
0.187185019165
0.188475064106
0.204766450893
0.187071935995
0.187088417973
0.187104861831
0.187120809319
0.187135799703
0.187149555414
0.187166084539
0.18726486668
0.188628014564
0.205043790211
0.187127537792
0.187147971174
0.187168493493
0.187188511911
0.187207436881
0.187224889776
0.187245407096
0.187356852432
0.188804627328
0.205360454464
0.187187725418
0.187213180583
0.18723893423
0.187264251042
0.187288343553
0.187310704931
0.187336524035
0.187463793717
0.18901050436
0.205724991154
0.187252832805
0.187284658053
0.18731711037
0.187349312932
0.187380224651
0.18740913839
0.187442080784
0.187589442945
0.189253161458
0.206148697866
0.187323189848
0.187363072585
0.187404103924
0.187445243278
0.187485183646
0.187522907865
0.187565539468
0.187738884775
0.189542887962
0.206646840296
0.187399108542
0.187449152113
0.187501158963
0.187553899479
0.187605809473
0.187655487257
0.187711480598
0.187919138234
0.189894097905
0.207240627553
0.187480861534
0.18754366945
0.187609685954
0.187677503105
0.187745293097
0.187811310212
0.187886019885
0.188140082493
0.190327516017
0.20796060283
0.187568655981
0.187647423009
0.187731267642
0.187818666659
0.187907548536
0.187996000494
0.188097388486
0.188415903393
0.19087382643
0.20885285307
0.18766260259
0.187761198795
0.187867626145
0.187980390022
0.18809733037
0.188216666642
0.188356664142
0.188767353532
0.191579965895
0.209991141987
0.187762669155
0.187885716231
0.188020567364
0.188166037283
0.18832025869
0.188482195487
0.188678668503
0.189225314292
0.192520615532
0.211501832126
0.187868635242
0.188021527942
0.188191859149
0.188379172668
0.188582701062
0.188803532874
0.189083094205
0.189836258134
0.193821735618
0.213613968022
0.187979678396
0.188168586898
0.188382963967
0.188623262358
0.188891454876
0.189193794924
0.189595959455
0.190672854451
0.195717970908
0.216727590566
0.188094794221
0.188327741155
0.18859410411
0.18890069563
0.189252625642
0.189667502581
0.190251733084
0.191862864243
0.198678881252
0.221334824648
)
;
    }
    atmosphere
    {
        type            inletOutlet;
        inletValue      uniform 0.1;
        value           uniform 0.1;
    }
    floatingObject
    {
        lowReCorrection 0;
        blending        stepwise;
        n               2;
        type            epsilonWallFunction;
        value           nonuniform List<scalar> 0();
    }
    procBoundary5to0
    {
        type            processor;
        value           nonuniform List<scalar> 
12
(
0.186874136117
0.186881472161
0.186889041228
0.186896663293
0.186904145388
0.186911287334
0.186917893348
0.18692389448
0.186931928126
0.186999116058
0.18812028804
0.204111331169
)
;
    }
    procBoundary5to3
    {
        type            processor;
        value           nonuniform List<scalar> 10(0.188215791063 0.188496374147 0.188825656988 0.189211368465 0.189668479804 0.190243569228 0.19112355479 0.193706906718 0.203353450469 0.227114934635);
    }
    procBoundary5to4
    {
        type            processor;
        value           nonuniform List<scalar> 
18
(
0.186903586416
0.186942204418
0.186994861702
0.187007453414
0.187007453414
0.187055834057
0.187107689931
0.187163156326
0.187222335674
0.187285279592
0.187351968247
0.187422285609
0.187495992424
0.187572681855
0.187651728331
0.187732160011
0.187813910503
0.187895171767
)
;
    }
}


// ************************************************************************* //
