/*--------------------------------*- C++ -*----------------------------------*\
| =========                 |                                                 |
| \\      /  F ield         | OpenFOAM: The Open Source CFD Toolbox           |
|  \\    /   O peration     | Version:  v2012                                 |
|   \\  /    A nd           | Website:  www.openfoam.com                      |
|    \\/     M anipulation  |                                                 |
\*---------------------------------------------------------------------------*/
FoamFile
{
    version     2.0;
    format      ascii;
    class       volVectorField;
    location    "0.1";
    object      U;
}
// * * * * * * * * * * * * * * * * * * * * * * * * * * * * * * * * * * * * * //

dimensions      [0 1 -1 0 0 0 0];


internalField   nonuniform List<vector> 
164
(
(0.0483000793066 -0.0319044509339 4.28427978967e-24)
(0.0465638249637 -0.0359957922978 7.04671413855e-25)
(0.0444449245973 -0.0400995504097 -4.71855774367e-24)
(0.0419033184789 -0.0441662647691 -8.49779097066e-25)
(0.0389066101701 -0.0481337635938 -2.44457259882e-23)
(0.0354335087584 -0.0519278450314 -7.27108003406e-24)
(0.0314779087299 -0.0554649568829 -2.19103079018e-23)
(0.0270526140539 -0.0586547930499 -2.4405817205e-23)
(0.0221894250013 -0.061394240624 2.37012237358e-24)
(0.0169300237546 -0.0636334009035 1.14187145983e-22)
(0.0114658058494 -0.0657627440741 4.50522125145e-22)
(0.00536234358182 -0.0643818887717 -1.04729473164e-21)
(0.0525370387826 -0.0334497276225 4.6270140121e-24)
(0.0508539608739 -0.0379197193129 5.62628058802e-24)
(0.0487435295121 -0.0424508241792 -3.71517185824e-24)
(0.0461505228655 -0.0469873850268 1.96737967018e-23)
(0.0430284310904 -0.0514571328398 -1.4652410101e-23)
(0.0393434697081 -0.0557717309492 1.98424291405e-23)
(0.0350798883751 -0.0598290170251 -8.19527977001e-24)
(0.0302455259669 -0.0635162085982 -2.52162646009e-23)
(0.024872529701 -0.0667035957224 2.4608763213e-23)
(0.0190095487663 -0.0693273966849 2.78630025925e-22)
(0.0128896029853 -0.0717630848939 1.87706883735e-21)
(0.00603946031475 -0.0703576246042 -3.29810457239e-21)
(0.0535202739382 -0.0448031164173 2.27586530681e-24)
(0.050920962358 -0.0498814552298 2.85040614435e-23)
(0.0477052011461 -0.0549408678011 2.35622929788e-24)
(0.0438221612055 -0.0598764003007 3.55662915758e-23)
(0.0392416934314 -0.0645633647979 -2.01769245609e-24)
(0.0339628471491 -0.0688604319075 1.26592675948e-24)
(0.028015753675 -0.0726034089641 3.73472929328e-23)
(0.0214566230739 -0.0757089370945 3.82162820913e-22)
(0.0145707835514 -0.0785227617527 4.22513610435e-21)
(0.00684167612905 -0.0771187159122 -2.49409129918e-22)
(0.0588428911023 -0.0470996077154 -8.86145853443e-24)
(0.0563002563998 -0.0528026102328 2.58319068814e-23)
(0.0530399182434 -0.0585560097 -1.90877170496e-23)
(0.0489858821051 -0.0642352529132 2.08472019623e-23)
(0.0440875844289 -0.0696889075059 -6.39565382928e-23)
(0.0383292329616 -0.0747395633719 6.77093393772e-24)
(0.0317346951454 -0.079178252682 2.13011007934e-23)
(0.0243676232404 -0.0828939046543 8.0333644325e-23)
(0.0165790583267 -0.086181135643 1.54441907197e-21)
(0.00780385222226 -0.0848187147148 -2.60752551267e-21)
(0.0647877212545 -0.0492629130625 -7.74448334093e-24)
(0.0623890332995 -0.0556846574227 2.25684583108e-23)
(0.059156436402 -0.0622553636296 -4.19168753317e-23)
(0.0549785326188 -0.0688287457624 9.36848093257e-23)
(0.0497748400807 -0.0752207147922 -1.04196766559e-22)
(0.0435057933621 -0.0812094419474 -9.9658637183e-23)
(0.0361815908705 -0.0865278383099 5.19660140098e-23)
(0.0278716222442 -0.0910255888271 4.62417326032e-22)
(0.0190090968091 -0.0949149049665 2.69825716789e-21)
(0.00897410269199 -0.0936563182946 -2.59096816948e-21)
(0.0714390001369 -0.0511879714641 3.732521388e-24)
(0.0693042164857 -0.0584342051089 3.76612702462e-23)
(0.0662029786058 -0.0659667006465 -4.62717714312e-23)
(0.0619783609367 -0.0736168507165 7.55683226005e-23)
(0.056503234323 -0.0811624589995 -7.07680623495e-23)
(0.0497021333359 -0.0883269815685 4.84099490629e-24)
(0.0415590308169 -0.0947687315228 6.03546334622e-23)
(0.0321441134303 -0.100282026093 4.74917468999e-22)
(0.0219921053189 -0.104950726495 4.03642393598e-21)
(0.0104208008041 -0.103893497236 2.03234732778e-21)
(0.0788874264705 -0.052734429252 1.78316163675e-23)
(0.0771790234777 -0.0609210277628 4.08627570433e-23)
(0.0743571903241 -0.069581460904 9.50014969845e-23)
(0.0702042844363 -0.0785284997463 1.2420830281e-22)
(0.0645266605584 -0.0874978287076 1.77859133479e-22)
(0.0571922618564 -0.0961448387541 2.33720362996e-22)
(0.0481392869692 -0.104034843508 9.24230498989e-23)
(0.037427578427 -0.110884853638 6.94462377192e-23)
(0.0257143180342 -0.116582721166 2.69169323474e-21)
(0.0122448994783 -0.115883569172 8.046002613e-21)
(0.0872265535723 -0.0537164089546 -6.27251567812e-25)
(0.0861621197282 -0.06296472945 5.62432052566e-23)
(0.0838280291285 -0.072941670947 2.03580526165e-23)
(0.0799238715872 -0.0834474024848 6.10661465603e-23)
(0.0741678610381 -0.0941753644539 1.60270517792e-23)
(0.0663358350951 -0.104700968399 -7.01046399865e-23)
(0.0562916166632 -0.114474672282 1.09424514811e-23)
(0.0440626766208 -0.123108960187 2.04886461358e-22)
(0.0304474746271 -0.130196547363 2.1872577653e-21)
(0.0146031239071 -0.130116679179 7.55045215921e-22)
(0.0965461299918 -0.053890578284 1.17682532785e-23)
(0.0964138833114 -0.0643196936493 3.99203227768e-23)
(0.0948562613194 -0.0758197703709 7.81979887683e-23)
(0.0914635552959 -0.0881886152097 1.00595759915e-22)
(0.0858331390478 -0.101086639345 2.01909476177e-22)
(0.0776048707725 -0.114000673236 3.61481764883e-22)
(0.066519867347 -0.126242222566 9.63125544957e-23)
(0.0525354666123 -0.137290715845 7.34615678217e-22)
(0.0366003691687 -0.146301542833 5.72118275465e-21)
(0.0177548164364 -0.147297519402 4.80772798529e-21)
(0.1069210328 -0.0529417169735 6.95354956134e-25)
(0.108098195894 -0.064654462773 2.67828412729e-23)
(0.107712058514 -0.0778915832341 -9.5111552676e-24)
(0.10521246985 -0.0924702170477 1.63665338458e-22)
(0.100029738637 -0.108034463935 4.70897890612e-24)
(0.0916180606314 -0.123983163823 -1.51038351908e-22)
(0.0795138712538 -0.139474644795 3.0968714442e-22)
(0.0635482344257 -0.153828251202 5.86191767522e-22)
(0.0448075904581 -0.165570111799 5.9615404337e-21)
(0.022163016174 -0.168486403999 -4.21495712302e-21)
(0.118393706438 -0.0504670227342 -1.95860793107e-24)
(0.12136709632 -0.0635279594461 5.88183179922e-24)
(0.122685525659 -0.078704469354 -4.28464723685e-23)
(0.121623067188 -0.0958700059619 2.47576259027e-22)
(0.117387536454 -0.114680424385 7.19564000164e-23)
(0.109174632154 -0.134469766507 -6.97513471795e-23)
(0.0962141446748 -0.154248876266 3.91405225631e-22)
(0.0781206210068 -0.173160520426 1.27906033898e-21)
(0.0560823391163 -0.188876591085 8.97919171435e-21)
(0.0287242667811 -0.195373196535 1.81915771916e-21)
(0.130947994615 -0.045959829646 -7.52317701763e-23)
(0.136334974822 -0.0603610205928 -8.87529324089e-24)
(0.14006638232 -0.0776339183968 9.63627241445e-23)
(0.141202694795 -0.0977660670935 1.60430999417e-22)
(0.138666614749 -0.120479940444 4.52382865767e-22)
(0.13129311241 -0.145087671943 6.30287013643e-22)
(0.117891675336 -0.170496681843 4.9970376118e-22)
(0.0977246602723 -0.195693701655 3.12312389067e-21)
(0.0720781268958 -0.21731164981 1.06077557545e-20)
(0.0393047400812 -0.230847462655 1.5525095854e-20)
(0.144469394421 -0.0387942209153 1.73604672385e-24)
(0.153037525555 -0.0544068398517 -5.10943834298e-23)
(0.160106565454 -0.073834272106 -2.4863396758e-24)
(0.164487550202 -0.0972667449576 3.36042242688e-23)
(0.164754931786 -0.12458271336 -2.14757784475e-22)
(0.159260461029 -0.155147537447 8.27657712545e-23)
(0.146215803177 -0.187874491687 -7.42273938143e-24)
(0.124446217422 -0.221618817697 -6.07032873591e-22)
(0.0955631585211 -0.252164827999 6.81761074289e-21)
(0.0579837172908 -0.280244848062 -2.22782415705e-20)
(0.158695266586 -0.0282188537983 -3.34313370296e-22)
(0.171375784843 -0.0447212923743 8.97974752806e-23)
(0.18295707959 -0.0661809472529 -6.41105287024e-23)
(0.191987413623 -0.0931147085929 4.12913579313e-23)
(0.196639757463 -0.125694626735 2.02305405502e-22)
(0.194646406786 -0.163503572568 -4.18242380079e-23)
(0.183303446072 -0.205568598521 7.61015085002e-22)
(0.161173687966 -0.250472393749 2.93683672047e-21)
(0.131189811759 -0.295275810658 8.22643877303e-21)
(0.0934121291967 -0.353854195714 4.07627882024e-20)
(0.173077796058 -0.0133224223812 1.18643955553e-22)
(0.190988179154 -0.0301390808171 -1.27561618766e-22)
(0.208575839986 -0.0532240340408 8.21961815944e-23)
(0.224093625535 -0.0835828836314 6.40742860758e-24)
(0.235340675401 -0.121920876081 -3.44135775165e-24)
(0.239330117788 -0.168378787942 -3.66805380637e-22)
(0.231916884463 -0.221921733052 1.37761068475e-22)
(0.2126675297 -0.280483812322 -2.65374919541e-22)
(0.188941117615 -0.35218327346 -3.44059315241e-21)
(0.163952139407 -0.467675650815 -2.38150782452e-20)
(0.186884749948 0.00677164040644 -1.63543839448e-22)
(0.211233962917 -0.00923462743536 -7.79573000408e-23)
(0.236472055411 -0.0330738716275 -3.77370692919e-22)
(0.260887808191 -0.0663564307806 7.78942524213e-23)
(0.281655181549 -0.110506847562 -1.46771178596e-22)
(0.295032159761 -0.166904343171 1.6447828236e-21)
(0.294886275161 -0.23276303008 1.57860791917e-21)
(0.2853304178 -0.307669981631 -6.85523478581e-22)
(0.279428538297 -0.441838531361 2.5639736299e-20)
(0.283465530349 -0.628950611214 6.8594216182e-20)
)
;

boundaryField
{
    back
    {
        type            noSlip;
    }
    sides
    {
        type            noSlip;
    }
    bottom
    {
        type            noSlip;
    }
    front
    {
        type            noSlip;
    }
    atmosphere
    {
        type            pressureInletOutletVelocity;
        value           nonuniform List<vector> 
16
(
(0 -0.0643818887717 0)
(0 -0.0703576246042 0)
(0 -0.0771187159122 0)
(0 -0.0848187147148 0)
(0 -0.0936563182946 0)
(0 -0.103893497236 0)
(0 -0.115883569172 0)
(0 -0.130116679179 0)
(0 -0.147297519402 0)
(0 -0.168486403999 0)
(0 -0.195373196535 0)
(0 -0.230847462655 0)
(0 -0.280244848062 0)
(0 -0.353854195714 0)
(0 -0.467675650815 0)
(0 -0.628950611214 0)
)
;
    }
    floatingObject
    {
        type            movingWallVelocity;
        value           nonuniform List<vector> 0();
    }
    procBoundary5to0
    {
        type            processor;
        value           nonuniform List<vector> 
12
(
(0.0444006835772 -0.0303153357335 1.38530780653e-24)
(0.0426539424699 -0.0340644739706 5.80568446851e-24)
(0.0405653674201 -0.0377902438629 -2.38706997996e-24)
(0.0381062799831 -0.0414490163141 1.37741213791e-23)
(0.0352546510485 -0.0449872919648 -4.8025272701e-24)
(0.0319982178376 -0.0483430247893 3.34927187747e-23)
(0.0283372117935 -0.0514477535388 -1.49105951859e-23)
(0.0242869878098 -0.0542288622934 -9.37679199394e-24)
(0.0198777586403 -0.0566038170791 1.17321614967e-23)
(0.0151450846766 -0.0585326284429 1.47751713384e-22)
(0.0102471628327 -0.0604105858273 1.22043130859e-21)
(0.0047844865798 -0.0590709498159 -1.40970735166e-21)
)
;
    }
    procBoundary5to3
    {
        type            processor;
        value           nonuniform List<vector> 10((0.198791843699 0.0332111018344 -3.33638521951e-22) (0.230895895669 0.019441198772 -4.43442674021e-22) (0.26590918904 -0.00360386116854 -4.51009614899e-22) (0.301956261412 -0.038452470455 -2.71414929924e-23) (0.336386249862 -0.088031327237 -6.02672099003e-22) (0.365398011227 -0.155981630253 -1.69882254548e-23) (0.380456825164 -0.233851127152 2.18159988035e-21) (0.402352542467 -0.33589740577 -1.67550109289e-20) (0.46553712305 -0.565236153589 -1.65725456142e-20) (0.50020357787 -0.805361642837 6.84721040613e-20));
    }
    procBoundary5to4
    {
        type            processor;
        value           nonuniform List<vector> 
18
(
(0.0496981184644 -0.0278622407059 2.58258325857e-25)
(0.0538511449471 -0.0290796643025 4.66134795034e-25)
(0.0571427529775 -0.0349017947872 5.86575745619e-24)
(0.0555695483203 -0.0397894504908 8.76073399537e-24)
(0.0555695483203 -0.0397894504908 8.76073399537e-24)
(0.0607597800083 -0.0415424139402 6.66910956869e-24)
(0.0664770621076 -0.043095743141 1.15400264897e-23)
(0.0727753476227 -0.0443411412399 3.48961511877e-24)
(0.0797070666208 -0.0451385381251 1.86803795632e-24)
(0.087318012889 -0.0453085154246 3.31982660018e-24)
(0.0956393368973 -0.0446239461341 -2.28523991137e-24)
(0.104675532736 -0.0428008477663 -1.98563892687e-23)
(0.114387164339 -0.0394900158836 -2.28114509956e-23)
(0.124665309008 -0.0342692914633 2.82872111163e-23)
(0.135299150498 -0.0266399641546 -1.62140111376e-22)
(0.145905750404 -0.0160338949118 2.70431330738e-23)
(0.155999824606 -0.0018160910626 -9.08806176077e-23)
(0.164699480946 0.0165936068329 1.08064747906e-22)
)
;
    }
}


// ************************************************************************* //
