/*--------------------------------*- C++ -*----------------------------------*\
| =========                 |                                                 |
| \\      /  F ield         | OpenFOAM: The Open Source CFD Toolbox           |
|  \\    /   O peration     | Version:  v2012                                 |
|   \\  /    A nd           | Website:  www.openfoam.com                      |
|    \\/     M anipulation  |                                                 |
\*---------------------------------------------------------------------------*/
FoamFile
{
    version     2.0;
    format      ascii;
    class       volScalarField;
    location    "0.7";
    object      rAU;
}
// * * * * * * * * * * * * * * * * * * * * * * * * * * * * * * * * * * * * * //

dimensions      [-1 3 1 0 0 0 0];


internalField   nonuniform List<scalar> 
164
(
8.14153308725e-06
8.14064191463e-06
8.13985737796e-06
8.13908949301e-06
8.13834140374e-06
8.13781098596e-06
8.13635878788e-06
8.13339509906e-06
8.11735976969e-06
8.08163942634e-06
1.34451646712e-05
0.00225783520781
8.14060867642e-06
8.1397020836e-06
8.13891347252e-06
8.13815966133e-06
8.13743557571e-06
8.13676404711e-06
8.1353407806e-06
8.13345231147e-06
8.11680916967e-06
8.08945535362e-06
1.4575667243e-05
0.00238161452393
8.13770519266e-06
8.13700109527e-06
8.13631661086e-06
8.13554712455e-06
8.13419434516e-06
8.13288162252e-06
8.11552616714e-06
8.10034998674e-06
1.58138309894e-05
0.00252349981868
8.13624696799e-06
8.13562522205e-06
8.13499704875e-06
8.13418881344e-06
8.1329132843e-06
8.13171855317e-06
8.11358993393e-06
8.11807010245e-06
1.71511143998e-05
0.00266769314697
8.13458943315e-06
8.13407025046e-06
8.13350933402e-06
8.13271482584e-06
8.13148640515e-06
8.13002976265e-06
8.1112138946e-06
8.14031837693e-06
1.85445580439e-05
0.00281202079443
8.1328140394e-06
8.1323991112e-06
8.13190570461e-06
8.1311496815e-06
8.12994495406e-06
8.12817374415e-06
8.10930960978e-06
8.18588396701e-06
2.00414134036e-05
0.00295123924655
8.13101693679e-06
8.13070865282e-06
8.13025721659e-06
8.12949329816e-06
8.12821051442e-06
8.12671639678e-06
8.10851733351e-06
8.23370104773e-06
2.14640802928e-05
0.00307811284523
8.12926433079e-06
8.12907437401e-06
8.12863297985e-06
8.12773425842e-06
8.12615231102e-06
8.12681315298e-06
8.10828214234e-06
8.27707009142e-06
2.26546695296e-05
0.00318311463449
8.12773515548e-06
8.12765246898e-06
8.12734868992e-06
8.12667070789e-06
8.12483376079e-06
8.12163376573e-06
8.11105304595e-06
8.31529358429e-06
2.34589657349e-05
0.00325314545165
8.12647955806e-06
8.12648097768e-06
8.12640232945e-06
8.1261416296e-06
8.12433048798e-06
8.11668213059e-06
8.1073398222e-06
8.3204075057e-06
2.37755846873e-05
0.00326066646051
8.12546010688e-06
8.12554365538e-06
8.12566411561e-06
8.12573651218e-06
8.12493499309e-06
8.12076441258e-06
8.10677296798e-06
8.26912587988e-06
2.31546360751e-05
0.00320705378603
8.12464706266e-06
8.12479759717e-06
8.12518443305e-06
8.12593472329e-06
8.12687281187e-06
8.1259527611e-06
8.10847718657e-06
8.12499213811e-06
2.12790359716e-05
0.00307227797641
8.12396970298e-06
8.12410687605e-06
8.12465555615e-06
8.12593030372e-06
8.12820675833e-06
8.12835029702e-06
8.10743259029e-06
8.04665040092e-06
1.81404752689e-05
0.00251446741423
8.12334688149e-06
8.12336727794e-06
8.12385913318e-06
8.12528853351e-06
8.12787076254e-06
8.12544815748e-06
8.09119643997e-06
8.01975972248e-06
1.53842156909e-05
0.0014003626497
8.12277532821e-06
8.12253691402e-06
8.12261310303e-06
8.12364991003e-06
8.12636877917e-06
8.1274797382e-06
8.17993283492e-06
7.91953924473e-06
1.22918448007e-05
0.000280211603824
8.1223776401e-06
8.1217891229e-06
8.12100666384e-06
8.12045245176e-06
8.11878631709e-06
8.11534649506e-06
8.04197598731e-06
7.61215917903e-06
1.16790773872e-05
0.000307525700428
)
;

boundaryField
{
    back
    {
        type            calculated;
        value           nonuniform List<scalar> 
164
(
8.14153308725e-06
8.14064191463e-06
8.13985737796e-06
8.13908949301e-06
8.13834140374e-06
8.13781098596e-06
8.13635878788e-06
8.13339509906e-06
8.11735976969e-06
8.08163942634e-06
1.34451646712e-05
0.00225783520781
8.14060867642e-06
8.1397020836e-06
8.13891347252e-06
8.13815966133e-06
8.13743557571e-06
8.13676404711e-06
8.1353407806e-06
8.13345231147e-06
8.11680916967e-06
8.08945535362e-06
1.4575667243e-05
0.00238161452393
8.13770519266e-06
8.13700109527e-06
8.13631661086e-06
8.13554712455e-06
8.13419434516e-06
8.13288162252e-06
8.11552616714e-06
8.10034998674e-06
1.58138309894e-05
0.00252349981868
8.13624696799e-06
8.13562522205e-06
8.13499704875e-06
8.13418881344e-06
8.1329132843e-06
8.13171855317e-06
8.11358993393e-06
8.11807010245e-06
1.71511143998e-05
0.00266769314697
8.13458943315e-06
8.13407025046e-06
8.13350933402e-06
8.13271482584e-06
8.13148640515e-06
8.13002976265e-06
8.1112138946e-06
8.14031837693e-06
1.85445580439e-05
0.00281202079443
8.1328140394e-06
8.1323991112e-06
8.13190570461e-06
8.1311496815e-06
8.12994495406e-06
8.12817374415e-06
8.10930960978e-06
8.18588396701e-06
2.00414134036e-05
0.00295123924655
8.13101693679e-06
8.13070865282e-06
8.13025721659e-06
8.12949329816e-06
8.12821051442e-06
8.12671639678e-06
8.10851733351e-06
8.23370104773e-06
2.14640802928e-05
0.00307811284523
8.12926433079e-06
8.12907437401e-06
8.12863297985e-06
8.12773425842e-06
8.12615231102e-06
8.12681315298e-06
8.10828214234e-06
8.27707009142e-06
2.26546695296e-05
0.00318311463449
8.12773515548e-06
8.12765246898e-06
8.12734868992e-06
8.12667070789e-06
8.12483376079e-06
8.12163376573e-06
8.11105304595e-06
8.31529358429e-06
2.34589657349e-05
0.00325314545165
8.12647955806e-06
8.12648097768e-06
8.12640232945e-06
8.1261416296e-06
8.12433048798e-06
8.11668213059e-06
8.1073398222e-06
8.3204075057e-06
2.37755846873e-05
0.00326066646051
8.12546010688e-06
8.12554365538e-06
8.12566411561e-06
8.12573651218e-06
8.12493499309e-06
8.12076441258e-06
8.10677296798e-06
8.26912587988e-06
2.31546360751e-05
0.00320705378603
8.12464706266e-06
8.12479759717e-06
8.12518443305e-06
8.12593472329e-06
8.12687281187e-06
8.1259527611e-06
8.10847718657e-06
8.12499213811e-06
2.12790359716e-05
0.00307227797641
8.12396970298e-06
8.12410687605e-06
8.12465555615e-06
8.12593030372e-06
8.12820675833e-06
8.12835029702e-06
8.10743259029e-06
8.04665040092e-06
1.81404752689e-05
0.00251446741423
8.12334688149e-06
8.12336727794e-06
8.12385913318e-06
8.12528853351e-06
8.12787076254e-06
8.12544815748e-06
8.09119643997e-06
8.01975972248e-06
1.53842156909e-05
0.0014003626497
8.12277532821e-06
8.12253691402e-06
8.12261310303e-06
8.12364991003e-06
8.12636877917e-06
8.1274797382e-06
8.17993283492e-06
7.91953924473e-06
1.22918448007e-05
0.000280211603824
8.1223776401e-06
8.1217891229e-06
8.12100666384e-06
8.12045245176e-06
8.11878631709e-06
8.11534649506e-06
8.04197598731e-06
7.61215917903e-06
1.16790773872e-05
0.000307525700428
)
;
    }
    sides
    {
        type            calculated;
        value           nonuniform List<scalar> 0();
    }
    bottom
    {
        type            calculated;
        value           nonuniform List<scalar> 0();
    }
    front
    {
        type            calculated;
        value           nonuniform List<scalar> 
164
(
8.14153308725e-06
8.14064191463e-06
8.13985737796e-06
8.13908949301e-06
8.13834140374e-06
8.13781098596e-06
8.13635878788e-06
8.13339509906e-06
8.11735976969e-06
8.08163942634e-06
1.34451646712e-05
0.00225783520781
8.14060867642e-06
8.1397020836e-06
8.13891347252e-06
8.13815966133e-06
8.13743557571e-06
8.13676404711e-06
8.1353407806e-06
8.13345231147e-06
8.11680916967e-06
8.08945535362e-06
1.4575667243e-05
0.00238161452393
8.13770519266e-06
8.13700109527e-06
8.13631661086e-06
8.13554712455e-06
8.13419434516e-06
8.13288162252e-06
8.11552616714e-06
8.10034998674e-06
1.58138309894e-05
0.00252349981868
8.13624696799e-06
8.13562522205e-06
8.13499704875e-06
8.13418881344e-06
8.1329132843e-06
8.13171855317e-06
8.11358993393e-06
8.11807010245e-06
1.71511143998e-05
0.00266769314697
8.13458943315e-06
8.13407025046e-06
8.13350933402e-06
8.13271482584e-06
8.13148640515e-06
8.13002976265e-06
8.1112138946e-06
8.14031837693e-06
1.85445580439e-05
0.00281202079443
8.1328140394e-06
8.1323991112e-06
8.13190570461e-06
8.1311496815e-06
8.12994495406e-06
8.12817374415e-06
8.10930960978e-06
8.18588396701e-06
2.00414134036e-05
0.00295123924655
8.13101693679e-06
8.13070865282e-06
8.13025721659e-06
8.12949329816e-06
8.12821051442e-06
8.12671639678e-06
8.10851733351e-06
8.23370104773e-06
2.14640802928e-05
0.00307811284523
8.12926433079e-06
8.12907437401e-06
8.12863297985e-06
8.12773425842e-06
8.12615231102e-06
8.12681315298e-06
8.10828214234e-06
8.27707009142e-06
2.26546695296e-05
0.00318311463449
8.12773515548e-06
8.12765246898e-06
8.12734868992e-06
8.12667070789e-06
8.12483376079e-06
8.12163376573e-06
8.11105304595e-06
8.31529358429e-06
2.34589657349e-05
0.00325314545165
8.12647955806e-06
8.12648097768e-06
8.12640232945e-06
8.1261416296e-06
8.12433048798e-06
8.11668213059e-06
8.1073398222e-06
8.3204075057e-06
2.37755846873e-05
0.00326066646051
8.12546010688e-06
8.12554365538e-06
8.12566411561e-06
8.12573651218e-06
8.12493499309e-06
8.12076441258e-06
8.10677296798e-06
8.26912587988e-06
2.31546360751e-05
0.00320705378603
8.12464706266e-06
8.12479759717e-06
8.12518443305e-06
8.12593472329e-06
8.12687281187e-06
8.1259527611e-06
8.10847718657e-06
8.12499213811e-06
2.12790359716e-05
0.00307227797641
8.12396970298e-06
8.12410687605e-06
8.12465555615e-06
8.12593030372e-06
8.12820675833e-06
8.12835029702e-06
8.10743259029e-06
8.04665040092e-06
1.81404752689e-05
0.00251446741423
8.12334688149e-06
8.12336727794e-06
8.12385913318e-06
8.12528853351e-06
8.12787076254e-06
8.12544815748e-06
8.09119643997e-06
8.01975972248e-06
1.53842156909e-05
0.0014003626497
8.12277532821e-06
8.12253691402e-06
8.12261310303e-06
8.12364991003e-06
8.12636877917e-06
8.1274797382e-06
8.17993283492e-06
7.91953924473e-06
1.22918448007e-05
0.000280211603824
8.1223776401e-06
8.1217891229e-06
8.12100666384e-06
8.12045245176e-06
8.11878631709e-06
8.11534649506e-06
8.04197598731e-06
7.61215917903e-06
1.16790773872e-05
0.000307525700428
)
;
    }
    atmosphere
    {
        type            calculated;
        value           nonuniform List<scalar> 
16
(
0.00225783520781
0.00238161452393
0.00252349981868
0.00266769314697
0.00281202079443
0.00295123924655
0.00307811284523
0.00318311463449
0.00325314545165
0.00326066646051
0.00320705378603
0.00307227797641
0.00251446741423
0.0014003626497
0.000280211603824
0.000307525700428
)
;
    }
    floatingObject
    {
        type            calculated;
        value           nonuniform List<scalar> 0();
    }
    procBoundary5to0
    {
        type            processor;
        value           nonuniform List<scalar> 
12
(
8.14211767258e-06
8.14129298907e-06
8.14055217133e-06
8.13980241027e-06
8.13904428436e-06
8.13867611009e-06
8.13733096608e-06
8.13285927133e-06
8.11745322144e-06
8.05150270911e-06
1.23905738686e-05
0.00242904660452
)
;
    }
    procBoundary5to3
    {
        type            processor;
        value           nonuniform List<scalar> 10(8.12238891132e-06 8.12146334789e-06 8.11950366809e-06 8.11610195181e-06 8.10515355808e-06 8.07775489911e-06 7.95652846498e-06 7.72860235567e-06 1.10866353055e-05 0.00038694814239);
    }
    procBoundary5to4
    {
        type            processor;
        value           nonuniform List<scalar> 
18
(
8.14257259741e-06
8.14168995739e-06
8.13929464966e-06
8.13844618931e-06
8.13844618931e-06
8.13688637587e-06
8.13508503706e-06
8.13315210488e-06
8.13118777931e-06
8.12930216151e-06
8.12769361505e-06
8.12640098659e-06
8.12538324909e-06
8.12463666314e-06
8.12408497692e-06
8.12362616129e-06
8.12323116062e-06
8.12290953209e-06
)
;
    }
}


// ************************************************************************* //
