/*--------------------------------*- C++ -*----------------------------------*\
| =========                 |                                                 |
| \\      /  F ield         | OpenFOAM: The Open Source CFD Toolbox           |
|  \\    /   O peration     | Version:  v2012                                 |
|   \\  /    A nd           | Website:  www.openfoam.com                      |
|    \\/     M anipulation  |                                                 |
\*---------------------------------------------------------------------------*/
FoamFile
{
    version     2.0;
    format      ascii;
    class       volVectorField;
    location    "2.5";
    object      ddt0(rho,U);
}
// * * * * * * * * * * * * * * * * * * * * * * * * * * * * * * * * * * * * * //

dimensions      [1 -2 -2 0 0 0 0];


internalField   nonuniform List<vector> 
164
(
(176.871010031 15.2527914553 1.50217942949e-20)
(185.79273956 18.4316579915 1.84458116222e-20)
(196.234624912 22.3323266889 2.22853917129e-20)
(208.375102172 27.3072122575 5.17112485506e-20)
(222.502758695 33.8766152515 2.2180252128e-19)
(238.929652393 42.7679498038 1.0760927671e-19)
(258.224113355 54.9118300227 1.13828363225e-19)
(280.426131824 73.8207453364 2.16445737183e-18)
(309.894982573 95.8819733432 3.07388506281e-18)
(189.732415023 64.6597938058 -5.02115497575e-18)
(8.61639743956 3.41282259772 -3.16765212583e-18)
(0.332662221504 0.541342192922 -7.51733237682e-20)
(173.039451461 23.1236012687 1.27885929315e-20)
(181.11400783 27.6303500911 8.35145852769e-21)
(190.435438098 32.9994719889 1.07515915351e-20)
(201.136999555 39.6318193883 6.97748781669e-20)
(213.375062115 48.00508177 -5.19165386358e-20)
(227.125943817 58.8198345898 -6.4501876171e-21)
(242.540965677 72.6850495552 2.61551734649e-19)
(259.222994911 93.4394510741 2.72070143703e-19)
(273.500640628 119.050532023 -2.07248970752e-17)
(142.618700735 78.1244369792 -2.06582751785e-18)
(3.67180931339 2.73705982235 -1.73660825732e-19)
(0.152640115885 -0.108374497714 4.75732327585e-19)
(183.321602661 42.3413645183 1.76915819798e-20)
(192.532929217 50.2061462522 6.37974517961e-20)
(202.849771675 59.7483695139 7.74671302665e-21)
(214.076869587 71.4420972807 3.18294742261e-19)
(225.716162419 85.3089532109 1.60304887164e-20)
(236.993951314 104.473928539 -1.94710784792e-18)
(239.24109411 126.079197794 -1.88831342035e-17)
(98.0338645605 85.1264993487 -8.87333843421e-18)
(-0.397262793297 2.19741815054 -4.90287639045e-19)
(0.0597458367701 0.195056973634 -3.10654862472e-21)
(175.043205261 50.3682981868 -9.47587955707e-21)
(182.831353032 59.1277516065 1.03161383812e-19)
(191.473698957 69.4321029113 -1.38721650357e-19)
(200.843674983 81.228530053 -7.14432387879e-19)
(210.238060755 93.9408844144 -3.35137513652e-18)
(220.061041884 106.432132864 -7.84169819657e-19)
(218.604958489 114.79884565 -2.45625916761e-17)
(81.5600387963 74.3679717195 -1.09581414485e-17)
(-0.421770742381 1.48095641967 -5.59809751647e-19)
(0.103479148974 0.0722808370469 -2.11744942865e-19)
(165.86653799 57.0767086862 4.15047162832e-20)
(172.284702936 66.5999706655 4.58919257942e-20)
(179.537721588 77.6138716316 -3.35357592666e-19)
(187.837005335 89.6219888666 -2.67919119681e-18)
(197.477890313 101.981816451 -3.12101898467e-18)
(211.113869801 108.663457749 5.22697047509e-18)
(219.848483457 100.335539596 -6.84620126041e-18)
(96.6765547586 54.1954839641 3.62267326404e-18)
(0.40217538186 0.629992912359 -8.77693807885e-19)
(-0.0208923098607 -0.083273666693 -1.17017663455e-19)
(155.970486975 62.4773507737 1.1220978285e-20)
(160.977474574 72.7652011827 -2.19045841037e-20)
(166.811276142 84.7513373339 -2.62150091414e-19)
(174.205910416 97.9830197437 -1.99337034769e-18)
(185.011304206 112.542861257 9.37352744772e-19)
(204.958128943 121.677458119 1.11596722707e-18)
(231.549021919 110.155541141 8.50655118244e-18)
(127.356885512 49.0278830674 1.20740292787e-17)
(0.529847911896 0.228053500355 4.78134991291e-20)
(-0.0644651725396 0.411025110885 4.56309046966e-20)
(145.473210895 66.5350602799 -1.14560678091e-19)
(148.91206714 77.4888144756 -3.58214001225e-19)
(152.956729217 90.6404226915 -9.4733216955e-19)
(158.683984662 106.044883578 -1.71230841366e-18)
(168.720583641 125.393171786 3.59134396807e-18)
(183.817645287 152.533836728 1.70863650462e-17)
(215.475321462 169.343064945 2.88219943162e-17)
(134.261423971 79.7668699184 3.4589041606e-17)
(0.297932850716 0.269286438617 9.09774032644e-20)
(-0.0291729723741 0.468199757906 3.63980550464e-19)
(134.890964015 69.1565568413 -1.55501059754e-19)
(136.313095558 80.327943278 -6.1704585369e-19)
(137.90754982 94.2396990282 -3.65419467203e-19)
(141.17360926 111.49997938 3.73872969351e-18)
(148.512669432 129.839451106 2.74554752019e-17)
(157.849616592 193.02626051 7.93039051401e-17)
(148.730698235 264.654696908 9.72692060677e-17)
(91.9384141565 132.187066084 3.36129861803e-17)
(0.125207740722 0.385656316462 9.247611822e-20)
(0.12800970738 0.493980691147 9.06817926705e-20)
(124.563461354 69.4539123154 1.52446589101e-19)
(123.74407289 80.2738258463 1.54422291701e-19)
(122.149661694 94.1546684605 2.32196521328e-18)
(120.447650194 112.774780637 1.43063635518e-17)
(119.17732681 139.009496202 5.38429994195e-17)
(116.960133082 205.886284448 4.54086235495e-17)
(86.6368584405 316.277679061 7.50722353733e-17)
(33.3590558134 186.745219164 5.54854062383e-17)
(0.0731860896897 0.448012751072 -1.96517506937e-19)
(0.11543955684 0.55737200855 6.20713658916e-20)
(114.814758626 68.2164820523 1.06749499578e-19)
(111.993478395 77.5578113963 8.45097463013e-19)
(106.755926701 89.5171075547 4.06261021385e-18)
(98.1195864728 106.272387013 1.76123407632e-17)
(84.3942018178 132.484417062 3.33631510591e-17)
(52.1197748147 200.624963695 4.52755064402e-17)
(8.56734013945 292.450257989 -4.31097675681e-17)
(-51.7521646077 166.636088134 8.43429997741e-17)
(-0.104232914155 0.403325762965 1.02753643743e-19)
(0.131054543281 0.937145809906 3.49340843311e-19)
(106.565961283 65.8088084445 4.53750674801e-19)
(102.414178323 73.0025026312 1.3721687863e-18)
(94.5622565458 81.8275591875 2.49952970495e-18)
(80.6043738996 93.2038458096 9.18683469884e-18)
(53.6920773307 102.730429174 -1.1104924589e-17)
(-5.19765316052 130.500016385 -1.71184569521e-16)
(-112.622972505 176.672768525 -3.96833890246e-16)
(-170.386636396 106.157162916 -3.35792949383e-17)
(-0.617361402631 0.398148951038 1.58133884647e-19)
(-0.0618049736985 1.161158127 9.68867421267e-19)
(100.500141584 61.9564824873 2.18034805814e-19)
(96.0973768893 65.1982391002 -5.00730456565e-19)
(87.5051834726 67.0789897984 -2.50477436806e-18)
(71.1162014032 67.8560993689 -8.76786367505e-18)
(41.0295067513 55.2002519143 -2.40582520084e-17)
(-3.55972630779 37.1424501586 -4.83503267461e-17)
(-117.072428406 27.1962889714 -1.96394625038e-16)
(-194.610290191 11.2342981352 -2.0580263028e-16)
(-6.98695056065 1.2046450383 6.21638044707e-18)
(-0.428929112823 -0.645420021558 1.15498307051e-18)
(97.2233514532 59.2735449296 2.93507528763e-20)
(94.9943329949 59.3461579684 1.71930027355e-20)
(89.9226133007 55.5307776764 3.37331641441e-18)
(79.4643002374 44.4473396314 8.52227551541e-18)
(60.1378183616 17.8697026279 7.10673076833e-18)
(37.9059777673 -29.1903160263 -3.02735303183e-17)
(-25.3941557992 -88.3109944494 -1.37148658319e-17)
(-70.6405291502 -73.7340925744 8.28854629964e-17)
(-0.435151817963 -2.84653542361 -1.10059471492e-18)
(-0.565287942786 -2.29697096303 7.35245551496e-19)
(95.6649128292 59.1005887195 -1.01387609187e-19)
(96.8352861028 57.8689499736 8.63683209469e-19)
(97.8323629119 51.8460069746 2.96879575596e-19)
(98.6907975262 37.464972734 -6.0822677739e-19)
(98.1835375652 13.2246638483 -4.50057438869e-18)
(92.6146632548 -16.6371157788 1.5700049428e-17)
(71.0711885112 -95.5325715117 7.61427313708e-17)
(55.0097446475 -96.9518088892 4.19423433539e-17)
(11.8229732012 0.0844949329733 5.29983694154e-18)
(0.0830828524852 0.036569630296 -2.6164966107e-19)
(93.9574461005 62.2766952891 -3.26288198465e-20)
(98.305169515 62.6047008397 1.54565447506e-18)
(104.535969065 59.8005911951 8.80834581794e-19)
(112.437010019 51.3362113997 8.2614154067e-19)
(119.410728976 34.9977592908 -3.30627841678e-18)
(131.527779304 -0.33363953536 -6.35168708167e-18)
(167.369667215 -78.592671466 7.0321889148e-17)
(148.457284325 -82.7704727817 7.23193243892e-17)
(2.78387963974 0.189158938229 -1.50721615827e-18)
(0.493315775789 0.837008884272 -1.05206183722e-19)
(91.2303174271 66.8435788866 9.03722292659e-19)
(97.6035751571 68.1794253098 1.32870191738e-18)
(106.646158481 66.6394178204 2.95187841263e-19)
(119.147579439 59.8293036961 1.39498449539e-18)
(136.993650133 47.358706291 -2.81432329929e-18)
(177.870551278 10.4565968694 -1.11462499637e-17)
(279.253427346 -44.8808549172 -2.95987333262e-17)
(215.045011224 -47.1584804829 -3.85385223206e-17)
(-1.05134052651 -1.115278124 6.57734854648e-19)
(0.286665719305 -1.45519118957 -8.66481885702e-20)
)
;

boundaryField
{
    back
    {
        type            calculated;
        value           uniform (0 0 0);
    }
    sides
    {
        type            calculated;
        value           nonuniform List<vector> 0();
    }
    bottom
    {
        type            calculated;
        value           nonuniform List<vector> 0();
    }
    front
    {
        type            calculated;
        value           uniform (0 0 0);
    }
    atmosphere
    {
        type            calculated;
        value           nonuniform List<vector> 
16
(
(0.543225881055 0.541342192922 -1.73835676368e-19)
(0.152640115885 -0.108374497714 4.75732327585e-19)
(0.0597458367707 0.195056973634 -3.10654862419e-21)
(-0.302561369304 0.0722808352734 -3.297414662e-19)
(7.76081316936e-28 -0.0832758122393 1.33140780391e-47)
(-3.27626584492e-25 0.411026370441 -9.93107333615e-44)
(3.19939191867e-30 0.468199753155 -3.61306572463e-50)
(0.561403815395 0.493980691095 4.65859697683e-19)
(0.115439566212 0.55737200855 6.20713772338e-20)
(-0.455480594145 0.937145809603 1.52227081723e-18)
(0.0199503115298 1.16115812727 -7.86269971292e-19)
(-0.341138491974 -0.645420021558 1.41199329829e-18)
(-0.562664040757 -2.29697096303 7.32727460277e-19)
(-0.982464934372 0.036569630296 -1.52597653997e-18)
(0.290780079938 0.837008884272 -6.04711872595e-20)
(0.482966638373 -1.45519118957 -1.32723122642e-19)
)
;
    }
    floatingObject
    {
        type            calculated;
        value           nonuniform List<vector> 0();
    }
    procBoundary5to0
    {
        type            processor;
        value           nonuniform List<vector> 
12
(
(179.364270321 6.63494262279 8.2897981897e-21)
(188.971289712 8.27619459063 -2.13605773092e-20)
(200.313581734 10.4258675196 5.78897062685e-20)
(213.646386221 13.3734839785 -1.91680800212e-20)
(229.358270143 17.5135180963 -1.91358435994e-20)
(248.073376952 23.437970389 -2.77555833007e-19)
(270.718023703 32.0929070011 1.43641610766e-19)
(298.292767452 45.495750117 3.2139679196e-18)
(338.131160805 59.0452588912 -3.06537864902e-18)
(227.151808638 43.0825534729 2.57337168003e-18)
(14.5634298648 3.73249384447 -9.02698162829e-19)
(0.409628658687 0.448611936635 -1.5640474628e-19)
)
;
    }
    procBoundary5to3
    {
        type            processor;
        value           nonuniform List<vector> 10((87.0732377136 73.3330993101 5.37808744357e-18) (94.613532033 77.5967429751 4.83288058549e-18) (105.919407082 82.0264748072 2.74374240884e-18) (122.663508122 85.4335677588 2.02908229617e-18) (149.137756543 90.7383540076 -4.80402267636e-18) (213.415634332 88.4468906362 -2.85467380738e-17) (348.242930515 86.450080223 -4.99649654002e-17) (266.884360415 41.165371483 -2.98884232802e-17) (0.399572562406 -0.00087056925476 -6.64545388789e-20) (-0.31272267691 0.367376162821 3.66089733628e-19));
    }
    procBoundary5to4
    {
        type            processor;
        value           nonuniform List<vector> 
18
(
(169.294314534 12.5535364815 7.43347128233e-21)
(166.147914046 19.2160876463 1.11140265398e-22)
(168.043210398 30.2167635879 7.12540765523e-21)
(175.156770286 35.8233844425 2.96915915588e-20)
(175.156770286 35.8233844425 2.96915915588e-20)
(168.077441712 42.9033205891 -7.82021209365e-21)
(160.175442925 48.8419375369 -1.33783735847e-20)
(151.550725435 53.5856911789 -9.45583978861e-21)
(142.256563094 57.0570173221 1.09152098437e-20)
(133.350375937 58.9798105991 1.65636939592e-19)
(124.638721379 60.2885539888 1.73332488789e-19)
(115.977500946 60.2509539259 1.42223160614e-19)
(108.482975985 59.3085493352 1.36049339869e-19)
(102.399694814 57.7441115496 -1.0754486262e-20)
(97.8448685789 56.8520302189 -1.81160538476e-19)
(94.2226875595 57.4528287686 1.02820537411e-20)
(90.5780983118 59.9805366316 8.10227709254e-20)
(86.3575746829 63.7627462541 7.24763578521e-19)
)
;
    }
}


// ************************************************************************* //
