/*--------------------------------*- C++ -*----------------------------------*\
| =========                 |                                                 |
| \\      /  F ield         | OpenFOAM: The Open Source CFD Toolbox           |
|  \\    /   O peration     | Version:  v2012                                 |
|   \\  /    A nd           | Website:  www.openfoam.com                      |
|    \\/     M anipulation  |                                                 |
\*---------------------------------------------------------------------------*/
FoamFile
{
    version     2.0;
    format      ascii;
    class       volScalarField;
    location    "2.8";
    object      rAU;
}
// * * * * * * * * * * * * * * * * * * * * * * * * * * * * * * * * * * * * * //

dimensions      [-1 3 1 0 0 0 0];


internalField   nonuniform List<scalar> 
167
(
2.19181374286e-05
2.19153230328e-05
2.19056390504e-05
2.18610828902e-05
2.18669020906e-05
2.19138652091e-05
2.18538915179e-05
2.17789761673e-05
2.17809333244e-05
2.75652922854e-05
0.000220270036655
0.010569735487
2.16968924724e-05
2.16945736222e-05
2.16912877666e-05
2.16895799275e-05
2.16980013844e-05
2.16260284559e-05
2.15281020551e-05
2.14769616185e-05
2.14693703925e-05
2.67739015766e-05
0.000219921740061
0.012075189743
2.16582594921e-05
2.16566310458e-05
2.16551621539e-05
2.16523232358e-05
2.16604076924e-05
2.15812194382e-05
2.1471654507e-05
2.14147259806e-05
2.13157007974e-05
2.61453854253e-05
0.000215496507831
0.0119531116365
2.16500050936e-05
2.16480616866e-05
2.16444189961e-05
2.16549472452e-05
2.15727491345e-05
2.14575906639e-05
2.14031524246e-05
2.13982398781e-05
2.58177425355e-05
0.000202046103188
0.0115885117871
2.16452347923e-05
2.16400914404e-05
2.16511528481e-05
2.15688402965e-05
2.14531218392e-05
2.14024869827e-05
2.14068395006e-05
2.54073749854e-05
0.000184745554242
0.00971519894108
2.16451285657e-05
2.16357453574e-05
2.16489041588e-05
2.15673360235e-05
2.14498976086e-05
2.14031032396e-05
2.13841679308e-05
2.50034735602e-05
0.000166673788116
0.00927999957964
2.1643477881e-05
2.1635074997e-05
2.1647088302e-05
2.15613955025e-05
2.14406519029e-05
2.13961052807e-05
2.13311367083e-05
2.46307921485e-05
0.000148595226436
0.00886649719765
2.16436152887e-05
2.16369154812e-05
2.16436045072e-05
2.15550941614e-05
2.14331054496e-05
2.1387045199e-05
2.13235294909e-05
2.44097850461e-05
0.000135905176474
0.00851965282568
2.1642905638e-05
2.16365088554e-05
2.16413299838e-05
2.15834289911e-05
2.15714435426e-05
2.14901314393e-05
2.13205390075e-05
2.42790340551e-05
0.000127212274911
0.00823906310163
2.16434893886e-05
2.16385649575e-05
2.16396033573e-05
2.15995552441e-05
2.16002347105e-05
2.1490262256e-05
2.13024059045e-05
2.41817765151e-05
0.000119402073326
0.00813649290699
2.16436564027e-05
2.16400804347e-05
2.16405310754e-05
2.1617648163e-05
2.16210658992e-05
2.14754845105e-05
2.12599580819e-05
2.40522730235e-05
0.000113122004582
0.00907744532445
2.16446135221e-05
2.16425559185e-05
2.16422091112e-05
2.16291901728e-05
2.16383645697e-05
2.14609508905e-05
2.12096883391e-05
2.38757903041e-05
0.000109934443857
0.00679391889738
2.16451048758e-05
2.16440216129e-05
2.16431569188e-05
2.16368027411e-05
2.16451228954e-05
2.14423449462e-05
2.11566655533e-05
2.39891162797e-05
0.000111503510833
0.00759196767876
2.16454850517e-05
2.16446537415e-05
2.16427541426e-05
2.16387965052e-05
2.16476418108e-05
2.14409118193e-05
2.11367803357e-05
2.41243978798e-05
0.000114671771261
0.00774458463737
2.16454073007e-05
2.16441535024e-05
2.16401209813e-05
2.16314144037e-05
2.16355144195e-05
2.14715861116e-05
2.12609325516e-05
2.45010286207e-05
0.000118859359897
0.00782441787449
2.16453997553e-05
2.16434284092e-05
2.16380783169e-05
2.16248202655e-05
2.16392299784e-05
2.14964718428e-05
2.13139916771e-05
2.47127144585e-05
0.00012944613923
0.00839133369529
)
;

boundaryField
{
    back
    {
        type            calculated;
        value           nonuniform List<scalar> 
167
(
2.19181374286e-05
2.19153230328e-05
2.19056390504e-05
2.18610828902e-05
2.18669020906e-05
2.19138652091e-05
2.18538915179e-05
2.17789761673e-05
2.17809333244e-05
2.75652922854e-05
0.000220270036655
0.010569735487
2.16968924724e-05
2.16945736222e-05
2.16912877666e-05
2.16895799275e-05
2.16980013844e-05
2.16260284559e-05
2.15281020551e-05
2.14769616185e-05
2.14693703925e-05
2.67739015766e-05
0.000219921740061
0.012075189743
2.16582594921e-05
2.16566310458e-05
2.16551621539e-05
2.16523232358e-05
2.16604076924e-05
2.15812194382e-05
2.1471654507e-05
2.14147259806e-05
2.13157007974e-05
2.61453854253e-05
0.000215496507831
0.0119531116365
2.16500050936e-05
2.16480616866e-05
2.16444189961e-05
2.16549472452e-05
2.15727491345e-05
2.14575906639e-05
2.14031524246e-05
2.13982398781e-05
2.58177425355e-05
0.000202046103188
0.0115885117871
2.16452347923e-05
2.16400914404e-05
2.16511528481e-05
2.15688402965e-05
2.14531218392e-05
2.14024869827e-05
2.14068395006e-05
2.54073749854e-05
0.000184745554242
0.00971519894108
2.16451285657e-05
2.16357453574e-05
2.16489041588e-05
2.15673360235e-05
2.14498976086e-05
2.14031032396e-05
2.13841679308e-05
2.50034735602e-05
0.000166673788116
0.00927999957964
2.1643477881e-05
2.1635074997e-05
2.1647088302e-05
2.15613955025e-05
2.14406519029e-05
2.13961052807e-05
2.13311367083e-05
2.46307921485e-05
0.000148595226436
0.00886649719765
2.16436152887e-05
2.16369154812e-05
2.16436045072e-05
2.15550941614e-05
2.14331054496e-05
2.1387045199e-05
2.13235294909e-05
2.44097850461e-05
0.000135905176474
0.00851965282568
2.1642905638e-05
2.16365088554e-05
2.16413299838e-05
2.15834289911e-05
2.15714435426e-05
2.14901314393e-05
2.13205390075e-05
2.42790340551e-05
0.000127212274911
0.00823906310163
2.16434893886e-05
2.16385649575e-05
2.16396033573e-05
2.15995552441e-05
2.16002347105e-05
2.1490262256e-05
2.13024059045e-05
2.41817765151e-05
0.000119402073326
0.00813649290699
2.16436564027e-05
2.16400804347e-05
2.16405310754e-05
2.1617648163e-05
2.16210658992e-05
2.14754845105e-05
2.12599580819e-05
2.40522730235e-05
0.000113122004582
0.00907744532445
2.16446135221e-05
2.16425559185e-05
2.16422091112e-05
2.16291901728e-05
2.16383645697e-05
2.14609508905e-05
2.12096883391e-05
2.38757903041e-05
0.000109934443857
0.00679391889738
2.16451048758e-05
2.16440216129e-05
2.16431569188e-05
2.16368027411e-05
2.16451228954e-05
2.14423449462e-05
2.11566655533e-05
2.39891162797e-05
0.000111503510833
0.00759196767876
2.16454850517e-05
2.16446537415e-05
2.16427541426e-05
2.16387965052e-05
2.16476418108e-05
2.14409118193e-05
2.11367803357e-05
2.41243978798e-05
0.000114671771261
0.00774458463737
2.16454073007e-05
2.16441535024e-05
2.16401209813e-05
2.16314144037e-05
2.16355144195e-05
2.14715861116e-05
2.12609325516e-05
2.45010286207e-05
0.000118859359897
0.00782441787449
2.16453997553e-05
2.16434284092e-05
2.16380783169e-05
2.16248202655e-05
2.16392299784e-05
2.14964718428e-05
2.13139916771e-05
2.47127144585e-05
0.00012944613923
0.00839133369529
)
;
    }
    sides
    {
        type            calculated;
        value           nonuniform List<scalar> 
12
(
2.19181374286e-05
2.19153230328e-05
2.19056390504e-05
2.18610828902e-05
2.18669020906e-05
2.19138652091e-05
2.18538915179e-05
2.17789761673e-05
2.17809333244e-05
2.75652922854e-05
0.000220270036655
0.010569735487
)
;
    }
    bottom
    {
        type            calculated;
        value           nonuniform List<scalar> 0();
    }
    front
    {
        type            calculated;
        value           nonuniform List<scalar> 
167
(
2.19181374286e-05
2.19153230328e-05
2.19056390504e-05
2.18610828902e-05
2.18669020906e-05
2.19138652091e-05
2.18538915179e-05
2.17789761673e-05
2.17809333244e-05
2.75652922854e-05
0.000220270036655
0.010569735487
2.16968924724e-05
2.16945736222e-05
2.16912877666e-05
2.16895799275e-05
2.16980013844e-05
2.16260284559e-05
2.15281020551e-05
2.14769616185e-05
2.14693703925e-05
2.67739015766e-05
0.000219921740061
0.012075189743
2.16582594921e-05
2.16566310458e-05
2.16551621539e-05
2.16523232358e-05
2.16604076924e-05
2.15812194382e-05
2.1471654507e-05
2.14147259806e-05
2.13157007974e-05
2.61453854253e-05
0.000215496507831
0.0119531116365
2.16500050936e-05
2.16480616866e-05
2.16444189961e-05
2.16549472452e-05
2.15727491345e-05
2.14575906639e-05
2.14031524246e-05
2.13982398781e-05
2.58177425355e-05
0.000202046103188
0.0115885117871
2.16452347923e-05
2.16400914404e-05
2.16511528481e-05
2.15688402965e-05
2.14531218392e-05
2.14024869827e-05
2.14068395006e-05
2.54073749854e-05
0.000184745554242
0.00971519894108
2.16451285657e-05
2.16357453574e-05
2.16489041588e-05
2.15673360235e-05
2.14498976086e-05
2.14031032396e-05
2.13841679308e-05
2.50034735602e-05
0.000166673788116
0.00927999957964
2.1643477881e-05
2.1635074997e-05
2.1647088302e-05
2.15613955025e-05
2.14406519029e-05
2.13961052807e-05
2.13311367083e-05
2.46307921485e-05
0.000148595226436
0.00886649719765
2.16436152887e-05
2.16369154812e-05
2.16436045072e-05
2.15550941614e-05
2.14331054496e-05
2.1387045199e-05
2.13235294909e-05
2.44097850461e-05
0.000135905176474
0.00851965282568
2.1642905638e-05
2.16365088554e-05
2.16413299838e-05
2.15834289911e-05
2.15714435426e-05
2.14901314393e-05
2.13205390075e-05
2.42790340551e-05
0.000127212274911
0.00823906310163
2.16434893886e-05
2.16385649575e-05
2.16396033573e-05
2.15995552441e-05
2.16002347105e-05
2.1490262256e-05
2.13024059045e-05
2.41817765151e-05
0.000119402073326
0.00813649290699
2.16436564027e-05
2.16400804347e-05
2.16405310754e-05
2.1617648163e-05
2.16210658992e-05
2.14754845105e-05
2.12599580819e-05
2.40522730235e-05
0.000113122004582
0.00907744532445
2.16446135221e-05
2.16425559185e-05
2.16422091112e-05
2.16291901728e-05
2.16383645697e-05
2.14609508905e-05
2.12096883391e-05
2.38757903041e-05
0.000109934443857
0.00679391889738
2.16451048758e-05
2.16440216129e-05
2.16431569188e-05
2.16368027411e-05
2.16451228954e-05
2.14423449462e-05
2.11566655533e-05
2.39891162797e-05
0.000111503510833
0.00759196767876
2.16454850517e-05
2.16446537415e-05
2.16427541426e-05
2.16387965052e-05
2.16476418108e-05
2.14409118193e-05
2.11367803357e-05
2.41243978798e-05
0.000114671771261
0.00774458463737
2.16454073007e-05
2.16441535024e-05
2.16401209813e-05
2.16314144037e-05
2.16355144195e-05
2.14715861116e-05
2.12609325516e-05
2.45010286207e-05
0.000118859359897
0.00782441787449
2.16453997553e-05
2.16434284092e-05
2.16380783169e-05
2.16248202655e-05
2.16392299784e-05
2.14964718428e-05
2.13139916771e-05
2.47127144585e-05
0.00012944613923
0.00839133369529
)
;
    }
    atmosphere
    {
        type            calculated;
        value           nonuniform List<scalar> 
16
(
0.010569735487
0.012075189743
0.0119531116365
0.0115885117871
0.00971519894108
0.00927999957964
0.00886649719765
0.00851965282568
0.00823906310163
0.00813649290699
0.00907744532445
0.00679391889738
0.00759196767876
0.00774458463737
0.00782441787449
0.00839133369529
)
;
    }
    floatingObject
    {
        type            calculated;
        value           nonuniform List<scalar> 0();
    }
    procBoundary1to0
    {
        type            processor;
        value           nonuniform List<scalar> 10(2.16443403838e-05 2.16419357136e-05 2.16358462868e-05 2.16163182572e-05 2.16282958343e-05 2.1474082194e-05 2.12202779036e-05 2.47005038921e-05 0.000142545309474 0.00868507670927);
    }
    procBoundary1to2
    {
        type            processor;
        value           nonuniform List<scalar> 
18
(
2.1919800401e-05
2.16986622218e-05
2.16594032076e-05
2.16512136712e-05
2.16512136712e-05
2.16466795108e-05
2.16466795108e-05
2.1646076107e-05
2.16456428274e-05
2.16444383977e-05
2.16448605467e-05
2.16447045211e-05
2.16452710918e-05
2.16452971828e-05
2.16455316009e-05
2.16462066865e-05
2.1646078904e-05
2.16462016835e-05
)
;
    }
}


// ************************************************************************* //
