/*--------------------------------*- C++ -*----------------------------------*\
| =========                 |                                                 |
| \\      /  F ield         | OpenFOAM: The Open Source CFD Toolbox           |
|  \\    /   O peration     | Version:  v2012                                 |
|   \\  /    A nd           | Website:  www.openfoam.com                      |
|    \\/     M anipulation  |                                                 |
\*---------------------------------------------------------------------------*/
FoamFile
{
    version     2.0;
    format      ascii;
    class       volVectorField;
    location    "2.8";
    object      U_0;
}
// * * * * * * * * * * * * * * * * * * * * * * * * * * * * * * * * * * * * * //

dimensions      [0 1 -1 0 0 0 0];


internalField   nonuniform List<vector> 
167
(
(0.000381946164337 -0.00706633257126 9.02220891793e-22)
(0.000401673126786 -0.00794263799636 7.47609652076e-22)
(0.00040931599636 -0.00883240385204 2.8726867902e-22)
(0.000424680561909 -0.00970997093887 -1.7227989553e-24)
(0.000374206626814 -0.0104981948787 2.56677472905e-23)
(0.000176211713077 -0.0109357229353 -7.55600930105e-22)
(-1.3141550967e-05 -0.0115770149648 -1.11084742317e-21)
(-0.000252731305317 -0.00935778135288 -3.84896219771e-21)
(-0.0027221514954 -0.0131101382087 -2.92319784973e-21)
(0.000440601239948 -0.0101335580099 8.43512524649e-21)
(0.0159293647469 -0.0182546326334 6.98909614272e-20)
(0.0128450578639 -0.0382889870529 4.67977998514e-20)
(0.00145433680076 -0.00779258300351 1.04938986251e-22)
(0.0014760422479 -0.00878107224915 1.35314757911e-23)
(0.00148183593574 -0.00977990785072 -3.46340256856e-22)
(0.00146883150372 -0.0107829737473 -2.97553793695e-22)
(0.00137165426967 -0.0117787596587 -8.12391788906e-24)
(0.00112755746747 -0.0127868869586 -6.55576368728e-22)
(0.000578340324251 -0.0143686539766 -2.49154138069e-21)
(-0.000273493492358 -0.0140265199165 -9.46983027297e-21)
(-0.0030375414962 -0.0211331498934 -9.72135453035e-21)
(0.00320279319363 -0.0179345507185 -1.35921598365e-20)
(0.0188919882806 -0.0215205552876 -2.04496033762e-20)
(0.00686481118102 0.011607720032 -1.62048034077e-20)
(0.00246866764883 -0.00836224828783 1.75962478149e-22)
(0.0024970009504 -0.0094228146128 -1.58526851262e-22)
(0.00251636840799 -0.0105081470646 -2.47822987123e-22)
(0.00252167933171 -0.0116095843437 -1.42721732839e-22)
(0.00247991924619 -0.0127642189507 -1.89867161402e-22)
(0.00241615263209 -0.0139605172572 -2.0013343006e-21)
(0.00217720052888 -0.0158745452412 1.12530861244e-21)
(0.00220515701297 -0.0159925891598 -8.88070270248e-21)
(8.77395124357e-05 -0.0238197780127 -5.05509712968e-22)
(-0.000318299985281 -0.0190666954007 -2.60039766775e-20)
(-0.00616866398459 -0.0236810743933 -7.79603806863e-20)
(-0.000837692740206 0.0121351616972 -7.18177311114e-20)
(0.00358040526116 -0.00965501715945 -1.55127418644e-22)
(0.00361947143119 -0.0107758770167 -2.55927401699e-23)
(0.00366590252897 -0.0119233283654 -8.54410822314e-23)
(0.0037065932657 -0.0131083720329 -1.24729753183e-22)
(0.00382249589379 -0.0143151371429 -4.92779873091e-22)
(0.00378853730917 -0.016328949056 6.71168203556e-22)
(0.00419465356134 -0.0160327312797 5.012118559e-22)
(0.00281264029952 -0.0234936553363 -4.27430859004e-21)
(-0.000552968674712 -0.0167372713594 -1.27098237748e-20)
(-0.0194558918773 -0.0252202731393 -3.18096117305e-20)
(-0.00456082891685 -0.00344227487301 -2.83022401934e-20)
(0.00477258512905 -0.0108030789649 -5.47118906923e-24)
(0.00486279783191 -0.0119323166071 -3.69429831457e-23)
(0.00495375718641 -0.0130915129318 -9.86990603031e-23)
(0.00512613023183 -0.014166676546 -1.52915419257e-21)
(0.00526170830305 -0.0160822427051 -8.37209856249e-22)
(0.00581605843295 -0.0152278301529 -1.68414028989e-21)
(0.00486725857453 -0.0217829392487 -1.23545152953e-21)
(-0.00010725011363 -0.0133244956266 -1.16210758572e-20)
(-0.0230511926332 -0.0246849424379 -2.83454930548e-20)
(-0.00732084323955 -0.0195445795043 -2.45902574126e-20)
(0.00591266383328 -0.0107227518383 -1.27875400414e-23)
(0.00599981818493 -0.0118345969126 -1.0091159318e-22)
(0.00608309652314 -0.0129640342335 -1.00341061034e-22)
(0.00622651051062 -0.0138181837058 -1.81004736996e-21)
(0.00624093404404 -0.0155640746177 -2.01048055686e-21)
(0.00693640415924 -0.0142906737247 -5.84674917647e-21)
(0.00619306119252 -0.0196740772802 -4.57721308206e-21)
(0.00126876218266 -0.0100074321646 -1.31413755225e-20)
(-0.0182712998717 -0.0228671534696 -2.87825105075e-20)
(-0.0054198633198 -0.0297561274646 -2.50416945341e-20)
(0.00701163733411 -0.0106453942864 -9.64009049415e-24)
(0.0070762217072 -0.0117555637359 -8.21786121271e-23)
(0.00713995177222 -0.012841829353 -9.68567191931e-23)
(0.00717956084743 -0.0136219488098 -1.98874246397e-21)
(0.00691159379685 -0.0150890184493 -2.86490478317e-21)
(0.00753248910457 -0.0136781020983 -1.31572412747e-20)
(0.00683454764713 -0.0183395941341 -8.71008150563e-21)
(0.0027381436015 -0.00811025353128 -1.73279760894e-20)
(-0.00947756931436 -0.0203166831308 -3.60915126115e-20)
(0.000244474879237 -0.0353364007171 -3.17160464014e-20)
(0.00811508553452 -0.0105766963007 -3.01635349503e-24)
(0.00815563339333 -0.0116737432672 -1.32999071112e-22)
(0.00812672226708 -0.012779343741 -2.96348273428e-22)
(0.00803781701697 -0.0136076370878 -2.36957492887e-21)
(0.00760831766644 -0.0148938816815 -3.50255431466e-22)
(0.00787458371925 -0.0136484449326 -8.65945497465e-21)
(0.0072042466328 -0.0179555465378 -2.75127467537e-21)
(0.00356526907714 -0.00765100625078 -2.12844263791e-20)
(-0.000487285588713 -0.0181655232227 -8.42947001376e-20)
(0.00798303399389 -0.0355415510655 -7.35486027671e-20)
(0.00925346286381 -0.0105199240386 -5.5541550994e-24)
(0.00926634942319 -0.0117012999047 -1.03128395192e-22)
(0.00914620283607 -0.0128445802206 -3.12959260833e-22)
(0.00886869252514 -0.0137087696646 -6.89931820885e-22)
(0.00819680582998 -0.0149454998735 -3.02005841766e-22)
(0.00800992683908 -0.0140948380858 -1.57821022449e-21)
(0.00741574667014 -0.0180243547991 -5.47475851173e-21)
(0.00395091611297 -0.00751095733286 -1.1172979483e-20)
(0.00824780275175 -0.0172322834585 -2.72166222293e-20)
(0.0181732668489 -0.0387491367393 -2.46106118366e-20)
(0.0104368197921 -0.0104665760748 -9.34506006047e-24)
(0.0104556247328 -0.0117344853755 -9.67004409912e-23)
(0.0102995895729 -0.0130347893139 -1.99816747023e-22)
(0.0098430802898 -0.0141392846981 -9.0207792147e-22)
(0.00885275900188 -0.0154617447064 -1.00369468884e-21)
(0.0080196731063 -0.0150906206744 -1.19724511447e-21)
(0.0070890704681 -0.018282933495 -3.27390690118e-21)
(0.00381175268786 -0.00719619652934 -1.10008469022e-20)
(0.0178770920528 -0.016692686955 -3.42195196544e-20)
(0.0408812784849 -0.0344876530892 -2.84082350755e-20)
(0.011725690688 -0.010395947585 -1.35608684003e-23)
(0.0117908660844 -0.0117921334027 -1.08649473932e-22)
(0.0116458281008 -0.0132971112368 -3.6078214357e-22)
(0.0111459686955 -0.0147520095337 -3.99396760655e-22)
(0.00995026274285 -0.0165021548049 -1.53366383508e-21)
(0.00846177474604 -0.0171649295939 -3.12549434888e-22)
(0.00674455144063 -0.0214548111843 -4.91226202809e-21)
(0.00290314323607 -0.00969377669024 -1.01662204344e-20)
(0.0152699672648 -0.0187354114995 -1.34456705214e-20)
(0.0223071458156 0.00955182719528 -1.40280769132e-20)
(0.0131090386715 -0.0102253322779 -1.64663239834e-23)
(0.0133054475023 -0.0117680293645 -9.25249286331e-23)
(0.0133000069912 -0.0135087989252 -6.29486072703e-23)
(0.0129182370358 -0.0154407517955 -3.81645098353e-22)
(0.011797754421 -0.0178784938196 -8.64487436092e-22)
(0.0101358774509 -0.0200395447078 -3.12948199384e-21)
(0.00786904792547 -0.0267891573593 -8.51704269211e-21)
(0.00291469975857 -0.0159559850055 -1.30748641427e-20)
(0.0107279695428 -0.0274946345755 -1.74901068291e-20)
(0.000543151216829 -0.047932255926 -1.53598131344e-20)
(0.0145853968567 -0.00989967929452 -2.36800782774e-23)
(0.0149933261704 -0.0115540711518 -8.53337165281e-23)
(0.0152629069356 -0.0135090782583 -7.31411171215e-23)
(0.0152370754859 -0.0158490701088 -6.17553116281e-22)
(0.0146500606382 -0.0189230681879 -4.94274759929e-22)
(0.0136926104366 -0.0226753565486 -5.13212436633e-21)
(0.0122819093377 -0.0315636740861 -1.2416345251e-20)
(0.00809628658122 -0.0246280486592 -1.69390643097e-20)
(0.0224743039354 -0.0410380327521 -3.32356826562e-20)
(0.0223014475433 -0.0604828606447 -2.74418990663e-20)
(0.0161152451054 -0.00935358025228 -2.169832582e-23)
(0.0167958469126 -0.0110439986594 -4.03422302764e-23)
(0.0174423385691 -0.0130882530181 -9.10512507486e-23)
(0.0179601229453 -0.0156074240405 -2.4151728914e-22)
(0.0182030433546 -0.0188713206614 -6.80488224688e-22)
(0.0185546999336 -0.0230313907182 7.45805973954e-23)
(0.0190551367918 -0.0320972606377 -6.57593569941e-21)
(0.0159293980355 -0.0248355001777 -8.87271031076e-21)
(0.0266251791205 -0.0425049961383 1.98939525525e-20)
(0.0208237919868 -0.0606054837337 1.72066605045e-20)
(0.0176276648777 -0.00854767614133 -1.42693092984e-23)
(0.0186051946246 -0.0101826752284 -8.96345749225e-24)
(0.019653038088 -0.0121671529674 2.5263724009e-24)
(0.0207025160986 -0.0145920258745 -2.46632085965e-23)
(0.0216292015323 -0.0175159759941 -4.24596274214e-22)
(0.0226879157659 -0.0206239752799 -2.79471337842e-22)
(0.0238591046227 -0.0261638628355 -4.17742820763e-21)
(0.022632395259 -0.0162739835484 3.63281267236e-21)
(0.0427822471865 -0.0307167549263 1.11469996981e-19)
(0.0281092257373 -0.0553528209513 9.52604889152e-20)
(0.0190440021292 -0.00746737154358 -6.32683927925e-24)
(0.0203210281659 -0.00896963483754 -2.4323000142e-23)
(0.0217578377352 -0.0107989936155 -4.29920585736e-23)
(0.0232771474314 -0.0130527902329 -1.23985550116e-22)
(0.0246509606168 -0.0157342474888 -1.10143170752e-21)
(0.025715718039 -0.0183270336983 -4.63526387883e-23)
(0.0264496018027 -0.0244851422009 -2.75505762033e-21)
(0.0248858052588 -0.0139906243015 -3.06090329085e-21)
(0.0523805483268 -0.0267305602441 8.4132482508e-21)
(0.0404952974756 -0.0452853335987 8.18388378867e-21)
)
;

boundaryField
{
    back
    {
        type            noSlip;
    }
    sides
    {
        type            noSlip;
    }
    bottom
    {
        type            noSlip;
    }
    front
    {
        type            noSlip;
    }
    atmosphere
    {
        type            pressureInletOutletVelocity;
        value           nonuniform List<vector> 
16
(
(0 -0.0382889870529 0)
(0.00686481118102 0.011607720032 -1.62048034077e-20)
(-0.000837692740206 0.0121351616972 -7.18177311114e-20)
(0 -0.00344227487301 0)
(0 -0.0195445795043 0)
(0 -0.0297561274646 0)
(0 -0.0353364007171 0)
(0 -0.0355415510655 0)
(0 -0.0387491367393 0)
(0 -0.0344876530892 0)
(0.0223071458156 0.00955182719528 -1.40280769132e-20)
(0 -0.047932255926 0)
(0 -0.0604828606447 0)
(0 -0.0606054837337 0)
(0 -0.0553528209513 0)
(0 -0.0452853335987 0)
)
;
    }
    floatingObject
    {
        type            movingWallVelocity;
        value           nonuniform List<vector> 0();
    }
    procBoundary1to0
    {
        type            processor;
        value           nonuniform List<vector> 10((0.0202995755992 -0.00613829385388 -6.8735651888e-24) (0.021864084755 -0.00742012419572 -1.44603846979e-23) (0.0236777866534 -0.00900817556488 2.95067047764e-23) (0.0256792071608 -0.0110233401734 -5.25256122903e-23) (0.0275941076832 -0.013578084078 -1.64729462562e-21) (0.0288994158659 -0.0159361482524 -1.29230045815e-21) (0.0295571509838 -0.0239341980566 -6.93737794992e-21) (0.0264488719025 -0.0136277852414 -5.37821605779e-21) (0.065257381634 -0.0294171680309 1.62999263337e-20) (0.0526234264172 -0.0546148475328 1.3696324571e-20));
    }
    procBoundary1to2
    {
        type            processor;
        value           nonuniform List<vector> 
18
(
(0.000367159924732 -0.00617081627063 1.92283632421e-22)
(0.00143405424415 -0.00681036977995 -2.38938245474e-22)
(0.00244468667372 -0.00731095369285 -2.09100163496e-23)
(0.00353827623822 -0.00856455010214 1.21828608395e-22)
(0.00353827623822 -0.00856455010214 1.21828608395e-22)
(0.00470651472185 -0.00968670719881 -6.43054681787e-24)
(0.00470651472185 -0.00968670719881 -6.43054681787e-24)
(0.0058189905604 -0.00963120332515 1.5193149714e-23)
(0.00692667733225 -0.00953025544494 1.09871216405e-23)
(0.00803278674764 -0.00946306052459 1.11109939733e-24)
(0.00915881336981 -0.00934973292141 1.70896723352e-23)
(0.0103345497404 -0.00925146665416 2.59919414583e-23)
(0.0115525418791 -0.00908605562669 8.00935601995e-24)
(0.0128135738882 -0.00884625113621 1.60364507058e-23)
(0.0141273192906 -0.00846808744052 -3.84365001223e-24)
(0.015449842339 -0.00792393013612 -1.81396112452e-23)
(0.0167298924142 -0.00718122532826 -2.91884283592e-24)
(0.0179253575089 -0.00622905644037 2.24535140324e-23)
)
;
    }
}


// ************************************************************************* //
