/*--------------------------------*- C++ -*----------------------------------*\
| =========                 |                                                 |
| \\      /  F ield         | OpenFOAM: The Open Source CFD Toolbox           |
|  \\    /   O peration     | Version:  v2012                                 |
|   \\  /    A nd           | Website:  www.openfoam.com                      |
|    \\/     M anipulation  |                                                 |
\*---------------------------------------------------------------------------*/
FoamFile
{
    version     2.0;
    format      ascii;
    class       volScalarField;
    location    "2.2";
    object      ddt0(k);
}
// * * * * * * * * * * * * * * * * * * * * * * * * * * * * * * * * * * * * * //

dimensions      [0 2 -3 0 0 0 0];


internalField   nonuniform List<scalar> 
167
(
-0.00300580388064
-0.00344333946498
-0.00353844369414
-0.00355705055965
-0.00356540775341
-0.00357574114842
-0.0035881754292
-0.00360189193548
-0.00346592858454
-0.00418984452018
-0.0043462834314
-0.00437655448571
-0.00438485308711
-0.00439345602535
-0.00440422831538
-0.00441639432104
-0.00361042413396
-0.00441992985224
-0.00460068426451
-0.0046356787792
-0.00464380072994
-0.00465190996866
-0.00466272751935
-0.00467489831427
-0.00366128672636
-0.00450382738931
-0.00469482938773
-0.00473149186783
-0.00473924798841
-0.00474705241497
-0.00475778253129
-0.00477053391146
-0.00478400265678
-0.00368114828096
-0.00453638477288
-0.00473083298163
-0.00476763302808
-0.0047748214859
-0.00478217803503
-0.00479274305367
-0.00480532657868
-0.00481948169946
-0.00483608845316
-0.00369112508262
-0.00455172292818
-0.00474689816779
-0.00478322315354
-0.00478973457712
-0.00479651653933
-0.00480667875532
-0.00481898307305
-0.00483291482554
-0.00484981260318
-0.00369789659883
-0.00456154315843
-0.00475650687838
-0.00479222130734
-0.00479805301859
-0.00480422309616
-0.00481387254274
-0.00482576542226
-0.00483935044303
-0.00485593650942
-0.00370347209245
-0.0045695837038
-0.00476413031384
-0.0047992650167
-0.00480448139382
-0.00481005406476
-0.00481916823105
-0.00483058906244
-0.00484373885136
-0.00485993848054
-0.00370840205062
-0.00457705979755
-0.00477108613682
-0.00480575474023
-0.00481043115684
-0.0048154554385
-0.00482404070175
-0.00483496688214
-0.00484766282891
-0.00486342997557
-0.00371281516384
-0.00458424785218
-0.00477776241028
-0.00481201610194
-0.00481625069986
-0.00482078549942
-0.00482886303143
-0.0048393022781
-0.00485154792491
-0.00486685159233
-0.00371673267633
-0.00459113899316
-0.00478420210485
-0.00481812491328
-0.0048219776104
-0.00482607219123
-0.0048336789048
-0.00484364659966
-0.00485544698789
-0.00487029004679
-0.00372015237304
-0.00459771417169
-0.00479035738682
-0.0048240311853
-0.00482757344716
-0.00483127454061
-0.00483844330511
-0.0048479568551
-0.00485931219709
-0.00487365792114
-0.00372307723303
-0.00460387882513
-0.00479620576512
-0.00482970345686
-0.00483298397015
-0.00483632790151
-0.00484307282768
-0.00485214049038
-0.00486302328665
-0.00487685780179
-0.00372553809011
-0.00460962507534
-0.00480168713162
-0.00483510000572
-0.00483816988184
-0.00484117465991
-0.00484750143565
-0.00485609670375
-0.00486652252125
-0.00487969372002
-0.0037275761716
-0.00461483452395
-0.00480669555484
-0.00484017805419
-0.00484309905924
-0.00484579866633
-0.00485170073689
-0.00485982390772
-0.0048696240245
-0.00488224192154
-0.00372922629917
-0.00461933497029
-0.00481123931408
-0.0048449061326
-0.00484778208975
-0.00485020166023
-0.00485567866622
-0.00486323717687
-0.0048726625299
-0.00488407245909
-0.00373062352375
-0.00462311663241
-0.00481525721954
-0.00484933127495
-0.00485221160658
-0.00485439123221
-0.00485940872813
-0.00373198072814
-0.00462620513183
-0.00481886363687
-0.00485343665839
-0.00485643519179
-0.00482195152071
-0.00485726665621
)
;

boundaryField
{
    back
    {
        type            calculated;
        value           nonuniform List<scalar> 
167
(
-0.00300580388064
-0.00344333946498
-0.00353844369414
-0.00355705055965
-0.00356540775341
-0.00357574114842
-0.0035881754292
-0.00360189193548
-0.00346592858454
-0.00418984452018
-0.0043462834314
-0.00437655448571
-0.00438485308711
-0.00439345602535
-0.00440422831538
-0.00441639432104
-0.00361042413396
-0.00441992985224
-0.00460068426451
-0.0046356787792
-0.00464380072994
-0.00465190996866
-0.00466272751935
-0.00467489831427
-0.00366128672636
-0.00450382738931
-0.00469482938773
-0.00473149186783
-0.00473924798841
-0.00474705241497
-0.00475778253129
-0.00477053391146
-0.00478400265678
-0.00368114828096
-0.00453638477288
-0.00473083298163
-0.00476763302808
-0.0047748214859
-0.00478217803503
-0.00479274305367
-0.00480532657868
-0.00481948169946
-0.00483608845316
-0.00369112508262
-0.00455172292818
-0.00474689816779
-0.00478322315354
-0.00478973457712
-0.00479651653933
-0.00480667875532
-0.00481898307305
-0.00483291482554
-0.00484981260318
-0.00369789659883
-0.00456154315843
-0.00475650687838
-0.00479222130734
-0.00479805301859
-0.00480422309616
-0.00481387254274
-0.00482576542226
-0.00483935044303
-0.00485593650942
-0.00370347209245
-0.0045695837038
-0.00476413031384
-0.0047992650167
-0.00480448139382
-0.00481005406476
-0.00481916823105
-0.00483058906244
-0.00484373885136
-0.00485993848054
-0.00370840205062
-0.00457705979755
-0.00477108613682
-0.00480575474023
-0.00481043115684
-0.0048154554385
-0.00482404070175
-0.00483496688214
-0.00484766282891
-0.00486342997557
-0.00371281516384
-0.00458424785218
-0.00477776241028
-0.00481201610194
-0.00481625069986
-0.00482078549942
-0.00482886303143
-0.0048393022781
-0.00485154792491
-0.00486685159233
-0.00371673267633
-0.00459113899316
-0.00478420210485
-0.00481812491328
-0.0048219776104
-0.00482607219123
-0.0048336789048
-0.00484364659966
-0.00485544698789
-0.00487029004679
-0.00372015237304
-0.00459771417169
-0.00479035738682
-0.0048240311853
-0.00482757344716
-0.00483127454061
-0.00483844330511
-0.0048479568551
-0.00485931219709
-0.00487365792114
-0.00372307723303
-0.00460387882513
-0.00479620576512
-0.00482970345686
-0.00483298397015
-0.00483632790151
-0.00484307282768
-0.00485214049038
-0.00486302328665
-0.00487685780179
-0.00372553809011
-0.00460962507534
-0.00480168713162
-0.00483510000572
-0.00483816988184
-0.00484117465991
-0.00484750143565
-0.00485609670375
-0.00486652252125
-0.00487969372002
-0.0037275761716
-0.00461483452395
-0.00480669555484
-0.00484017805419
-0.00484309905924
-0.00484579866633
-0.00485170073689
-0.00485982390772
-0.0048696240245
-0.00488224192154
-0.00372922629917
-0.00461933497029
-0.00481123931408
-0.0048449061326
-0.00484778208975
-0.00485020166023
-0.00485567866622
-0.00486323717687
-0.0048726625299
-0.00488407245909
-0.00373062352375
-0.00462311663241
-0.00481525721954
-0.00484933127495
-0.00485221160658
-0.00485439123221
-0.00485940872813
-0.00373198072814
-0.00462620513183
-0.00481886363687
-0.00485343665839
-0.00485643519179
-0.00482195152071
-0.00485726665621
)
;
    }
    sides
    {
        type            calculated;
        value           nonuniform List<scalar> 8(-0.00300580388064 -0.00344333946498 -0.00353844369414 -0.00355705055965 -0.00356540775341 -0.00357574114842 -0.0035881754292 -0.00360189193548);
    }
    bottom
    {
        type            calculated;
        value           nonuniform List<scalar> 
18
(
-0.00300580388064
-0.00346592858454
-0.00361042413396
-0.00366128672636
-0.00368114828096
-0.00369112508262
-0.00369789659883
-0.00370347209245
-0.00370840205062
-0.00371281516384
-0.00371673267633
-0.00372015237304
-0.00372307723303
-0.00372553809011
-0.0037275761716
-0.00372922629917
-0.00373062352375
-0.00373198072814
)
;
    }
    front
    {
        type            calculated;
        value           nonuniform List<scalar> 
167
(
-0.00300580388064
-0.00344333946498
-0.00353844369414
-0.00355705055965
-0.00356540775341
-0.00357574114842
-0.0035881754292
-0.00360189193548
-0.00346592858454
-0.00418984452018
-0.0043462834314
-0.00437655448571
-0.00438485308711
-0.00439345602535
-0.00440422831538
-0.00441639432104
-0.00361042413396
-0.00441992985224
-0.00460068426451
-0.0046356787792
-0.00464380072994
-0.00465190996866
-0.00466272751935
-0.00467489831427
-0.00366128672636
-0.00450382738931
-0.00469482938773
-0.00473149186783
-0.00473924798841
-0.00474705241497
-0.00475778253129
-0.00477053391146
-0.00478400265678
-0.00368114828096
-0.00453638477288
-0.00473083298163
-0.00476763302808
-0.0047748214859
-0.00478217803503
-0.00479274305367
-0.00480532657868
-0.00481948169946
-0.00483608845316
-0.00369112508262
-0.00455172292818
-0.00474689816779
-0.00478322315354
-0.00478973457712
-0.00479651653933
-0.00480667875532
-0.00481898307305
-0.00483291482554
-0.00484981260318
-0.00369789659883
-0.00456154315843
-0.00475650687838
-0.00479222130734
-0.00479805301859
-0.00480422309616
-0.00481387254274
-0.00482576542226
-0.00483935044303
-0.00485593650942
-0.00370347209245
-0.0045695837038
-0.00476413031384
-0.0047992650167
-0.00480448139382
-0.00481005406476
-0.00481916823105
-0.00483058906244
-0.00484373885136
-0.00485993848054
-0.00370840205062
-0.00457705979755
-0.00477108613682
-0.00480575474023
-0.00481043115684
-0.0048154554385
-0.00482404070175
-0.00483496688214
-0.00484766282891
-0.00486342997557
-0.00371281516384
-0.00458424785218
-0.00477776241028
-0.00481201610194
-0.00481625069986
-0.00482078549942
-0.00482886303143
-0.0048393022781
-0.00485154792491
-0.00486685159233
-0.00371673267633
-0.00459113899316
-0.00478420210485
-0.00481812491328
-0.0048219776104
-0.00482607219123
-0.0048336789048
-0.00484364659966
-0.00485544698789
-0.00487029004679
-0.00372015237304
-0.00459771417169
-0.00479035738682
-0.0048240311853
-0.00482757344716
-0.00483127454061
-0.00483844330511
-0.0048479568551
-0.00485931219709
-0.00487365792114
-0.00372307723303
-0.00460387882513
-0.00479620576512
-0.00482970345686
-0.00483298397015
-0.00483632790151
-0.00484307282768
-0.00485214049038
-0.00486302328665
-0.00487685780179
-0.00372553809011
-0.00460962507534
-0.00480168713162
-0.00483510000572
-0.00483816988184
-0.00484117465991
-0.00484750143565
-0.00485609670375
-0.00486652252125
-0.00487969372002
-0.0037275761716
-0.00461483452395
-0.00480669555484
-0.00484017805419
-0.00484309905924
-0.00484579866633
-0.00485170073689
-0.00485982390772
-0.0048696240245
-0.00488224192154
-0.00372922629917
-0.00461933497029
-0.00481123931408
-0.0048449061326
-0.00484778208975
-0.00485020166023
-0.00485567866622
-0.00486323717687
-0.0048726625299
-0.00488407245909
-0.00373062352375
-0.00462311663241
-0.00481525721954
-0.00484933127495
-0.00485221160658
-0.00485439123221
-0.00485940872813
-0.00373198072814
-0.00462620513183
-0.00481886363687
-0.00485343665839
-0.00485643519179
-0.00482195152071
-0.00485726665621
)
;
    }
    atmosphere
    {
        type            calculated;
        value           nonuniform List<scalar> 0();
    }
    floatingObject
    {
        type            calculated;
        value           nonuniform List<scalar> 0();
    }
    procBoundary2to0
    {
        type            processor;
        value           nonuniform List<scalar> 
14
(
-0.00486648521109
-0.00487476103978
-0.00488545395911
-0.00485845078543
-0.00486648521109
-0.00486290887339
-0.00373320807665
-0.00462850365728
-0.00485845078543
-0.00486052939339
-0.00462850365728
-0.00482451536492
-0.00486052939339
-0.00486086648443
)
;
    }
    procBoundary2to1
    {
        type            processor;
        value           nonuniform List<scalar> 
18
(
-0.00361654264275
-0.00442913207086
-0.0046885497921
-0.0046885497921
-0.00480123340797
-0.00480123340797
-0.00486342576117
-0.00487636170929
-0.00488185270742
-0.00488507133723
-0.00488772369227
-0.00489028068056
-0.00489280938005
-0.00489526889142
-0.00489749355663
-0.00489930667066
-0.00490035057491
-0.0049012329086
)
;
    }
}


// ************************************************************************* //
