/*--------------------------------*- C++ -*----------------------------------*\
| =========                 |                                                 |
| \\      /  F ield         | OpenFOAM: The Open Source CFD Toolbox           |
|  \\    /   O peration     | Version:  v2012                                 |
|   \\  /    A nd           | Website:  www.openfoam.com                      |
|    \\/     M anipulation  |                                                 |
\*---------------------------------------------------------------------------*/
FoamFile
{
    version     2.0;
    format      ascii;
    class       volVectorField;
    location    "2.2";
    object      ddt0(rho,U);
}
// * * * * * * * * * * * * * * * * * * * * * * * * * * * * * * * * * * * * * //

dimensions      [1 -2 -2 0 0 0 0];


internalField   nonuniform List<vector> 
167
(
(4.29638803904 -4.24987748886 2.87725463804e-20)
(3.7113798553 -13.8151923657 -1.08994056182e-18)
(3.93355255665 -22.1315660475 8.42268191324e-19)
(4.29055760001 -31.5333565289 8.97785714417e-20)
(4.68689914351 -41.4833945371 -1.22004424608e-20)
(5.17044559045 -52.2993250521 -3.14160797827e-19)
(5.76951230443 -64.1727581867 7.96143828118e-19)
(6.4917765657 -77.3390671707 -1.86838892679e-18)
(13.7549279703 -3.47550991479 4.63797794115e-19)
(13.2363494573 -12.8049190443 1.87793118266e-19)
(13.7970864281 -21.0291875911 5.71413939192e-19)
(14.6957960759 -30.1679914519 6.23430814068e-19)
(15.828226309 -39.7651877133 2.68350700964e-18)
(17.2442180935 -50.1685333391 8.47659325574e-19)
(18.9977483044 -61.6024442298 1.06793824615e-18)
(21.1345939383 -74.2993364454 9.39392206055e-19)
(21.4069921036 -3.28548738518 3.98781685662e-19)
(21.1701806406 -12.3016461043 -2.77487779157e-18)
(22.0233088696 -20.1175776869 3.68923677084e-19)
(23.3618155756 -28.8541693618 4.20694203186e-19)
(25.1455675075 -38.0114741999 4.17488457146e-19)
(27.4270451866 -47.9534442912 -3.8006083162e-19)
(30.2769206091 -58.8750814238 -9.44254992589e-21)
(33.7606233335 -71.0222523461 -5.51672279815e-19)
(29.2130701258 -3.08916809552 4.96960701355e-20)
(29.1325646471 -11.6504987497 -8.72555834834e-19)
(30.2884014318 -18.8838641401 5.05810377749e-19)
(32.0790594123 -27.0790079175 3.29038576393e-19)
(34.477923614 -35.6472424246 1.01685425917e-19)
(37.5735276398 -44.9342052866 -4.95120135055e-19)
(41.4581382328 -55.1377290036 -4.08930850426e-19)
(46.2188574146 -66.481398779 1.32943058858e-19)
(51.9601159064 -79.2454697299 2.01183603695e-19)
(36.4151744703 -2.78713494009 9.99701070298e-19)
(36.4018308823 -10.7529474755 -2.48402199985e-18)
(37.8219993537 -17.2841965924 -1.08310363325e-19)
(40.0324211513 -24.7787125828 3.57099072016e-19)
(43.0116071266 -32.5772911892 1.32168520013e-19)
(46.8492741536 -41.0131818707 -7.56423978447e-20)
(51.6738905756 -50.2682227185 -4.89342502866e-20)
(57.6071269606 -60.5611732141 3.07429877899e-20)
(64.7744251225 -72.1511997737 5.35655691115e-20)
(73.3261511709 -85.3145327585 -7.85665246303e-20)
(42.9686498923 -2.42341633795 6.44630950183e-19)
(42.9751532245 -9.62673593773 -2.01134091514e-18)
(44.618583328 -15.358245343 1.03870358309e-19)
(47.1971115132 -22.0025688191 2.48069907134e-19)
(50.677568656 -28.8802766669 1.10801759591e-19)
(55.1632289304 -36.2970777036 7.92096190692e-21)
(60.797763179 -44.4008628523 2.99673809812e-21)
(67.7413583109 -53.4012980534 1.67351204426e-20)
(76.1605036476 -63.5488045072 -3.91706684623e-20)
(86.2431005969 -75.0740323987 -2.68525563666e-20)
(48.7260454213 -1.99631617029 4.66851107646e-19)
(48.6997439866 -8.3335119929 -3.81131442338e-20)
(50.537245751 -13.173088359 5.76754017004e-19)
(53.4119405009 -18.8458172521 2.89459770619e-19)
(57.292255627 -24.6591919654 4.97549188683e-20)
(62.3009229956 -30.9099515366 5.31315787318e-20)
(68.5934705452 -37.6998374816 1.54120855481e-21)
(76.3575582633 -45.2060538118 -2.14892707119e-20)
(85.7935690404 -53.6574657936 6.52416985525e-20)
(97.1436448222 -63.238516368 -1.37451064295e-19)
(53.5902125051 -1.53112845548 5.65299999743e-19)
(53.4925867944 -6.91053973975 -2.02197190431e-18)
(55.481269528 -10.7753200969 1.95690639885e-20)
(58.5773483611 -15.3933837901 3.42660969149e-19)
(62.7521398162 -20.0443380126 1.28730443875e-19)
(68.1340865072 -25.0123831574 2.23703497435e-20)
(74.9122685658 -30.3524768498 2.00072899308e-20)
(83.2667063553 -36.2074401355 -4.46795113332e-20)
(93.4409194645 -42.7676567822 4.273130949e-20)
(105.720914237 -50.1508858034 -1.34371082943e-20)
(57.4967485139 -1.03826771427 2.2774202465e-19)
(57.3048562115 -5.40095588075 -1.23814209677e-18)
(59.3771507775 -8.23744717783 2.52321935207e-19)
(62.6222491576 -11.7419930962 2.80826709461e-19)
(66.972864519 -15.1637202225 1.35370136756e-19)
(72.5776471286 -18.7687781483 8.88791946151e-20)
(79.6317708086 -22.5772243282 -4.53395465612e-20)
(88.326583741 -26.6848206108 4.38036762467e-20)
(98.9288496539 -31.2091179063 -3.07261159309e-20)
(111.756808259 -36.2173238314 -4.18591068619e-20)
(60.4039346675 -0.530303298963 -5.16693602445e-20)
(60.0909401272 -3.85328775215 -2.53663710097e-18)
(62.1909689656 -5.626334972 -5.55523982907e-19)
(65.4932906668 -7.98525493301 1.90615700241e-19)
(69.8996394197 -10.1576626509 8.30271185825e-20)
(75.5658779766 -12.3745485422 -5.26467613189e-21)
(82.681741542 -14.6150312452 8.11520167659e-21)
(91.4592875843 -16.9190886764 3.92700340062e-23)
(102.163023265 -19.3445655745 -7.01314946582e-21)
(115.111027304 -21.8928965718 -2.65049896081e-20)
(62.30009441 -0.0217966330907 2.42235299867e-19)
(61.8358919554 -2.30230703694 7.80269400503e-19)
(63.913583775 -3.02124885195 5.61605498451e-19)
(67.178309017 -4.24016394944 2.17048067124e-19)
(71.519372071 -5.16710487688 7.04643070267e-20)
(77.0845704404 -6.01011007392 -7.27775191561e-21)
(84.0611938898 -6.69492356382 -6.45865803386e-21)
(92.6567528468 -7.20993848537 -8.7650719766e-21)
(103.127287307 -7.56486766479 -9.02572763652e-22)
(115.775534762 -7.66828813694 -6.71946672522e-20)
(63.1960739443 0.470297869168 1.01745849218e-18)
(62.5522662437 -0.793487792689 -7.56872646232e-19)
(64.5586786288 -0.487045160947 4.67096992327e-19)
(67.7040228228 -0.605262232162 2.90272550587e-19)
(71.8653334786 -0.333452914111 9.13260512793e-20)
(77.1783599219 0.14272123304 7.64335374308e-21)
(83.8223462441 0.946277201114 -1.96574490196e-20)
(91.9890613928 2.13763126457 1.31289221845e-20)
(101.893582057 3.76148251158 -7.65189197012e-20)
(113.841640075 5.98480741159 -3.80143436463e-20)
(63.1341655856 0.934661884876 7.13620926222e-19)
(62.2900861236 0.63980581118 -2.56306480975e-18)
(64.1856544076 1.90881705938 -1.32340249335e-19)
(67.127035154 2.82269192175 2.19566534733e-19)
(71.0026495025 4.21798307086 8.84000236188e-20)
(75.9260363072 5.91841627605 -2.35877003124e-21)
(82.0571441411 8.10252136967 5.56102026857e-21)
(89.560685198 10.8486843832 7.94822406763e-23)
(98.6174767653 14.2732483412 -5.5503353196e-20)
(109.506211625 18.6319240005 -6.32687726608e-20)
(62.1758325599 1.35169088037 6.29492499716e-19)
(61.1310171712 1.96779561497 -1.02863069521e-18)
(62.8438892678 4.11127554753 -3.73003415761e-19)
(65.5345281342 5.95298072655 -3.48905037218e-20)
(69.0359847678 8.36994719684 5.8691818449e-20)
(73.4497581717 11.1665621909 2.00154951757e-20)
(78.9163478223 14.5669890334 1.97041987857e-20)
(85.5596897626 18.6864258492 1.92416959337e-21)
(93.5441041407 23.6953038959 2.49182734977e-20)
(103.071209235 29.9016327633 -5.06714656366e-20)
(60.3856585471 1.73943167481 -1.47510364103e-19)
(59.1170338223 3.14623833217 -1.71840932899e-18)
(60.6239949826 6.05995937744 -1.13937063988e-19)
(63.0219016543 8.7407762349 -7.61685417061e-20)
(66.088887798 12.0327230083 -3.99465175762e-20)
(69.911751087 15.7669757198 4.92382664629e-21)
(74.601326129 20.1998222796 2.86427241147e-20)
(80.2508161527 25.469187883 -6.60735874625e-21)
(86.9704509784 31.7747289505 1.13805336875e-20)
(94.9003248882 39.4750199553 1.95988387323e-20)
(57.8521623768 2.05685377511 2.85584862648e-19)
(56.3452319257 4.17050234149 1.02597636075e-19)
(57.6472212738 7.7478069439 1.0433219164e-19)
(59.7190277947 11.1286812964 -5.12289893979e-21)
(62.3111556096 15.1518838847 1.88857205765e-21)
(65.4955219388 19.6460566795 1.00837798987e-20)
(69.3418034895 24.8919867195 4.79230138139e-20)
(73.8962107142 31.0437358915 -1.41494292831e-21)
(79.2353854147 38.3336112976 1.29487776134e-20)
(85.3945675523 47.1140591458 1.260222693e-19)
(54.6862119977 2.32093483905 9.55585918362e-19)
(52.9556901882 5.02609765115 5.78473233025e-19)
(54.028243171 9.14990781276 2.6774966344e-19)
(55.7735268111 13.0997113928 1.01823093767e-19)
(57.8765272446 17.693142154 -3.53788973481e-20)
(60.3980019386 22.7619186939 -2.81713713411e-20)
(63.3826719935 28.5886521348 1.02682140438e-19)
(51.0292969568 2.53403535032 1.24406510709e-18)
(49.0560759729 5.71728057146 5.65127286513e-19)
(49.9351034132 10.2709303745 3.78115588892e-19)
(51.339037689 14.6557057064 1.81942451492e-19)
(52.9569186207 19.6531850247 5.36943076951e-20)
(45.4165138329 11.1258751553 1.67171023649e-19)
(46.5160456988 15.7972888401 4.41020954432e-19)
)
;

boundaryField
{
    back
    {
        type            calculated;
        value           uniform (0 0 0);
    }
    sides
    {
        type            calculated;
        value           uniform (0 0 0);
    }
    bottom
    {
        type            calculated;
        value           uniform (0 0 0);
    }
    front
    {
        type            calculated;
        value           uniform (0 0 0);
    }
    atmosphere
    {
        type            calculated;
        value           nonuniform List<vector> 0();
    }
    floatingObject
    {
        type            calculated;
        value           nonuniform List<vector> 0();
    }
    procBoundary2to0
    {
        type            processor;
        value           nonuniform List<vector> 
14
(
(66.8099941063 35.3526232564 6.85402811349e-21)
(70.6829182845 43.2643294186 -1.05727429565e-21)
(74.9824305215 52.667426883 1.04819279511e-19)
(54.839362591 25.1151550905 5.3799458792e-21)
(66.8099941063 35.3526232564 6.85402811349e-21)
(56.976962213 31.2943830529 4.33890116222e-20)
(46.9206351062 2.66311306683 5.63157125685e-19)
(44.7419501268 6.25523085457 -3.44692130958e-19)
(54.839362591 25.1151550905 5.3799458792e-21)
(47.7038115823 21.0757776713 6.06864765551e-20)
(44.7419501268 6.25523085457 -3.44692130958e-19)
(40.5718150506 11.7312104775 -1.2673318749e-19)
(47.7038115823 21.0757776713 6.06864765551e-20)
(41.420830705 16.6115804633 8.40428538403e-20)
)
;
    }
    procBoundary2to1
    {
        type            processor;
        value           nonuniform List<vector> 
18
(
(7.35490232511 -92.041646317 -8.17448261759e-19)
(23.6768865217 -88.5139766027 -1.20867000206e-18)
(37.9384628399 -84.6468702339 -2.91904651895e-19)
(37.9384628399 -84.6468702339 -2.91904651895e-19)
(58.7578463221 -93.6981252715 -2.4324072094e-19)
(58.7578463221 -93.6981252715 -2.4324072094e-19)
(83.4205989847 -100.302071415 2.48959081122e-20)
(98.2447383969 -88.2210091439 2.90851898966e-20)
(110.720536477 -74.156831309 -6.03687611376e-21)
(120.467749321 -58.5110091136 -8.16462500721e-21)
(127.195514963 -41.7831990778 1.83888920532e-20)
(130.724533823 -24.5413374961 8.15353492063e-21)
(131.018531587 -7.39922056226 2.10723443204e-20)
(128.207514317 9.0235980312 7.95155566513e-20)
(122.548052748 24.1864126757 7.51984850603e-21)
(114.401386779 37.6105620276 4.38302540137e-21)
(104.191737975 48.921765254 -9.02517144759e-22)
(92.4391882011 57.8072605873 -9.37771852962e-20)
)
;
    }
}


// ************************************************************************* //
