/*--------------------------------*- C++ -*----------------------------------*\
| =========                 |                                                 |
| \\      /  F ield         | OpenFOAM: The Open Source CFD Toolbox           |
|  \\    /   O peration     | Version:  v2012                                 |
|   \\  /    A nd           | Website:  www.openfoam.com                      |
|    \\/     M anipulation  |                                                 |
\*---------------------------------------------------------------------------*/
FoamFile
{
    version     2.0;
    format      ascii;
    class       volScalarField;
    location    "2.2";
    object      epsilon;
}
// * * * * * * * * * * * * * * * * * * * * * * * * * * * * * * * * * * * * * //

dimensions      [0 2 -3 0 0 0 0];


internalField   nonuniform List<scalar> 
167
(
0.00335150160287
0.0037064385189
0.00394719305307
0.00403747750657
0.00408308385273
0.00411735208041
0.0041497406726
0.0041827749428
0.00372898966219
0.00376535811937
0.00407325938993
0.00418351206912
0.00423137955003
0.00426198281539
0.0042888012695
0.00431555471993
0.00397878347081
0.00408429297628
0.00443995490787
0.00456604495243
0.00461813119794
0.00464951439806
0.00467636595314
0.00470312924982
0.00407561014169
0.00420595828182
0.00458038008725
0.00471195699453
0.00476461127349
0.00479526052345
0.00482127061263
0.00484737904197
0.00487516676273
0.00412197150516
0.00425948697231
0.00464075920156
0.00477349308633
0.00482526428823
0.0048545974686
0.00487938974453
0.0049044917579
0.00493147304331
0.00496249020549
0.00415238182556
0.00429089372658
0.00467440258825
0.0048066430663
0.0048570342384
0.00488487296408
0.0049082978564
0.00493221138649
0.00495816179734
0.00498822351515
0.00417766419273
0.00431539900389
0.00469957214456
0.0048308202299
0.00487974736327
0.00490611326277
0.00492817330732
0.0049508497321
0.00497567104919
0.00500463059287
0.00420101673671
0.0043376836356
0.00472211915913
0.00485230962679
0.00489985787003
0.0049248480966
0.00494561720501
0.00496708372496
0.00499076095522
0.00501856309579
0.00422329547601
0.0043591379094
0.00474372738759
0.00487293026409
0.00491922556543
0.0049429690597
0.00496254205771
0.00498286580953
0.00500543071677
0.00503207136929
0.004244658432
0.00438003759947
0.00476480319698
0.00489307518401
0.00493825062033
0.00496088016388
0.00497936621173
0.00499862928567
0.00502013743119
0.00504563190376
0.00426509115812
0.00440036015504
0.00478534600064
0.00491277290396
0.00495693062954
0.00497856135009
0.00499607029769
0.00501436192785
0.00503487978378
0.00505927171997
0.00428455435554
0.00442004762326
0.00480527801057
0.00493193225325
0.00497517183183
0.00499590864468
0.00501254095411
0.0050299468264
0.00504953010336
0.00507286715135
0.00430300869545
0.00443900424435
0.00482451978903
0.00495046789
0.00499287198975
0.00501280486618
0.00502864449438
0.00504524061768
0.00506396053861
0.00508629945039
0.004320415178
0.00445716997386
0.00484296819813
0.00496828454734
0.00500994350845
0.00502915929792
0.00504428829716
0.00506014690111
0.00507808301428
0.00509948870424
0.00433675092549
0.00447447245079
0.00486052464066
0.00498530875627
0.0050263141093
0.00504490377352
0.00505940564588
0.00507461020877
0.0050918303607
0.00511237147255
0.00435204627618
0.00449079836968
0.00487718046568
0.00500150122701
0.0050419368632
0.00505998854787
0.0050739470686
0.00508856841702
0.00510513751061
0.00512489461638
0.00436636356107
0.00450617152954
0.00489288987115
0.00501683392022
0.00505679231804
0.00507437856813
0.00508786881546
0.00437968351193
0.00452047746767
0.00490761056315
0.00503127637328
0.00507084799332
0.00492126660287
0.00504477539163
)
;

boundaryField
{
    back
    {
        lowReCorrection 0;
        blending        stepwise;
        n               2;
        type            epsilonWallFunction;
        value           nonuniform List<scalar> 
167
(
0.00335150160287
0.0037064385189
0.00394719305307
0.00403747750657
0.00408308385273
0.00411735208041
0.0041497406726
0.0041827749428
0.00372898966219
0.00376535811937
0.00407325938993
0.00418351206912
0.00423137955003
0.00426198281539
0.0042888012695
0.00431555471993
0.00397878347081
0.00408429297628
0.00443995490787
0.00456604495243
0.00461813119794
0.00464951439806
0.00467636595314
0.00470312924982
0.00407561014169
0.00420595828182
0.00458038008725
0.00471195699453
0.00476461127349
0.00479526052345
0.00482127061263
0.00484737904197
0.00487516676273
0.00412197150516
0.00425948697231
0.00464075920156
0.00477349308633
0.00482526428823
0.0048545974686
0.00487938974453
0.0049044917579
0.00493147304331
0.00496249020549
0.00415238182556
0.00429089372658
0.00467440258825
0.0048066430663
0.0048570342384
0.00488487296408
0.0049082978564
0.00493221138649
0.00495816179734
0.00498822351515
0.00417766419273
0.00431539900389
0.00469957214456
0.0048308202299
0.00487974736327
0.00490611326277
0.00492817330732
0.0049508497321
0.00497567104919
0.00500463059287
0.00420101673671
0.0043376836356
0.00472211915913
0.00485230962679
0.00489985787003
0.0049248480966
0.00494561720501
0.00496708372496
0.00499076095522
0.00501856309579
0.00422329547601
0.0043591379094
0.00474372738759
0.00487293026409
0.00491922556543
0.0049429690597
0.00496254205771
0.00498286580953
0.00500543071677
0.00503207136929
0.004244658432
0.00438003759947
0.00476480319698
0.00489307518401
0.00493825062033
0.00496088016388
0.00497936621173
0.00499862928567
0.00502013743119
0.00504563190376
0.00426509115812
0.00440036015504
0.00478534600064
0.00491277290396
0.00495693062954
0.00497856135009
0.00499607029769
0.00501436192785
0.00503487978378
0.00505927171997
0.00428455435554
0.00442004762326
0.00480527801057
0.00493193225325
0.00497517183183
0.00499590864468
0.00501254095411
0.0050299468264
0.00504953010336
0.00507286715135
0.00430300869545
0.00443900424435
0.00482451978903
0.00495046789
0.00499287198975
0.00501280486618
0.00502864449438
0.00504524061768
0.00506396053861
0.00508629945039
0.004320415178
0.00445716997386
0.00484296819813
0.00496828454734
0.00500994350845
0.00502915929792
0.00504428829716
0.00506014690111
0.00507808301428
0.00509948870424
0.00433675092549
0.00447447245079
0.00486052464066
0.00498530875627
0.0050263141093
0.00504490377352
0.00505940564588
0.00507461020877
0.0050918303607
0.00511237147255
0.00435204627618
0.00449079836968
0.00487718046568
0.00500150122701
0.0050419368632
0.00505998854787
0.0050739470686
0.00508856841702
0.00510513751061
0.00512489461638
0.00436636356107
0.00450617152954
0.00489288987115
0.00501683392022
0.00505679231804
0.00507437856813
0.00508786881546
0.00437968351193
0.00452047746767
0.00490761056315
0.00503127637328
0.00507084799332
0.00492126660287
0.00504477539163
)
;
    }
    sides
    {
        lowReCorrection 0;
        blending        stepwise;
        n               2;
        type            epsilonWallFunction;
        value           nonuniform List<scalar> 8(0.00335150160287 0.0037064385189 0.00394719305307 0.00403747750657 0.00408308385273 0.00411735208041 0.0041497406726 0.0041827749428);
    }
    bottom
    {
        lowReCorrection 0;
        blending        stepwise;
        n               2;
        type            epsilonWallFunction;
        value           nonuniform List<scalar> 
18
(
0.00335150160287
0.00372898966219
0.00397878347081
0.00407561014169
0.00412197150516
0.00415238182556
0.00417766419273
0.00420101673671
0.00422329547601
0.004244658432
0.00426509115812
0.00428455435554
0.00430300869545
0.004320415178
0.00433675092549
0.00435204627618
0.00436636356107
0.00437968351193
)
;
    }
    front
    {
        lowReCorrection 0;
        blending        stepwise;
        n               2;
        type            epsilonWallFunction;
        value           nonuniform List<scalar> 
167
(
0.00335150160287
0.0037064385189
0.00394719305307
0.00403747750657
0.00408308385273
0.00411735208041
0.0041497406726
0.0041827749428
0.00372898966219
0.00376535811937
0.00407325938993
0.00418351206912
0.00423137955003
0.00426198281539
0.0042888012695
0.00431555471993
0.00397878347081
0.00408429297628
0.00443995490787
0.00456604495243
0.00461813119794
0.00464951439806
0.00467636595314
0.00470312924982
0.00407561014169
0.00420595828182
0.00458038008725
0.00471195699453
0.00476461127349
0.00479526052345
0.00482127061263
0.00484737904197
0.00487516676273
0.00412197150516
0.00425948697231
0.00464075920156
0.00477349308633
0.00482526428823
0.0048545974686
0.00487938974453
0.0049044917579
0.00493147304331
0.00496249020549
0.00415238182556
0.00429089372658
0.00467440258825
0.0048066430663
0.0048570342384
0.00488487296408
0.0049082978564
0.00493221138649
0.00495816179734
0.00498822351515
0.00417766419273
0.00431539900389
0.00469957214456
0.0048308202299
0.00487974736327
0.00490611326277
0.00492817330732
0.0049508497321
0.00497567104919
0.00500463059287
0.00420101673671
0.0043376836356
0.00472211915913
0.00485230962679
0.00489985787003
0.0049248480966
0.00494561720501
0.00496708372496
0.00499076095522
0.00501856309579
0.00422329547601
0.0043591379094
0.00474372738759
0.00487293026409
0.00491922556543
0.0049429690597
0.00496254205771
0.00498286580953
0.00500543071677
0.00503207136929
0.004244658432
0.00438003759947
0.00476480319698
0.00489307518401
0.00493825062033
0.00496088016388
0.00497936621173
0.00499862928567
0.00502013743119
0.00504563190376
0.00426509115812
0.00440036015504
0.00478534600064
0.00491277290396
0.00495693062954
0.00497856135009
0.00499607029769
0.00501436192785
0.00503487978378
0.00505927171997
0.00428455435554
0.00442004762326
0.00480527801057
0.00493193225325
0.00497517183183
0.00499590864468
0.00501254095411
0.0050299468264
0.00504953010336
0.00507286715135
0.00430300869545
0.00443900424435
0.00482451978903
0.00495046789
0.00499287198975
0.00501280486618
0.00502864449438
0.00504524061768
0.00506396053861
0.00508629945039
0.004320415178
0.00445716997386
0.00484296819813
0.00496828454734
0.00500994350845
0.00502915929792
0.00504428829716
0.00506014690111
0.00507808301428
0.00509948870424
0.00433675092549
0.00447447245079
0.00486052464066
0.00498530875627
0.0050263141093
0.00504490377352
0.00505940564588
0.00507461020877
0.0050918303607
0.00511237147255
0.00435204627618
0.00449079836968
0.00487718046568
0.00500150122701
0.0050419368632
0.00505998854787
0.0050739470686
0.00508856841702
0.00510513751061
0.00512489461638
0.00436636356107
0.00450617152954
0.00489288987115
0.00501683392022
0.00505679231804
0.00507437856813
0.00508786881546
0.00437968351193
0.00452047746767
0.00490761056315
0.00503127637328
0.00507084799332
0.00492126660287
0.00504477539163
)
;
    }
    atmosphere
    {
        type            inletOutlet;
        inletValue      nonuniform List<scalar> 0();
        value           nonuniform List<scalar> 0();
    }
    floatingObject
    {
        lowReCorrection 0;
        blending        stepwise;
        n               2;
        type            epsilonWallFunction;
        value           nonuniform List<scalar> 0();
    }
    procBoundary2to0
    {
        type            processor;
        value           nonuniform List<scalar> 
14
(
0.00510198845104
0.00511798265131
0.00513704824873
0.00508805041683
0.00510198845104
0.00510114601905
0.00439186986328
0.00453362394204
0.00508805041683
0.00508407637948
0.00453362394204
0.00493388211625
0.00508407637948
0.00505735289172
)
;
    }
    procBoundary2to1
    {
        type            processor;
        value           nonuniform List<scalar> 
18
(
0.00421741118521
0.00434358965109
0.00473136123238
0.00473136123238
0.0049068634651
0.0049068634651
0.00500439444812
0.00502902654326
0.00504411975278
0.00505663202485
0.00506867078814
0.00508074487115
0.00509289246513
0.00510502669967
0.00511703808483
0.00512885849169
0.00514046956767
0.00515185502918
)
;
    }
}


// ************************************************************************* //
