/*--------------------------------*- C++ -*----------------------------------*\
| =========                 |                                                 |
| \\      /  F ield         | OpenFOAM: The Open Source CFD Toolbox           |
|  \\    /   O peration     | Version:  v2012                                 |
|   \\  /    A nd           | Website:  www.openfoam.com                      |
|    \\/     M anipulation  |                                                 |
\*---------------------------------------------------------------------------*/
FoamFile
{
    version     2.0;
    format      ascii;
    class       volScalarField;
    location    "2.2";
    object      epsilon_0;
}
// * * * * * * * * * * * * * * * * * * * * * * * * * * * * * * * * * * * * * //

dimensions      [0 2 -3 0 0 0 0];


internalField   nonuniform List<scalar> 
167
(
0.0034024662466
0.00376225300374
0.0040057499668
0.00409677695633
0.00414273834729
0.00417734072721
0.00421008963203
0.00424350833996
0.00378528427956
0.00382172088264
0.00413326300945
0.00424446338643
0.00429267218406
0.00432353927157
0.00435063417532
0.0043776824436
0.00403870555961
0.00414538657911
0.00450532542253
0.00463251930912
0.00468496784122
0.00471661517506
0.0047437483056
0.00477081338318
0.00413686323362
0.0042688231147
0.00464778451682
0.00478052118955
0.00483353656382
0.0048644433193
0.00489073217415
0.00491714870772
0.00494526601797
0.00418378672437
0.00432307150096
0.0047089759666
0.00484287925772
0.00489499960714
0.00492457801387
0.00494964145435
0.00497504611833
0.00500236180866
0.00503377076666
0.00421451370598
0.0043548466267
0.00474301341585
0.00487641483778
0.00492713891975
0.00495520763246
0.00497889157916
0.005003098553
0.00502937612207
0.00505982813993
0.00424003335315
0.00437960834806
0.00476844217167
0.00490083797322
0.00495008123878
0.00497666139427
0.00499896675037
0.00502192504415
0.00504706360018
0.00507640406646
0.00426359360941
0.00440211338316
0.0047912069007
0.00492253190998
0.00497038085614
0.0049955702561
0.0050165709883
0.00503830703265
0.00506229026301
0.00509046246045
0.00428606407014
0.00442377612547
0.00481301876594
0.00494334503024
0.00498992733397
0.00501385627369
0.00503364776154
0.00505422877424
0.00507708827718
0.00510408753517
0.00430760573626
0.00444487770202
0.00483429182429
0.0049636771011
0.00500912794931
0.00503193071604
0.00505062296465
0.00507013156623
0.00509192324039
0.0051177644788
0.0043282044582
0.00446539538653
0.00485502616405
0.00498355792622
0.00502798085573
0.00504977385639
0.00506747777471
0.00508600383732
0.0051067945118
0.00513152158822
0.00434782070628
0.00448527071682
0.00487514295335
0.00500289517763
0.00504639127837
0.00506728060132
0.00508409758558
0.0051017274204
0.00512157291292
0.00514523320618
0.00436641500148
0.00450440615819
0.00489456207313
0.00502160265175
0.00506425568679
0.00508433223423
0.00510034681052
0.00511715678262
0.00513612819292
0.00515877833717
0.00438394867103
0.00452274129741
0.00491317903406
0.00503958402169
0.00508148548282
0.00510083674321
0.00511613136184
0.00513219357127
0.00515037084921
0.00517207418021
0.00440039942987
0.00454020174597
0.00493089321725
0.00505676484019
0.00509800756728
0.00511672532159
0.00513138374455
0.00514678201417
0.00516423126799
0.00518505725918
0.00441579836665
0.0045566711865
0.00494769603288
0.0050731051399
0.00511377474329
0.00513194800772
0.00514605431378
0.00516085854374
0.00517764697135
0.00519766966852
0.00443021035151
0.00457217331169
0.00496354052025
0.00508857717434
0.00512876758347
0.00514646957728
0.00516009877019
0.00444361966085
0.00458659340334
0.00497838566757
0.00510315050595
0.00514295394019
0.00499215376031
0.0051167719059
)
;

boundaryField
{
    back
    {
        lowReCorrection 0;
        blending        stepwise;
        n               2;
        type            epsilonWallFunction;
        value           nonuniform List<scalar> 
167
(
0.0034024662466
0.00376225300374
0.0040057499668
0.00409677695633
0.00414273834729
0.00417734072721
0.00421008963203
0.00424350833996
0.00378528427956
0.00382172088264
0.00413326300945
0.00424446338643
0.00429267218406
0.00432353927157
0.00435063417532
0.0043776824436
0.00403870555961
0.00414538657911
0.00450532542253
0.00463251930912
0.00468496784122
0.00471661517506
0.0047437483056
0.00477081338318
0.00413686323362
0.0042688231147
0.00464778451682
0.00478052118955
0.00483353656382
0.0048644433193
0.00489073217415
0.00491714870772
0.00494526601797
0.00418378672437
0.00432307150096
0.0047089759666
0.00484287925772
0.00489499960714
0.00492457801387
0.00494964145435
0.00497504611833
0.00500236180866
0.00503377076666
0.00421451370598
0.0043548466267
0.00474301341585
0.00487641483778
0.00492713891975
0.00495520763246
0.00497889157916
0.005003098553
0.00502937612207
0.00505982813993
0.00424003335315
0.00437960834806
0.00476844217167
0.00490083797322
0.00495008123878
0.00497666139427
0.00499896675037
0.00502192504415
0.00504706360018
0.00507640406646
0.00426359360941
0.00440211338316
0.0047912069007
0.00492253190998
0.00497038085614
0.0049955702561
0.0050165709883
0.00503830703265
0.00506229026301
0.00509046246045
0.00428606407014
0.00442377612547
0.00481301876594
0.00494334503024
0.00498992733397
0.00501385627369
0.00503364776154
0.00505422877424
0.00507708827718
0.00510408753517
0.00430760573626
0.00444487770202
0.00483429182429
0.0049636771011
0.00500912794931
0.00503193071604
0.00505062296465
0.00507013156623
0.00509192324039
0.0051177644788
0.0043282044582
0.00446539538653
0.00485502616405
0.00498355792622
0.00502798085573
0.00504977385639
0.00506747777471
0.00508600383732
0.0051067945118
0.00513152158822
0.00434782070628
0.00448527071682
0.00487514295335
0.00500289517763
0.00504639127837
0.00506728060132
0.00508409758558
0.0051017274204
0.00512157291292
0.00514523320618
0.00436641500148
0.00450440615819
0.00489456207313
0.00502160265175
0.00506425568679
0.00508433223423
0.00510034681052
0.00511715678262
0.00513612819292
0.00515877833717
0.00438394867103
0.00452274129741
0.00491317903406
0.00503958402169
0.00508148548282
0.00510083674321
0.00511613136184
0.00513219357127
0.00515037084921
0.00517207418021
0.00440039942987
0.00454020174597
0.00493089321725
0.00505676484019
0.00509800756728
0.00511672532159
0.00513138374455
0.00514678201417
0.00516423126799
0.00518505725918
0.00441579836665
0.0045566711865
0.00494769603288
0.0050731051399
0.00511377474329
0.00513194800772
0.00514605431378
0.00516085854374
0.00517764697135
0.00519766966852
0.00443021035151
0.00457217331169
0.00496354052025
0.00508857717434
0.00512876758347
0.00514646957728
0.00516009877019
0.00444361966085
0.00458659340334
0.00497838566757
0.00510315050595
0.00514295394019
0.00499215376031
0.0051167719059
)
;
    }
    sides
    {
        lowReCorrection 0;
        blending        stepwise;
        n               2;
        type            epsilonWallFunction;
        value           nonuniform List<scalar> 8(0.0034024662466 0.00376225300374 0.0040057499668 0.00409677695633 0.00414273834729 0.00417734072721 0.00421008963203 0.00424350833996);
    }
    bottom
    {
        lowReCorrection 0;
        blending        stepwise;
        n               2;
        type            epsilonWallFunction;
        value           nonuniform List<scalar> 
18
(
0.0034024662466
0.00378528427956
0.00403870555961
0.00413686323362
0.00418378672437
0.00421451370598
0.00424003335315
0.00426359360941
0.00428606407014
0.00430760573626
0.0043282044582
0.00434782070628
0.00436641500148
0.00438394867103
0.00440039942987
0.00441579836665
0.00443021035151
0.00444361966085
)
;
    }
    front
    {
        lowReCorrection 0;
        blending        stepwise;
        n               2;
        type            epsilonWallFunction;
        value           nonuniform List<scalar> 
167
(
0.0034024662466
0.00376225300374
0.0040057499668
0.00409677695633
0.00414273834729
0.00417734072721
0.00421008963203
0.00424350833996
0.00378528427956
0.00382172088264
0.00413326300945
0.00424446338643
0.00429267218406
0.00432353927157
0.00435063417532
0.0043776824436
0.00403870555961
0.00414538657911
0.00450532542253
0.00463251930912
0.00468496784122
0.00471661517506
0.0047437483056
0.00477081338318
0.00413686323362
0.0042688231147
0.00464778451682
0.00478052118955
0.00483353656382
0.0048644433193
0.00489073217415
0.00491714870772
0.00494526601797
0.00418378672437
0.00432307150096
0.0047089759666
0.00484287925772
0.00489499960714
0.00492457801387
0.00494964145435
0.00497504611833
0.00500236180866
0.00503377076666
0.00421451370598
0.0043548466267
0.00474301341585
0.00487641483778
0.00492713891975
0.00495520763246
0.00497889157916
0.005003098553
0.00502937612207
0.00505982813993
0.00424003335315
0.00437960834806
0.00476844217167
0.00490083797322
0.00495008123878
0.00497666139427
0.00499896675037
0.00502192504415
0.00504706360018
0.00507640406646
0.00426359360941
0.00440211338316
0.0047912069007
0.00492253190998
0.00497038085614
0.0049955702561
0.0050165709883
0.00503830703265
0.00506229026301
0.00509046246045
0.00428606407014
0.00442377612547
0.00481301876594
0.00494334503024
0.00498992733397
0.00501385627369
0.00503364776154
0.00505422877424
0.00507708827718
0.00510408753517
0.00430760573626
0.00444487770202
0.00483429182429
0.0049636771011
0.00500912794931
0.00503193071604
0.00505062296465
0.00507013156623
0.00509192324039
0.0051177644788
0.0043282044582
0.00446539538653
0.00485502616405
0.00498355792622
0.00502798085573
0.00504977385639
0.00506747777471
0.00508600383732
0.0051067945118
0.00513152158822
0.00434782070628
0.00448527071682
0.00487514295335
0.00500289517763
0.00504639127837
0.00506728060132
0.00508409758558
0.0051017274204
0.00512157291292
0.00514523320618
0.00436641500148
0.00450440615819
0.00489456207313
0.00502160265175
0.00506425568679
0.00508433223423
0.00510034681052
0.00511715678262
0.00513612819292
0.00515877833717
0.00438394867103
0.00452274129741
0.00491317903406
0.00503958402169
0.00508148548282
0.00510083674321
0.00511613136184
0.00513219357127
0.00515037084921
0.00517207418021
0.00440039942987
0.00454020174597
0.00493089321725
0.00505676484019
0.00509800756728
0.00511672532159
0.00513138374455
0.00514678201417
0.00516423126799
0.00518505725918
0.00441579836665
0.0045566711865
0.00494769603288
0.0050731051399
0.00511377474329
0.00513194800772
0.00514605431378
0.00516085854374
0.00517764697135
0.00519766966852
0.00443021035151
0.00457217331169
0.00496354052025
0.00508857717434
0.00512876758347
0.00514646957728
0.00516009877019
0.00444361966085
0.00458659340334
0.00497838566757
0.00510315050595
0.00514295394019
0.00499215376031
0.0051167719059
)
;
    }
    atmosphere
    {
        type            inletOutlet;
        inletValue      nonuniform List<scalar> 0();
        value           nonuniform List<scalar> 0();
    }
    floatingObject
    {
        lowReCorrection 0;
        blending        stepwise;
        n               2;
        type            epsilonWallFunction;
        value           nonuniform List<scalar> 0();
    }
    procBoundary2to0
    {
        type            processor;
        value           nonuniform List<scalar> 
14
(
0.00517439153448
0.00519058765276
0.00520990428848
0.00516026754316
0.00517439153448
0.00517349242158
0.00445588759304
0.00459983717439
0.00516026754316
0.00515630715877
0.00459983717439
0.00500486862239
0.00515630715877
0.00512946404891
)
;
    }
    procBoundary2to1
    {
        type            processor;
        value           nonuniform List<scalar> 
18
(
0.00427855220818
0.00440602754198
0.00479937373067
0.00479937373067
0.00497736142466
0.00497736142466
0.0050762748343
0.00510121677801
0.00511646362952
0.00512908392954
0.00514122056242
0.0051533917605
0.00516563669872
0.00517786723191
0.00518997079605
0.00520187628758
0.00521356122641
0.00522501513974
)
;
    }
}


// ************************************************************************* //
