/*--------------------------------*- C++ -*----------------------------------*\
| =========                 |                                                 |
| \\      /  F ield         | OpenFOAM: The Open Source CFD Toolbox           |
|  \\    /   O peration     | Version:  v2012                                 |
|   \\  /    A nd           | Website:  www.openfoam.com                      |
|    \\/     M anipulation  |                                                 |
\*---------------------------------------------------------------------------*/
FoamFile
{
    version     2.0;
    format      ascii;
    class       volScalarField;
    location    "2.7";
    object      ddt0(k);
}
// * * * * * * * * * * * * * * * * * * * * * * * * * * * * * * * * * * * * * //

dimensions      [0 2 -3 0 0 0 0];


internalField   nonuniform List<scalar> 
167
(
-0.00240385560824
-0.00241846409038
-0.00243330676503
-0.00244997654841
-0.00247726169343
-0.00254314969765
-0.00269190551926
-0.00291437659786
-0.00226894957957
0.00513771091145
0.0295259796545
0.0181740693625
-0.00293118156329
-0.00294662888732
-0.00296259382526
-0.00298304551356
-0.00302015683284
-0.00311021886466
-0.0032973086891
-0.00337637969646
-0.00124835437728
0.00907644190317
0.0147087012562
0.000288950013769
-0.00307940365755
-0.00309365058053
-0.00310857918948
-0.00312799838857
-0.00316591523246
-0.00325925685534
-0.00346168771359
-0.00359799186287
-0.0014954516821
0.00950525598192
0.0149003635884
-0.0042255695768
-0.00314397443067
-0.00315830724814
-0.00317748391084
-0.00321587683756
-0.00331378712037
-0.00352962540922
-0.00378199193656
-0.00229279294904
0.00783597248796
0.0178061086822
-0.00141144859646
-0.00317787378671
-0.00319787541212
-0.00323905605781
-0.00334476421764
-0.00358311275987
-0.00395959633213
-0.00323139457459
0.00517855894541
0.020074444703
0.00161861306535
-0.00318958085946
-0.0032106900864
-0.00325566779058
-0.00337084207799
-0.00363690886387
-0.00411389274119
-0.00408639972153
0.00211578166786
0.0211403059344
0.00392289173609
-0.00319962422289
-0.00322203185396
-0.00327080002404
-0.00339564896817
-0.00368069277088
-0.00422363389635
-0.00468278503934
-0.00160401203482
0.0156457896522
0.00697154566582
-0.00320982928006
-0.00323337635041
-0.00328531604177
-0.00341598046054
-0.00371656617378
-0.00430452203219
-0.00488680492129
-0.00294157168388
0.0094406936124
0.0234351326603
-0.00322025892678
-0.00324440521548
-0.00329819836349
-0.0034329593886
-0.00374051761456
-0.00429564265463
-0.00494735597985
-0.00364486538938
0.00110528239364
0.00707856036491
-0.00323089068807
-0.00325534958421
-0.00330958836432
-0.00344332828379
-0.00373670991222
-0.00429967159733
-0.00500791177154
-0.00402131882362
0.00495104614375
0.00478937473316
-0.00324139030506
-0.00326566933635
-0.00331838134896
-0.00344671724027
-0.00373648680332
-0.00429181081902
-0.00499768955897
-0.0038726883346
0.00190777186842
-0.151243808824
-0.00325148990408
-0.00327491829638
-0.00332605781128
-0.00345029509144
-0.00373205959034
-0.00427305864799
-0.00495332946603
-0.00385589011433
-0.00365776298607
-0.171834936024
-0.00326129522166
-0.00328388037855
-0.00333305817464
-0.00345250117906
-0.00372449823567
-0.00424604699984
-0.00492915346724
-0.00412940436312
0.00162984388395
-0.168135304565
-0.00327072892342
-0.00329245842899
-0.0033395664048
-0.00345416539307
-0.00371630935424
-0.0042168464213
-0.00489191528417
-0.00474073278671
-0.00184280752279
0.136749712834
-0.00327986306749
-0.00330071069848
-0.00334595257675
-0.00345672433423
-0.00371262871056
-0.00420561773793
-0.00488948203377
-0.00440608930746
0.0046815381911
0.00389121048697
-0.00328851104802
-0.00330857146829
-0.00335225460693
-0.00346078461659
-0.00371565778754
-0.00421972501528
-0.00491798443628
-0.00286589317384
0.0345489465308
-0.0187855542442
)
;

boundaryField
{
    back
    {
        type            calculated;
        value           nonuniform List<scalar> 
167
(
-0.00240385560824
-0.00241846409038
-0.00243330676503
-0.00244997654841
-0.00247726169343
-0.00254314969765
-0.00269190551926
-0.00291437659786
-0.00226894957957
0.00513771091145
0.0295259796545
0.0181740693625
-0.00293118156329
-0.00294662888732
-0.00296259382526
-0.00298304551356
-0.00302015683284
-0.00311021886466
-0.0032973086891
-0.00337637969646
-0.00124835437728
0.00907644190317
0.0147087012562
0.000288950013769
-0.00307940365755
-0.00309365058053
-0.00310857918948
-0.00312799838857
-0.00316591523246
-0.00325925685534
-0.00346168771359
-0.00359799186287
-0.0014954516821
0.00950525598192
0.0149003635884
-0.0042255695768
-0.00314397443067
-0.00315830724814
-0.00317748391084
-0.00321587683756
-0.00331378712037
-0.00352962540922
-0.00378199193656
-0.00229279294904
0.00783597248796
0.0178061086822
-0.00141144859646
-0.00317787378671
-0.00319787541212
-0.00323905605781
-0.00334476421764
-0.00358311275987
-0.00395959633213
-0.00323139457459
0.00517855894541
0.020074444703
0.00161861306535
-0.00318958085946
-0.0032106900864
-0.00325566779058
-0.00337084207799
-0.00363690886387
-0.00411389274119
-0.00408639972153
0.00211578166786
0.0211403059344
0.00392289173609
-0.00319962422289
-0.00322203185396
-0.00327080002404
-0.00339564896817
-0.00368069277088
-0.00422363389635
-0.00468278503934
-0.00160401203482
0.0156457896522
0.00697154566582
-0.00320982928006
-0.00323337635041
-0.00328531604177
-0.00341598046054
-0.00371656617378
-0.00430452203219
-0.00488680492129
-0.00294157168388
0.0094406936124
0.0234351326603
-0.00322025892678
-0.00324440521548
-0.00329819836349
-0.0034329593886
-0.00374051761456
-0.00429564265463
-0.00494735597985
-0.00364486538938
0.00110528239364
0.00707856036491
-0.00323089068807
-0.00325534958421
-0.00330958836432
-0.00344332828379
-0.00373670991222
-0.00429967159733
-0.00500791177154
-0.00402131882362
0.00495104614375
0.00478937473316
-0.00324139030506
-0.00326566933635
-0.00331838134896
-0.00344671724027
-0.00373648680332
-0.00429181081902
-0.00499768955897
-0.0038726883346
0.00190777186842
-0.151243808824
-0.00325148990408
-0.00327491829638
-0.00332605781128
-0.00345029509144
-0.00373205959034
-0.00427305864799
-0.00495332946603
-0.00385589011433
-0.00365776298607
-0.171834936024
-0.00326129522166
-0.00328388037855
-0.00333305817464
-0.00345250117906
-0.00372449823567
-0.00424604699984
-0.00492915346724
-0.00412940436312
0.00162984388395
-0.168135304565
-0.00327072892342
-0.00329245842899
-0.0033395664048
-0.00345416539307
-0.00371630935424
-0.0042168464213
-0.00489191528417
-0.00474073278671
-0.00184280752279
0.136749712834
-0.00327986306749
-0.00330071069848
-0.00334595257675
-0.00345672433423
-0.00371262871056
-0.00420561773793
-0.00488948203377
-0.00440608930746
0.0046815381911
0.00389121048697
-0.00328851104802
-0.00330857146829
-0.00335225460693
-0.00346078461659
-0.00371565778754
-0.00421972501528
-0.00491798443628
-0.00286589317384
0.0345489465308
-0.0187855542442
)
;
    }
    sides
    {
        type            calculated;
        value           nonuniform List<scalar> 
12
(
-0.00240385560824
-0.00241846409038
-0.00243330676503
-0.00244997654841
-0.00247726169343
-0.00254314969765
-0.00269190551926
-0.00291437659786
-0.00226894957957
0.00513771091145
0.0295259796545
0.0181740693625
)
;
    }
    bottom
    {
        type            calculated;
        value           nonuniform List<scalar> 0();
    }
    front
    {
        type            calculated;
        value           nonuniform List<scalar> 
167
(
-0.00240385560824
-0.00241846409038
-0.00243330676503
-0.00244997654841
-0.00247726169343
-0.00254314969765
-0.00269190551926
-0.00291437659786
-0.00226894957957
0.00513771091145
0.0295259796545
0.0181740693625
-0.00293118156329
-0.00294662888732
-0.00296259382526
-0.00298304551356
-0.00302015683284
-0.00311021886466
-0.0032973086891
-0.00337637969646
-0.00124835437728
0.00907644190317
0.0147087012562
0.000288950013769
-0.00307940365755
-0.00309365058053
-0.00310857918948
-0.00312799838857
-0.00316591523246
-0.00325925685534
-0.00346168771359
-0.00359799186287
-0.0014954516821
0.00950525598192
0.0149003635884
-0.0042255695768
-0.00314397443067
-0.00315830724814
-0.00317748391084
-0.00321587683756
-0.00331378712037
-0.00352962540922
-0.00378199193656
-0.00229279294904
0.00783597248796
0.0178061086822
-0.00141144859646
-0.00317787378671
-0.00319787541212
-0.00323905605781
-0.00334476421764
-0.00358311275987
-0.00395959633213
-0.00323139457459
0.00517855894541
0.020074444703
0.00161861306535
-0.00318958085946
-0.0032106900864
-0.00325566779058
-0.00337084207799
-0.00363690886387
-0.00411389274119
-0.00408639972153
0.00211578166786
0.0211403059344
0.00392289173609
-0.00319962422289
-0.00322203185396
-0.00327080002404
-0.00339564896817
-0.00368069277088
-0.00422363389635
-0.00468278503934
-0.00160401203482
0.0156457896522
0.00697154566582
-0.00320982928006
-0.00323337635041
-0.00328531604177
-0.00341598046054
-0.00371656617378
-0.00430452203219
-0.00488680492129
-0.00294157168388
0.0094406936124
0.0234351326603
-0.00322025892678
-0.00324440521548
-0.00329819836349
-0.0034329593886
-0.00374051761456
-0.00429564265463
-0.00494735597985
-0.00364486538938
0.00110528239364
0.00707856036491
-0.00323089068807
-0.00325534958421
-0.00330958836432
-0.00344332828379
-0.00373670991222
-0.00429967159733
-0.00500791177154
-0.00402131882362
0.00495104614375
0.00478937473316
-0.00324139030506
-0.00326566933635
-0.00331838134896
-0.00344671724027
-0.00373648680332
-0.00429181081902
-0.00499768955897
-0.0038726883346
0.00190777186842
-0.151243808824
-0.00325148990408
-0.00327491829638
-0.00332605781128
-0.00345029509144
-0.00373205959034
-0.00427305864799
-0.00495332946603
-0.00385589011433
-0.00365776298607
-0.171834936024
-0.00326129522166
-0.00328388037855
-0.00333305817464
-0.00345250117906
-0.00372449823567
-0.00424604699984
-0.00492915346724
-0.00412940436312
0.00162984388395
-0.168135304565
-0.00327072892342
-0.00329245842899
-0.0033395664048
-0.00345416539307
-0.00371630935424
-0.0042168464213
-0.00489191528417
-0.00474073278671
-0.00184280752279
0.136749712834
-0.00327986306749
-0.00330071069848
-0.00334595257675
-0.00345672433423
-0.00371262871056
-0.00420561773793
-0.00488948203377
-0.00440608930746
0.0046815381911
0.00389121048697
-0.00328851104802
-0.00330857146829
-0.00335225460693
-0.00346078461659
-0.00371565778754
-0.00421972501528
-0.00491798443628
-0.00286589317384
0.0345489465308
-0.0187855542442
)
;
    }
    atmosphere
    {
        type            calculated;
        value           nonuniform List<scalar> 
16
(
0.0343697359357
0.00383518115353
0.000163117179166
3.6154004372e-06
8.46634702248e-05
9.47712135225e-05
8.9972942921e-05
-0.0790180146149
2.19375038083
2.24804296244
0.267229849182
0.498793649273
-2.63507216346
2.20924552523
1.57010462371
-0.566434440627
)
;
    }
    floatingObject
    {
        type            calculated;
        value           nonuniform List<scalar> 0();
    }
    procBoundary1to0
    {
        type            processor;
        value           nonuniform List<scalar> 10(-0.00329690091216 -0.00331616170215 -0.0033585445001 -0.00346507692441 -0.00371949296925 -0.00424351555298 -0.00503603847312 -0.0033416686836 0.0367446692247 0.00984678345044);
    }
    procBoundary1to2
    {
        type            processor;
        value           nonuniform List<scalar> 
18
(
-0.00238930163617
-0.00291629591503
-0.00306575461739
-0.00313090699353
-0.00313090699353
-0.00316390655985
-0.00316390655985
-0.00317541641267
-0.00318527676083
-0.00319509566037
-0.0032054071857
-0.00321584244376
-0.00322644425389
-0.00323692517589
-0.00324717720471
-0.00325715087643
-0.003266798488
-0.00327613904913
)
;
    }
}


// ************************************************************************* //
