/*--------------------------------*- C++ -*----------------------------------*\
| =========                 |                                                 |
| \\      /  F ield         | OpenFOAM: The Open Source CFD Toolbox           |
|  \\    /   O peration     | Version:  v2012                                 |
|   \\  /    A nd           | Website:  www.openfoam.com                      |
|    \\/     M anipulation  |                                                 |
\*---------------------------------------------------------------------------*/
FoamFile
{
    version     2.0;
    format      ascii;
    class       volScalarField;
    location    "2.7";
    object      epsilon_0;
}
// * * * * * * * * * * * * * * * * * * * * * * * * * * * * * * * * * * * * * //

dimensions      [0 2 -3 0 0 0 0];


internalField   nonuniform List<scalar> 
167
(
0.00272553758866
0.00274690375522
0.00277319322123
0.00281360441197
0.00289300082292
0.00306533036826
0.00342468631617
0.00413086781126
0.00562193971939
0.0108069233632
0.041507786822
0.198125464865
0.00283299824267
0.00285110474453
0.002874944724
0.00291567748695
0.00300121824755
0.00318844271348
0.0035667678949
0.00427130401058
0.00578948761757
0.0114543839155
0.0415314257471
0.160525676714
0.00309297648423
0.00311215582186
0.00313801377752
0.00318310062723
0.00327783397107
0.00348276880871
0.00389314859033
0.00464390770222
0.00618840513555
0.0118939262625
0.0432115689859
0.162950219355
0.00320942092037
0.00323590453638
0.00328199855592
0.00337802438423
0.00358446749211
0.00399635037558
0.00474757200574
0.0062151710917
0.0114040629531
0.0414605906216
0.162074525777
0.00327395300382
0.00331954980805
0.00341389340728
0.00361617962377
0.00401975673536
0.00475511842281
0.00612119711357
0.0105829605838
0.0380553958084
0.16046264208
0.00329134138169
0.0033357509434
0.00342738448984
0.00362381663248
0.00401677316253
0.00473395213003
0.00601605415612
0.00979571529272
0.034225415076
0.158726123242
0.00330214994089
0.00334511734594
0.00343379314112
0.0036244192319
0.00400757120352
0.00471171267642
0.00597107313735
0.00948866819755
0.030810162944
0.156459864931
0.00331124916336
0.00335269008096
0.00343828840964
0.00362310002327
0.00399708229558
0.00469050282618
0.00594585258261
0.00938401226864
0.0289180536432
0.150629509527
0.00332015382611
0.00336001589559
0.00344249342655
0.00362131035243
0.00398558825227
0.00466672518979
0.00591601868844
0.00929082414118
0.0276423385258
0.136978158617
0.00332923702867
0.00336750263231
0.00344675839015
0.00361941783871
0.00397376094073
0.00464124924911
0.005867866632
0.0090165106461
0.024744137732
0.125063982746
0.00333853315686
0.00337519615871
0.00345120594781
0.00361759398096
0.00396176102448
0.00461511901333
0.00582248863993
0.00890114333959
0.0249795004498
0.135277583812
0.00334797700824
0.00338306474519
0.0034558371571
0.00361590666334
0.00394998565656
0.00458993825049
0.00578837432164
0.0089131664945
0.0260317149722
0.133991586099
0.00335747041944
0.00339105320133
0.00346069628575
0.00361462905516
0.00393880048679
0.0045660601815
0.00576220652791
0.00885745510075
0.0241766043394
0.118283710887
0.00336696558791
0.00339917529069
0.00346593995263
0.00361430678353
0.00392957138718
0.00454516883382
0.0057391948075
0.00885396874209
0.0226687053081
0.0882800367233
0.00337644866015
0.00340744816835
0.00347179083943
0.00361576288172
0.00392475091655
0.00453231680809
0.00570611584285
0.00865657020503
0.0220207221047
0.110980303179
0.00338578370207
0.00341580363346
0.00347824456107
0.00361938316565
0.00392650630785
0.0045383136328
0.00570754514397
0.0084687366482
0.0226595065609
0.158854663521
)
;

boundaryField
{
    back
    {
        lowReCorrection 0;
        blending        stepwise;
        n               2;
        type            epsilonWallFunction;
        value           nonuniform List<scalar> 
167
(
0.00272553758866
0.00274690375522
0.00277319322123
0.00281360441197
0.00289300082292
0.00306533036826
0.00342468631617
0.00413086781126
0.00562193971939
0.0108069233632
0.041507786822
0.198125464865
0.00283299824267
0.00285110474453
0.002874944724
0.00291567748695
0.00300121824755
0.00318844271348
0.0035667678949
0.00427130401058
0.00578948761757
0.0114543839155
0.0415314257471
0.160525676714
0.00309297648423
0.00311215582186
0.00313801377752
0.00318310062723
0.00327783397107
0.00348276880871
0.00389314859033
0.00464390770222
0.00618840513555
0.0118939262625
0.0432115689859
0.162950219355
0.00320942092037
0.00323590453638
0.00328199855592
0.00337802438423
0.00358446749211
0.00399635037558
0.00474757200574
0.0062151710917
0.0114040629531
0.0414605906216
0.162074525777
0.00327395300382
0.00331954980805
0.00341389340728
0.00361617962377
0.00401975673536
0.00475511842281
0.00612119711357
0.0105829605838
0.0380553958084
0.16046264208
0.00329134138169
0.0033357509434
0.00342738448984
0.00362381663248
0.00401677316253
0.00473395213003
0.00601605415612
0.00979571529272
0.034225415076
0.158726123242
0.00330214994089
0.00334511734594
0.00343379314112
0.0036244192319
0.00400757120352
0.00471171267642
0.00597107313735
0.00948866819755
0.030810162944
0.156459864931
0.00331124916336
0.00335269008096
0.00343828840964
0.00362310002327
0.00399708229558
0.00469050282618
0.00594585258261
0.00938401226864
0.0289180536432
0.150629509527
0.00332015382611
0.00336001589559
0.00344249342655
0.00362131035243
0.00398558825227
0.00466672518979
0.00591601868844
0.00929082414118
0.0276423385258
0.136978158617
0.00332923702867
0.00336750263231
0.00344675839015
0.00361941783871
0.00397376094073
0.00464124924911
0.005867866632
0.0090165106461
0.024744137732
0.125063982746
0.00333853315686
0.00337519615871
0.00345120594781
0.00361759398096
0.00396176102448
0.00461511901333
0.00582248863993
0.00890114333959
0.0249795004498
0.135277583812
0.00334797700824
0.00338306474519
0.0034558371571
0.00361590666334
0.00394998565656
0.00458993825049
0.00578837432164
0.0089131664945
0.0260317149722
0.133991586099
0.00335747041944
0.00339105320133
0.00346069628575
0.00361462905516
0.00393880048679
0.0045660601815
0.00576220652791
0.00885745510075
0.0241766043394
0.118283710887
0.00336696558791
0.00339917529069
0.00346593995263
0.00361430678353
0.00392957138718
0.00454516883382
0.0057391948075
0.00885396874209
0.0226687053081
0.0882800367233
0.00337644866015
0.00340744816835
0.00347179083943
0.00361576288172
0.00392475091655
0.00453231680809
0.00570611584285
0.00865657020503
0.0220207221047
0.110980303179
0.00338578370207
0.00341580363346
0.00347824456107
0.00361938316565
0.00392650630785
0.0045383136328
0.00570754514397
0.0084687366482
0.0226595065609
0.158854663521
)
;
    }
    sides
    {
        lowReCorrection 0;
        blending        stepwise;
        n               2;
        type            epsilonWallFunction;
        value           nonuniform List<scalar> 
12
(
0.00272553758866
0.00274690375522
0.00277319322123
0.00281360441197
0.00289300082292
0.00306533036826
0.00342468631617
0.00413086781126
0.00562193971939
0.0108069233632
0.041507786822
0.198125464865
)
;
    }
    bottom
    {
        lowReCorrection 0;
        blending        stepwise;
        n               2;
        type            epsilonWallFunction;
        value           nonuniform List<scalar> 0();
    }
    front
    {
        lowReCorrection 0;
        blending        stepwise;
        n               2;
        type            epsilonWallFunction;
        value           nonuniform List<scalar> 
167
(
0.00272553758866
0.00274690375522
0.00277319322123
0.00281360441197
0.00289300082292
0.00306533036826
0.00342468631617
0.00413086781126
0.00562193971939
0.0108069233632
0.041507786822
0.198125464865
0.00283299824267
0.00285110474453
0.002874944724
0.00291567748695
0.00300121824755
0.00318844271348
0.0035667678949
0.00427130401058
0.00578948761757
0.0114543839155
0.0415314257471
0.160525676714
0.00309297648423
0.00311215582186
0.00313801377752
0.00318310062723
0.00327783397107
0.00348276880871
0.00389314859033
0.00464390770222
0.00618840513555
0.0118939262625
0.0432115689859
0.162950219355
0.00320942092037
0.00323590453638
0.00328199855592
0.00337802438423
0.00358446749211
0.00399635037558
0.00474757200574
0.0062151710917
0.0114040629531
0.0414605906216
0.162074525777
0.00327395300382
0.00331954980805
0.00341389340728
0.00361617962377
0.00401975673536
0.00475511842281
0.00612119711357
0.0105829605838
0.0380553958084
0.16046264208
0.00329134138169
0.0033357509434
0.00342738448984
0.00362381663248
0.00401677316253
0.00473395213003
0.00601605415612
0.00979571529272
0.034225415076
0.158726123242
0.00330214994089
0.00334511734594
0.00343379314112
0.0036244192319
0.00400757120352
0.00471171267642
0.00597107313735
0.00948866819755
0.030810162944
0.156459864931
0.00331124916336
0.00335269008096
0.00343828840964
0.00362310002327
0.00399708229558
0.00469050282618
0.00594585258261
0.00938401226864
0.0289180536432
0.150629509527
0.00332015382611
0.00336001589559
0.00344249342655
0.00362131035243
0.00398558825227
0.00466672518979
0.00591601868844
0.00929082414118
0.0276423385258
0.136978158617
0.00332923702867
0.00336750263231
0.00344675839015
0.00361941783871
0.00397376094073
0.00464124924911
0.005867866632
0.0090165106461
0.024744137732
0.125063982746
0.00333853315686
0.00337519615871
0.00345120594781
0.00361759398096
0.00396176102448
0.00461511901333
0.00582248863993
0.00890114333959
0.0249795004498
0.135277583812
0.00334797700824
0.00338306474519
0.0034558371571
0.00361590666334
0.00394998565656
0.00458993825049
0.00578837432164
0.0089131664945
0.0260317149722
0.133991586099
0.00335747041944
0.00339105320133
0.00346069628575
0.00361462905516
0.00393880048679
0.0045660601815
0.00576220652791
0.00885745510075
0.0241766043394
0.118283710887
0.00336696558791
0.00339917529069
0.00346593995263
0.00361430678353
0.00392957138718
0.00454516883382
0.0057391948075
0.00885396874209
0.0226687053081
0.0882800367233
0.00337644866015
0.00340744816835
0.00347179083943
0.00361576288172
0.00392475091655
0.00453231680809
0.00570611584285
0.00865657020503
0.0220207221047
0.110980303179
0.00338578370207
0.00341580363346
0.00347824456107
0.00361938316565
0.00392650630785
0.0045383136328
0.00570754514397
0.0084687366482
0.0226595065609
0.158854663521
)
;
    }
    atmosphere
    {
        type            inletOutlet;
        inletValue      uniform 0.1;
        value           nonuniform List<scalar> 
16
(
0.1
0.1
0.1
0.1
0.1
0.1
0.1
0.1
0.1
0.1
0.135277583812
0.133991586099
0.118283710887
0.1
0.1
0.1
)
;
    }
    floatingObject
    {
        lowReCorrection 0;
        blending        stepwise;
        n               2;
        type            epsilonWallFunction;
        value           nonuniform List<scalar> 0();
    }
    procBoundary1to0
    {
        type            processor;
        value           nonuniform List<scalar> 10(0.0033949952751 0.00342418174539 0.00348504117009 0.00362402919078 0.00393249137865 0.00456810343122 0.00583035536421 0.00881403022231 0.0237898207099 0.153995980262);
    }
    procBoundary1to2
    {
        type            processor;
        value           nonuniform List<scalar> 
18
(
0.00270591280919
0.00281662673985
0.00307610991422
0.00319002906641
0.00319002906641
0.00324769312863
0.00324769312863
0.00326566295432
0.00327727261602
0.00328722677648
0.00329701209579
0.00330696087985
0.00331711344816
0.00332736341471
0.00333763384769
0.00334784026844
0.00335792503687
0.00336783968703
)
;
    }
}


// ************************************************************************* //
