/*--------------------------------*- C++ -*----------------------------------*\
| =========                 |                                                 |
| \\      /  F ield         | OpenFOAM: The Open Source CFD Toolbox           |
|  \\    /   O peration     | Version:  v2012                                 |
|   \\  /    A nd           | Website:  www.openfoam.com                      |
|    \\/     M anipulation  |                                                 |
\*---------------------------------------------------------------------------*/
FoamFile
{
    version     2.0;
    format      ascii;
    class       surfaceVectorField;
    location    "2.7";
    object      Uf_0;
}
// * * * * * * * * * * * * * * * * * * * * * * * * * * * * * * * * * * * * * //

dimensions      [0 1 -1 0 0 0 0];


internalField   nonuniform List<vector> 
306
(
(0.000481828464156 -0.00533889059554 8.42064037388e-22)
(0.00101874498889 -0.0050740183079 5.31120931562e-22)
(0.000611330178045 -0.00657646515333 5.2658490994e-22)
(0.00123690611988 -0.00619959946746 3.66229987164e-22)
(0.000779073103661 -0.00806084434236 1.47652531377e-22)
(0.00148351487563 -0.00755868589884 -3.60529978025e-23)
(0.000979373884914 -0.00987865613399 1.96307574156e-23)
(0.00181673836961 -0.00920076310698 -1.70549096856e-22)
(0.00117095471981 -0.0120804401518 -3.60050034814e-22)
(0.00220057007882 -0.0111860287909 2.57538687496e-23)
(0.00148988600631 -0.0146527658973 -8.62522104568e-22)
(0.00257106693455 -0.01343447441 -6.46627359918e-22)
(0.00216716759714 -0.0176359000693 -2.395932131e-21)
(0.00298197158488 -0.0169199830763 -1.64739479542e-21)
(0.00184563881374 -0.0211669725017 -3.34496628076e-21)
(0.00353019630172 -0.0183557752831 -6.49084739103e-21)
(0.0015111711038 -0.0230146584315 2.43273637165e-21)
(0.00184727789155 -0.0287156243481 -6.49337325188e-21)
(0.00426165941397 -0.0280902731956 4.40879451575e-20)
(0.00507556181648 -0.0238502232604 -2.76365259612e-21)
(0.0145251820594 -0.0468073540986 6.8861198716e-20)
(0.0187129026299 -0.0399881630997 2.7329367913e-20)
(0.0126117984788 -0.042889742266 1.75959482398e-20)
(0.00178234009552 -0.00591735582132 5.52868813381e-23)
(0.00209318916391 -0.00546777981643 1.62381945542e-22)
(0.0021352510345 -0.00717623982106 -1.96407920579e-22)
(0.0024949297986 -0.00660645756903 -9.65215463268e-23)
(0.00257943265774 -0.00868946756478 -3.54254626035e-22)
(0.00299574464477 -0.00795505971238 -3.19060720682e-22)
(0.00312582284083 -0.0104976146823 -1.64425985522e-22)
(0.00362372966154 -0.00955460285862 -2.25396197659e-22)
(0.00378372904291 -0.0127142680422 -2.60823456354e-22)
(0.00441596270493 -0.0114927778139 -5.92880545619e-23)
(0.00456711201865 -0.0154880292519 -1.43150005077e-21)
(0.0053435847761 -0.0137609845253 -1.27596287748e-21)
(0.00558574792342 -0.0189917796629 -5.74231005545e-21)
(0.00648461704844 -0.0174016702739 -4.97329276492e-22)
(0.00580531419633 -0.0238368592435 -9.63925436216e-21)
(0.00837448251888 -0.019227422043 -8.9388618118e-21)
(0.00761901246653 -0.0306161726202 -1.16897622197e-20)
(0.00862622485625 -0.0310466034201 -4.98961753836e-21)
(0.0159863139034 -0.0356151989142 -1.95222298406e-20)
(0.0100744942006 -0.0246478560801 -1.97995693143e-20)
(0.0175317574569 -0.0326319364878 -2.39358825632e-20)
(0.01573214513 -0.0403343291145 -6.11715178925e-20)
(0.01377541677 -0.0300433140816 -5.29380321114e-20)
(0.00291335747398 -0.00613830366363 1.05735178767e-23)
(0.00346716727912 -0.00736007171446 -2.1917434643e-22)
(0.00371577605035 -0.00651580243296 -1.72841311311e-22)
(0.00416814961558 -0.00880192967917 -1.90202292305e-22)
(0.00443655908144 -0.00776669621728 -1.38497733447e-22)
(0.0050493938959 -0.0105412813912 -1.20258266699e-22)
(0.00536193551487 -0.00922657127837 -1.00738742087e-22)
(0.00617651534614 -0.0126246273199 -1.07442747569e-21)
(0.00649813059278 -0.0109806039831 -1.09243634076e-22)
(0.0075560859455 -0.015346915872 -3.41792103199e-22)
(0.00806474664544 -0.012983589426 -1.25642631651e-21)
(0.00953033488273 -0.0187288321684 -3.69388103284e-21)
(0.00986557797478 -0.016370109038 9.78261324701e-22)
(0.0113216466339 -0.0231933129017 -4.289224988e-21)
(0.0128382914185 -0.0174328675349 -3.91158340231e-21)
(0.0116572959307 -0.0296143002783 -1.3099424633e-20)
(0.0150469158506 -0.0283935545538 -1.96271924139e-21)
(0.012038684516 -0.033581679924 -6.14488573662e-20)
(0.01404181089 -0.020157028029 -1.87293298852e-20)
(0.0121759743764 -0.0323054704276 -9.01736674407e-20)
(0.0144548596119 -0.0363634522763 -6.48308727724e-20)
(0.0151685846643 -0.0316158017657 -5.66932746171e-20)
(0.00469795853519 -0.00689684372991 -9.21646983275e-23)
(0.00561735652767 -0.00817137118306 -4.9034183229e-23)
(0.00571003360358 -0.0070312306194 -1.10305113906e-23)
(0.00679141076071 -0.00964048096125 -8.97241094642e-23)
(0.00683000448955 -0.00824945349895 -6.04222987892e-23)
(0.00833335368076 -0.0114174330028 -2.91242474896e-22)
(0.00827407386544 -0.00967375497581 -6.95399099664e-23)
(0.0102547986894 -0.0135663215662 6.36271113946e-23)
(0.0102127257215 -0.0111816824526 -9.60478920012e-22)
(0.0129733298437 -0.0162536256289 7.60558955229e-22)
(0.0125521327626 -0.0139934735084 -9.4686906972e-23)
(0.0160253952535 -0.0196374593661 -1.5850776557e-21)
(0.0162216134417 -0.0137536627043 -4.21860445809e-22)
(0.0165493411851 -0.0241215817141 -7.59262449353e-21)
(0.0195308143116 -0.0228826940229 -2.91368390277e-21)
(0.0157938834098 -0.0274205391307 -2.21113452914e-20)
(0.017340706508 -0.0133612707195 -1.11075219158e-20)
(0.0158462315673 -0.0311738910991 -3.13504799489e-20)
(0.0182090887264 -0.0292588142375 -3.15661088037e-20)
(0.0176244639291 -0.0320177373394 -2.78752460551e-20)
(0.00687483679814 -0.00709029828298 -2.24186269508e-23)
(0.00672671651593 -0.00599249172034 -6.69309986999e-24)
(0.00825267419193 -0.00822374983368 -4.02380992914e-23)
(0.00796260093865 -0.00691296630329 -7.11169349711e-23)
(0.0100278590739 -0.0095366589354 -7.38776355083e-22)
(0.0095862320034 -0.0079534764887 -3.47987251443e-23)
(0.01228102704 -0.0110056445566 -1.11879293838e-21)
(0.0116810757685 -0.00881246919724 -1.5719074563e-21)
(0.0154134341295 -0.0126732622765 -1.27710630801e-21)
(0.0142192483651 -0.0108748244303 -1.30573312533e-21)
(0.0190481336616 -0.0146107804338 -1.75046669288e-21)
(0.0181587878168 -0.00938038240378 -3.9360815485e-21)
(0.0196706896512 -0.0169534980209 -6.42858132504e-21)
(0.0218733785019 -0.0161410368414 -3.43506077857e-21)
(0.020168337487 -0.0193394603427 -2.0562285428e-20)
(0.0197266253241 -0.00600110889497 -1.19857257379e-20)
(0.0205769056791 -0.026475601054 -2.809087491e-20)
(0.0253442837966 -0.0203963696006 -2.92430903493e-20)
(0.0226409085425 -0.0294090695419 -2.5369609361e-20)
(0.0078178099236 -0.00578369414519 -5.53914078903e-23)
(0.00743938194887 -0.00483311427422 -8.26013880705e-24)
(0.0092641291499 -0.00660358301344 -6.56775608241e-23)
(0.0087819174035 -0.00546153475618 -9.06413799679e-23)
(0.0111026120662 -0.00740894011789 -8.67929826362e-22)
(0.0103911548208 -0.00610377147045 -3.2160153995e-23)
(0.0133418141987 -0.00816647363068 -1.75884764325e-21)
(0.0124382811205 -0.00636491397863 -1.80722991803e-21)
(0.0165504634535 -0.00855977056247 -3.96470836582e-21)
(0.0146122842221 -0.00755272080335 -2.06802219348e-21)
(0.0202446860008 -0.00915434394741 -5.62067563419e-21)
(0.0187531564195 -0.0051967310321 -9.79653169516e-21)
(0.0212164824093 -0.00902721956472 -8.99220519145e-21)
(0.02174613897 -0.00955847033382 -7.76594105935e-21)
(0.0256788910764 -0.0102677223643 -2.06665306591e-20)
(0.0209670718552 0.000850052259813 -1.50426627759e-20)
(0.0285773189244 -0.0200088823316 -2.65218248003e-20)
(0.035086950583 -0.0105612072594 -3.11777551978e-20)
(0.0296219189926 -0.0217652868632 -2.77338943468e-20)
(0.00842338619644 -0.0045043364198 -4.35101108847e-23)
(0.00796030229148 -0.00366959586799 -6.27481923022e-24)
(0.00985119609565 -0.00494992461349 -5.71239731389e-23)
(0.00922727592524 -0.00401664799617 -1.0768325319e-22)
(0.0116183584813 -0.00528641493785 -9.71460245659e-22)
(0.0107275516226 -0.00429946689692 -1.27742997424e-22)
(0.0135996859375 -0.00532744726949 -2.11640446826e-21)
(0.0124792693489 -0.00415085921504 -2.14641216226e-21)
(0.0164970523122 -0.00516332081742 -7.89984552281e-21)
(0.0144480779455 -0.00450070014072 -1.25328408171e-21)
(0.0196520766612 -0.00427687866072 -1.19417971203e-20)
(0.0178665772994 -0.0019174034243 -1.10531008949e-20)
(0.0208571376348 -0.00244064884198 -1.38163986438e-20)
(0.0199097897753 -0.00415952092666 -7.26242308368e-21)
(0.0295573969245 -0.00173449494797 -2.55538873146e-20)
(0.0202608677234 0.00653892653812 -1.87000157079e-20)
(0.0378549864322 -0.0068751820655 -3.23898247443e-20)
(0.040227387662 -0.000798147508966 -6.14210754287e-20)
(0.0436750827895 -0.0169004362009 -5.46068462495e-20)
(0.00876354146915 -0.0032125777189 -7.04479615358e-23)
(0.008212122541 -0.00255418420535 -5.30415640974e-24)
(0.0100732797979 -0.00335977521008 -1.78302277475e-22)
(0.00937460623694 -0.002684985676 -1.15265189349e-22)
(0.0116289538995 -0.00330162358416 -1.30269491402e-21)
(0.0106696098156 -0.00269064416827 -2.58132190782e-22)
(0.0133092417963 -0.00302354156815 -1.28329177571e-21)
(0.0122013406254 -0.0022430304272 -1.51285707198e-21)
(0.015606080457 -0.00222571797537 -4.40653945377e-21)
(0.0136502416696 -0.0020367784679 -2.37667390742e-22)
(0.0181959037354 -0.000279038994138 -6.37372685824e-21)
(0.0159197251449 0.000482125416565 -4.93550502087e-21)
(0.0191925793883 0.00112652950832 -1.21460401478e-20)
(0.0185040406784 2.08973176757e-05 -4.81949669545e-21)
(0.0296751898485 0.00374271471469 -5.4567203822e-20)
(0.0176446219596 0.0109640235459 -1.52978400486e-20)
(0.0505359934729 0.00400076902147 -8.36380969338e-20)
(0.0399682148661 0.00660231067577 -5.64655180663e-20)
(0.0820007202989 -0.0373893050336 -5.13048580273e-20)
(0.00888475213271 -0.00206546462699 -5.01213842229e-23)
(0.00833753801396 -0.00152870283375 -5.70081267029e-24)
(0.0100276470891 -0.00204125718006 -1.95095102656e-22)
(0.00935084702427 -0.00151840213973 -9.27749803733e-23)
(0.0112991673608 -0.00177245925474 -4.68294348742e-22)
(0.0104012251194 -0.00135258556375 -2.29550936988e-22)
(0.0125786555152 -0.00112795946881 -4.67232687016e-22)
(0.0115570538388 -0.000745131572566 -7.78271798166e-22)
(0.0141702602979 1.22686218386e-05 -7.66632957847e-22)
(0.0125099269826 -0.000270213338955 -6.55692307646e-22)
(0.0163999309638 0.00193669265589 -3.38127485808e-21)
(0.013994986701 0.00221715034825 -1.17319138971e-21)
(0.0170094393207 0.00403994422058 -7.97129659624e-21)
(0.0164005009785 0.00304751682458 -4.66845833268e-21)
(0.027806867419 0.00703288438454 -1.71961542929e-20)
(0.0146515291473 0.0137614890859 -1.06162927338e-20)
(0.094085042163 0.00874205828183 -2.41322791598e-20)
(0.0382630551515 0.00933058046639 -2.66823307041e-20)
(0.209475723852 -0.0431271033461 -2.57492730782e-20)
(0.00883674930338 -0.00102380467114 -4.83544088207e-23)
(0.00832921909784 -0.000620555891116 -8.88278120113e-24)
(0.00981612391812 -0.000872123424365 -1.27230814706e-22)
(0.0091998101301 -0.000515767640417 -9.42193487373e-23)
(0.0108089059169 -0.000533842837051 -5.39528386412e-22)
(0.010063410537 -0.000283814279931 -2.64480434524e-22)
(0.0116729597942 0.000186708615778 -9.66731418795e-22)
(0.0108366204405 0.00032635031363 -6.1673272595e-22)
(0.0126239956371 0.00139121557275 -1.06225073951e-21)
(0.011305135967 0.000856243286311 -1.28377734675e-21)
(0.0142654619181 0.00338777454051 -2.46037486431e-21)
(0.0119979033622 0.00309812048419 -6.81677344549e-22)
(0.0147748129137 0.00596821994481 -7.31345447028e-21)
(0.0138196593158 0.00456900563036 -4.63549732518e-21)
(0.0281787110902 0.00741069427699 -2.01024691451e-20)
(0.0132089686133 0.0151880926056 -1.04019011792e-20)
(0.145847959252 0.0038602749711 -2.82993246226e-20)
(0.0417999708346 0.00973525748284 -2.15461814697e-20)
(0.274354243366 0.0268066337013 -2.24867233152e-20)
(0.00871563707636 -0.00013555097585 -5.47477211177e-23)
(0.0082398891158 0.000185744781196 -1.31010031619e-23)
(0.00952483221356 5.09274722116e-05 -2.31468968555e-22)
(0.00901401374205 0.000316373693651 -8.99888053284e-23)
(0.0102680662999 0.000403080800182 -3.41684774062e-22)
(0.00971162463334 0.000541723136909 -2.00000440307e-22)
(0.010768827994 0.00106801358767 -9.33778653902e-22)
(0.0101715928201 0.00102776177044 -3.29622761739e-22)
(0.0111637813705 0.00208431595523 -9.03203951785e-22)
(0.0102882901822 0.0014263221878 -1.15516646984e-21)
(0.0120755809463 0.00370984533319 -2.85679980541e-21)
(0.0103716305226 0.00311852811206 -1.7072758829e-21)
(0.012568425813 0.00635956320346 -7.72394403411e-21)
(0.0111694556324 0.00480694461585 -8.29810187305e-21)
(0.0272989797037 0.00854563191644 -1.18456135038e-20)
(0.0110229555905 0.0166106670043 -1.16032293882e-20)
(0.119259080555 0.00576432979684 -1.57335801623e-20)
(0.0445398248512 0.0137818352513 -1.95128817133e-20)
(0.111540249076 0.101493253922 -1.91707502351e-20)
(0.00856446708832 0.000636909249962 -4.83420873726e-23)
(0.00814151105599 0.000924445177876 -1.92078408919e-23)
(0.00925942149518 0.000810285686671 -5.85202770799e-23)
(0.00884119161888 0.00103406380358 -6.6236971e-23)
(0.00981327328833 0.00107909985381 -1.87938427984e-22)
(0.00944296399918 0.00118113240571 -4.45791077337e-23)
(0.0100179660692 0.00146236546181 -5.51010577679e-22)
(0.00978796970233 0.0014403461281 -4.2357210615e-22)
(0.009944571871 0.00212945551595 -1.95923840095e-21)
(0.00962040973128 0.00156134546741 -4.90317160614e-22)
(0.0100021612392 0.00328694232838 -7.14857795053e-21)
(0.00921322555534 0.00239865117327 -3.48686850463e-21)
(0.00933468824398 0.00606393062396 -1.21773872272e-20)
(0.00839189165084 0.00338177851438 -1.37941657537e-20)
(0.0225839796584 0.0124618709335 -1.92704975978e-20)
(0.00462512469017 0.0149310477022 -1.50256644894e-20)
(0.0265049941273 0.0313679148656 -2.29500517861e-20)
(0.0255903374277 0.0141080186881 -2.59374323945e-20)
(-0.0369446493607 0.108037863308 -2.06647834117e-20)
(0.00843511879795 0.00134435240089 -3.71027245193e-23)
(0.00804739375804 0.00163106360428 -2.64663051964e-23)
(0.00908181052382 0.00144248818047 -5.22958016537e-23)
(0.00874336962072 0.00170324075756 -3.97397702729e-23)
(0.00955257360833 0.00154592547017 -2.802127859e-22)
(0.00933942050582 0.00173811117526 -9.87922208646e-23)
(0.00963430853308 0.00164922721826 -3.62878689086e-22)
(0.0096840696698 0.00174774531574 -3.4238428304e-22)
(0.00931334327826 0.00175845539479 -2.01794726429e-21)
(0.00951021171277 0.00153290474046 -5.62870044314e-22)
(0.00869312331843 0.00188179354859 -1.01324563078e-20)
(0.00908886422817 0.00143362676608 -2.01012674459e-21)
(0.0065249770834 0.0017341728619 -1.66424430159e-20)
(0.00853882085698 0.00105293885006 -1.06029808573e-20)
(0.0178128711818 0.00223402641276 -2.16925992861e-20)
(0.0041249675425 0.0116541498489 -1.32031636444e-20)
(-0.0356841838382 0.00844300467 -2.36521640201e-20)
(0.0194119506154 0.00843517209294 -9.41040613392e-21)
(-0.223644228659 -0.00101682762076 -4.35593694222e-21)
(0.0083515873345 0.00204182405427 -2.910335095e-23)
(0.00796762694724 0.00235641143299 -2.52021031099e-23)
(0.00902775017395 0.00206941095308 -8.62361894838e-23)
(0.0087157410861 0.00240138997529 -8.79862726687e-24)
(0.00954853198485 0.00201167374756 -1.60963718004e-22)
(0.00939675885387 0.00234550635397 -7.05312348569e-23)
(0.00970599609879 0.00181564460201 -5.42375638268e-22)
(0.00987924124544 0.00215356958221 -8.05987384106e-23)
(0.00944048269954 0.00140483734334 -5.55049524615e-22)
(0.00991981682379 0.00168350921763 -6.47867433491e-22)
(0.00872185963474 0.00072992824101 -2.48065129413e-21)
(0.0097625141955 0.00113248482664 -2.85265819295e-22)
(0.00550437588457 1.9092279853e-05 -7.16370148584e-21)
(0.00924883860064 0.000440548736464 -6.18036902346e-21)
(0.00189719832999 -0.000288941263206 -9.20970492186e-22)
(0.00443255240814 0.0105927655999 -5.38238688339e-21)
(-0.0684235458172 0.0128456501284 9.88582094393e-21)
(0.00628847589087 0.00250646167265 7.86691826076e-20)
(-0.0581898537617 -0.0590468653591 7.27186035925e-20)
(0.00829798631494 0.00278649540659 -4.89737942677e-24)
(0.00787655968113 0.00314653910427 -2.24642270548e-23)
(0.00906863093784 0.00277606222194 6.90632736004e-24)
(0.00872578072731 0.00319619328018 -5.90507653279e-24)
(0.00972924281392 0.00261265812656 9.83374473701e-24)
(0.00955940375006 0.00309895070075 -2.96767043538e-23)
(0.0100865639959 0.00224151328722 -1.86090533633e-22)
(0.0102491883081 0.00279586127693 -3.85868478546e-23)
(0.0100375054202 0.00161195506898 -3.78083728171e-22)
(0.0105477118652 0.00219972560381 -7.33516258472e-22)
(0.00938013756219 0.000962258009902 -3.98498354862e-21)
(0.0104106044022 0.00155911679047 -4.08530281988e-22)
(0.00630776915766 0.00118695882962 -4.39905442101e-21)
(0.00902321013563 0.000344450264454 -4.51162765933e-21)
(0.00223930363648 0.000890954809746 7.42077662164e-20)
(0.0047283102583 0.00974506311418 -2.3984462464e-21)
(-0.023544367794 0.00350158759783 1.41501965256e-19)
(0.00366000577973 -0.00100915530357 7.28214663099e-20)
(-0.0133658094979 -0.0248155024938 6.79973655105e-20)
(0.00824680336232 0.00363103330625 -2.34719241608e-23)
(0.00916305029929 0.00362392878387 -4.24881082466e-23)
(0.0100286421997 0.00341727510328 -7.80972969454e-23)
(0.0106389075129 0.00293931745871 -5.86012572694e-22)
(0.0107564070016 0.00216763171602 -7.63962812289e-22)
(0.0100305122414 0.0013982728862 -9.35174392694e-22)
(0.00716036517641 0.000801689360937 -2.51101948472e-21)
(0.00778940228881 0.00101574897613 -3.78474615296e-21)
(0.000219319155687 -0.0127564211409 -6.83133435887e-22)
)
;

boundaryField
{
    back
    {
        type            calculated;
        value           uniform (0 0 0);
    }
    sides
    {
        type            calculated;
        value           uniform (0 0 0);
    }
    bottom
    {
        type            calculated;
        value           nonuniform List<vector> 0();
    }
    front
    {
        type            calculated;
        value           uniform (0 0 0);
    }
    atmosphere
    {
        type            calculated;
        value           nonuniform List<vector> 
16
(
(0 -0.059415534106 0)
(0 -0.0337979698209 0)
(0 -0.0336979372706 0)
(0 -0.0336306817391 0)
(0 -0.0314913421763 0)
(0 -0.0269913660821 0)
(0 -0.0209282628286 0)
(0 -0.0343241824376 0)
(0 -0.11874644312 0)
(0 -0.0610135093784 0)
(0.196308934673 0.168631028528 -1.77682013309e-20)
(0.0163994036694 0.179934507844 -2.05732991393e-20)
(-0.102247410659 0.195004128794 -2.0756267684e-20)
(0 -0.15260796459 0)
(0 -0.0413076161255 0)
(0 -0.0273891299686 0)
)
;
    }
    floatingObject
    {
        type            calculated;
        value           nonuniform List<vector> 0();
    }
    procBoundary1to0
    {
        type            processor;
        value           nonuniform List<vector> 10((0.00774879942468 0.00403515984484 -1.58777986547e-23) (0.00873221499008 0.00413645183549 -7.2825600725e-24) (0.00976510360736 0.00406264515497 -1.25682602731e-23) (0.0107256291274 0.0037377364701 -3.52334410613e-23) (0.0113175693412 0.00305773671471 -1.32971093533e-21) (0.0111781966119 0.00227374458905 -1.077262562e-21) (0.00961880192839 -0.00044821544986 -3.50920691499e-21) (0.00451392844012 0.0097579972641 -4.83069546908e-21) (0.0174244645606 0.000193042247216 8.95748296451e-21) (0.00127241853774 -0.035951814124 9.79891606502e-21));
    }
    procBoundary1to2
    {
        type            processor;
        value           nonuniform List<vector> 
18
(
(0.000376415434519 -0.00431938311445 5.69022827923e-22)
(0.00150111224614 -0.00484210790502 -7.40111957614e-23)
(0.00247824074225 -0.00508573399375 1.00945637703e-22)
(0.00314477096611 -0.00544688748115 1.68553683683e-22)
(0.00397624406 -0.00579214769265 -1.48611455039e-23)
(0.00481907628207 -0.00596099973948 -8.4091817382e-23)
(0.00578828748329 -0.00607212944246 -2.95763044513e-24)
(0.00664866834918 -0.00506989262592 1.15169874155e-24)
(0.00725944937444 -0.00398269620144 5.3138706307e-25)
(0.00765050368042 -0.00296058196006 -2.74726780223e-24)
(0.00786181448585 -0.00194043256026 6.2900409473e-24)
(0.00793119267075 -0.00103298061865 9.31035986956e-24)
(0.00791189461865 -0.000226033542456 7.20519527707e-25)
(0.00782860438474 0.000537389132468 5.23899609392e-24)
(0.00773186423923 0.00124933488364 -1.11053587994e-23)
(0.00762993917147 0.00196170883906 -2.00027531578e-23)
(0.00751374481877 0.00269583988741 -8.1598822939e-24)
(0.00736508346512 0.00350409815003 4.57320069813e-24)
)
;
    }
}


// ************************************************************************* //
