/*--------------------------------*- C++ -*----------------------------------*\
| =========                 |                                                 |
| \\      /  F ield         | OpenFOAM: The Open Source CFD Toolbox           |
|  \\    /   O peration     | Version:  v2012                                 |
|   \\  /    A nd           | Website:  www.openfoam.com                      |
|    \\/     M anipulation  |                                                 |
\*---------------------------------------------------------------------------*/
FoamFile
{
    version     2.0;
    format      ascii;
    class       surfaceScalarField;
    location    "0.1";
    object      alphaPhi0.water;
}
// * * * * * * * * * * * * * * * * * * * * * * * * * * * * * * * * * * * * * //

dimensions      [0 3 -1 0 0 0 0];
oriented        oriented;


internalField   nonuniform List<scalar> 
304
(
-0.00012340549135
-0.000131074994582
-7.66588531348e-05
-0.000138004236977
-6.85671137368e-05
-0.000144114790863
-5.99296312469e-05
-0.000149332985915
-5.0798722073e-05
-0.000153592381129
-4.12370692498e-05
-0.000156834459412
-3.12937126501e-05
-0.000159028246009
-2.11645011366e-05
-9.39880454038e-06
-0.000123001815439
-6.95714454328e-05
-0.000129389907641
-6.21790315041e-05
-0.000135011270346
-5.43082647585e-05
-0.000139803099636
-4.60068747234e-05
-0.000143709126394
-3.73310154779e-05
-0.000146680077164
-2.83227341406e-05
-0.000148689532354
-1.91550120663e-05
-8.52719779789e-06
-0.000115626662067
-6.29970411782e-05
-0.000121540139789
-5.62655654028e-05
-0.000126734281522
-4.91141190072e-05
-0.000131155073615
-4.1586065399e-05
-0.000134754423991
-3.37316381242e-05
-0.000137490511233
-2.55866196362e-05
-0.000139340445047
-1.73050461945e-05
-7.72070916016e-06
-0.000102789295013
-6.25795986666e-05
-0.000108911116608
-5.6875246206e-05
-0.000114407677737
-5.07690153575e-05
-0.000119227955835
-4.42938375628e-05
-0.000123325068945
-3.7488934489e-05
-0.000126657525064
-3.03991552639e-05
-0.000129189556363
-2.30545613758e-05
-0.00013090098715
-1.55935845563e-05
-6.97111954353e-06
-9.70970246222e-05
-5.6312614785e-05
-0.000102819490521
-5.11528077424e-05
-0.000107949605156
-4.56389134534e-05
-0.000112442375969
-3.9801063467e-05
-0.000116256726564
-3.36745673272e-05
-0.000119356506143
-2.72993492768e-05
-0.000121710909768
-2.07001303619e-05
-0.000123301814348
-1.40026500366e-05
-6.27133283013e-06
-9.19484227238e-05
-5.04227647259e-05
-9.7318891827e-05
-4.57823675438e-05
-0.00010212710609
-4.08307118147e-05
-0.000106333025265
-3.55951424464e-05
-0.000109900305127
-3.01072716315e-05
-0.000112797126281
-2.44025039575e-05
-0.000114996804746
-1.85004259288e-05
-0.000116482697323
-1.25167302947e-05
-5.61517329011e-06
-8.17611312349e-05
-4.87161269756e-05
-8.73183070758e-05
-4.48656310004e-05
-9.23792533733e-05
-4.07214486793e-05
-9.6905248311e-05
-3.63047301386e-05
-0.000100860316645
-3.16400726633e-05
-0.00010421197319
-2.67556011921e-05
-0.0001069319002
-2.16825541375e-05
-0.00010899689356
-1.64354082699e-05
-0.000110391265576
-1.11223330132e-05
-4.99723679345e-06
-7.22159454507e-05
-4.61539084376e-05
-7.79185382979e-05
-4.3013584501e-05
-8.31834623713e-05
-3.960074469e-05
-8.79733131934e-05
-3.59316233292e-05
-9.22527693304e-05
-3.2025286721e-05
-9.59891905171e-05
-2.79036508466e-05
-9.91532255154e-05
-2.35915539837e-05
-0.000101719363881
-1.91163950198e-05
-0.000103667382059
-1.44873686113e-05
-0.000104982029509
-9.80766360145e-06
-4.41281121988e-06
-6.90816500425e-05
-7.45128882497e-05
-3.75824005855e-05
-7.95227269446e-05
-3.45909418298e-05
-8.4076560684e-05
-3.13778134702e-05
-8.81418788515e-05
-2.79599804463e-05
-9.1688770833e-05
-2.43567593986e-05
-9.46904142066e-05
-2.05899002254e-05
-9.712351418e-05
-1.66832780221e-05
-9.89703465349e-05
-1.2640518285e-05
-0.000100215582412
-8.56241030676e-06
-3.85790383685e-06
-7.1527867722e-05
-3.23865361703e-05
-7.63170357744e-05
-2.98018070357e-05
-8.06671645892e-05
-2.70277064932e-05
-8.45480671335e-05
-2.40790898842e-05
-8.7932068119e-05
-2.09727599954e-05
-9.07943851862e-05
-1.77275760518e-05
-9.31134710993e-05
-1.43641788994e-05
-9.48732026358e-05
-1.08807743799e-05
-9.60580719899e-05
-7.37752843833e-06
-3.32950448421e-06
-6.89487965697e-05
-2.7392112293e-05
-7.35494318841e-05
-2.5201201914e-05
-7.77258827227e-05
-2.28512771607e-05
-8.14498979218e-05
-2.03550869502e-05
-8.46956597178e-05
-1.77270023403e-05
-8.74400711732e-05
-1.49831607011e-05
-8.96629991388e-05
-1.2141242282e-05
-9.13480058327e-05
-9.19575903332e-06
-9.24807332883e-05
-6.24479262894e-06
-2.82625790083e-06
-6.67627558678e-05
-2.25671515158e-05
-7.12050746246e-05
-2.07589111782e-05
-7.52359632095e-05
-1.88204094874e-05
-7.88287893444e-05
-1.67622748147e-05
-8.19593066817e-05
-1.4596491398e-05
-8.46058575123e-05
-1.23366099281e-05
-8.67493069464e-05
-9.99778787561e-06
-8.8370937453e-05
-7.57412277955e-06
-8.94594638763e-05
-5.15626155691e-06
-2.35003770889e-06
-6.4958597588e-05
-1.78812120739e-05
-6.92712289472e-05
-1.64463085723e-05
-7.31830778696e-05
-1.49085827995e-05
-7.66688742056e-05
-1.32764936833e-05
-7.97057613879e-05
-1.15596138505e-05
-8.22734230255e-05
-9.76895120852e-06
-8.43535619029e-05
-7.91764777897e-06
-8.59244549204e-05
-6.0032283172e-06
-8.69762925963e-05
-4.10442179276e-06
-1.91016178749e-06
-6.35271170981e-05
-1.33050631707e-05
-6.77374041114e-05
-1.22360513553e-05
-7.15554059743e-05
-1.10906037606e-05
-7.49570123898e-05
-9.8749051285e-06
-7.79207054939e-05
-8.59593245683e-06
-8.04277336289e-05
-7.26192982544e-06
-8.24611064158e-05
-5.88427595349e-06
-8.39986745072e-05
-4.46566080791e-06
-8.50239549715e-05
-3.07914170993e-06
-1.53383941432e-06
-5.79678949471e-05
-9.46468840082e-06
-6.24626457699e-05
-8.81034719487e-06
-6.6596976885e-05
-8.1017490094e-06
-7.03452490522e-05
-7.34235584522e-06
-7.36842575559e-05
-6.53591573307e-06
-7.65938515595e-05
-5.6863530808e-06
-7.90577816646e-05
-4.79800858618e-06
-8.10634890611e-05
-3.8785715543e-06
-8.25937583683e-05
-2.93539362083e-06
-8.3587553534e-05
-2.08534894592e-06
-1.23818523129e-06
-5.73096953438e-05
-4.6947277479e-06
-6.17500646222e-05
-4.37001297177e-06
-6.58335301203e-05
-4.01831340509e-06
-6.95347688765e-05
-3.64114169255e-06
-7.28309371316e-05
-3.23976826898e-06
-7.57029431525e-05
-2.81436243358e-06
-7.81396343846e-05
-2.3613278813e-06
-8.01495138039e-05
-1.86869452931e-06
-8.17844080442e-05
-1.30050061602e-06
-8.32088441456e-05
-6.60914740808e-07
-1.93336174587e-06
-5.64121781023e-05
-6.07822075275e-05
-6.4800534512e-05
-6.84416879588e-05
-7.16814652714e-05
-7.4495834549e-05
-7.68571661004e-05
-7.87258618666e-05
-8.00263636649e-05
-8.0687279086e-05
)
;

boundaryField
{
    back
    {
        type            calculated;
        value           uniform 0;
    }
    sides
    {
        type            calculated;
        value           uniform 0;
    }
    bottom
    {
        type            calculated;
        value           nonuniform List<scalar> 0();
    }
    front
    {
        type            calculated;
        value           uniform 0;
    }
    atmosphere
    {
        type            calculated;
        value           uniform 0;
    }
    floatingObject
    {
        type            calculated;
        value           nonuniform List<scalar> 0();
    }
    procBoundary11to9
    {
        type            processor;
        value           nonuniform List<scalar> 9(9.24931730495e-05 8.43283248216e-05 7.54963495208e-05 6.60401907055e-05 5.60169468776e-05 4.5496503718e-05 3.45358319352e-05 2.33583363212e-05 1.03451408244e-05);
    }
    procBoundary11to10
    {
        type            processor;
        value           nonuniform List<scalar> 
23
(
0.000115076323494
-8.41640225284e-05
0.000115914370408
0.000109052217653
6.92728434136e-05
9.60959796692e-05
9.08299639318e-05
8.6058506225e-05
5.47287183025e-05
7.5748440911e-05
5.22551645463e-05
6.61145628298e-05
6.32652603665e-05
-4.03375930114e-05
6.63319303032e-05
6.39543074243e-05
6.19377379775e-05
6.02725857013e-05
5.89509132138e-05
1.42921609737e-05
5.31403410564e-05
5.25396631424e-05
5.17174113921e-05
)
;
    }
}


// ************************************************************************* //
