/*--------------------------------*- C++ -*----------------------------------*\
| =========                 |                                                 |
| \\      /  F ield         | OpenFOAM: The Open Source CFD Toolbox           |
|  \\    /   O peration     | Version:  v2012                                 |
|   \\  /    A nd           | Website:  www.openfoam.com                      |
|    \\/     M anipulation  |                                                 |
\*---------------------------------------------------------------------------*/
FoamFile
{
    version     2.0;
    format      ascii;
    class       volScalarField;
    location    "0.1";
    object      epsilon_0;
}
// * * * * * * * * * * * * * * * * * * * * * * * * * * * * * * * * * * * * * //

dimensions      [0 2 -3 0 0 0 0];


internalField   nonuniform List<scalar> 
167
(
0.186664157346
0.186667980085
0.186671563007
0.186674822713
0.1866777394
0.18668180339
0.186724316418
0.187599725901
0.203117236731
0.186648541572
0.186652145039
0.18665541849
0.186658338357
0.186662319967
0.186703304486
0.187560163695
0.203039960618
0.186630769606
0.186634448549
0.186637779703
0.186640740551
0.186644680821
0.186684333511
0.18752448153
0.202970044274
0.186610472776
0.186614551257
0.186618345327
0.186621769672
0.186624802346
0.186628735393
0.186667229574
0.187492346716
0.202906901497
0.186595534655
0.186599785456
0.186603725781
0.186607272043
0.18661040142
0.18661435521
0.186651843821
0.187463472723
0.202850023217
0.186581928923
0.186586381754
0.186590495108
0.186594186491
0.186597432243
0.186601429322
0.18663804785
0.18743761186
0.202798966395
0.18656462394
0.186569582534
0.186574264201
0.186578572257
0.186582426725
0.186585803745
0.186589861809
0.186625730705
0.187414549736
0.202753345136
0.186547739603
0.186553195636
0.186558441377
0.186563370176
0.186567888741
0.186571919102
0.186575437745
0.186579569973
0.186614796658
0.187394100861
0.202712823421
0.186537110469
0.186542912965
0.186548459517
0.186553648347
0.186558387607
0.186562601495
0.186566267647
0.186570482927
0.186605163447
0.18737610511
0.202677109065
0.18653374674
0.186539603069
0.186545058623
0.18655002261
0.186554422259
0.186558237303
0.186562540439
0.186596760885
0.187360425008
0.202645948364
0.18652567698
0.186531849475
0.186537571245
0.186542757218
0.186547339116
0.186551299756
0.186555691785
0.18658952952
0.187346943194
0.202619119074
0.186518705356
0.186525184986
0.186531163064
0.186536560835
0.186541315406
0.18654541343
0.186549892032
0.186583416828
0.187335558505
0.202596419796
0.186512767682
0.186519534544
0.186525749675
0.186531341643
0.186536253601
0.186540476613
0.186545036834
0.186578314739
0.187326127316
0.202577630019
0.186506187189
0.186513215512
0.186519645168
0.186525413077
0.186530468765
0.186534808109
0.186539450688
0.186572558141
0.187317024088
0.202561626526
0.186453753251
0.186461652918
0.18646898314
0.186475678889
0.186481685663
0.186486958479
0.186491497891
0.186496323148
0.186529483787
0.1872724869
0.202525280379
0.185627022795
0.185635828645
0.185644072695
0.185651696041
0.185658646408
0.185664880059
0.185670402741
0.185676253111
0.185710689553
0.186463094695
0.2019534178
0.226927511919
0.226940925651
0.226953286829
0.226964513737
0.226974531258
0.226983271225
0.226990701145
0.226997665423
0.227033278241
0.227983352006
0.252958440667
)
;

boundaryField
{
    back
    {
        lowReCorrection 0;
        blending        stepwise;
        n               2;
        type            epsilonWallFunction;
        value           nonuniform List<scalar> 
167
(
0.186664157346
0.186667980085
0.186671563007
0.186674822713
0.1866777394
0.18668180339
0.186724316418
0.187599725901
0.203117236731
0.186648541572
0.186652145039
0.18665541849
0.186658338357
0.186662319967
0.186703304486
0.187560163695
0.203039960618
0.186630769606
0.186634448549
0.186637779703
0.186640740551
0.186644680821
0.186684333511
0.18752448153
0.202970044274
0.186610472776
0.186614551257
0.186618345327
0.186621769672
0.186624802346
0.186628735393
0.186667229574
0.187492346716
0.202906901497
0.186595534655
0.186599785456
0.186603725781
0.186607272043
0.18661040142
0.18661435521
0.186651843821
0.187463472723
0.202850023217
0.186581928923
0.186586381754
0.186590495108
0.186594186491
0.186597432243
0.186601429322
0.18663804785
0.18743761186
0.202798966395
0.18656462394
0.186569582534
0.186574264201
0.186578572257
0.186582426725
0.186585803745
0.186589861809
0.186625730705
0.187414549736
0.202753345136
0.186547739603
0.186553195636
0.186558441377
0.186563370176
0.186567888741
0.186571919102
0.186575437745
0.186579569973
0.186614796658
0.187394100861
0.202712823421
0.186537110469
0.186542912965
0.186548459517
0.186553648347
0.186558387607
0.186562601495
0.186566267647
0.186570482927
0.186605163447
0.18737610511
0.202677109065
0.18653374674
0.186539603069
0.186545058623
0.18655002261
0.186554422259
0.186558237303
0.186562540439
0.186596760885
0.187360425008
0.202645948364
0.18652567698
0.186531849475
0.186537571245
0.186542757218
0.186547339116
0.186551299756
0.186555691785
0.18658952952
0.187346943194
0.202619119074
0.186518705356
0.186525184986
0.186531163064
0.186536560835
0.186541315406
0.18654541343
0.186549892032
0.186583416828
0.187335558505
0.202596419796
0.186512767682
0.186519534544
0.186525749675
0.186531341643
0.186536253601
0.186540476613
0.186545036834
0.186578314739
0.187326127316
0.202577630019
0.186506187189
0.186513215512
0.186519645168
0.186525413077
0.186530468765
0.186534808109
0.186539450688
0.186572558141
0.187317024088
0.202561626526
0.186453753251
0.186461652918
0.18646898314
0.186475678889
0.186481685663
0.186486958479
0.186491497891
0.186496323148
0.186529483787
0.1872724869
0.202525280379
0.185627022795
0.185635828645
0.185644072695
0.185651696041
0.185658646408
0.185664880059
0.185670402741
0.185676253111
0.185710689553
0.186463094695
0.2019534178
0.226927511919
0.226940925651
0.226953286829
0.226964513737
0.226974531258
0.226983271225
0.226990701145
0.226997665423
0.227033278241
0.227983352006
0.252958440667
)
;
    }
    sides
    {
        lowReCorrection 0;
        blending        stepwise;
        n               2;
        type            epsilonWallFunction;
        value           nonuniform List<scalar> 
11
(
0.226927511919
0.226940925651
0.226953286829
0.226964513737
0.226974531258
0.226983271225
0.226990701145
0.226997665423
0.227033278241
0.227983352006
0.252958440667
)
;
    }
    bottom
    {
        lowReCorrection 0;
        blending        stepwise;
        n               2;
        type            epsilonWallFunction;
        value           nonuniform List<scalar> 0();
    }
    front
    {
        lowReCorrection 0;
        blending        stepwise;
        n               2;
        type            epsilonWallFunction;
        value           nonuniform List<scalar> 
167
(
0.186664157346
0.186667980085
0.186671563007
0.186674822713
0.1866777394
0.18668180339
0.186724316418
0.187599725901
0.203117236731
0.186648541572
0.186652145039
0.18665541849
0.186658338357
0.186662319967
0.186703304486
0.187560163695
0.203039960618
0.186630769606
0.186634448549
0.186637779703
0.186640740551
0.186644680821
0.186684333511
0.18752448153
0.202970044274
0.186610472776
0.186614551257
0.186618345327
0.186621769672
0.186624802346
0.186628735393
0.186667229574
0.187492346716
0.202906901497
0.186595534655
0.186599785456
0.186603725781
0.186607272043
0.18661040142
0.18661435521
0.186651843821
0.187463472723
0.202850023217
0.186581928923
0.186586381754
0.186590495108
0.186594186491
0.186597432243
0.186601429322
0.18663804785
0.18743761186
0.202798966395
0.18656462394
0.186569582534
0.186574264201
0.186578572257
0.186582426725
0.186585803745
0.186589861809
0.186625730705
0.187414549736
0.202753345136
0.186547739603
0.186553195636
0.186558441377
0.186563370176
0.186567888741
0.186571919102
0.186575437745
0.186579569973
0.186614796658
0.187394100861
0.202712823421
0.186537110469
0.186542912965
0.186548459517
0.186553648347
0.186558387607
0.186562601495
0.186566267647
0.186570482927
0.186605163447
0.18737610511
0.202677109065
0.18653374674
0.186539603069
0.186545058623
0.18655002261
0.186554422259
0.186558237303
0.186562540439
0.186596760885
0.187360425008
0.202645948364
0.18652567698
0.186531849475
0.186537571245
0.186542757218
0.186547339116
0.186551299756
0.186555691785
0.18658952952
0.187346943194
0.202619119074
0.186518705356
0.186525184986
0.186531163064
0.186536560835
0.186541315406
0.18654541343
0.186549892032
0.186583416828
0.187335558505
0.202596419796
0.186512767682
0.186519534544
0.186525749675
0.186531341643
0.186536253601
0.186540476613
0.186545036834
0.186578314739
0.187326127316
0.202577630019
0.186506187189
0.186513215512
0.186519645168
0.186525413077
0.186530468765
0.186534808109
0.186539450688
0.186572558141
0.187317024088
0.202561626526
0.186453753251
0.186461652918
0.18646898314
0.186475678889
0.186481685663
0.186486958479
0.186491497891
0.186496323148
0.186529483787
0.1872724869
0.202525280379
0.185627022795
0.185635828645
0.185644072695
0.185651696041
0.185658646408
0.185664880059
0.185670402741
0.185676253111
0.185710689553
0.186463094695
0.2019534178
0.226927511919
0.226940925651
0.226953286829
0.226964513737
0.226974531258
0.226983271225
0.226990701145
0.226997665423
0.227033278241
0.227983352006
0.252958440667
)
;
    }
    atmosphere
    {
        type            inletOutlet;
        inletValue      uniform 0.1;
        value           uniform 0.1;
    }
    floatingObject
    {
        lowReCorrection 0;
        blending        stepwise;
        n               2;
        type            epsilonWallFunction;
        value           nonuniform List<scalar> 0();
    }
    procBoundary11to9
    {
        type            processor;
        value           nonuniform List<scalar> 9(0.186685360904 0.186689216508 0.186692836967 0.186696135974 0.186699096618 0.186703294731 0.186747565057 0.187643552409 0.203202549314);
    }
    procBoundary11to10
    {
        type            processor;
        value           nonuniform List<scalar> 
23
(
0.186660168303
0.18664468028
0.18664468028
0.186626818173
0.186626818173
0.186606183777
0.186591055212
0.186577223637
0.186577223637
0.186559479339
0.186559479339
0.186542172862
0.186531161289
0.186527581316
0.186527581316
0.186519140772
0.186511804958
0.186505521687
0.1864986264
0.1864986264
0.186445343162
0.185617715046
0.22691313218
)
;
    }
}


// ************************************************************************* //
