/*--------------------------------*- C++ -*----------------------------------*\
| =========                 |                                                 |
| \\      /  F ield         | OpenFOAM: The Open Source CFD Toolbox           |
|  \\    /   O peration     | Version:  v2012                                 |
|   \\  /    A nd           | Website:  www.openfoam.com                      |
|    \\/     M anipulation  |                                                 |
\*---------------------------------------------------------------------------*/
FoamFile
{
    version     2.0;
    format      ascii;
    class       volScalarField;
    location    "4.4";
    object      epsilon_0;
}
// * * * * * * * * * * * * * * * * * * * * * * * * * * * * * * * * * * * * * //

dimensions      [0 2 -3 0 0 0 0];


internalField   nonuniform List<scalar> 
166
(
0.00101606479809
0.0010205979991
0.00102632804305
0.00103473706276
0.00104954159288
0.0010800989237
0.00115203068494
0.00134679439095
0.00192662182669
0.00358525409035
0.00791470946908
0.0214778781006
0.117170232186
0.00101160427655
0.00101570199035
0.00101964887276
0.00102413369301
0.00102978712628
0.00103800673726
0.00105238613114
0.0010821239112
0.00115265258426
0.00134505530197
0.00192221383532
0.00358503722157
0.00799941139795
0.0227037033202
0.115254414859
0.000844081219725
0.000877858251041
0.0010091119734
0.00101504798693
0.00101912296064
0.00102305988246
0.0010275262879
0.00103312085138
0.00104116202585
0.00105508003274
0.00108379188344
0.00115221469487
0.00134045537658
0.00191366602821
0.00359339568211
0.00817481552619
0.0257790212142
0.130801778518
0.000846911173309
0.000880855881984
0.000967055127262
0.000999690320684
0.00101234600433
0.00101825947095
0.00102233234347
0.00102627420554
0.00103074143515
0.00103629475443
0.00104417301779
0.00105763363789
0.00108528111893
0.0011516445145
0.00133685944358
0.00191233132148
0.00363536514118
0.00860233121713
0.0302238795253
0.142037873156
0.000849462704652
0.000883631343827
0.000970005532344
0.00100267475862
0.00101532113388
0.00102123494726
0.00102531978189
0.0010292798232
0.00103376233801
0.00103930003118
0.00104705461504
0.00106013723002
0.00108694997927
0.00115196245394
0.00133703815487
0.00192380515873
0.00372965455757
0.00937349861936
0.0356527826736
0.152182403962
0.000851762257933
0.000886139997422
0.000972671255145
0.00100537531514
0.00101802876102
0.00102395615867
0.00102806587586
0.00103205902104
0.00103657234424
0.00104211326749
0.00104978065603
0.00106256127584
0.00108875825347
0.00115314946616
0.00134028148645
0.00194532453518
0.00386931324748
0.0104288627923
0.0413713251705
0.161061871652
0.000853832218812
0.000888351687797
0.000975036467127
0.00100778314852
0.00102045414778
0.00102640587189
0.00103055165434
0.00103458976453
0.00103914846491
0.00104471169757
0.00105232018113
0.00106486938276
0.00109061034094
0.00115483074792
0.00134470918627
0.00196587130903
0.00399745053644
0.0113713805318
0.0461099874565
0.165117650128
0.000855597951548
0.000890263089186
0.000977092191964
0.00100988466793
0.00102258244791
0.00102856861405
0.00103276072265
0.00103685481172
0.00104147118351
0.00104707483079
0.00105465078428
0.00106701395659
0.00109237396798
0.00115645482934
0.00134845775362
0.00198302599517
0.00411805299281
0.0122897817123
0.0502028292174
0.167339499948
0.000857064601104
0.000891866212094
0.000978822660324
0.00101166416201
0.00102439744188
0.00103042791469
0.00103467697223
0.00103883992514
0.0010435256884
0.0010491878926
0.00105675384853
0.00106895435682
0.00109394446027
0.0011576572949
0.0013504814519
0.0019978336035
0.00426290013905
0.0132377205612
0.0525568812725
0.167994573252
)
;

boundaryField
{
    back
    {
        lowReCorrection 0;
        blending        stepwise;
        n               2;
        type            epsilonWallFunction;
        value           nonuniform List<scalar> 
166
(
0.00101606479809
0.0010205979991
0.00102632804305
0.00103473706276
0.00104954159288
0.0010800989237
0.00115203068494
0.00134679439095
0.00192662182669
0.00358525409035
0.00791470946908
0.0214778781006
0.117170232186
0.00101160427655
0.00101570199035
0.00101964887276
0.00102413369301
0.00102978712628
0.00103800673726
0.00105238613114
0.0010821239112
0.00115265258426
0.00134505530197
0.00192221383532
0.00358503722157
0.00799941139795
0.0227037033202
0.115254414859
0.000844081219725
0.000877858251041
0.0010091119734
0.00101504798693
0.00101912296064
0.00102305988246
0.0010275262879
0.00103312085138
0.00104116202585
0.00105508003274
0.00108379188344
0.00115221469487
0.00134045537658
0.00191366602821
0.00359339568211
0.00817481552619
0.0257790212142
0.130801778518
0.000846911173309
0.000880855881984
0.000967055127262
0.000999690320684
0.00101234600433
0.00101825947095
0.00102233234347
0.00102627420554
0.00103074143515
0.00103629475443
0.00104417301779
0.00105763363789
0.00108528111893
0.0011516445145
0.00133685944358
0.00191233132148
0.00363536514118
0.00860233121713
0.0302238795253
0.142037873156
0.000849462704652
0.000883631343827
0.000970005532344
0.00100267475862
0.00101532113388
0.00102123494726
0.00102531978189
0.0010292798232
0.00103376233801
0.00103930003118
0.00104705461504
0.00106013723002
0.00108694997927
0.00115196245394
0.00133703815487
0.00192380515873
0.00372965455757
0.00937349861936
0.0356527826736
0.152182403962
0.000851762257933
0.000886139997422
0.000972671255145
0.00100537531514
0.00101802876102
0.00102395615867
0.00102806587586
0.00103205902104
0.00103657234424
0.00104211326749
0.00104978065603
0.00106256127584
0.00108875825347
0.00115314946616
0.00134028148645
0.00194532453518
0.00386931324748
0.0104288627923
0.0413713251705
0.161061871652
0.000853832218812
0.000888351687797
0.000975036467127
0.00100778314852
0.00102045414778
0.00102640587189
0.00103055165434
0.00103458976453
0.00103914846491
0.00104471169757
0.00105232018113
0.00106486938276
0.00109061034094
0.00115483074792
0.00134470918627
0.00196587130903
0.00399745053644
0.0113713805318
0.0461099874565
0.165117650128
0.000855597951548
0.000890263089186
0.000977092191964
0.00100988466793
0.00102258244791
0.00102856861405
0.00103276072265
0.00103685481172
0.00104147118351
0.00104707483079
0.00105465078428
0.00106701395659
0.00109237396798
0.00115645482934
0.00134845775362
0.00198302599517
0.00411805299281
0.0122897817123
0.0502028292174
0.167339499948
0.000857064601104
0.000891866212094
0.000978822660324
0.00101166416201
0.00102439744188
0.00103042791469
0.00103467697223
0.00103883992514
0.0010435256884
0.0010491878926
0.00105675384853
0.00106895435682
0.00109394446027
0.0011576572949
0.0013504814519
0.0019978336035
0.00426290013905
0.0132377205612
0.0525568812725
0.167994573252
)
;
    }
    sides
    {
        lowReCorrection 0;
        blending        stepwise;
        n               2;
        type            epsilonWallFunction;
        value           nonuniform List<scalar> 0();
    }
    bottom
    {
        lowReCorrection 0;
        blending        stepwise;
        n               2;
        type            epsilonWallFunction;
        value           nonuniform List<scalar> 7(0.000844081219725 0.000846911173309 0.000849462704652 0.000851762257933 0.000853832218812 0.000855597951548 0.000857064601104);
    }
    front
    {
        lowReCorrection 0;
        blending        stepwise;
        n               2;
        type            epsilonWallFunction;
        value           nonuniform List<scalar> 
166
(
0.00101606479809
0.0010205979991
0.00102632804305
0.00103473706276
0.00104954159288
0.0010800989237
0.00115203068494
0.00134679439095
0.00192662182669
0.00358525409035
0.00791470946908
0.0214778781006
0.117170232186
0.00101160427655
0.00101570199035
0.00101964887276
0.00102413369301
0.00102978712628
0.00103800673726
0.00105238613114
0.0010821239112
0.00115265258426
0.00134505530197
0.00192221383532
0.00358503722157
0.00799941139795
0.0227037033202
0.115254414859
0.000844081219725
0.000877858251041
0.0010091119734
0.00101504798693
0.00101912296064
0.00102305988246
0.0010275262879
0.00103312085138
0.00104116202585
0.00105508003274
0.00108379188344
0.00115221469487
0.00134045537658
0.00191366602821
0.00359339568211
0.00817481552619
0.0257790212142
0.130801778518
0.000846911173309
0.000880855881984
0.000967055127262
0.000999690320684
0.00101234600433
0.00101825947095
0.00102233234347
0.00102627420554
0.00103074143515
0.00103629475443
0.00104417301779
0.00105763363789
0.00108528111893
0.0011516445145
0.00133685944358
0.00191233132148
0.00363536514118
0.00860233121713
0.0302238795253
0.142037873156
0.000849462704652
0.000883631343827
0.000970005532344
0.00100267475862
0.00101532113388
0.00102123494726
0.00102531978189
0.0010292798232
0.00103376233801
0.00103930003118
0.00104705461504
0.00106013723002
0.00108694997927
0.00115196245394
0.00133703815487
0.00192380515873
0.00372965455757
0.00937349861936
0.0356527826736
0.152182403962
0.000851762257933
0.000886139997422
0.000972671255145
0.00100537531514
0.00101802876102
0.00102395615867
0.00102806587586
0.00103205902104
0.00103657234424
0.00104211326749
0.00104978065603
0.00106256127584
0.00108875825347
0.00115314946616
0.00134028148645
0.00194532453518
0.00386931324748
0.0104288627923
0.0413713251705
0.161061871652
0.000853832218812
0.000888351687797
0.000975036467127
0.00100778314852
0.00102045414778
0.00102640587189
0.00103055165434
0.00103458976453
0.00103914846491
0.00104471169757
0.00105232018113
0.00106486938276
0.00109061034094
0.00115483074792
0.00134470918627
0.00196587130903
0.00399745053644
0.0113713805318
0.0461099874565
0.165117650128
0.000855597951548
0.000890263089186
0.000977092191964
0.00100988466793
0.00102258244791
0.00102856861405
0.00103276072265
0.00103685481172
0.00104147118351
0.00104707483079
0.00105465078428
0.00106701395659
0.00109237396798
0.00115645482934
0.00134845775362
0.00198302599517
0.00411805299281
0.0122897817123
0.0502028292174
0.167339499948
0.000857064601104
0.000891866212094
0.000978822660324
0.00101166416201
0.00102439744188
0.00103042791469
0.00103467697223
0.00103883992514
0.0010435256884
0.0010491878926
0.00105675384853
0.00106895435682
0.00109394446027
0.0011576572949
0.0013504814519
0.0019978336035
0.00426290013905
0.0132377205612
0.0525568812725
0.167994573252
)
;
    }
    atmosphere
    {
        type            inletOutlet;
        inletValue      uniform 0.1;
        value           uniform 0.1;
    }
    floatingObject
    {
        lowReCorrection 0;
        blending        stepwise;
        n               2;
        type            epsilonWallFunction;
        value           nonuniform List<scalar> 0();
    }
    procBoundary0to1
    {
        type            processor;
        value           nonuniform List<scalar> 10(0.00103131978312 0.00104650634226 0.00107776091429 0.00115076358526 0.00134712622259 0.00193059860225 0.00361024919021 0.00805878787269 0.0218380177794 0.125549363493);
    }
    procBoundary0to2
    {
        type            processor;
        value           nonuniform List<scalar> 
14
(
0.00101233890727
0.00101690518176
0.00102272048572
0.00100798558677
0.00101209864215
0.00101209864215
0.000840978856046
0.000874653996159
0.00100567061673
0.00100567061673
0.000963869547522
0.000963869547522
0.000996464164226
0.000996464164226
)
;
    }
    procBoundary0to4
    {
        type            processor;
        value           nonuniform List<scalar> 8(0.000858188686555 0.000893143633792 0.000980208767018 0.00101310187914 0.00102588045426 0.00103196680147 0.00103628729262 0.00104053042251);
    }
    procBoundary0to5
    {
        type            processor;
        value           nonuniform List<scalar> 
12
(
0.00104529779939
0.00105103794345
0.00105861623836
0.00107067678049
0.00109527807438
0.00115831042308
0.00135058510532
0.00200877326249
0.00441996112182
0.0141566271038
0.0537801845001
0.167827521213
)
;
    }
}


// ************************************************************************* //
