/*--------------------------------*- C++ -*----------------------------------*\
| =========                 |                                                 |
| \\      /  F ield         | OpenFOAM: The Open Source CFD Toolbox           |
|  \\    /   O peration     | Version:  v2012                                 |
|   \\  /    A nd           | Website:  www.openfoam.com                      |
|    \\/     M anipulation  |                                                 |
\*---------------------------------------------------------------------------*/
FoamFile
{
    version     2.0;
    format      ascii;
    class       volScalarField;
    location    "4.4";
    object      k_0;
}
// * * * * * * * * * * * * * * * * * * * * * * * * * * * * * * * * * * * * * //

dimensions      [0 2 -2 0 0 0 0];


internalField   nonuniform List<scalar> 
166
(
0.00249294065061
0.0025004536011
0.00250992003866
0.00252372801976
0.0025478282266
0.00259704001003
0.00271097203643
0.00300803299445
0.00381549868358
0.00575788548791
0.0097765354261
0.0200225315612
0.0668705607015
0.0024854460346
0.00249223993882
0.00249878293186
0.0025062071271
0.00251553909655
0.00252903275482
0.00255244624972
0.00260037246659
0.00271224287333
0.00300649399758
0.00381362298515
0.00577083099646
0.00989562405205
0.020969312803
0.0652214436136
0.00181835438843
0.00226086832938
0.00248125875058
0.00249106270475
0.00249780446794
0.00250431933055
0.0025117026959
0.00252092805606
0.00253412321783
0.00255679334036
0.00260312156656
0.00271203875981
0.00300176680683
0.00381005745005
0.00580311568322
0.0101680174556
0.0232189029572
0.0680225688535
0.00182239598871
0.00226606013567
0.00241163639151
0.002465683816
0.00248653040339
0.00249627679599
0.00250300198516
0.00250951486979
0.00251688968716
0.00252604006602
0.00253897420121
0.0025609504769
0.0026057831906
0.00271220801006
0.00300038435128
0.00382136025807
0.00588977983848
0.0106985153494
0.0258842086767
0.0705075401566
0.0018260386949
0.00227084372119
0.00241653606619
0.00247055964087
0.00249135578062
0.00250108554294
0.00250781958255
0.00251435209642
0.00252174273324
0.00253086087491
0.00254359810409
0.00256500682603
0.00260868906464
0.00271376627118
0.00300458280302
0.003849416739
0.00603927978437
0.0114933513835
0.0287142487963
0.0727340236361
0.00182936009784
0.00227512859842
0.00242092581927
0.00247494194103
0.00249572234494
0.00250546039207
0.00251222522946
0.00251880203782
0.00252623271336
0.00253534734803
0.00254794332438
0.00256889968139
0.00261176339051
0.00271655619837
0.00301317930879
0.00389152279155
0.00624140361291
0.0124784316468
0.0314676580807
0.0746560200946
0.0018323363484
0.00227888995868
0.00242480172726
0.00247882894312
0.00249961294569
0.00250937765683
0.00251619147046
0.00252283193553
0.00253032579624
0.00253946655
0.00255196280173
0.002572570529
0.00261484875661
0.00271998219864
0.00302293270872
0.00393053739677
0.00642685312218
0.013348596533
0.0338009367618
0.075695505616
0.00183485576055
0.00228212324012
0.00242815044891
0.002482200845
0.00250300604411
0.00251281493208
0.00251969486085
0.00252641688171
0.0025339935715
0.00254318842407
0.00255562432558
0.00257594868344
0.00261772754817
0.00272311654717
0.00303101903198
0.00396347955392
0.00659686624199
0.0141381268047
0.035703207192
0.0762854244395
0.0018369343222
0.00228481708604
0.0024309492488
0.00248503442746
0.00250587775572
0.00251574808209
0.00252271232169
0.00252953683491
0.00253721565204
0.00254649303998
0.00255890227344
0.00257897002614
0.00262023232257
0.00272538974224
0.00303605604921
0.00399265172098
0.00677967681661
0.0148164107036
0.0364157227313
0.0763194303932
)
;

boundaryField
{
    back
    {
        type            kqRWallFunction;
        value           nonuniform List<scalar> 
166
(
0.00249294065061
0.0025004536011
0.00250992003866
0.00252372801976
0.0025478282266
0.00259704001003
0.00271097203643
0.00300803299445
0.00381549868358
0.00575788548791
0.0097765354261
0.0200225315612
0.0668705607015
0.0024854460346
0.00249223993882
0.00249878293186
0.0025062071271
0.00251553909655
0.00252903275482
0.00255244624972
0.00260037246659
0.00271224287333
0.00300649399758
0.00381362298515
0.00577083099646
0.00989562405205
0.020969312803
0.0652214436136
0.00181835438843
0.00226086832938
0.00248125875058
0.00249106270475
0.00249780446794
0.00250431933055
0.0025117026959
0.00252092805606
0.00253412321783
0.00255679334036
0.00260312156656
0.00271203875981
0.00300176680683
0.00381005745005
0.00580311568322
0.0101680174556
0.0232189029572
0.0680225688535
0.00182239598871
0.00226606013567
0.00241163639151
0.002465683816
0.00248653040339
0.00249627679599
0.00250300198516
0.00250951486979
0.00251688968716
0.00252604006602
0.00253897420121
0.0025609504769
0.0026057831906
0.00271220801006
0.00300038435128
0.00382136025807
0.00588977983848
0.0106985153494
0.0258842086767
0.0705075401566
0.0018260386949
0.00227084372119
0.00241653606619
0.00247055964087
0.00249135578062
0.00250108554294
0.00250781958255
0.00251435209642
0.00252174273324
0.00253086087491
0.00254359810409
0.00256500682603
0.00260868906464
0.00271376627118
0.00300458280302
0.003849416739
0.00603927978437
0.0114933513835
0.0287142487963
0.0727340236361
0.00182936009784
0.00227512859842
0.00242092581927
0.00247494194103
0.00249572234494
0.00250546039207
0.00251222522946
0.00251880203782
0.00252623271336
0.00253534734803
0.00254794332438
0.00256889968139
0.00261176339051
0.00271655619837
0.00301317930879
0.00389152279155
0.00624140361291
0.0124784316468
0.0314676580807
0.0746560200946
0.0018323363484
0.00227888995868
0.00242480172726
0.00247882894312
0.00249961294569
0.00250937765683
0.00251619147046
0.00252283193553
0.00253032579624
0.00253946655
0.00255196280173
0.002572570529
0.00261484875661
0.00271998219864
0.00302293270872
0.00393053739677
0.00642685312218
0.013348596533
0.0338009367618
0.075695505616
0.00183485576055
0.00228212324012
0.00242815044891
0.002482200845
0.00250300604411
0.00251281493208
0.00251969486085
0.00252641688171
0.0025339935715
0.00254318842407
0.00255562432558
0.00257594868344
0.00261772754817
0.00272311654717
0.00303101903198
0.00396347955392
0.00659686624199
0.0141381268047
0.035703207192
0.0762854244395
0.0018369343222
0.00228481708604
0.0024309492488
0.00248503442746
0.00250587775572
0.00251574808209
0.00252271232169
0.00252953683491
0.00253721565204
0.00254649303998
0.00255890227344
0.00257897002614
0.00262023232257
0.00272538974224
0.00303605604921
0.00399265172098
0.00677967681661
0.0148164107036
0.0364157227313
0.0763194303932
)
;
    }
    sides
    {
        type            kqRWallFunction;
        value           nonuniform List<scalar> 0();
    }
    bottom
    {
        type            kqRWallFunction;
        value           nonuniform List<scalar> 7(0.00181835438843 0.00182239598871 0.0018260386949 0.00182936009784 0.0018323363484 0.00183485576055 0.0018369343222);
    }
    front
    {
        type            kqRWallFunction;
        value           nonuniform List<scalar> 
166
(
0.00249294065061
0.0025004536011
0.00250992003866
0.00252372801976
0.0025478282266
0.00259704001003
0.00271097203643
0.00300803299445
0.00381549868358
0.00575788548791
0.0097765354261
0.0200225315612
0.0668705607015
0.0024854460346
0.00249223993882
0.00249878293186
0.0025062071271
0.00251553909655
0.00252903275482
0.00255244624972
0.00260037246659
0.00271224287333
0.00300649399758
0.00381362298515
0.00577083099646
0.00989562405205
0.020969312803
0.0652214436136
0.00181835438843
0.00226086832938
0.00248125875058
0.00249106270475
0.00249780446794
0.00250431933055
0.0025117026959
0.00252092805606
0.00253412321783
0.00255679334036
0.00260312156656
0.00271203875981
0.00300176680683
0.00381005745005
0.00580311568322
0.0101680174556
0.0232189029572
0.0680225688535
0.00182239598871
0.00226606013567
0.00241163639151
0.002465683816
0.00248653040339
0.00249627679599
0.00250300198516
0.00250951486979
0.00251688968716
0.00252604006602
0.00253897420121
0.0025609504769
0.0026057831906
0.00271220801006
0.00300038435128
0.00382136025807
0.00588977983848
0.0106985153494
0.0258842086767
0.0705075401566
0.0018260386949
0.00227084372119
0.00241653606619
0.00247055964087
0.00249135578062
0.00250108554294
0.00250781958255
0.00251435209642
0.00252174273324
0.00253086087491
0.00254359810409
0.00256500682603
0.00260868906464
0.00271376627118
0.00300458280302
0.003849416739
0.00603927978437
0.0114933513835
0.0287142487963
0.0727340236361
0.00182936009784
0.00227512859842
0.00242092581927
0.00247494194103
0.00249572234494
0.00250546039207
0.00251222522946
0.00251880203782
0.00252623271336
0.00253534734803
0.00254794332438
0.00256889968139
0.00261176339051
0.00271655619837
0.00301317930879
0.00389152279155
0.00624140361291
0.0124784316468
0.0314676580807
0.0746560200946
0.0018323363484
0.00227888995868
0.00242480172726
0.00247882894312
0.00249961294569
0.00250937765683
0.00251619147046
0.00252283193553
0.00253032579624
0.00253946655
0.00255196280173
0.002572570529
0.00261484875661
0.00271998219864
0.00302293270872
0.00393053739677
0.00642685312218
0.013348596533
0.0338009367618
0.075695505616
0.00183485576055
0.00228212324012
0.00242815044891
0.002482200845
0.00250300604411
0.00251281493208
0.00251969486085
0.00252641688171
0.0025339935715
0.00254318842407
0.00255562432558
0.00257594868344
0.00261772754817
0.00272311654717
0.00303101903198
0.00396347955392
0.00659686624199
0.0141381268047
0.035703207192
0.0762854244395
0.0018369343222
0.00228481708604
0.0024309492488
0.00248503442746
0.00250587775572
0.00251574808209
0.00252271232169
0.00252953683491
0.00253721565204
0.00254649303998
0.00255890227344
0.00257897002614
0.00262023232257
0.00272538974224
0.00303605604921
0.00399265172098
0.00677967681661
0.0148164107036
0.0364157227313
0.0763194303932
)
;
    }
    atmosphere
    {
        type            inletOutlet;
        inletValue      uniform 0.1;
        value           uniform 0.1;
    }
    floatingObject
    {
        type            kqRWallFunction;
        value           nonuniform List<scalar> 0();
    }
    procBoundary0to1
    {
        type            processor;
        value           nonuniform List<scalar> 10(0.0025181612898 0.00254287835915 0.00259317202228 0.00270862408759 0.00300736104819 0.00381665664926 0.00577068926139 0.00984141913053 0.0200498198835 0.0691375213435);
    }
    procBoundary0to2
    {
        type            processor;
        value           nonuniform List<scalar> 
14
(
0.00248684364801
0.00249442208474
0.00250403664973
0.00247952487103
0.00248635621615
0.00248635621615
0.00181390496215
0.00225530202571
0.00247562658923
0.00247562658923
0.0024063203863
0.0024063203863
0.00246038556707
0.00246038556707
)
;
    }
    procBoundary0to4
    {
        type            processor;
        value           nonuniform List<scalar> 8(0.00183850735656 0.00228694433705 0.00243316880335 0.00248730031765 0.0025082007871 0.0025181530898 0.00252522593007 0.00253217268498);
    }
    procBoundary0to5
    {
        type            processor;
        value           nonuniform List<scalar> 
12
(
0.00253997462031
0.00254936477144
0.00256178114378
0.00258161860928
0.00262229562982
0.00272659913818
0.00303766761955
0.00401477135305
0.006956149622
0.0153608017044
0.0364040964097
0.0760435953182
)
;
    }
}


// ************************************************************************* //
