/*--------------------------------*- C++ -*----------------------------------*\
| =========                 |                                                 |
| \\      /  F ield         | OpenFOAM: The Open Source CFD Toolbox           |
|  \\    /   O peration     | Version:  v2012                                 |
|   \\  /    A nd           | Website:  www.openfoam.com                      |
|    \\/     M anipulation  |                                                 |
\*---------------------------------------------------------------------------*/
FoamFile
{
    version     2.0;
    format      ascii;
    class       volVectorField;
    location    "4.4";
    object      U_0;
}
// * * * * * * * * * * * * * * * * * * * * * * * * * * * * * * * * * * * * * //

dimensions      [0 1 -1 0 0 0 0];


internalField   nonuniform List<vector> 
166
(
(-0.0543571100178 0.00680839642722 2.66763908052e-23)
(-0.0569921584974 0.00761013542649 1.47691909464e-23)
(-0.0600784241059 0.00837879115114 1.57561193927e-23)
(-0.0636745288858 0.0091016242014 -4.56136824619e-24)
(-0.0678704548512 0.00977416203643 -4.36595491563e-23)
(-0.072795056455 0.0103711057859 -9.9235921423e-23)
(-0.0786983843457 0.0109051986523 -3.09923945306e-22)
(-0.0860283314502 0.0111716799782 -1.8018380952e-21)
(-0.0947786868761 0.012285797577 -6.63465082707e-22)
(-0.103777472587 0.0124545396364 -3.67495015258e-21)
(-0.121408592842 0.0182534080599 -6.445492131e-21)
(-0.177487250518 0.013788417384 -5.9872776918e-21)
(-0.305340058438 -0.0843366450276 -1.6086249827e-20)
(-0.0509916139977 0.00347763656582 -6.77105653738e-24)
(-0.0527918411876 0.00397395813652 -2.17348966374e-25)
(-0.0549657006863 0.00440808495341 -3.25771268559e-24)
(-0.0575463447203 0.00478268215672 2.19895326802e-23)
(-0.0605760032687 0.00509129366048 1.90426455384e-23)
(-0.0640996236982 0.00530022357237 -2.58542727163e-24)
(-0.0681828468564 0.00538301014991 -3.39237642426e-23)
(-0.0729657346831 0.00530692755283 -1.7718566516e-22)
(-0.0786945787846 0.00506785413797 -6.86343457144e-22)
(-0.0858482645777 0.00439434776473 -1.63573506721e-21)
(-0.0947829051786 0.00464933484412 -4.461322649e-21)
(-0.103374433474 0.00237170888375 -1.29980167817e-20)
(-0.120752802026 0.00835343125006 -1.58580540103e-20)
(-0.168195451876 -0.00173380061593 -5.44296661061e-20)
(-0.182185286093 -0.0477248846368 -4.13999703963e-20)
(-0.0492593796438 0.000293357833171 2.66959263144e-23)
(-0.0488304170027 0.000660431858965 2.08449011975e-22)
(-0.0499690452247 0.00162584933208 2.71099471863e-23)
(-0.0513438642218 0.00184087563894 -3.82802338848e-25)
(-0.0530838767483 0.00199095286837 7.41536212589e-25)
(-0.0551918001011 0.00206294583476 -5.18594894634e-24)
(-0.0576817395456 0.0020388406557 -5.67615428923e-24)
(-0.0605957440891 0.00190242238051 -3.22788313254e-24)
(-0.0639773865491 0.00162547296392 -5.00686968363e-24)
(-0.067887692525 0.00116226488076 -6.06545925388e-23)
(-0.0724414696057 0.000471703624145 -3.50246217984e-22)
(-0.0779343062643 -0.00041364414312 -1.31405168786e-21)
(-0.0848419970303 -0.00196064125862 -4.85992171618e-21)
(-0.0937424095833 -0.00212434643764 -2.55201186229e-21)
(-0.102413774148 -0.00683522660934 -9.60879599296e-21)
(-0.117801721592 -0.000931626813799 -1.59616295666e-20)
(-0.153696562103 -0.0149420231228 -3.27784764699e-20)
(-0.139966757897 -0.0550843780949 -2.9035326438e-20)
(-0.0495670221355 0.000147649328064 -2.03903082305e-23)
(-0.049100521517 0.000250912438412 1.28614713542e-22)
(-0.048811761448 0.000342754167481 9.42034018338e-23)
(-0.0491656115282 0.000382928535777 9.21689728153e-23)
(-0.050061205614 0.000350588841099 2.32668837153e-23)
(-0.0513705115899 0.000256522686078 2.14793660046e-24)
(-0.0530308289357 8.43252411924e-05 4.35349281301e-24)
(-0.0550413916987 -0.000188836055111 -1.55714728242e-23)
(-0.0574139165777 -0.000587188886862 -3.01783292106e-23)
(-0.060173161402 -0.00113861207594 -3.14644840099e-23)
(-0.0633592519574 -0.00188039336185 -7.19236541045e-23)
(-0.0670518138273 -0.00284631023639 -9.47531400002e-23)
(-0.071340204928 -0.00411631069121 -3.58494876567e-22)
(-0.0765101035427 -0.00564720700984 -1.43720131705e-21)
(-0.0830597120255 -0.0079544247756 -3.46125911268e-21)
(-0.0914079485227 -0.00899336745792 3.83645640908e-21)
(-0.100407434994 -0.0156631797314 -2.88898008253e-21)
(-0.113296332248 -0.00943095307468 -1.1134399115e-20)
(-0.133130877466 -0.0272513728388 -8.58661894435e-21)
(-0.113165181646 -0.0610839000831 -7.87458450705e-21)
(-0.0496153742947 6.85450563848e-06 -3.88051461347e-22)
(-0.0490984953497 -0.000143877553747 -1.4763972138e-22)
(-0.0487460966893 -0.000310231836092 -6.01965788887e-23)
(-0.0490330994253 -0.000545893089002 4.3205920012e-23)
(-0.0498604754717 -0.000854984325138 8.84789759855e-24)
(-0.0510929099377 -0.00123396401636 -8.0201812447e-25)
(-0.0526583892823 -0.00171020859894 -2.52641666603e-24)
(-0.0545422821587 -0.00231285968266 -2.42032247122e-24)
(-0.0567614747433 -0.00306406094662 -7.51522749958e-24)
(-0.059335017763 -0.00399288007183 -2.16082509234e-23)
(-0.0623001581928 -0.00516222035081 -1.2350905881e-23)
(-0.0657076852194 -0.00661024767189 -7.64230237034e-23)
(-0.0696642041961 -0.00840303112627 -2.98997989693e-22)
(-0.0744040711359 -0.0105495097242 -9.31011979444e-22)
(-0.0804044196608 -0.0135361918613 -3.17750476849e-21)
(-0.087814031386 -0.0157721241323 8.21084038404e-22)
(-0.0961666243302 -0.0241840640248 -3.4276699617e-21)
(-0.107720648159 -0.0176127144402 -7.05612722851e-21)
(-0.112593575798 -0.03800286108 -5.02959765936e-21)
(-0.0949551668843 -0.0682018160453 -3.43166552813e-21)
(-0.0494218599828 -0.000121324267697 -5.58220158697e-22)
(-0.0488367415839 -0.000514439110738 -2.73908242861e-22)
(-0.0484207988565 -0.00092626896652 -6.9987557976e-23)
(-0.0486352213197 -0.0014121081609 4.64907067035e-23)
(-0.0493867135776 -0.00198010943094 2.55321342052e-23)
(-0.0505270398809 -0.00262946659743 1.88862000819e-23)
(-0.0519817715901 -0.00338633942473 8.09248575649e-24)
(-0.0537223797189 -0.00428602773251 1.12927240762e-23)
(-0.0557613777277 -0.00535681143218 1.85711372787e-23)
(-0.0581154688872 -0.00663566774556 1.02669162153e-23)
(-0.0608228209635 -0.00817130892871 -7.91261014789e-24)
(-0.0638777724405 -0.0100209603963 -8.89295819958e-23)
(-0.067435858755 -0.0122941802325 -2.25582305538e-22)
(-0.0716577796714 -0.0150508383249 -9.61227907133e-22)
(-0.0768606782912 -0.0186330991386 -2.65467314573e-21)
(-0.0830948629129 -0.0222305495597 7.85041056151e-22)
(-0.0900589452083 -0.0325242970662 -5.86808926213e-21)
(-0.100846531279 -0.0258674632159 -8.06842437857e-21)
(-0.0930167162215 -0.0493443257364 -1.56635552361e-20)
(-0.079963424398 -0.0777445207274 -1.11786909283e-20)
(-0.0489826609608 -0.000241823922419 -4.94697869307e-22)
(-0.0483409445804 -0.000860048776937 -2.28601778282e-22)
(-0.047851795773 -0.00150119141058 7.63224089062e-25)
(-0.0479957176698 -0.00221649237811 6.26791449811e-23)
(-0.0486638334998 -0.00302182121829 2.03593953584e-23)
(-0.0497023843978 -0.00391820497593 5.47963897383e-24)
(-0.0510286277376 -0.00493149537774 8.23830029586e-24)
(-0.0526133973805 -0.0060926651664 1.54323373907e-23)
(-0.0544546134641 -0.00743787670687 1.38311049961e-23)
(-0.0565651900714 -0.00901251795579 1.69789420414e-23)
(-0.058960160598 -0.0108462627301 5.25068861565e-24)
(-0.0616547878328 -0.0130496781565 -5.96823233391e-23)
(-0.0647572417852 -0.0157230697526 -1.35853784874e-22)
(-0.0683537084229 -0.0189299794868 -4.77295033745e-22)
(-0.0725413981135 -0.0229754348573 3.88151725705e-22)
(-0.0773140950032 -0.0277698287201 8.60905868907e-22)
(-0.0824067336171 -0.038823060444 6.23429213607e-22)
(-0.091372052432 -0.0322937563631 -5.78835368365e-21)
(-0.0709082928435 -0.0600148863159 -1.73228424143e-20)
(-0.0634820496443 -0.0931779426936 -9.78393310048e-21)
(-0.0483209669614 -0.000355855097989 -3.72340379331e-22)
(-0.0476248372186 -0.00117768556142 -1.24093148603e-22)
(-0.0470647511906 -0.00202999358555 2.60836731638e-23)
(-0.0471348384704 -0.00295672043783 9.64477150311e-23)
(-0.0477161793357 -0.00397271757939 3.43765671948e-23)
(-0.0486489744537 -0.00508563608979 9.17354836703e-24)
(-0.0498393439986 -0.00631867586959 -2.25279639915e-24)
(-0.0512542202425 -0.0077051200007 -7.92057856757e-24)
(-0.0528856317493 -0.00928264678303 -1.45650600808e-24)
(-0.054736291865 -0.011094522006 6.05500170619e-24)
(-0.0568047917536 -0.0131809132678 9.82658782768e-24)
(-0.0591296989888 -0.0156513157617 -2.86955375541e-23)
(-0.061711796592 -0.0185967270276 -3.77889984037e-23)
(-0.0646275305228 -0.0221124156917 -5.04357967504e-22)
(-0.0677726885677 -0.026439151232 -2.26601947864e-21)
(-0.0709015814339 -0.031969343565 3.27660603865e-21)
(-0.0738759569435 -0.0428183004073 -1.73890137765e-21)
(-0.079630263077 -0.0368763767725 -4.18570293195e-21)
(-0.0415104580139 -0.0676221465748 -6.94407888276e-21)
(-0.0487410791742 -0.10430642414 -2.5362238473e-22)
(-0.0474562208383 -0.000454931489169 -2.20977236351e-22)
(-0.0467072429368 -0.00146308204896 -8.1651675054e-23)
(-0.0460804939822 -0.00250837322027 1.05525022278e-23)
(-0.0460723102816 -0.00362439198178 7.49269201003e-23)
(-0.0465667339311 -0.00482779724533 3.22244591546e-23)
(-0.0473913622372 -0.00612711683977 4.77183795491e-24)
(-0.0484452976156 -0.00754657317873 -1.18615187988e-23)
(-0.0496893937322 -0.00911881228619 -6.19390015171e-24)
(-0.0511096422953 -0.0108815550726 -6.8013027879e-24)
(-0.0526974112821 -0.0128759518652 -2.61475403279e-24)
(-0.0544432025066 -0.0151551276159 1.60015646875e-23)
(-0.056357938804 -0.0178005589865 1.85098887083e-23)
(-0.0584134028318 -0.0208952636138 2.43116104235e-23)
(-0.0606417629331 -0.0245747552784 -3.08813894202e-22)
(-0.0627814040068 -0.029003496878 -1.11999026532e-21)
(-0.064297672243 -0.0350052635864 9.16578554524e-22)
(-0.065211310769 -0.0455031487484 -9.90201755292e-22)
(-0.0673776897489 -0.0407100072232 -9.42474215411e-21)
(-0.0137382029721 -0.0674999809436 -2.11827917381e-20)
(-0.0387182577395 -0.0913048077114 -9.8467009223e-21)
)
;

boundaryField
{
    back
    {
        type            noSlip;
    }
    sides
    {
        type            noSlip;
    }
    bottom
    {
        type            noSlip;
    }
    front
    {
        type            noSlip;
    }
    atmosphere
    {
        type            pressureInletOutletVelocity;
        value           nonuniform List<vector> 9((0 -0.0843366450276 0) (0 -0.0477248846368 0) (0 -0.0550843780949 0) (0 -0.0610839000831 0) (0 -0.0682018160453 0) (0 -0.0777445207274 0) (0 -0.0931779426936 0) (0 -0.10430642414 0) (0 -0.0913048077114 0));
    }
    floatingObject
    {
        type            movingWallVelocity;
        value           nonuniform List<vector> 0();
    }
    procBoundary0to1
    {
        type            processor;
        value           nonuniform List<vector> 10((-0.0626802698229 0.0129997386135 -5.73636448485e-23) (-0.0668957205551 0.0143121739546 -5.45953009536e-23) (-0.0718437984901 0.015640704342 -2.18497311671e-22) (-0.0777655859887 0.0170637735026 -2.68175294587e-22) (-0.0850588879618 0.0184336160465 -1.28135340352e-21) (-0.0936235841791 0.0208812236306 3.0692614672e-21) (-0.102580443385 0.0226272432945 4.60813821351e-21) (-0.11956643115 0.0282483580468 -3.225463717e-21) (-0.186292440297 0.0290355890756 -1.64442138937e-20) (-0.528538016541 -0.112577721696 -1.21865071126e-20));
    }
    procBoundary0to2
    {
        type            processor;
        value           nonuniform List<vector> 
14
(
(-0.0533484281124 0.00922637175166 9.63601122456e-24)
(-0.0559874743594 0.0104643270163 2.52428024732e-23)
(-0.0590788576377 0.0117167047479 5.11508426882e-23)
(-0.0502991228749 0.00513189767146 -4.79103333442e-24)
(-0.0521385311383 0.00598174938768 2.22243629059e-23)
(-0.0521385311383 0.00598174938768 2.22243629059e-23)
(-0.0486685223089 0.000437273957768 -3.43732671358e-22)
(-0.048284346185 0.00108152575916 -8.08167516033e-23)
(-0.0495642678792 0.00293561802732 -1.39884337506e-23)
(-0.0495642678792 0.00293561802732 -1.39884337506e-23)
(-0.0486039434985 0.00102707480698 1.50287405024e-22)
(-0.0486039434985 0.00102707480698 1.50287405024e-22)
(-0.0490137303042 0.00135679116101 1.14457312725e-22)
(-0.0490137303042 0.00135679116101 1.14457312725e-22)
)
;
    }
    procBoundary0to4
    {
        type            processor;
        value           nonuniform List<vector> 8((-0.0464097211075 -0.000543898796003 -2.09880488718e-22) (-0.0456106734605 -0.00171867849466 -6.45384714317e-23) (-0.04491658414 -0.00293337037058 -2.87389977129e-23) (-0.0448324805004 -0.00421788867605 3.97337593826e-23) (-0.0452402360582 -0.00558665710154 1.98075785898e-23) (-0.0459587794513 -0.00704836715215 5.27470747617e-24) (-0.0468799669427 -0.00862594818595 -4.88475478287e-24) (-0.0479580086121 -0.0103489239712 -3.28604936007e-24));
    }
    procBoundary0to5
    {
        type            processor;
        value           nonuniform List<vector> 
12
(
(-0.0491739595501 -0.0122515406778 1.21802239116e-25)
(-0.0505106205451 -0.0143734581019 5.56395218271e-24)
(-0.0519477088002 -0.0167625315009 1.70307256687e-23)
(-0.0534581550283 -0.0194825673496 5.15762568346e-23)
(-0.0550106723741 -0.0226263976451 1.09275697628e-22)
(-0.0565675249701 -0.0263126637913 -1.38496707082e-25)
(-0.0577471837161 -0.0305979944391 -9.12361630864e-22)
(-0.0577753960397 -0.036715818516 1.23300329377e-21)
(-0.0569334958333 -0.0465481928608 -6.7541946471e-21)
(-0.0569465683483 -0.0429130001361 -9.37273118542e-21)
(-0.001567204674 -0.0617247493696 -1.37817810811e-20)
(-0.0282297427335 -0.0662124402737 -9.61650272156e-21)
)
;
    }
}


// ************************************************************************* //
