/*--------------------------------*- C++ -*----------------------------------*\
| =========                 |                                                 |
| \\      /  F ield         | OpenFOAM: The Open Source CFD Toolbox           |
|  \\    /   O peration     | Version:  v2012                                 |
|   \\  /    A nd           | Website:  www.openfoam.com                      |
|    \\/     M anipulation  |                                                 |
\*---------------------------------------------------------------------------*/
FoamFile
{
    version     2.0;
    format      ascii;
    class       surfaceScalarField;
    location    "5.5";
    object      alphaPhi0.water;
}
// * * * * * * * * * * * * * * * * * * * * * * * * * * * * * * * * * * * * * //

dimensions      [0 3 -1 0 0 0 0];
oriented        oriented;


internalField   nonuniform List<scalar> 
306
(
-3.67976489442e-05
2.80166734096e-06
-3.87486358826e-05
1.95172388489e-06
-3.95106555141e-05
7.63263791829e-07
-3.87476849128e-05
-7.61272403737e-07
-3.5950249025e-05
-2.79568599762e-06
-3.00590713499e-05
-5.88953737572e-06
-2.17423993935e-05
-8.3152707434e-06
-1.17973338855e-05
-9.94399274007e-06
4.06403177446e-06
-1.10811291419e-05
-5.95517243475e-07
2.91681958957e-06
-5.53349703598e-07
-1.91971317619e-09
4.70889413193e-08
-4.1072670372e-05
6.20575459376e-06
-4.3705642698e-05
4.58562506403e-06
-4.53626830685e-05
2.42173383237e-06
-4.57753822107e-05
-3.46832469234e-07
-4.45769658702e-05
-3.99234654713e-06
-4.23962793665e-05
-8.0686700849e-06
-3.91745463849e-05
-1.15353794348e-05
-3.15415345924e-05
-1.7575534884e-05
-8.49559306138e-06
-2.39845337106e-05
-1.05038234239e-07
-1.1609585874e-05
8.595639212e-09
-1.12349943834e-08
4.1295547829e-09
-4.48705909982e-05
-4.82338104041e-05
7.94965947156e-06
-5.08154410571e-05
5.00487935311e-06
-5.24802726342e-05
1.31968841211e-06
-5.32804456211e-05
-3.19060197476e-06
-5.30890856755e-05
-8.2586611201e-06
-5.16092995037e-05
-1.3013953865e-05
-4.21894487176e-05
-2.69942065466e-05
-1.15429386637e-05
-4.30978929478e-05
-1.06077540735e-07
-2.61875859231e-05
-3.78706458949e-09
1.24846367813e-11
3.41795590081e-10
-5.24691353411e-05
-5.60176694627e-05
8.55407850768e-06
-5.88347772115e-05
4.13785782708e-06
-6.09906832678e-05
-1.03341033429e-06
-6.26105147664e-05
-6.63765102937e-06
-6.2091989824e-05
-1.35318315782e-05
-5.38834667203e-05
-3.52024161386e-05
-2.02996776385e-05
-6.24859765544e-05
-3.05724121868e-08
-3.97141428006e-05
-3.2609146742e-10
1.17601432806e-09
1.62376749878e-11
-6.08709413058e-05
1.29320486776e-05
-6.47092051339e-05
7.97665485858e-06
-6.78491210218e-05
2.1074950798e-06
-6.97349857877e-05
-4.75104074406e-06
-6.89346147178e-05
-1.43318209764e-05
-6.31792359953e-05
-4.09579129882e-05
-3.29829146395e-05
-7.52354106643e-05
1.10433519297e-07
-4.73580326211e-05
-1.66752529563e-11
2.87062195384e-09
1.17575023129e-13
-6.57732168438e-05
1.81649808149e-05
-7.04474324569e-05
1.26506580603e-05
-7.38375111224e-05
5.4979828468e-06
-7.49405891209e-05
-3.64751324163e-06
-7.26704959621e-05
-1.66014876288e-05
-7.04930278437e-05
-4.31355233049e-05
-5.1046038387e-05
-7.31063711335e-05
1.19837360927e-07
-4.49209546373e-05
-3.43903944817e-15
-1.7130909183e-09
1.98936530921e-14
-7.11269078259e-05
2.45322253719e-05
-7.70452167023e-05
1.85688606649e-05
-8.1820581746e-05
1.02733275104e-05
-8.39658667116e-05
-1.50196187096e-06
-8.29980461533e-05
-1.75703150703e-05
-8.57228406851e-05
-4.04108549273e-05
-7.36985198449e-05
-5.91248278911e-05
-1.1845357209e-07
-3.36501685837e-05
-8.82985673358e-09
-5.54105681412e-09
8.38130535744e-10
-7.70323958887e-05
3.23460317924e-05
-8.49813158825e-05
2.65179848907e-05
-9.28508768841e-05
1.81419914062e-05
-0.000100303757282
5.95084610045e-06
-0.000107545070409
-1.0329571498e-05
-0.000117350395754
-3.06060397737e-05
-0.000105130670934
-4.05541136343e-05
-1.36366036219e-07
-2.15289408798e-05
-8.33349792573e-10
7.03391350386e-09
4.76974680574e-12
-8.29100814898e-05
4.17864881308e-05
-9.32637442532e-05
3.68720184063e-05
-0.000104957987558
2.98358369499e-05
-0.000118826506937
1.98185276601e-05
-0.00013562147668
6.46509612176e-06
-0.000154975558231
-1.12533524925e-05
-0.000139173715352
-2.29842477458e-05
3.36176424074e-07
-1.22879999869e-05
-4.73765700562e-12
-5.04949964368e-09
1.63075799372e-13
-8.80132987775e-05
5.26316095542e-05
-0.000100359456028
4.92176175931e-05
-0.000114859937233
4.43362139287e-05
-0.000132970830866
3.79291243963e-05
-0.000155934935482
2.9429020799e-05
-0.000181154208174
1.39655399997e-05
-0.000169872856337
-2.14935052719e-06
-3.84991285717e-07
-4.94673645844e-06
-6.31997069543e-08
-7.86318479584e-10
2.50015795075e-09
-9.17405152843e-05
6.43054993695e-05
-0.000105148720896
6.26252594654e-05
-0.000121061337333
6.02486926309e-05
-0.000140677959856
5.75457661594e-05
-0.000165111516322
5.38622677927e-05
-0.0001925135172
4.13676235072e-05
-0.00018877518109
2.17750647679e-05
1.22720776462e-07
3.2838223996e-06
-2.43310310301e-09
-1.69466537191e-09
6.71287575325e-11
-9.36904680231e-05
7.6363093918e-05
-0.000107426311493
7.63609969844e-05
-0.000123439752207
7.6262399593e-05
-0.000142440863899
7.65466316281e-05
-0.000165121598351
7.65428274939e-05
-0.000191704763649
6.79508347727e-05
-0.000196973362078
4.87631852236e-05
9.15307130748e-07
1.49749444352e-05
-2.14903582852e-08
1.03101941927e-08
2.70013538958e-09
-9.38414532813e-05
8.83448085446e-05
-0.000107391068494
8.99106940334e-05
-0.000122819876312
9.16918812268e-05
-0.000140259815449
9.39887189632e-05
-0.00015992186166
9.62047704915e-05
-0.00018379446776
9.18234240022e-05
-0.000196207932026
7.70913293751e-05
-1.56890859346e-06
2.94988471705e-05
-7.9902633827e-09
-3.73154812927e-08
1.37928621336e-08
-9.25967670455e-05
0.00010005610605
-0.000105576184322
0.000102890462498
-0.000120034096476
0.000106150874459
-0.000135911499248
0.000109868966226
-0.000153186783728
0.000113479996753
-0.00017390558679
0.000112542220882
-0.000189514066743
0.000103450383353
6.23988532486e-07
4.58779584125e-05
-1.5833118425e-07
2.60275409234e-08
4.45904064108e-09
-9.00183464492e-05
0.000111198347189
-0.000102274328147
0.000115147001214
-0.0001156514198
0.000119529433616
-0.000130088076549
0.000124309442475
-0.000145494194264
0.000128884131947
-0.000163332935569
0.000130380951319
-0.000178879257669
0.000125730403718
2.48893915044e-06
6.22531664026e-05
-4.81162317683e-08
1.48823942762e-09
1.11352900571e-08
-8.63644390885e-05
-9.77618725826e-05
-0.000109991006954
-0.000122952715674
-0.000136558195112
-0.000151561873981
-0.000165256398994
-8.34335788418e-06
-8.56355946936e-08
)
;

boundaryField
{
    back
    {
        type            calculated;
        value           uniform 0;
    }
    sides
    {
        type            calculated;
        value           uniform 0;
    }
    bottom
    {
        type            calculated;
        value           nonuniform List<scalar> 0();
    }
    front
    {
        type            calculated;
        value           uniform 0;
    }
    atmosphere
    {
        type            calculated;
        value           nonuniform List<scalar> 
16
(
-5.92420030672e-07
1.2126710615e-09
8.12030754535e-13
9.02545402809e-15
-2.22912331768e-14
-5.28782820319e-14
-9.66793831058e-09
6.58044951407e-15
-7.41814687747e-15
-6.57000156073e-08
-5.43996846513e-16
-2.41149247147e-08
-1.90735206639e-08
-1.4901490914e-07
-5.46868856458e-08
-7.44978769006e-08
)
;
    }
    floatingObject
    {
        type            calculated;
        value           nonuniform List<scalar> 0();
    }
    procBoundary1to0
    {
        type            processor;
        value           nonuniform List<scalar> 10(0.000121795639057 0.000126544959646 0.00013176001784 0.000137275728404 0.000142488865346 0.000145384613732 0.000143564903382 7.82521672361e-05 -9.57716953311e-08 -3.95556494855e-13);
    }
    procBoundary1to2
    {
        type            processor;
        value           nonuniform List<scalar> 
18
(
3.39962355479e-05
3.76688761294e-05
4.08973643651e-05
1.01795352843e-05
4.83780161067e-05
1.20414375059e-05
5.64940918319e-05
6.05414225468e-05
6.47593879199e-05
6.92183171151e-05
7.34693527985e-05
7.7167930341e-05
8.00664041656e-05
8.16323539604e-05
8.18593738738e-05
8.08852331952e-05
7.88759531048e-05
7.576669196e-05
)
;
    }
}


// ************************************************************************* //
