/*--------------------------------*- C++ -*----------------------------------*\
| =========                 |                                                 |
| \\      /  F ield         | OpenFOAM: The Open Source CFD Toolbox           |
|  \\    /   O peration     | Version:  v2012                                 |
|   \\  /    A nd           | Website:  www.openfoam.com                      |
|    \\/     M anipulation  |                                                 |
\*---------------------------------------------------------------------------*/
FoamFile
{
    version     2.0;
    format      ascii;
    class       volVectorField;
    location    "5.5";
    object      U;
}
// * * * * * * * * * * * * * * * * * * * * * * * * * * * * * * * * * * * * * //

dimensions      [0 1 -1 0 0 0 0];


internalField   nonuniform List<vector> 
167
(
(0.000374571126094 -0.00707384875957 4.23974123242e-22)
(0.000303449550989 -0.0075381342316 3.75352324966e-22)
(0.000202095335836 -0.00780637978487 1.06805566419e-22)
(4.20859404288e-05 -0.00787377768585 -1.6541679479e-22)
(-0.000226493617428 -0.00746624104431 -5.41743292647e-22)
(-0.000745755774662 -0.00613624826947 -1.34224241388e-21)
(-0.00153593596171 -0.00461761701476 -6.12619297116e-22)
(-0.00220302641256 -0.00152083963214 5.98832521695e-21)
(-0.000434483693181 -0.0113062386883 1.72477510543e-20)
(0.0155275662716 -0.000247065410694 6.02900847929e-20)
(0.0254112217451 0.00823155137196 5.71668846918e-20)
(0.010477712719 -0.0358019162974 3.58026358659e-21)
(0.000906391234657 -0.00786557151935 1.28770268132e-22)
(0.000654896116602 -0.00846177823508 9.85834248584e-23)
(0.00031713871754 -0.00888528887981 -1.06041115848e-22)
(-0.000141875639907 -0.00913941207064 -2.51843104537e-22)
(-0.000764561014016 -0.00899645083666 -6.79457372261e-22)
(-0.00147521844424 -0.00809845387952 -2.2891176527e-21)
(-0.00191731986833 -0.00732145829412 -5.19419990671e-21)
(-0.00226617637719 -0.00637331036902 -1.15128966686e-20)
(-0.00365465054694 -0.0161690159075 -1.09575679645e-20)
(-0.00618620373283 -0.00479830004066 -1.16482115423e-20)
(-0.00100489834929 0.0124295657311 -1.03228575881e-20)
(0.023579155815 0.0549756379924 9.75828834825e-21)
(0.00161837256147 -0.00856741000542 5.03711681172e-25)
(0.0012302953201 -0.00929710331881 -4.78792033804e-24)
(0.000715482129805 -0.00988192687673 -1.63744986145e-22)
(6.37298051917e-05 -0.0103395954331 -3.64075949048e-22)
(-0.00075881037479 -0.0105199495301 -8.86841979731e-22)
(-0.00172191966384 -0.0100476570722 -2.2387716668e-21)
(-0.00254739809492 -0.00970627879209 -7.58741268373e-21)
(-0.00450366981093 -0.00925451911006 -2.04092086482e-20)
(-0.00674881217271 -0.0177415215801 -2.96828461424e-20)
(-0.0130932176224 -0.00517975714164 -5.19974374232e-20)
(-0.0104461471152 0.0101742877432 -4.83080212922e-20)
(-0.00850141017492 0.0321736324983 -1.18371159732e-20)
(0.00200128597762 -0.0100669000165 -5.94708056143e-23)
(0.00135333808036 -0.0108167894422 -9.83231449436e-23)
(0.000540017991143 -0.0114826937187 -2.88515625719e-22)
(-0.000427524988271 -0.0119409306867 -6.46595145416e-22)
(-0.0015049807122 -0.0118378820751 -1.2928277389e-21)
(-0.00268046926062 -0.0117768241553 -2.88293976139e-21)
(-0.00628072650875 -0.0117381160994 -6.79069711028e-21)
(-0.011392062997 -0.0199482498615 -1.67726927643e-20)
(-0.0244961393357 -0.00877009970983 -2.95843532239e-20)
(-0.020259775155 0.0054261150072 -2.94779768324e-20)
(-0.0117067642707 0.0199377562741 -7.87634667714e-21)
(0.00216307390052 -0.0117122651529 -9.19228960846e-23)
(0.001228030506 -0.0125448890716 -3.08232951654e-22)
(0.000133666504296 -0.0132151212402 -7.9788304531e-22)
(-0.00106786831348 -0.01339013951 -1.33624536607e-21)
(-0.00265341376485 -0.0132615486368 -1.85053062564e-21)
(-0.00758884657989 -0.013208231696 -2.7572232829e-21)
(-0.0151541563005 -0.0220292113777 -6.08570556391e-21)
(-0.0320240595236 -0.0144069201774 -1.13136449869e-20)
(-0.0247493540128 -0.00192579406077 -9.90534980081e-21)
(-0.0122038066744 0.000117792363327 -1.8147837354e-21)
(0.00313514155927 -0.0126235241587 -8.86426929491e-23)
(0.00209148269432 -0.0136173951037 -2.98608097808e-22)
(0.000807627974956 -0.0144397891043 -1.09312717584e-21)
(-0.000717198662829 -0.014765023185 -2.00331393364e-21)
(-0.0028774321547 -0.014292991835 -2.53118985076e-21)
(-0.00827989089513 -0.0140127949135 -1.51575343781e-22)
(-0.0160711400544 -0.0236162302149 5.94768161322e-21)
(-0.0327332371536 -0.0215233701009 8.95081614806e-21)
(-0.0233794351299 -0.0108970275428 9.05245030817e-21)
(-0.00865691048101 -0.0269406309521 1.51850789049e-21)
(0.00429575964965 -0.0135931646537 -1.18222406522e-22)
(0.00315005069159 -0.0148390573473 -3.89635037492e-22)
(0.00160151048862 -0.0159257335404 -1.21072212835e-21)
(-0.000508424045558 -0.0165610805683 -2.65451557467e-21)
(-0.00346530188556 -0.0163869977783 -5.85635087654e-21)
(-0.00839302240737 -0.016607204788 -9.60423545879e-21)
(-0.0137522588849 -0.0260259500333 7.00143355644e-21)
(-0.0256656189543 -0.0277090118649 2.24479461394e-20)
(-0.0161795335717 -0.0208349825374 2.27279712874e-20)
(0.00139673523173 -0.0482474279077 5.08664317861e-21)
(0.0057096117811 -0.014625192537 -1.36444118884e-22)
(0.00452546919085 -0.0162180811038 -4.17377590581e-22)
(0.00283809318858 -0.0178301760058 -1.02339470104e-21)
(0.000374942157312 -0.0192989273533 -1.84054704542e-21)
(-0.00300404216888 -0.0204975259851 -4.50204178019e-21)
(-0.00728387566113 -0.0227861826605 -9.3268235866e-21)
(-0.00992002087492 -0.0313066428941 1.90051935979e-21)
(-0.0158712610671 -0.0331496224653 -5.28544540991e-21)
(-0.00678129780199 -0.0285698084238 -5.37058796498e-21)
(0.011890419567 -0.0536730187385 4.69578855577e-22)
(0.00743472189973 -0.0156402578471 -1.15989015369e-22)
(0.00635178623564 -0.0176201253099 -3.61543608668e-22)
(0.00479028907584 -0.0198219899823 -7.28784027752e-22)
(0.00252036726477 -0.0222582210108 -1.30076864281e-21)
(-0.00052322049787 -0.0251300488611 -2.46461749661e-21)
(-0.00429323897395 -0.0298800273762 -4.78671659499e-21)
(-0.00633956751253 -0.0370744951068 -6.22192333297e-21)
(-0.00854222123878 -0.0377187870446 -9.58678526991e-21)
(-0.000528260256961 -0.0355310285657 -9.45979958761e-21)
(0.0165490364328 -0.0490145206116 -1.13553745041e-21)
(0.00946539470671 -0.0165163040347 -1.06824948801e-22)
(0.00862713305105 -0.0188244306245 -3.18813107806e-22)
(0.00742740659358 -0.0214926220043 -5.91536065131e-22)
(0.00576781754456 -0.0246330072192 -1.05056249134e-21)
(0.00359908641503 -0.0286037742645 -2.03282767862e-21)
(0.000311149870661 -0.0346360522334 -4.31178234135e-21)
(-0.0024240662123 -0.0409078205153 -5.81341160449e-21)
(-0.00384951918918 -0.040992057724 -1.33908141701e-20)
(0.00207364855261 -0.0417020347151 -1.3279166988e-20)
(0.0135230214784 -0.0462035692184 -1.72138028962e-21)
(0.0117256128521 -0.0171781587962 -1.07760087078e-22)
(0.0112136358949 -0.0196796730176 -3.03051074972e-22)
(0.0104888030154 -0.0225853768112 -5.64855500468e-22)
(0.00959454522562 -0.0260599828224 -9.84238171083e-22)
(0.00842147337395 -0.0303880862578 -1.41156437799e-21)
(0.00559116531282 -0.0364940341006 -1.84989676262e-21)
(0.00194467818864 -0.0421952567064 -6.57094968995e-21)
(-0.000124287430255 -0.0419814867092 -1.13887158502e-20)
(0.00294508698378 -0.0449208829462 -1.1302865494e-20)
(0.0101001586024 -0.0506964346925 1.26476555545e-22)
(0.0141045047789 -0.0175394543727 -1.03052501442e-22)
(0.0139363409956 -0.0201064693337 -2.42494783906e-22)
(0.0136963752745 -0.0230654218543 -4.71589275673e-22)
(0.0134897886987 -0.0265598730849 -9.91006778763e-22)
(0.0131778430397 -0.0306833465853 -2.11033241004e-21)
(0.0110032537781 -0.0361643537261 -3.30537925987e-21)
(0.00703455270804 -0.0415671421683 -7.31776956917e-21)
(0.00394856997975 -0.0408124530387 -1.16740800198e-20)
(0.00508459324841 -0.0462463663635 -1.20896318312e-20)
(0.00826533846399 -0.0554677021227 -3.74416259562e-21)
(0.0165125862452 -0.0175834484003 -8.1815001728e-23)
(0.0166696041261 -0.020133536232 -1.45830000668e-22)
(0.0168445335669 -0.0230249167961 -3.76744433905e-22)
(0.0171275517735 -0.0263456783497 -7.95557486864e-22)
(0.0173935372348 -0.0300346216162 -2.36296827232e-21)
(0.0160915471167 -0.0346379324233 -5.39443411435e-21)
(0.0126062901982 -0.0396543382787 -2.74961153643e-22)
(0.00889378205392 -0.038623808808 -1.01784070176e-20)
(0.00924462314792 -0.0458196599787 -1.0581469198e-20)
(0.00665380340043 -0.0553237151158 -1.81827301965e-21)
(0.0188857708315 -0.0173638394757 -1.03347246781e-22)
(0.0193277778505 -0.0198329296319 -1.6696807797e-22)
(0.0198366938531 -0.0225906675414 -4.34269717398e-22)
(0.0204461418932 -0.0256725963628 -8.07447300882e-22)
(0.0210413273425 -0.0289569922116 -2.10042214722e-21)
(0.0205252840892 -0.0328451173033 -2.16267081125e-21)
(0.018135053697 -0.0373289752256 -5.58561169456e-21)
(0.0143738430917 -0.0357842009894 -6.5893314863e-21)
(0.0138744151719 -0.0438464859405 -6.32240235035e-21)
(0.00455378298778 -0.057944374161 -2.92632215259e-21)
(0.021190116856 -0.0169169491183 -8.00429270597e-23)
(0.0218551075547 -0.0192582093523 -7.92445641452e-23)
(0.0226198144024 -0.0218376848519 -1.86945522928e-22)
(0.0234644635271 -0.0246695023669 -1.2607014904e-22)
(0.0242766406702 -0.0276329362356 3.55541310527e-22)
(0.0243535684332 -0.0309470163398 2.67727196083e-21)
(0.0230108967674 -0.034885962255 2.18286924245e-21)
(0.0198147102862 -0.0326838116547 -4.98175626849e-21)
(0.0209265099 -0.041185920854 -5.39336751031e-21)
(0.00357024982025 -0.0558641397568 -5.46220146536e-22)
(0.0233771261859 -0.0162510444045 -6.45067635818e-23)
(0.0242222044599 -0.0184474727401 -9.22197383208e-23)
(0.0251758365016 -0.0208197729685 -1.91173475837e-22)
(0.0261951999748 -0.0233995107218 -1.57485217175e-22)
(0.0271618779351 -0.0261006687298 1.54954873127e-22)
(0.0276168169468 -0.0288352506227 2.83759184145e-21)
(0.0269975379381 -0.0321406704459 -1.45132207936e-21)
(0.0248387616549 -0.02970576022 -4.50505812299e-21)
(0.0196299979644 -0.038077817808 -4.31260009604e-21)
(-0.0015348934566 -0.0337187580666 -3.46258925993e-21)
)
;

boundaryField
{
    back
    {
        type            noSlip;
    }
    sides
    {
        type            noSlip;
    }
    bottom
    {
        type            noSlip;
    }
    front
    {
        type            noSlip;
    }
    atmosphere
    {
        type            pressureInletOutletVelocity;
        value           nonuniform List<vector> 
16
(
(0 -0.0358019162974 0)
(0.023579155815 0.0549756379924 9.75828834825e-21)
(-0.00850141017492 0.0321736324983 -1.18371159732e-20)
(-0.0117067642707 0.0199377562741 -7.87634667714e-21)
(0 0.000117792363327 0)
(0 -0.0269406309521 0)
(0 -0.0482474279077 0)
(0 -0.0536730187385 0)
(0 -0.0490145206116 0)
(0 -0.0462035692184 0)
(0 -0.0506964346925 0)
(0 -0.0554677021227 0)
(0 -0.0553237151158 0)
(0 -0.057944374161 0)
(0 -0.0558641397568 0)
(0 -0.0337187580666 0)
)
;
    }
    floatingObject
    {
        type            movingWallVelocity;
        value           nonuniform List<vector> 0();
    }
    procBoundary1to0
    {
        type            processor;
        value           nonuniform List<vector> 10((0.0254105469124 -0.0153778018236 -3.13794203635e-23) (0.0264103711723 -0.017409574769 -8.26745423209e-23) (0.0275116278536 -0.0195621018002 -2.36565692415e-22) (0.0286449735749 -0.0218681370734 -7.70135594636e-22) (0.0296988107679 -0.0243408393804 -1.74547128114e-21) (0.0303508784958 -0.026516817834 2.92442306267e-23) (0.0303531678727 -0.0292376049224 -4.81010343594e-21) (0.0294570684715 -0.0269105016373 -5.0178299377e-21) (0.0175191300022 -0.0302160410707 -4.49244143913e-21) (-0.007784429599 0.00521320362289 -7.85138972433e-21));
    }
    procBoundary1to2
    {
        type            processor;
        value           nonuniform List<vector> 
18
(
(0.000430181057207 -0.00645194159442 7.74382540487e-23)
(0.00109293642386 -0.00713534231745 -9.9219025769e-23)
(0.00190519674326 -0.00772907962954 -1.20600594782e-22)
(0.0024918993402 -0.00921356961081 -9.54209574028e-24)
(0.0024918993402 -0.00921356961081 -9.54209574028e-24)
(0.00290348690348 -0.0108048442637 -2.54176335288e-23)
(0.00290348690348 -0.0108048442637 -2.54176335288e-23)
(0.00394966000976 -0.0115435352151 -1.76658647154e-23)
(0.00516190346959 -0.0123014304955 -2.43553293677e-23)
(0.00657574785519 -0.0130807228574 -3.43290792586e-23)
(0.00821253512578 -0.0138250920726 -3.56058182157e-23)
(0.0100602914561 -0.0144672294022 -2.37105425633e-23)
(0.0120810295789 -0.0149669902857 -2.4513812662e-23)
(0.0142103730022 -0.0152603250004 -2.34547336552e-23)
(0.0163760282754 -0.0153028500421 -2.49369439011e-23)
(0.018525793852 -0.0151360934966 -1.5455203333e-23)
(0.0206269209706 -0.0147745826156 8.15576898764e-24)
(0.0226463661924 -0.0142097948963 3.45139758834e-23)
)
;
    }
}


// ************************************************************************* //
