/*--------------------------------*- C++ -*----------------------------------*\
| =========                 |                                                 |
| \\      /  F ield         | OpenFOAM: The Open Source CFD Toolbox           |
|  \\    /   O peration     | Version:  v2012                                 |
|   \\  /    A nd           | Website:  www.openfoam.com                      |
|    \\/     M anipulation  |                                                 |
\*---------------------------------------------------------------------------*/
FoamFile
{
    version     2.0;
    format      ascii;
    class       surfaceVectorField;
    location    "4.5";
    object      Uf;
}
// * * * * * * * * * * * * * * * * * * * * * * * * * * * * * * * * * * * * * //

dimensions      [0 1 -1 0 0 0 0];


internalField   nonuniform List<vector> 
305
(
(-0.00183144915915 0.00338687831546 7.4611667226e-22)
(-0.00338475597734 0.00179317942725 7.90312630908e-22)
(-0.00174080185389 0.006634532942 6.2065480872e-22)
(-0.0032452821842 0.00490146028427 9.82401034844e-22)
(-0.00172992111446 0.00980392383665 6.95112853967e-23)
(-0.00316697883306 0.00804999634587 4.72570583791e-22)
(-0.00179044818666 0.0130259553927 -4.94965989132e-22)
(-0.00321975014737 0.0112433823369 -2.13027553165e-22)
(-0.00188034927819 0.0163743227899 -7.62685173273e-22)
(-0.00334642093068 0.0145123444204 -7.3821926341e-22)
(-0.00197973089998 0.0198872663396 -6.75870239252e-22)
(-0.00351177893563 0.0179129577316 -8.06682677313e-22)
(-0.00209087315681 0.0235902632435 -2.4664807246e-22)
(-0.0037029810711 0.0214855164827 -6.03843928604e-22)
(-0.00392804431151 0.0252599517908 -7.02449129329e-23)
(-0.00492941002909 0.00316891958252 1.02659699349e-21)
(-0.00655131897505 0.00166115271868 1.17624647096e-21)
(-0.00480814850754 0.00630913583352 8.34316809915e-22)
(-0.00638296391014 0.0046242415418 1.35572207493e-21)
(-0.00480728250876 0.00946213691027 1.90031745229e-22)
(-0.00631746727506 0.00769493203211 7.37555315965e-22)
(-0.00493294738672 0.0126685961447 -4.56280827444e-22)
(-0.00642391323072 0.0108412828725 -9.83218268662e-24)
(-0.00513908604217 0.0159727527579 -7.8221676745e-22)
(-0.00664872783836 0.014047137595 -5.48011935285e-22)
(-0.00539780929081 0.0194175555216 -7.34656366665e-22)
(-0.00695557563582 0.0173654066917 -6.41796042544e-22)
(-0.00570526168266 0.0230416816621 -4.27440769077e-22)
(-0.00732727658274 0.020840671624 -5.08394338813e-22)
(-0.00776936919554 0.0245090873865 -1.56375934785e-22)
(-0.00796740616171 0.00297008732684 1.5053715524e-21)
(-0.00951903195833 0.00157947669791 1.3859068712e-21)
(-0.00786625421251 0.00599679499409 1.25896058098e-21)
(-0.00940716146528 0.00439872650139 1.57561826667e-21)
(-0.00790330506557 0.00905629802846 5.37691388049e-22)
(-0.00937451844047 0.00735828116749 9.92454437609e-22)
(-0.00810228470572 0.0121682535967 -1.01563290528e-22)
(-0.00953366974909 0.0104016340743 2.91167098203e-22)
(-0.00842475477168 0.0153694239137 -4.07591210379e-22)
(-0.0098481873092 0.0134991222119 -1.88266256859e-22)
(-0.00884179070726 0.0186998963765 -4.15534014693e-22)
(-0.0102852046626 0.0167008986299 -3.04591839274e-22)
(-0.00934571300388 0.0222033455231 -2.37329504522e-22)
(-0.0108309426352 0.0200508765025 -2.50318779508e-22)
(-0.0114809957418 0.0235858598695 -6.88761843937e-23)
(-0.0109088813132 0.00285034388931 1.45615358547e-21)
(-0.0123671106809 0.00153657482332 1.22409059674e-21)
(-0.0108610065536 0.005758083016 1.30911212329e-21)
(-0.0123125346761 0.00422555653986 1.47948703334e-21)
(-0.0109438424096 0.00869328411784 7.45930147763e-22)
(-0.0123074395475 0.00705990565349 1.07549783963e-21)
(-0.0112154813097 0.0116842209071 2.04464131872e-22)
(-0.0125226025688 0.00997527566503 4.78623820447e-22)
(-0.0116454101539 0.0147629782784 -8.52668857543e-23)
(-0.0129254365902 0.0129432692991 7.15173348636e-23)
(-0.0122081712263 0.0179679847736 -1.3937660409e-22)
(-0.0134894024905 0.0160105803487 -6.98487674885e-23)
(-0.0128964874804 0.0213315860699 -8.18654593804e-23)
(-0.0141948243534 0.0192182891998 -7.4143601228e-23)
(-0.0137159705267 0.0248969677865 -2.6032116073e-23)
(-0.0150477961427 0.0226004865988 -1.85623050913e-23)
(-0.0160547607149 0.0261942468809 -5.36217891835e-24)
(-0.0137268015012 0.00275246917134 1.24742404461e-21)
(-0.0151174942791 0.00149385863808 9.75565235551e-22)
(-0.0137134194834 0.00553635715135 1.24587274969e-21)
(-0.0150942716174 0.00405346999362 1.30894474714e-21)
(-0.0138357440341 0.00833695548347 8.08191512319e-22)
(-0.0151060002995 0.00675633767299 1.01516805564e-21)
(-0.014178724287 0.0111886507413 3.45677023439e-22)
(-0.0153725537275 0.00952446201405 5.1535118128e-22)
(-0.0147130216782 0.0141282485522 8.69354531294e-23)
(-0.0158637747433 0.0123437617726 1.72398887113e-22)
(-0.01541384612 0.0171845585837 -4.61576462677e-24)
(-0.0165450810963 0.015257275453 3.80827564349e-23)
(-0.0162761715694 0.0203919260731 -1.08404469389e-23)
(-0.0174022943506 0.0183009893081 -7.75307164487e-24)
(-0.0173073198946 0.0237843670941 2.10763206334e-24)
(-0.018441264419 0.0215039526029 1.2569475392e-24)
(-0.0185216960632 0.0273972315741 2.11936573773e-24)
(-0.0196694265056 0.0248992478916 3.33447061704e-24)
(-0.0211059099897 0.0285231462616 6.22670853294e-24)
(-0.0164277719168 0.00263892661805 1.03708593808e-21)
(-0.0177545553773 0.0014359001085 8.28635683495e-22)
(-0.0164300117393 0.00527997966478 1.07824005309e-21)
(-0.0177334291877 0.0038517288551 1.14887241954e-21)
(-0.0165863847203 0.00793609027361 7.223277246e-22)
(-0.0177603552626 0.00641178746716 8.88839694925e-22)
(-0.0169958868943 0.0106370766925 3.42073044954e-22)
(-0.018072088924 0.00901683392917 4.70486384066e-22)
(-0.0176281385176 0.013417428223 1.23546190419e-22)
(-0.0186431281999 0.0116686904224 1.89091261835e-22)
(-0.0184572156922 0.0163030160356 3.49454494168e-23)
(-0.0194302113228 0.0144072700711 5.6252185623e-23)
(-0.019479705301 0.0193275742274 4.34432283327e-24)
(-0.0204269166939 0.0172621706711 1.03514287506e-23)
(-0.0207048538453 0.0225167149401 2.4837860929e-24)
(-0.0216310049275 0.0202588159643 -6.92481422364e-25)
(-0.022145875174 0.0259059026983 7.44181341225e-24)
(-0.0230594205399 0.0234265925859 -1.25618803128e-23)
(-0.0247281213764 0.0267981595752 1.18030540647e-23)
(-0.018994667291 0.00250004420884 9.40422164963e-22)
(-0.0202529744219 0.00136414129561 8.56766870245e-22)
(-0.0189981740757 0.00498676471523 9.59472061377e-22)
(-0.0202185279646 0.00361584878753 1.12528060871e-21)
(-0.0191805325067 0.00748013884143 6.3699835439e-22)
(-0.020252268782 0.00601543936922 8.61468277918e-22)
(-0.0196479723932 0.0100100186689 3.17504600947e-22)
(-0.0206008128361 0.00844271880066 4.60998366902e-22)
(-0.0203684876455 0.01260749622 1.21797257039e-22)
(-0.0212398593407 0.0109082731182 1.91591783191e-22)
(-0.0213138915655 0.0153043889233 3.16581649568e-23)
(-0.0221267863307 0.0134499318717 6.20604580023e-23)
(-0.0224794837142 0.0181186702845 5.31462449495e-24)
(-0.0232412085553 0.0160925047785 1.57634560898e-23)
(-0.0238750929649 0.0210790488166 -1.57381478281e-23)
(-0.0245915441926 0.0188573911838 5.55145714069e-24)
(-0.0255175065626 0.0242157723161 -8.20063966041e-24)
(-0.026196040432 0.0217700459495 -1.68491384688e-23)
(-0.0280669831563 0.0248580296002 2.18465343975e-25)
(-0.0214062843805 0.00233597398566 1.04162531399e-21)
(-0.0225875688989 0.00128009860593 8.83996291371e-22)
(-0.0214017067411 0.00465357056108 1.02727682525e-21)
(-0.0225347776136 0.00335155018325 1.10759413475e-21)
(-0.0215996853146 0.00696676519657 6.8546829043e-22)
(-0.0225642904631 0.0055717962399 8.64388562237e-22)
(-0.0221150038331 0.00930786455601 3.35085549146e-22)
(-0.0229410314495 0.00780606293697 4.76924045699e-22)
(-0.022911474962 0.0117051465919 1.31854984154e-22)
(-0.0236366153017 0.0100680188102 1.91994975568e-22)
(-0.0239582771373 0.0141850943252 4.61657491353e-23)
(-0.0246065257967 0.0123919625557 6.78121635096e-23)
(-0.0252479841987 0.016767323011 1.60002887356e-23)
(-0.0258233794893 0.0148007357612 3.45871783386e-23)
(-0.0267902284275 0.0194742768419 4.44046649994e-24)
(-0.0272982721502 0.0173111714656 5.75887191707e-24)
(-0.0286062674024 0.0223248278889 -8.43003346446e-24)
(-0.0290457427074 0.019943020462 2.73938680744e-24)
(-0.0310907016366 0.0227194293552 -7.83642450285e-24)
(-0.0236414138205 0.00215115873404 9.49965112124e-22)
(-0.024737588702 0.00118475886062 7.09383686332e-22)
(-0.0236233411847 0.00428427067107 9.4470587173e-22)
(-0.0246668068528 0.00306405024415 9.11186117515e-22)
(-0.0238275460707 0.00640312174273 6.55844317506e-22)
(-0.0246822357646 0.00508841280303 7.52763478406e-22)
(-0.0243799089861 0.00853919459749 3.33833472121e-22)
(-0.0250764661272 0.00711586704083 4.30703868421e-22)
(-0.0252384873304 0.0107199935924 1.27952154923e-22)
(-0.0258170705389 0.00916004292278 1.74299993738e-22)
(-0.0263680748907 0.0129633336572 5.62335927129e-23)
(-0.0268497394175 0.0112499534937 5.74391033632e-23)
(-0.0277601878992 0.0152919401857 2.43457615201e-23)
(-0.0281518723708 0.0134058471626 3.09667201373e-23)
(-0.0294249973689 0.0177179957647 4.05779222457e-24)
(-0.029723825504 0.0156412096487 8.74430589632e-25)
(-0.0313855214304 0.0202662831852 3.33299576905e-24)
(-0.0315927293855 0.017970192624 2.21065270074e-24)
(-0.0337724753568 0.0204111946242 5.70072626488e-26)
(-0.0256840422128 0.00195273855787 6.70604691723e-22)
(-0.0266894180411 0.00107699862688 3.53884669536e-22)
(-0.025647833558 0.00388626825212 7.19243724191e-22)
(-0.0265995007176 0.00275914020431 6.23494533771e-22)
(-0.0258487497096 0.0057971031884 5.27623029321e-22)
(-0.0265924043887 0.00457480086974 5.54400787234e-22)
(-0.0264263395669 0.00771588168855 2.71170390038e-22)
(-0.0269948111613 0.00638381131668 3.46304407878e-22)
(-0.0273331454854 0.00966415935878 1.03786942178e-22)
(-0.0277651474892 0.00819798878223 1.36822034138e-22)
(-0.0285269338745 0.0116598824598 3.21722307876e-23)
(-0.0288453979096 0.0100424361309 4.41214441973e-23)
(-0.0299972048974 0.0137150811187 7.49538920682e-24)
(-0.0302069310681 0.0119321917614 8.48608838703e-24)
(-0.0317557562014 0.0158447342928 -9.72708934195e-25)
(-0.0318528481466 0.0138758061336 -1.09305740311e-24)
(-0.0338274251423 0.0180565699281 -1.06533580566e-24)
(-0.0338031409428 0.0158823067226 -2.68120271695e-24)
(-0.0360920498304 0.0179674372544 1.94901249549e-24)
(-0.0275220219755 0.00175000184268 3.06774511584e-22)
(-0.0284387273323 0.000961586239003 1.16926910432e-22)
(-0.0274617425321 0.00346866028764 4.58651596815e-22)
(-0.028317549751 0.00244301639988 4.80558140538e-22)
(-0.0276510889948 0.00515966464604 3.73082165791e-22)
(-0.0282829507126 0.00404011211818 4.54030929176e-22)
(-0.0282418207222 0.00685126087588 2.11956051978e-22)
(-0.0286861389245 0.00562225501157 2.9843682988e-22)
(-0.0291811472554 0.00855704185227 7.71565361573e-23)
(-0.0294708315123 0.00719726398503 1.13032422537e-22)
(-0.0304196364744 0.0102928321273 2.04353017967e-23)
(-0.0305811651578 0.00878813361547 2.99720308508e-23)
(-0.0319436293475 0.0120659621964 -1.02358222903e-25)
(-0.031979916881 0.0104039973495 8.28888650476e-24)
(-0.0337643156012 0.0138815325679 -2.80155118587e-24)
(-0.0336677997681 0.0120472028809 -6.67329426449e-24)
(-0.0359070919834 0.015748430363 3.33145584206e-25)
(-0.0356687322832 0.013720876517 -5.33259773495e-24)
(-0.0380026206037 0.0154344088682 -2.49141034972e-24)
(-0.0291489593737 0.00153204401769 2.90710539386e-22)
(-0.0299702829415 0.000844195704078 8.84448112094e-23)
(-0.0290586078788 0.00303690436301 4.75937472899e-22)
(-0.0298220061852 0.00211966229215 4.49803846969e-22)
(-0.0292287262134 0.00450634787076 3.79385593264e-22)
(-0.0297521131728 0.00349211927094 4.55263031727e-22)
(-0.0298201571108 0.00595815337892 1.99513200439e-22)
(-0.0301378017573 0.00484367939447 2.82061383211e-22)
(-0.0307743551577 0.00741709389377 6.58479172304e-23)
(-0.0309297406089 0.00617518650159 1.04611605064e-22)
(-0.0320364721341 0.00888559575744 1.78256155588e-23)
(-0.0320496577865 0.0075077111283 2.45465275133e-23)
(-0.0335889355849 0.0103692802457 1.71795046317e-24)
(-0.0334634616073 0.0088460821292 9.76512396367e-24)
(-0.0354403510259 0.0118696099062 -9.20434081358e-24)
(-0.0351675849946 0.010187145211 -5.505243063e-24)
(-0.0376142912021 0.0133824830734 -8.15715366888e-24)
(-0.0371805928106 0.0115290232363 -5.84799067193e-24)
(-0.0395360647795 0.0128692039436 -1.20759611608e-23)
(-0.0305598486602 0.00131707895768 2.47538118793e-22)
(-0.0312870658528 0.000726175968573 -4.70481613459e-23)
(-0.0304339918474 0.00259937449029 4.29129405797e-22)
(-0.0311040832134 0.00179391456828 2.74763201353e-22)
(-0.0305755947698 0.00383973117867 3.57938821674e-22)
(-0.0309923367658 0.00294016515392 3.21300485975e-22)
(-0.0311554176502 0.00505472226691 1.87159787836e-22)
(-0.0313527415276 0.00406070973085 2.20109329709e-22)
(-0.0321084117747 0.00626297134338 6.33102153469e-23)
(-0.0321379868777 0.00514805303356 7.99296851942e-23)
(-0.0333738712285 0.00746393792471 1.64860359181e-23)
(-0.0332506009932 0.00622156597095 2.12423423557e-23)
(-0.0349295397355 0.00865866390308 2.5419304375e-24)
(-0.0346580322706 0.00728493868477 6.32947526373e-24)
(-0.0367822712208 0.0098424798643 -2.14889292135e-24)
(-0.0363509661933 0.00832843730693 -1.02851407064e-23)
(-0.038953774805 0.0110076937929 -9.76679816388e-24)
(-0.0383450480762 0.00934493898439 -4.14637799825e-24)
(-0.0406772586402 0.0103237744971 -1.22136804693e-23)
(-0.0317497246266 0.00109789018826 -1.98230787856e-23)
(-0.0323848401961 0.000607242259819 -3.1838564381e-22)
(-0.0315839188013 0.00215845881726 1.66934281531e-22)
(-0.0321645993361 0.0014693875798 -5.38323160229e-23)
(-0.0316888042403 0.00317289191874 1.83470994011e-22)
(-0.0320067602736 0.0023920268334 4.61773470747e-23)
(-0.032246155554 0.00415462042623 1.12879227067e-22)
(-0.0323344826205 0.00328318535829 7.60995731263e-23)
(-0.0331837364838 0.00510917118094 3.7861812203e-23)
(-0.0330925369489 0.00413099688528 2.04205512746e-23)
(-0.0344343199802 0.00604616172517 1.10857817013e-23)
(-0.0341875238415 0.00495246800723 4.20728556271e-24)
(-0.0359722621558 0.00695510692442 -6.49759588017e-24)
(-0.0355667883594 0.00574767730641 -2.68525456146e-25)
(-0.0377994843002 0.00783585892075 -1.22826257833e-23)
(-0.0372312672246 0.00650282524697 -1.30010377413e-23)
(-0.0399339662027 0.00867092759762 -6.59326030367e-24)
(-0.0391795805788 0.00720504357396 -4.85662186761e-24)
(-0.0414444025661 0.0078391178985 8.44363601541e-24)
(-0.0327198048456 0.0008853663245 -3.52394881047e-22)
(-0.0332702558238 0.000489526101714 -6.19085918089e-22)
(-0.0325094847098 0.00172634729167 -1.74589250479e-22)
(-0.0330056742068 0.00114950034395 -3.61901638042e-22)
(-0.0325712181823 0.00251560602471 -6.11940738096e-23)
(-0.032796113378 0.00185435664011 -2.02714086468e-22)
(-0.0330963452495 0.00326612791501 -1.63591026665e-23)
(-0.033085063461 0.00252341707098 -7.06029639311e-23)
(-0.0340064856825 0.00398044810314 -1.32339753657e-23)
(-0.0338068420624 0.00314156234987 -3.27675984849e-23)
(-0.0352270300603 0.00466165322823 -7.1470215947e-24)
(-0.0348686070504 0.00372201854121 -8.96603110593e-24)
(-0.0367269412131 0.00530491125778 -6.77196731729e-24)
(-0.0362095897962 0.00425894146719 2.06065646567e-24)
(-0.0385026594354 0.00588733483589 -5.57503382562e-24)
(-0.037813137971 0.00473962782008 1.71426599887e-24)
(-0.0405681603953 0.00639864026679 1.01802744515e-23)
(-0.0396903979822 0.00514570648617 1.12140893775e-23)
(-0.0418612625023 0.00545711390936 3.48366320902e-23)
(-0.0334772518133 0.000673305250285 -6.28592675084e-22)
(-0.0339438805444 0.000374347199632 -7.41756040484e-22)
(-0.0332188784169 0.00130580997653 -3.90026474031e-22)
(-0.0336385020622 0.000838993207464 -4.38690848738e-22)
(-0.0332317323431 0.00187949015079 -2.12122976589e-22)
(-0.0333700011935 0.00133580829453 -2.5842058833e-22)
(-0.0337157510133 0.00240792882113 -8.70114597494e-23)
(-0.0336136065863 0.00179379021041 -1.08382501658e-22)
(-0.0345857439962 0.0028955778515 -2.84996542251e-23)
(-0.0342945151417 0.0021942604 -4.03278032217e-23)
(-0.035760540624 0.0033333391877 2.41646954438e-25)
(-0.0353059546549 0.00254731308512 -8.30113195912e-24)
(-0.0372020129431 0.00371542571292 1.05468897818e-23)
(-0.0365910477149 0.00284090459856 1.35470397656e-23)
(-0.038902817643 0.00402550698676 1.8503389202e-23)
(-0.040873969133 0.00423558878088 3.58704470162e-23)
(-0.0340298693991 0.00046777444835 -5.51854214138e-22)
(-0.0344122687207 0.000261133257936 -4.98391994278e-22)
(-0.0337224285735 0.000895982142948 -3.07084963037e-22)
(-0.0340672257001 0.000540204690942 -2.29439029274e-22)
(-0.0336831292546 0.00126998452866 -1.54680113398e-22)
(-0.0337444249342 0.000839232493457 -1.13176541028e-22)
(-0.0341196556664 0.00159122558757 -6.16988451301e-23)
(-0.0339352499101 0.0010943945359 -4.15543728428e-23)
(-0.0349389521303 0.00186385323124 -2.01292809557e-23)
(-0.0345670966035 0.00128858846382 -2.17683758718e-23)
(-0.0360507661523 0.00207799391304 5.00426085203e-24)
(-0.0343844232752 0.000273152718739 -1.75976809414e-22)
(-0.0340261015321 0.000508225878048 -3.55306072642e-23)
(-0.0339320105608 0.000682388339384 -5.08004719544e-26)
(-0.0339194230827 0.00036503448851 7.00290122512e-23)
(-0.0343164735611 0.000805065268633 -1.62390358453e-24)
(-0.0340583864748 0.000423829050313 6.02467863323e-23)
(-0.0339846911453 0.000122729093963 1.30326599055e-22)
)
;

boundaryField
{
    back
    {
        type            calculated;
        value           uniform (0 0 0);
    }
    sides
    {
        type            calculated;
        value           uniform (0 0 0);
    }
    bottom
    {
        type            calculated;
        value           uniform (0 0 0);
    }
    front
    {
        type            calculated;
        value           uniform (0 0 0);
    }
    atmosphere
    {
        type            calculated;
        value           nonuniform List<vector> 0();
    }
    floatingObject
    {
        type            calculated;
        value           nonuniform List<vector> 0();
    }
    procBoundary2to0
    {
        type            processor;
        value           nonuniform List<vector> 
14
(
(-0.0381225750973 0.00306134975638 1.77873988972e-23)
(-0.0399001158161 0.00319152469358 2.01808718406e-23)
(-0.0419492235276 0.00320935320257 2.96072595208e-23)
(-0.0355197775347 0.0014274787827 -7.48550011076e-24)
(-0.0374120282112 0.00220904537916 2.0787548881e-23)
(-0.0367215224826 0.00149505886073 7.43236831439e-24)
(-0.0346862482588 0.000153894351171 -1.29986432246e-22)
(-0.0343031176508 0.00025525426675 5.76877979121e-23)
(-0.0350778509651 0.000872154090124 -9.1245950269e-24)
(-0.0346344626706 0.000418232424267 8.21263930181e-24)
(-0.034136269757 0.000140177440862 1.63247417427e-22)
(-0.0339032478809 -8.43040678041e-05 1.14083756001e-22)
(-0.0343122107508 5.3070363004e-05 7.00833292186e-23)
(-0.0339894229874 -0.000215202329015 9.79645636908e-23)
)
;
    }
    procBoundary2to1
    {
        type            processor;
        value           nonuniform List<vector> 
18
(
(-0.00221807089332 0.0275174418177 3.16755889089e-22)
(-0.00606895810271 0.0268816267632 -4.44714833996e-23)
(-0.00994338016684 0.0259134974062 -3.03175529827e-23)
(-0.0122461454836 0.0273439275463 1.25265153381e-23)
(-0.0146836790526 0.0287023213938 -1.06044471548e-23)
(-0.0172336524091 0.0300343824374 -3.12290249872e-24)
(-0.0199463961853 0.0312664016177 -1.70100458733e-23)
(-0.023829219132 0.0295274921636 -1.51682152031e-23)
(-0.0274350999398 0.027555090397 -1.76190589866e-23)
(-0.0307267437687 0.0253498359892 -3.29650868356e-23)
(-0.0336735339391 0.0229498138747 -2.7122315326e-23)
(-0.0362449879325 0.0203779792318 -2.33754085059e-23)
(-0.0384109636226 0.0176605937338 -2.70224197369e-23)
(-0.0401526796506 0.0149171647542 -3.73203340214e-23)
(-0.0414778059709 0.0121497021082 -3.85481765421e-23)
(-0.0424024732335 0.00943862182014 -3.56342311911e-23)
(-0.0429464162575 0.00681573397873 -9.7791944227e-24)
(-0.0431355452629 0.00432362865975 -1.85986102901e-24)
)
;
    }
}


// ************************************************************************* //
