/*--------------------------------*- C++ -*----------------------------------*\
| =========                 |                                                 |
| \\      /  F ield         | OpenFOAM: The Open Source CFD Toolbox           |
|  \\    /   O peration     | Version:  v2012                                 |
|   \\  /    A nd           | Website:  www.openfoam.com                      |
|    \\/     M anipulation  |                                                 |
\*---------------------------------------------------------------------------*/
FoamFile
{
    version     2.0;
    format      ascii;
    class       volVectorField;
    location    "2.4";
    object      ddtCorrDdt0(U);
}
// * * * * * * * * * * * * * * * * * * * * * * * * * * * * * * * * * * * * * //

dimensions      [0 1 -2 0 0 0 0];


internalField   nonuniform List<vector> 
1984
(
(0.00499862153522 -0.00485100693693 1.20082071123e-23)
(0.00469004911542 -0.0148167041035 -7.28661814976e-22)
(0.00483854654056 -0.0240637306824 4.69828037382e-22)
(0.0050845827016 -0.0339867142316 6.1066639903e-23)
(0.00536605193592 -0.0442713267401 9.83694844943e-23)
(0.00571373412312 -0.0551236276886 -1.62010278724e-22)
(0.00616706382229 -0.0667891732948 1.60864819477e-22)
(0.00675504596249 -0.0794845124617 -1.41574688681e-21)
(0.00751823259925 -0.0934857038827 -8.43425761447e-22)
(0.00848214017989 -0.109080822788 -2.26908398514e-21)
(0.00975343299353 -0.126610315839 -7.87797361937e-23)
(0.0115922403443 -0.146553998951 -4.07483290637e-22)
(0.0141791686418 -0.168227751041 -2.20358651259e-22)
(0.0162167392475 -0.191773594024 -2.93358483808e-22)
(0.0161996585507 -0.218525816701 -7.60932116827e-22)
(0.0148208668792 -0.253260103962 -1.66167907729e-22)
(0.0092772734601 -0.353488636347 1.30583548738e-20)
(0.0420993777225 -0.42665544094 2.06158464254e-20)
(0.0585046640907 -0.644906278451 2.71187646584e-19)
(4.17105378464 -5.36529584204 -8.82453135908e-19)
(0.0150394139852 -0.00445102475646 3.75047086361e-22)
(0.0147342741371 -0.0142320284797 -1.46762320081e-22)
(0.0150279023863 -0.023421557808 3.74920372115e-22)
(0.0155651906309 -0.033219385481 4.71102273048e-22)
(0.0162658618919 -0.0433042076795 2.25525706639e-21)
(0.0171645192086 -0.0539008496246 8.1981641985e-22)
(0.0183331938584 -0.0652595032535 1.46477963584e-21)
(0.0198663437704 -0.0775858347149 1.00148077095e-21)
(0.0217995825697 -0.0911610050482 -2.73185618853e-22)
(0.0242466293556 -0.106215291827 1.00672707149e-21)
(0.0273184573189 -0.122927393576 1.0267693881e-22)
(0.0312777454902 -0.141571318877 5.70745344345e-22)
(0.0363482066906 -0.163390014706 2.64933448216e-22)
(0.0413574010061 -0.189642598528 -1.13885209374e-21)
(0.0461898477471 -0.218388725555 -2.5331542374e-21)
(0.0505833575916 -0.259545026999 5.45393563444e-22)
(0.0483047445517 -0.357016144393 5.41704359061e-21)
(0.0958556690915 -0.39450739154 9.00289120679e-21)
(0.226998049361 -0.556500813949 -2.2447387182e-19)
(15.0571419702 -3.72256210057 -6.76815803371e-20)
(0.0240595161159 -0.00435509351021 4.14807854072e-22)
(0.0239090884487 -0.0139097320399 -2.72927445329e-21)
(0.0243687026813 -0.0228746435746 2.76927158438e-23)
(0.0251561742096 -0.0324206867194 2.4695077517e-22)
(0.0262314173488 -0.042209980912 3.36213751684e-22)
(0.0276408558547 -0.0524685310127 -2.67284334906e-22)
(0.0294835664071 -0.0633976679337 1.95073817527e-23)
(0.0318623131968 -0.07523558605 -5.69729514198e-22)
(0.034898160645 -0.0882373869647 -4.38828236387e-22)
(0.0386361075621 -0.102628739652 5.93024777658e-22)
(0.0432433528123 -0.118615687188 9.5620813547e-23)
(0.0489084179085 -0.136550774339 -6.42712791659e-22)
(0.0558317816196 -0.157259016697 -6.27719488533e-22)
(0.0649625417299 -0.181099888378 1.05689950538e-21)
(0.0775062937434 -0.207813271891 -5.84621049439e-21)
(0.0924477396139 -0.24734166559 7.46542303081e-22)
(0.108356055295 -0.326736698505 9.23203392249e-20)
(0.152162474247 -0.334918279869 -8.18029417658e-21)
(0.335337302062 -0.352636249952 -8.45611860198e-19)
(10.101990217 6.15271660211 2.5872208432e-19)
(0.0332565375222 -0.00425714096896 1.13950652855e-22)
(0.0332142476765 -0.0135329118354 -1.91966003153e-21)
(0.0338319595955 -0.0221742956895 2.09446364816e-22)
(0.0348722967749 -0.0313862788734 1.91540296681e-22)
(0.0362956440539 -0.0407958856775 4.535375998e-23)
(0.0381695227569 -0.0505912718322 -2.64272088026e-22)
(0.0406124906184 -0.0609684788964 -6.6080231874e-22)
(0.0437402355314 -0.0720939275164 -8.88424788601e-23)
(0.0477233227108 -0.0843011890868 3.3624327721e-22)
(0.0527190214555 -0.0977860661936 -2.80910541657e-22)
(0.0588845687653 -0.112589819797 -2.62530174709e-22)
(0.0665463124532 -0.128957901716 -5.78922445856e-22)
(0.0763688714546 -0.147278740815 1.96688209054e-22)
(0.0890569644829 -0.168372682492 -6.30678009615e-22)
(0.105645453642 -0.190943610593 9.98321998923e-22)
(0.127857754263 -0.223304091252 -8.33916912674e-21)
(0.155310095025 -0.280446955727 -3.0893793129e-22)
(0.198581634429 -0.285690894219 -8.58347003576e-21)
(0.38251909163 -0.346413763723 -5.53551633424e-20)
(1.51573053761 0.498556443378 3.22236915604e-19)
(0.0420633398185 -0.00409479729226 7.58611165405e-22)
(0.0420591659632 -0.0130131748699 -3.05337497594e-21)
(0.0428024254733 -0.021265996837 -2.4290508371e-22)
(0.0440642358066 -0.0300566372203 2.12456844798e-22)
(0.0457973509539 -0.0389843748879 9.32245836998e-23)
(0.0480637278616 -0.0482126581987 -5.71376758495e-23)
(0.0509889669307 -0.057896006003 -6.98438462762e-23)
(0.0547267846853 -0.0682083337254 2.11177935257e-23)
(0.0594020945255 -0.0793545751116 1.31451356217e-22)
(0.0653300002188 -0.0915745031052 -4.03153677703e-23)
(0.0727403684455 -0.104916676123 -2.76676891171e-24)
(0.0819353343285 -0.11926598165 -6.41701895704e-23)
(0.0936943850991 -0.134844582165 -4.56526421366e-22)
(0.108618146182 -0.152566263583 -3.03353702184e-22)
(0.129261537124 -0.1694400861 -4.00960819506e-22)
(0.153719914874 -0.19322369755 -8.47852608833e-22)
(0.18410353621 -0.22918577695 2.93206193508e-20)
(0.220646995304 -0.227737264608 7.18524523487e-23)
(0.375486192476 -0.276707394725 -1.09592770984e-19)
(0.546059683377 -0.0455389901317 -1.07101718963e-19)
(0.0504831101048 -0.00386637643299 2.90562374515e-22)
(0.0504799626637 -0.0123912181066 -1.50583662246e-21)
(0.051322803811 -0.0201854754981 -1.51573263566e-22)
(0.0527656654886 -0.0284776596642 1.83589264441e-22)
(0.0547444740101 -0.0368472270956 1.02008143887e-22)
(0.0573193221501 -0.0454317288247 -4.73887693313e-23)
(0.0606118159555 -0.0543397903815 -1.60564275078e-25)
(0.0647775865668 -0.0637246241823 6.452462315e-24)
(0.0699873861941 -0.0737573435186 -3.80731130895e-23)
(0.0764719524516 -0.08451642579 -6.81093396237e-23)
(0.0846405693121 -0.0960525586748 -1.58734083392e-24)
(0.0947728225119 -0.108132855774 -9.32317871166e-23)
(0.107562972816 -0.120566719197 -4.4525393916e-22)
(0.123518148781 -0.13351934105 -7.20203092804e-22)
(0.145190272478 -0.146298432135 -1.30697581201e-21)
(0.169595818582 -0.163535787031 3.17404401731e-21)
(0.197971022136 -0.181191981967 4.29948009177e-20)
(0.227718696564 -0.172994673344 -5.48661813258e-22)
(0.315641335935 -0.18728655247 -2.61580117964e-20)
(0.749664313344 -0.367111039079 -3.93596500402e-20)
(0.0584338092492 -0.00360104705219 3.84348571471e-22)
(0.058397207293 -0.0116878022584 -2.40521643583e-22)
(0.0593208695896 -0.0189831823444 4.72154085134e-22)
(0.0608975951359 -0.0267234894865 2.55342208194e-22)
(0.0630483317065 -0.0344732248556 3.57760267375e-23)
(0.0658327502455 -0.0423611415545 4.39201408826e-23)
(0.069367445651 -0.0504513439907 -7.79747251702e-25)
(0.0737975219469 -0.0588513420865 -2.96986525562e-23)
(0.0793023697383 -0.0676899758734 7.62195619451e-23)
(0.086114548184 -0.0769625169198 -1.33506816541e-22)
(0.0945567589763 -0.0866555719909 -1.58404767921e-23)
(0.104993530771 -0.0964418861074 -1.85323752134e-22)
(0.117995908023 -0.106008245304 -1.6405581462e-22)
(0.133837231488 -0.115684063722 -1.35331705024e-21)
(0.154220453856 -0.123830802484 -7.99962113474e-23)
(0.1778603072 -0.13533460098 1.3227081325e-20)
(0.204933495596 -0.147116984689 1.91501412257e-20)
(0.235200409109 -0.146108016191 1.01558757877e-21)
(0.282410134327 -0.190091586337 -3.5318339237e-20)
(1.88155717154 -1.17822380889 -5.8383180017e-20)
(0.0658761510919 -0.00331828302622 2.09059926389e-22)
(0.0657816064119 -0.0109274742885 -1.94849556301e-21)
(0.0667613611688 -0.0176896269951 -2.33725711714e-22)
(0.0684292404195 -0.0248523195502 2.26377321579e-22)
(0.0706842465373 -0.0319571849115 1.11975140835e-22)
(0.0735773754214 -0.0391251833433 -1.63917879583e-23)
(0.0772277497769 -0.0463833728728 6.61637686787e-24)
(0.0817491645466 -0.0538014640183 -5.26999502365e-23)
(0.0873140655049 -0.0614570426785 3.6269723246e-23)
(0.0941315647765 -0.0692848447467 1.33460114539e-24)
(0.102475525815 -0.0771994954214 -2.05857046173e-23)
(0.112695565528 -0.0847816462207 -1.29998959119e-22)
(0.125317605646 -0.0916250545381 -3.89349395669e-22)
(0.140703490038 -0.0980843756409 3.25732232274e-22)
(0.161058414833 -0.102708139586 -1.98402430194e-21)
(0.18568519863 -0.107889316346 5.49890132754e-21)
(0.210090683804 -0.109167836178 2.88643454374e-20)
(0.247863908341 -0.107830060445 3.50033981005e-21)
(0.321284717813 -0.131422081832 4.61497555144e-20)
(6.95416636322 -3.79131919911 -3.28629331061e-19)
(0.072791455482 -0.00302246503403 1.45645906496e-22)
(0.0726258989435 -0.0101339200362 -1.19460715389e-21)
(0.0736281325066 -0.0163461864175 7.33825557871e-23)
(0.0753495878489 -0.0229206290257 1.02992184647e-22)
(0.0776450235708 -0.0293781886803 1.24621448151e-22)
(0.0805608433224 -0.0358318776996 7.1281158596e-23)
(0.0841999902306 -0.0422876480272 -5.74697092372e-24)
(0.0886563114468 -0.0487756476916 1.42960803123e-23)
(0.0940730474815 -0.0553234571124 -5.30077786131e-25)
(0.100618901858 -0.061822182198 -1.57154607034e-23)
(0.108509151704 -0.0681162955565 1.65652123299e-23)
(0.11803410939 -0.0736844145874 7.1336110614e-24)
(0.129632867024 -0.0779271219792 6.44842880066e-23)
(0.143642280395 -0.0807763678229 -7.69973369068e-22)
(0.162154947521 -0.0792386754197 7.16681999634e-22)
(0.184449494784 -0.0815122461039 -5.3031150291e-21)
(0.206814747717 -0.0732824102611 -1.51761839405e-21)
(0.245486101515 -0.0647454140784 -4.64882644027e-21)
(0.290292813294 -0.0687759570068 -3.579125413e-20)
(8.51335023585 1.86528780295 -6.10663328811e-20)
(0.0791732547633 -0.00272027989761 2.96903435484e-23)
(0.0789221847355 -0.00932959057551 -2.0731348836e-21)
(0.0799254084843 -0.0149848426029 -3.42367049697e-22)
(0.0816604901079 -0.0209738553613 1.43818771583e-22)
(0.0839436335949 -0.0268065003698 8.14086783382e-23)
(0.0868086106324 -0.0325861492587 1.56259460953e-23)
(0.0903352596832 -0.0382968952334 8.47424848409e-24)
(0.0946007798001 -0.0439401617195 1.29742144247e-24)
(0.0997030182575 -0.0495087534375 -9.94997861452e-24)
(0.105750142393 -0.0548681973272 4.43122490757e-24)
(0.112898469002 -0.0598091336679 4.6178908541e-25)
(0.121331088073 -0.0637415970428 -1.85376838191e-24)
(0.131332486866 -0.065976799917 -2.0314073042e-22)
(0.143023629509 -0.0663933653915 -5.21995732037e-22)
(0.157763974376 -0.0622604419704 2.98092257955e-22)
(0.17321314652 -0.0587411273361 6.72934520655e-22)
(0.193092504016 -0.0397456183711 7.75714463394e-21)
(0.21487641853 -0.0242192120386 3.29091612827e-21)
(-0.00700519170168 0.00417832297657 2.42210341564e-19)
(-3.51061472342 12.1310930209 -1.45832604764e-19)
(0.0850263702122 -0.00241894405066 4.01530903847e-22)
(0.0846760435726 -0.00852587541457 7.60550243459e-22)
(0.0856675492821 -0.0136357265647 4.70894986277e-22)
(0.0873844888039 -0.019059283411 2.50333226025e-22)
(0.0896155742029 -0.0242985639541 9.74873772384e-23)
(0.0923759040063 -0.0294590702867 2.22921331266e-23)
(0.0957254031302 -0.0345043806198 -6.37934687865e-25)
(0.0997122103428 -0.0394171201775 -3.37650902063e-24)
(0.10438364125 -0.04418553558 1.66861900148e-23)
(0.109789783548 -0.0486442034546 1.52662743038e-23)
(0.116004732922 -0.0525609322755 4.63488613101e-24)
(0.123103308414 -0.0553323540717 3.62337920009e-23)
(0.131190706913 -0.0562399801728 -2.61400333316e-22)
(0.140216521848 -0.0551265745532 -5.09612363543e-22)
(0.151108893641 -0.0493458554125 3.01062627179e-22)
(0.161802462898 -0.0423922709454 -4.97565207546e-21)
(0.174221183527 -0.0226999951242 7.47331622737e-21)
(0.181701911277 -0.00677600544482 9.16499285552e-22)
(-0.23385507003 -0.0174766679084 -4.19604820256e-20)
(-11.7366858891 -5.5903041604 -1.38062451923e-19)
(0.0903614006976 -0.00212455536706 8.12454434546e-22)
(0.0899022576076 -0.00773505460922 -7.42358540338e-22)
(0.0908755212789 -0.0123148970105 1.54724160854e-22)
(0.092556060659 -0.0172016813047 5.44565540469e-22)
(0.0947124149382 -0.021891063971 9.81462406922e-23)
(0.0973405896218 -0.0264973113463 1.62844933323e-23)
(0.100481249125 -0.0309701935569 7.03449129693e-23)
(0.104147932483 -0.035292038427 4.23639594806e-23)
(0.108331363027 -0.0394437998865 1.81811609532e-23)
(0.113041766797 -0.0432617269056 8.94008823755e-23)
(0.118264478978 -0.0465205228025 -4.263616109e-23)
(0.123956115412 -0.0486351234523 2.10031432938e-22)
(0.130025229722 -0.0489279610712 -2.54959901424e-22)
(0.136270821663 -0.0471577010787 1.70188149167e-22)
(0.143139484417 -0.0408397641583 -2.08316124886e-22)
(0.148688058978 -0.0322333722261 4.52998105159e-21)
(0.153326211888 -0.00738709488261 2.75435213666e-21)
(0.16450866059 0.0133757132269 3.87907861899e-22)
(-0.174020227455 0.0289497953831 -4.07101396063e-20)
(-6.19205242274 -1.52046491862 -1.20801943005e-19)
(0.0951942523098 -0.00184001705693 5.63717444377e-22)
(0.0946258050588 -0.00695973422367 -2.06057343688e-21)
(0.0955774909166 -0.0110330120925 -4.24914883702e-22)
(0.0972128194882 -0.015415722566 1.36398073045e-22)
(0.0992873382416 -0.0195978916292 1.2898722416e-22)
(0.101779254175 -0.0237149212062 1.22745686486e-23)
(0.104709181704 -0.0277072572722 3.22399468561e-23)
(0.108056870892 -0.0315759144098 8.09971140846e-23)
(0.111778165651 -0.0353022727057 1.91794750612e-22)
(0.115835007979 -0.0387226330457 6.54088154732e-24)
(0.12012823254 -0.0416687306012 5.46040384217e-24)
(0.124508812144 -0.0436408790796 4.19422263735e-22)
(0.128690395373 -0.04404363571 -1.18482203404e-22)
(0.132280558668 -0.0425602078814 6.7822247205e-22)
(0.135096823287 -0.0370455067384 2.06175701379e-21)
(0.134903783477 -0.0284713341249 9.48667012813e-21)
(0.130433940834 0.000554106017613 -4.12912567124e-20)
(0.135298799218 0.0289621831712 -3.80818666348e-21)
(-0.260598929604 0.0777619555201 -1.69900486454e-19)
(-9.23720433036 4.73500616694 -2.03601454867e-20)
(0.0995332752415 -0.00156873633027 8.76139511954e-22)
(0.098863620437 -0.00619969454334 -7.32554332605e-22)
(0.0997804404344 -0.00979076183515 -1.82876087742e-22)
(0.101386485787 -0.0137033246653 -1.12828975558e-22)
(0.103391427696 -0.0174160657835 4.45164508271e-23)
(0.105765272885 -0.0211018949968 3.52157123697e-23)
(0.108515784598 -0.0247018571405 1.64484359633e-23)
(0.111603139194 -0.0282294035691 1.78858124591e-23)
(0.114960991591 -0.0316730704276 1.33485216738e-22)
(0.118486495841 -0.0349188107492 1.15946914854e-22)
(0.122025731563 -0.0378642932218 -9.94532744751e-23)
(0.125345382764 -0.040129868227 3.57451581733e-23)
(0.128017568828 -0.041302734122 -7.89479209938e-22)
(0.1294791199 -0.0411653672825 1.09988459428e-22)
(0.128975757282 -0.0384130556803 -1.00589087866e-21)
(0.123709139011 -0.0337457523364 -3.59542074346e-21)
(0.109342548102 -0.00456467383138 1.86306889307e-20)
(0.0870321305543 0.0310851260385 2.21415675981e-20)
(-0.719552749616 0.0401139656738 4.8854095977e-20)
(-28.6822407163 6.7832930781 -1.26632634203e-18)
(0.103372882875 -0.00129369887062 2.50667697326e-22)
(0.102597746929 -0.00546015612821 -1.19570713404e-21)
(0.103496957067 -0.00858633306504 2.72139610018e-23)
(0.105092600017 -0.012034566095 -1.5290523186e-23)
(0.10705639707 -0.0153179489543 -6.40816256266e-23)
(0.1093626853 -0.018619568201 2.28811192311e-24)
(0.112014127834 -0.0218794500373 7.28708867699e-23)
(0.114941550332 -0.025135421041 -8.32630116053e-23)
(0.118068622951 -0.0284240259158 6.48593143789e-24)
(0.121261055599 -0.0316644148354 7.09180482881e-23)
(0.124288698834 -0.0348226551944 -1.0862515723e-22)
(0.126925796721 -0.0376936331813 3.95189178969e-22)
(0.128652234581 -0.0400613785742 -1.32018587994e-22)
(0.128934851 -0.0419266418694 2.84372146449e-22)
(0.127032895893 -0.043268985656 -1.15721571176e-21)
(0.121192100534 -0.0467271383219 2.35342146149e-21)
(0.110777589446 -0.0371976134203 1.52575424644e-20)
(0.090302489531 -0.0305716628108 4.40014260293e-20)
(-0.0685931546769 0.00323652498613 1.23901640885e-18)
(-5.85362947754 -29.9677955631 8.86661513445e-19)
(0.106709185068 -0.00103794028069 8.25611608775e-22)
(0.105831954374 -0.00472249672273 5.64923842476e-22)
(0.106737260266 -0.00738610615877 1.20941026374e-22)
(0.108344127496 -0.0103894441388 -2.7398032408e-22)
(0.110320651737 -0.0132520015194 -6.78751135344e-25)
(0.11263127492 -0.016175621654 1.57412119192e-23)
(0.115268945897 -0.0191337508067 6.60479646262e-23)
(0.118147246135 -0.0221809565742 1.02087640891e-23)
(0.121220792192 -0.0253592885576 2.4675429473e-23)
(0.124291891672 -0.0287048546515 1.33150560667e-22)
(0.127133405868 -0.0322097520267 -7.11659846701e-23)
(0.1294927584 -0.0358104856598 2.07967542629e-23)
(0.130870164887 -0.0394449745394 -3.2027311734e-22)
(0.130804193337 -0.0430884059481 -2.10989023948e-22)
(0.1287908622 -0.046715893993 6.62389219571e-22)
(0.124100461686 -0.0506279037597 -6.09345795886e-22)
(0.119699206338 -0.0305618404169 1.08205630125e-20)
(0.101434346446 0.00743740452857 4.43502246628e-20)
(0.788625360181 -0.0599701858415 2.74646931317e-19)
(27.4174605389 5.70538712623 4.55066775232e-19)
(0.109543742584 -0.000779223617363 8.42875800691e-22)
(0.108576550883 -0.00397724172885 3.60108656742e-22)
(0.109502220783 -0.0061754165907 1.94676423515e-22)
(0.111169133562 -0.00871327329098 -7.28486383535e-24)
(0.113196048868 -0.0111445706364 -2.85666381347e-23)
(0.115564434116 -0.013705278589 1.14559639375e-22)
(0.118294506033 -0.016372905481 1.32074203159e-22)
(0.121292591669 -0.0191877730289 1.49222637959e-23)
(0.124447076052 -0.0222832932589 1.71469276214e-23)
(0.127608515687 -0.025758663605 -1.32164352008e-23)
(0.130575907179 -0.0296368956886 1.20884930537e-23)
(0.133053922132 -0.0340114922672 3.53554004418e-22)
(0.134603322797 -0.0389321983088 -6.8991512004e-23)
(0.134713790204 -0.0444177614948 1.82085959423e-23)
(0.132803081727 -0.0504611074228 -2.778199099e-21)
(0.12801623172 -0.0572081232718 -3.37373986329e-22)
(0.118008467453 -0.0449618912877 -2.62105971776e-21)
(0.0820688191665 -0.0126962135337 -9.19696824359e-22)
(0.439219081531 0.00696115513782 -2.35131808467e-19)
(5.69036578479 7.89888991526 -8.67151729631e-19)
(0.11186867079 -0.000518200833663 9.22293554644e-22)
(0.110814202167 -0.00320672173703 2.05335819258e-22)
(0.111798521568 -0.00490747609258 2.48095191416e-22)
(0.113538357788 -0.00697300723757 1.42221192544e-22)
(0.115655832205 -0.00897664349637 8.39126160903e-23)
(0.1181760966 -0.0111118117555 3.8741578674e-23)
(0.121067741146 -0.0134135320043 9.62386267535e-23)
(0.124282823138 -0.0160293760308 -3.87946943867e-23)
(0.127683941428 -0.0190430993725 9.20959401624e-24)
(0.131206832327 -0.0225768046994 1.91737878931e-22)
(0.134638572754 -0.0267759881607 3.57796923042e-23)
(0.137710055109 -0.031836923547 2.78995022931e-22)
(0.140024360492 -0.0379909989201 -8.00067297169e-23)
(0.141036638846 -0.0454543338592 3.08112777473e-22)
(0.140002035254 -0.0544409676316 2.45748142094e-21)
(0.136667641208 -0.066152743518 4.86406371071e-21)
(0.127477013676 -0.0627861505101 -2.08337313278e-20)
(0.100010205373 -0.0391572421369 -2.08851395372e-20)
(0.398513551905 -0.09558661853 -2.00367479861e-19)
(2.91363804681 2.02212466821 -1.02622817531e-19)
(0.11362783931 -0.000264904697705 2.87478581294e-22)
(0.112511777897 -0.00238680410865 -6.67228767335e-22)
(0.113544207423 -0.003576143572 8.49257936272e-23)
(0.115380990114 -0.00514393346264 -2.36935613852e-24)
(0.117654365207 -0.00662948269514 7.0290280557e-23)
(0.120357954928 -0.00832910162032 1.413883467e-23)
(0.123458523813 -0.0102754219985 2.17080350133e-23)
(0.126966355554 -0.0125736552409 -1.07280477241e-23)
(0.130825855209 -0.0153587148777 1.22021749478e-22)
(0.134956918342 -0.0188026267415 4.46467232484e-23)
(0.139215048676 -0.0231410463224 7.89069045293e-23)
(0.143380127297 -0.0286652473934 1.74240656177e-22)
(0.147138984638 -0.0357920117827 -1.39518514729e-22)
(0.150029698327 -0.0450405959057 1.38437658393e-22)
(0.151270574289 -0.0569876940643 -1.61671376531e-21)
(0.151165610102 -0.0738837262233 5.92905038919e-21)
(0.146661163884 -0.077153841285 6.15087240971e-21)
(0.135767588747 -0.0543142878565 -1.19405385885e-20)
(0.406597548794 -0.152873332998 -1.72399950948e-19)
(-1.2596922454 1.44840696234 9.63721520296e-20)
(0.114799590047 1.47435745372e-05 -1.01808112852e-22)
(0.113629896708 -0.00152964143466 -1.63590334135e-21)
(0.114708748263 -0.00216630927329 2.86553572993e-23)
(0.116667407882 -0.00316071522384 1.58462931631e-22)
(0.119088714261 -0.00412952769179 3.24648259135e-23)
(0.12197003631 -0.00534680759455 -3.72403627068e-25)
(0.125363414294 -0.00681514449867 4.83270175407e-23)
(0.129279921507 -0.00866574111726 -3.1279620933e-23)
(0.133703070622 -0.0110554956223 8.41146417796e-23)
(0.1386111432 -0.0141905665472 4.66728513682e-23)
(0.143931689114 -0.0183589431615 -1.48642812712e-22)
(0.149571762292 -0.0239359521854 1.1180891238e-22)
(0.155350875049 -0.031485379099 -1.12781328143e-22)
(0.161069170319 -0.0417819472327 4.87928110114e-22)
(0.16618322126 -0.0558517315498 -4.02468841079e-22)
(0.171635781817 -0.0776617866445 9.87950873863e-21)
(0.175756916503 -0.0892477229304 1.15256473334e-20)
(0.178593273209 -0.0773178586954 2.47446342357e-20)
(0.426386744377 -0.22944496051 9.95672192453e-19)
(1.19566925862 -5.96711821569 5.94828257681e-19)
(0.115394357751 0.000300906890041 8.68684663017e-23)
(0.114156809477 -0.000620202390691 -7.61098231725e-23)
(0.115309918474 -0.000671077440783 1.72997459501e-22)
(0.117372203321 -0.00107405367942 1.04858936242e-22)
(0.119915012676 -0.00146617519282 3.72995007212e-23)
(0.123008857709 -0.00209650808669 -4.62210768057e-23)
(0.126715574535 -0.00297470828016 2.75001939288e-24)
(0.131077191163 -0.00423447888955 1.4018206777e-23)
(0.136125740549 -0.0060297310248 6.71364191997e-23)
(0.14187647607 -0.00857808198141 1.96538026158e-23)
(0.148383203376 -0.0121849692934 5.24140782362e-23)
(0.155687207193 -0.0172590672704 1.73431593934e-23)
(0.163829344811 -0.0244100920346 -5.05873288006e-23)
(0.172920569263 -0.034529009418 1.94549028292e-22)
(0.182992585264 -0.0486975431947 4.86240271693e-22)
(0.195649731051 -0.0714740273299 3.02563880284e-21)
(0.212278150298 -0.0860989511877 9.61216431102e-21)
(0.23086692138 -0.0811146087842 2.449138375e-20)
(0.564324068153 -0.157381952727 -1.22528346361e-19)
(4.83512817683 1.80800808344 3.26566256146e-19)
(0.115367069784 0.000590784131034 3.83820169191e-22)
(0.114059475188 0.000335744022405 8.72572919424e-23)
(0.115262952206 0.00090722084866 2.02913354706e-22)
(0.117414445252 0.00112606476673 2.43623830558e-23)
(0.120099677854 0.00136904972342 8.75532146267e-23)
(0.123402878075 0.00141495881228 2.90634859684e-23)
(0.127412998578 0.00124197855943 1.61687353507e-23)
(0.132182228175 0.000737098878159 1.58915953894e-23)
(0.137818179277 -0.000261086699805 4.81559817382e-24)
(0.144394374782 -0.00193490786759 3.32911651827e-23)
(0.152069933054 -0.00454734272322 5.1373463627e-23)
(0.161012337769 -0.00849337694876 -1.22947996017e-22)
(0.17153186661 -0.0143355119776 2.16337773407e-22)
(0.183961164879 -0.0228929176268 -2.45458570226e-22)
(0.199031476297 -0.0349476197398 -2.27815144324e-22)
(0.218524244706 -0.0547393712645 2.67281441616e-22)
(0.246205628029 -0.0682055919189 -3.83725843652e-21)
(0.282659551367 -0.0679324307176 1.06427554832e-20)
(0.702667477448 -0.115196009833 7.0979785298e-20)
(1.44563426485 0.367823357816 -9.51084302964e-20)
(0.114693723632 0.00088378580599 6.4434115848e-22)
(0.113319790322 0.00131819257971 -1.47876722244e-22)
(0.114550002195 0.00253918114591 -1.30315498865e-22)
(0.116771668198 0.00343816719354 1.18063380095e-22)
(0.119577044763 0.0043786824498 5.56896135507e-23)
(0.123050093836 0.00517236083481 3.50885103533e-25)
(0.127300337928 0.00579042288537 -2.97332363618e-23)
(0.1324140886 0.00616510681864 -2.98702135464e-23)
(0.138542341221 0.00618107623171 -1.62612680826e-23)
(0.145837719664 0.00567316768713 -2.28808034192e-23)
(0.154502695255 0.00443428682279 3.91298943302e-24)
(0.16484927248 0.00220200024947 -1.88368273933e-22)
(0.177340494808 -0.00151429675508 9.08631598828e-23)
(0.192579047669 -0.00732035470713 8.06375673421e-23)
(0.211745306781 -0.0155119342917 1.52680238587e-21)
(0.236451028333 -0.0295920714693 2.52338804884e-21)
(0.272197194656 -0.0398354386396 3.57596012173e-21)
(0.32189604895 -0.0435232578678 -4.88210935085e-21)
(0.764090198182 -0.07678597806 -4.3827306657e-20)
(0.507549373788 0.0399126206467 -3.74167715536e-21)
(0.113373974867 0.0011827547492 5.03502214844e-22)
(0.111938922915 0.00232995461904 3.62538387566e-23)
(0.113166715192 0.00422092350514 -5.832834137e-23)
(0.115430009306 0.00582567969265 1.8033559028e-22)
(0.11829871975 0.00749898350118 4.44499830605e-23)
(0.121874391306 0.00909287213001 1.07375696246e-23)
(0.126278328624 0.0105973031836 -9.71639338108e-26)
(0.131651231116 0.0119770640932 -8.02917962732e-24)
(0.138119499467 0.0131576236155 -6.13244354052e-23)
(0.145904549727 0.0140222375891 -5.82572555814e-24)
(0.155269328986 0.0144692495687 -1.31551506364e-22)
(0.166624180559 0.0143521631841 -2.80253573347e-22)
(0.1804441286 0.0133603529818 1.91789916452e-22)
(0.197598920548 0.0111823134437 -5.50671059814e-22)
(0.219344683962 0.00780505193415 3.51511749599e-22)
(0.247212960531 0.00120439154468 1.00926264449e-21)
(0.287545012417 -0.00543920036635 -6.24528468475e-22)
(0.34776727137 -0.0132547503678 -1.29969932313e-20)
(0.778082030488 -0.021530151667 -5.60822307702e-21)
(0.35644308628 0.0824754595378 -2.30727675284e-21)
(0.111367399494 0.00149499414927 4.66234525096e-22)
(0.10986060207 0.00334488086422 -4.55252222699e-22)
(0.111082171779 0.00590341058235 -5.89536094465e-23)
(0.113340155695 0.00824404270108 6.4418294367e-23)
(0.116222972346 0.0106771806534 -3.20224507788e-25)
(0.119827673384 0.0131106017428 7.9408255315e-24)
(0.124289301768 0.015556715038 -9.84517177725e-24)
(0.129752364197 0.0180012831256 4.51600238197e-23)
(0.13638225244 0.0204319994698 8.03742809866e-24)
(0.144378460755 0.0228255149855 -2.7763921364e-23)
(0.154100581296 0.0251641405842 5.68490687051e-23)
(0.165913230838 0.0273984865851 -2.24325561201e-22)
(0.180370002297 0.0294546827818 1.06578382271e-22)
(0.198384169673 0.0312326200043 -7.49442766861e-22)
(0.221214141107 0.0329935221349 3.48383228602e-22)
(0.250309062099 0.0343858586602 1.58529950153e-21)
(0.293474457119 0.0295514489878 3.38832648198e-21)
(0.357176777029 0.0175951914387 8.6309511826e-21)
(0.727019757904 0.0404725690708 5.42469918574e-22)
(0.282614578595 0.188525859595 -5.75167384085e-21)
(0.108667452843 0.00178611725898 1.35101769154e-22)
(0.107083009429 0.00435266983192 5.02874194612e-23)
(0.108291868622 0.007576173584 1.16741870731e-22)
(0.110498207412 0.010635721445 -1.61909383664e-23)
(0.113327762168 0.0138351533644 1.8577497065e-24)
(0.116869464201 0.0171143451641 1.90343522664e-23)
(0.121262410262 0.0205110140528 1.97727568238e-24)
(0.126666806169 0.0240684470103 1.28409479579e-23)
(0.133238465298 0.0277852418809 5.40604416017e-24)
(0.141183316692 0.0317424084198 2.30820158708e-23)
(0.15083155293 0.0360138620644 5.77296997385e-23)
(0.162532743938 0.0406566172614 9.48618190995e-23)
(0.176857092259 0.0458573508869 3.58765057246e-22)
(0.194647761282 0.0517488016089 2.38050401397e-22)
(0.217321669317 0.0585201744264 1.55092057975e-22)
(0.246235146934 0.067870961368 2.63890545776e-21)
(0.289904051723 0.0673364335107 -7.01242018387e-22)
(0.350545756392 0.0505706570099 -8.31008864803e-21)
(0.572621944958 0.122174773499 -1.90118172504e-20)
(0.23171656401 0.28307410839 -1.88326411957e-20)
(0.10533951298 0.0020433906658 1.63066547786e-22)
(0.103670879616 0.00531407933515 -2.23399835659e-22)
(0.104808880439 0.00917793864304 2.3823255019e-22)
(0.106923982106 0.0129414528702 1.02884059159e-22)
(0.10963971233 0.0168965913215 1.39811379264e-23)
(0.113035909543 0.0210058198203 -1.04455143224e-23)
(0.117257318616 0.0253489766299 -1.88758713732e-23)
(0.122438782299 0.0299758562637 2.39060621497e-24)
(0.128713180362 0.0349477974301 -9.50339580313e-24)
(0.136325206286 0.0404211291592 -1.16298386215e-23)
(0.145473919755 0.0465256586333 1.02747160216e-22)
(0.156521015036 0.0534625508296 -7.29989917281e-23)
(0.16989335413 0.0616216201703 -2.36231437101e-23)
(0.186274819113 0.0715205791839 -3.3612163106e-22)
(0.20726376586 0.0833958589026 -1.27096224267e-22)
(0.23452112809 0.100101716898 -5.28996404348e-22)
(0.271981986662 0.112729124408 -5.7965735733e-21)
(0.311776325067 0.107414226273 -3.13591130455e-20)
(0.417541085731 0.140929637636 -4.96776317048e-20)
(0.116762745525 0.527152091356 -4.13723319781e-19)
(0.101397574934 0.0022994697804 1.15936070832e-22)
(0.0996449556551 0.00622205237626 -2.60673594528e-23)
(0.100661534844 0.0106875204275 1.73684793642e-23)
(0.102649205337 0.0151199330131 1.04071046232e-22)
(0.105190051962 0.0197911509292 4.76887416837e-23)
(0.108358038634 0.0246907914927 3.48474722748e-24)
(0.112292117421 0.0299068423253 -3.15417772306e-24)
(0.117097386051 0.0355270131954 -2.44521223483e-24)
(0.122921538901 0.0416743942596 -5.15815865504e-24)
(0.129932689422 0.0485058044901 1.95426000534e-24)
(0.138262563066 0.0562145111952 2.00067550972e-23)
(0.148144033264 0.0650925802364 3.18459412162e-23)
(0.15975613045 0.0756268358823 6.16700379981e-23)
(0.173494231824 0.0889620812568 8.455235209e-23)
(0.190364459087 0.105635829649 1.67756826347e-22)
(0.211347285213 0.131060064767 -1.13068257883e-21)
(0.235484151188 0.156045672701 -1.62515184554e-20)
(0.250286904466 0.164794027876 -7.14169681042e-21)
(0.313276420435 0.264095070935 -5.61847582364e-21)