/*--------------------------------*- C++ -*----------------------------------*\
| =========                 |                                                 |
| \\      /  F ield         | OpenFOAM: The Open Source CFD Toolbox           |
|  \\    /   O peration     | Version:  v2012                                 |
|   \\  /    A nd           | Website:  www.openfoam.com                      |
|    \\/     M anipulation  |                                                 |
\*---------------------------------------------------------------------------*/
FoamFile
{
    version     2.0;
    format      ascii;
    class       volScalarField;
    location    "2.4";
    object      k_0;
}
// * * * * * * * * * * * * * * * * * * * * * * * * * * * * * * * * * * * * * //

dimensions      [0 2 -2 0 0 0 0];


internalField   nonuniform List<scalar> 
1984
(
0.00375333810842
0.00434759251935
0.00454017784631
0.00461318492953
0.00464961443795
0.00467602884395
0.00470034423489
0.00472477324215
0.00475010615464
0.00477740238113
0.00480989914514
0.00485779686724
0.00494880352097
0.0051429856924
0.00553503017772
0.00625528155154
0.00745233771662
0.00957812745334
0.0158403897186
0.0475639910267
0.00436377902058
0.00532882057073
0.00562399803996
0.00573092024795
0.00577739556264
0.00580627809985
0.00583088030144
0.0058550476691
0.00588016939923
0.00590799076818
0.00594372118406
0.00600258742645
0.00612261686041
0.00638041523122
0.0068899111231
0.00777351563919
0.00914836974172
0.0116998357475
0.0207567569618
0.0671071961466
0.00455790966877
0.00562676344185
0.00595790857931
0.00607669624443
0.00612603577019
0.00615497058827
0.00617896214536
0.00620248247173
0.00622707606984
0.0062547374612
0.00629113484076
0.00635270086628
0.00647964002174
0.00675166659338
0.00728636627512
0.00821151065928
0.0096352161538
0.012293309729
0.0224409627683
0.0746530981772
0.00463242953247
0.0057384333532
0.00608335470188
0.00620609383022
0.00625560785803
0.00628366208746
0.00630667038196
0.00632935230067
0.00635330235162
0.00638047760452
0.00641664706975
0.0064781838476
0.00660525818887
0.00687764784293
0.00741404988412
0.00834808369327
0.00979522989061
0.0124934283044
0.0227335319124
0.0723794668652
0.00466828671548
0.00578745747597
0.00613720395212
0.00626061191655
0.00630923046886
0.0063360379183
0.00635788078927
0.00637958013505
0.00640271797541
0.00642918838868
0.00646459968976
0.00652508858019
0.00665015247092
0.00691904644265
0.00745126728752
0.00838527594642
0.00984573725185
0.0125293354547
0.0222825479326
0.0704122758664
0.00469202301792
0.00581635943061
0.0061674074465
0.00629021704998
0.006337576968
0.00636303581075
0.00638363806179
0.006404252974
0.00642645438381
0.00645206073066
0.00648645452947
0.0065453853424
0.00666763746901
0.00693183334455
0.00745830570126
0.00838952236104
0.00985358814887
0.0124542457537
0.0214483599554
0.0686954149864
0.00471189445686
0.00583901216313
0.00619015568979
0.00631198593346
0.00635804027319
0.00638219282108
0.00640158133844
0.00642109716474
0.00644229681889
0.00646692759239
0.00650016821004
0.00655729403028
0.00667634111744
0.00693524040287
0.00745516421742
0.00838279888788
0.00985896449489
0.0125215097694
0.0216537946206
0.0682024513331
0.00473033539972
0.00585966040953
0.00621060696994
0.00633142110858
0.00637625617415
0.00639920109457
0.00641745477783
0.00643591094283
0.006456114339
0.00647973390337
0.00651175409426
0.00656692601552
0.00668248376043
0.00693556736786
0.00744821813317
0.00837130389921
0.00986376920142
0.0126686859936
0.0222135815163
0.0603414336485
0.00474800058893
0.00587955772461
0.0062302490699
0.00635011497926
0.00639384854472
0.00641570761503
0.00643292129871
0.00645038992099
0.00646963562451
0.00649225733914
0.00652302955731
0.00657615892366
0.00668799726434
0.00693474957698
0.00743922799825
0.00835618027362
0.00986152107075
0.0127679043265
0.0228585446833
0.0603490914484
0.00476501240662
0.00589896113634
0.00624944040447
0.00636841618263
0.00641116778275
0.00643206424554
0.00644834422672
0.00646490706966
0.0064832564385
0.00650490714269
0.00653443614082
0.0065854663647
0.00669338509905
0.00693329244774
0.00742860831838
0.00833755926689
0.00984629340385
0.012722832183
0.0223661045171
0.0597888816506
0.00478136055014
0.0059178628759
0.00626818540624
0.0063863495986
0.00642821240933
0.00644825311932
0.00646370325404
0.0064794490805
0.00649697059087
0.00651770474046
0.00654600406321
0.00659490333994
0.00669874066478
0.00693132773682
0.00741648643626
0.00831577197287
0.00982659744142
0.0126517772982
0.0214969781289
0.0666168849436
0.00479701506014
0.00593621696652
0.00628642183963
0.0064038382971
0.00644489963501
0.00646418037966
0.00647889551774
0.0064939076622
0.00651066412816
0.00653053722589
0.00655765385936
0.0066044326486
0.00670406968445
0.00692893421766
0.00740298508974
0.0082910539742
0.0098084648122
0.0126814266186
0.0208781961703
0.0620187844474
0.00481194298929
0.00595394887703
0.00630408047617
0.00642080557371
0.00646113752145
0.00647974013874
0.00649380035373
0.00650815505728
0.00652421955879
0.00654329700899
0.00656928651755
0.00661400884015
0.00670947237256
0.00692642268749
0.0073885949043
0.00826346048248
0.00978765812705
0.0128445716876
0.0219476415568
0.0625510858878
0.00482610573956
0.0059710050172
0.00632107237565
0.00643716449312
0.00647684394311
0.00649484753517
0.00650833105674
0.00652210076111
0.00653755036921
0.00655590636024
0.00658083857524
0.00662363266132
0.00671513542537
0.00692456789767
0.00737518894102
0.00823550810936
0.00975537120318
0.0129380242659
0.0228912023552
0.053348098737
0.00483947624096
0.00598733276915
0.00633731633112
0.00645284746155
0.00649194829679
0.00650943245412
0.00652241645469
0.00653568071673
0.00655058721608
0.00656829357759
0.00659228290277
0.0066333580971
0.00672141710901
0.00692463298417
0.00736644487717
0.00821593203867
0.00971543614074
0.0127894895422
0.022272865316
0.0477093344627
0.00485207002498
0.00600284472557
0.00635280050306
0.00646781576624
0.00650639846659
0.00652343850189
0.00653600279731
0.0065488280407
0.0065632515975
0.00658040399967
0.00660356068185
0.00664319055283
0.00672851481153
0.00692749738276
0.00736599591704
0.00821981851828
0.00971677498215
0.0125434267091
0.0204916997094
0.0451347055128
0.0048639151577
0.00601756170621
0.00636748435348
0.00648203116052
0.00652017248157
0.00653682628497
0.00654903331269
0.00656149550857
0.00657553057362
0.00659220042904
0.0066146448225
0.00665302146298
0.00673602571936
0.00693168008716
0.00737045049203
0.00825109332139
0.00985638657463
0.012774580606
0.0193694486954
0.0453473100925
0.00487496412367
0.00603136188818
0.00638130756841
0.00649546546465
0.00653321957401
0.00654955424521
0.00656147712574
0.00657364380607
0.0065873496461
0.00660361817838
0.00662543712363
0.00666259060275
0.00674300308095
0.00693391418188
0.00736989951807
0.00828630103096
0.0101138108428
0.0137073177426
0.0207292055801
0.0513222247489
0.00488511354835
0.00604417058731
0.00639421152739
0.00650804806017
0.00654550827339
0.00656161147478
0.00657331438191
0.00658526498827
0.00659873431639
0.00661468999773
0.00663596776965
0.00667190814882
0.00674938492249
0.00693403457068
0.00736307566072
0.00830831149387
0.0103531863534
0.0146686402695
0.0231808399193
0.0492147838075
0.00489438483968
0.00605612936934
0.00640620914293
0.00651979759899
0.00655702592278
0.00657295557141
0.00658452246881
0.00659634104542
0.00660966202382
0.00662539766236
0.00664622179601
0.00668101535674
0.00675553628326
0.00693378352554
0.00735517367803
0.00831885982982
0.0104996837689
0.0152042038905
0.024931365114
0.051177183307
0.00490272948682
0.00606715116909
0.00641732541633
0.00653070853984
0.00656775433697
0.00658357314472
0.0065950760201
0.00660684367173
0.00662010845594
0.00663571791758
0.00665619025984
0.00668992560523
0.00676160779375
0.00693384357254
0.00734868774218
0.00832696315425
0.0105973823732
0.0155081988532
0.0256271776192
0.0560993084764
0.00491005062514
0.00607719175066
0.00642748642314
0.00654071646885
0.00657765242493
0.00659343570262
0.0066049454579
0.00661673074776
0.00663001744406
0.0066456028407
0.00666583044594
0.00669860300234
0.00676755413941
0.00693406350257
0.00734298811894
0.00833292731675
0.0106677133821
0.0157149328573
0.0264432930468
0.0617967154147
0.00491629515784
0.00608618131929
0.00643665309439
0.00654979917403
0.00658669115383
0.00660249771922
0.0066140776345
0.00662596782344
0.00663936677811
0.00665503021661
0.00667510935714
0.00670700827411
0.00677325958621
0.00693408441537
0.00733683041049
0.00833447559289
0.0107142808677
0.0158782203525
0.0277296155709
0.0694316112748
0.00492145075115
0.00609409826331
0.00644479132101
0.00655792509296
0.00659483409686
0.00661072436821
0.00662244518365
0.00663453281099
0.00664813619168
0.00666395926015
0.00668399328252
0.00671512207341
0.00677872502262
0.00693372729757
0.00732922114877
0.00832942769072
0.0107348402917
0.0160038900473
0.0291930396251
0.0726143335173
0.00492545259396
0.00610078674364
0.00645177954402
0.00656500378712
0.00660201298102
0.00661806293173
0.00663000491572
0.00664235979287
0.00665626604007
0.00667235424004
0.00669246302029
0.00672292719667
0.00678399584834
0.00693309540238
0.0073204220301
0.00831840133316
0.0107341484577
0.0160923469309
0.0310150646056
0.0733558766903
0.0049283206067
0.00610610661041
0.00645749726742
0.00657094043763
0.00660815340831
0.00662444855512
0.0066366929369
0.00664940447517
0.00666371283001
0.00668019315687
0.0067004972423
0.00673046513435
0.00678922563514
0.00693268867844
0.00731217476296
0.00831010058295
0.0107363057162
0.0159818405122
0.0298774432835
0.0700165450066
0.00493024800168
0.00610998798449
0.00646178657618
0.00657560816039
0.00661316148964
0.00662980816786
0.0066424523958
0.00665561918977
0.00667043297167
0.00668744502639
0.00670812198084
0.00673786787962
0.00679481466945
0.00693377639464
0.00730895075037
0.00832354440212
0.0108153422923
0.0157017375984
0.0232015937987
0.0317351070197
0.00493141645662
0.00611241585722
0.00646455402611
0.00657890593624
0.0066169571285
0.00663407194203
0.00664721195955
0.00666093549305
0.00667638460469
0.00669407671296
0.00671534417141
0.00674522405178
0.00680109137869
0.00693751157492
0.00731502491585
0.00838030493328
0.0111263692467
0.0166921938384
0.0253388397792
0.0366018706538
0.00493165848386
0.00611314570163
0.00646564898873
0.00658072144117
0.00661944896088
0.00663716252314
0.00665090622803
0.00666530616772
0.00668152363623
0.00670006639613
0.00672216133604
0.00675255237717
0.00680797588055
0.00694268366945
0.00732279915215
0.00844119696338
0.0115491340914
0.0187409511424
0.0334077940002
0.0710047289952
0.00493066121093
0.00611195855177
0.00646493070092
0.00658094987323
0.00662054985897
0.00663900511492
0.00665347144875
0.0066686620976
0.00668578072635
0.0067053482025
0.00672852011083
0.00675980012368
0.00681538769131
0.00694925379467
0.00733291933535
0.00850575354287
0.0119838397056
0.0205511773675
0.0375307744745
0.0746492962732
0.00492860711445
0.0061088293911
0.00646231611746
0.0065794944186
0.00662015670164
0.00663949388484
0.0066547949785
0.00667089048777
0.00668905199761
0.0067098269549
0.00673433114479
0.0067669337031
0.00682378144845
0.00696061010187
0.00736097139271
0.00861354536085
0.0123498811895
0.0214059014459
0.0388899520056
0.0751960034968
0.00492503884551
0.00610367912597
0.00645771818376
0.00657625391839
0.0066181627314
0.00663852304486
0.00665477539082
0.00667189344773
0.00669122966555
0.00671335963303
0.00673942308699
0.0067739331875
0.00683429287996
0.00698440268417
0.00744152273631
0.0088559066755
0.0127805340602
0.0216193379955
0.038615441487
0.074909026346
0.00491973178944
0.00609642408255
0.00645106466903
0.00657113107906
0.00661445816663
0.00663597731879
0.00665329996871
0.00667156037402
0.00669219094776
0.0067158073713
0.00674366712438
0.00678083764169
0.00684868185387
0.0070325547807
0.00762300115058
0.00935364283744
0.0133994621695
0.0211742822888
0.0359080699638
0.0718769453524
0.00491251655501
0.00608695741634
0.00644222120158
0.00656399358417
0.00660891948649
0.00663174721321
0.00665026322014
0.00666976710086
0.00669178020193
0.00671702184791
0.00674690587683
0.00678761073924
0.0068677483762
0.00710678656727
0.0078912326062
0.0100090729319
0.0142130732225
0.0208754365112
0.0306757479959
0.043969024312
0.00490331183005
0.00607512886005
0.00643106579164
0.00655472203165
0.00660143355575
0.00662572175145
0.00664555566852
0.00666640129338
0.00668989725292
0.00671684120604
0.00674886886737
0.00679395508648
0.00689031320943
0.0071921323501
0.0081545992407
0.0106172482027
0.015516548371
0.0240247340832
0.0377114366079
0.068622253291
0.00489200976429
0.00606086114817
0.00641747695278
0.00654318629174
0.00659188023674
0.00661779674808
0.00663908601226
0.0066613986943
0.00668645603117
0.00671509428747
0.0067491267778
0.00679779021127
0.00690535142149
0.0072431001073
0.00828226693016
0.0109028649052
0.0164850948098
0.0275053430139
0.0447446298014
0.0765038750472
0.00487834152787
0.00604401002442
0.0064013420086
0.00652926566155
0.00658011854359
0.00660785576795
0.00663077393164
0.00665469039937
0.00668140711542
0.00671166870399
0.006746752655
0.00679326539316
0.00688410838044
0.00715964782643
0.00808311119839
0.0107069429271
0.0164384943357
0.0260726306053
0.0402497980723
0.0662405901052
0.0048625564194
0.00602452024876
0.00638256394347
0.00651283838219
0.00656605653939
0.00659581981069
0.00662056637864
0.00664628043504
0.00667487919548
0.00670708007792
0.00674393824764
0.00679089637174
0.00687623523689
0.00713093652971
0.00803220500771
0.0107536585567
0.0167617890165
0.0262139313456
0.0381973335284
0.0556000367208
0.00484435432692
0.0060024134361
0.00636112357633
0.00649385045481
0.00654960231817
0.00658159236256
0.00660836046959
0.0066361073229
0.00666681447468
0.0067012125643
0.00674048585369
0.00679118240017
0.0068900348142
0.00720968837893
0.00833448927561
0.0114134605031
0.0173473948685
0.0262968602
0.0367569305399
0.0498779104122
0.00482374153039
0.00597767408402
0.00633702746689
0.00647225289909
0.00653067823278
0.00656507868471
0.00659411393319
0.00662413982866
0.00665718178258
0.00669400411871
0.00673588797173
0.00679106379846
0.006907115993
0.00730009966264
0.00861113460862
0.011792692104
0.0174812775203
0.0266620935456
0.0380088334043
0.0582407314663
0.0048005878567
0.00595036270425
0.00631030924427
0.00644807889439
0.0065092648652
0.00654626583789
0.00657782256101
0.00661040066342
0.00664605767411
0.00668536963076
0.00672879060498
0.00677969508063
0.00685948203185
0.00707622618765
0.00785241621021
0.0103484452475
0.0165169005075
0.0279198785416
0.0426369055531
0.0636809097488
0.00477531078515
0.00592080181338
0.00628125986994
0.00642144212097
0.00648542200534
0.00652514925439
0.00655944828383
0.00659492282041
0.00663363002885
0.00667613086062
0.00672243685581
0.00677410905061
0.00684348954193
0.00700138363404
0.00757737527373
0.00975276300493
0.0163194057047
0.0295843473319
0.0477556458733
0.0775885846866
0.00474803909391
0.00588940269381
0.00625025605029
0.00639267428597
0.00645929481565
0.00650177234099
0.00653897699054
0.00657764992954
0.00661986189332
0.00666615859218
0.00671632505076
0.0067705508358
0.00683615165596
0.00696485543862
0.00742998707852
0.0094134886138
0.0163117851578
0.0312581605444
0.051607284127
0.0800568814576
0.00471920050714
0.00585684990341
0.00621797288162
0.00636225417004
0.00643116697479
0.00647606538781
0.00651594913878
0.00655749927921
0.00660299941704
0.00665357555955
0.00670862375359
0.00676684625804
0.00683277268993
0.0069538331582
0.00738565537114
0.00930910241458
0.0163399591276
0.0322673375508
0.054188121398
0.0817726051227
0.00468953262301
0.00582420488206
0.00618544041017
0.00633097671117
0.00640129978341
0.00644738551296
0.00648777831487
0.0065289443741
0.00657423883295
0.00662866255605
0.00668935950426
0.00675108495574
0.00681660385076
0.00694620009392
0.0073987642731
0.00941572315415
0.0165065009429
0.0320902539624
0.054189006877
0.0823054519299
0.00466012255423
0.0057928720263
0.00615401011537
0.00629975415884
0.00636956682468
0.00641261341158
0.00644485629974
0.00647101690913
0.00649812246545
0.00655390009984
0.00662147121343
0.00668101033937
0.00674140194017
0.00692467495552
0.00746191035361
0.00964836116487
0.0166519058404
0.0313333884007
0.0522275571072
0.0814660893727
0.00463225341134
0.00576444848998
0.00612522095983
0.00626962231645
0.00633479685155
0.00636316876749
0.00635884630675
0.00631373757809
0.00624228851666
0.00629463853764
0.00638246795774
0.00644214944589
0.00652225156739
0.0069018044018
0.00783363157924
0.0109925424427
0.0187272191173
0.0320980512289
0.0509935434676
0.0708425228632
0.00460710813624
0.00574043862886
0.00610058402535
0.00624142579043
0.00629470604944
0.00628133644244
0.00614352149551
0.00579429376533
0.00532889867356
0.00533170290697
0.00548915266561
0.00579082100804
0.00609584802622
0.00669732088883
0.00756318563986
0.0102921830053
0.0176694352752
0.0323434455059
0.054937839456
0.0734856475425
0.00458656181661
0.00572235858368
0.00608153515679
0.00621652241044
0.00625362164645
0.00619794263392
0.00595914923888
0.0051450918312
0.00568282194159
0.00654605271819
0.00735654058935
0.00984174261855
0.0174521178624
0.0341916826657
0.057341558518
0.0804000994622
0.00457249778578
0.00571214640916
0.0060718735992
0.00620450148934
0.00623242312265
0.00614786354322
0.00582697914995
0.00481161569371
0.00575070194002
0.0067332969193
0.00808883572955
0.0125070474065
0.0237789280612
0.0432199160151
0.0675178396828
0.0875676663996
0.00457249919141
0.00571214656635
0.00607187304328
0.00620450075983
0.00623242285083
0.00614786534668
0.00582698586423
0.00481162550444
0.00575079957342
0.00673356036564
0.0080895653613
0.0125089053725
0.0237826367674
0.0432263814977
0.0675244423411
0.0875740769949
0.00458656319223
0.0057223596505
0.0060815351404
0.0062165216663
0.00625362213256
0.00619794774464
0.00595916498292
0.0051451079909
0.00568303214603
0.00654662470471
0.00735792733541
0.00984425320502
0.0174552753693
0.0341972130881
0.0573523711387
0.0804027544611
0.00460711691797
0.0057404447971
0.00610058841417
0.00624142949732
0.00629471136516
0.00628134893893
0.00614354419843
0.00579432485249
0.00532892998427
0.00533174671412
0.00548920992585
0.00579090434614
0.00609602822155
0.00669768919625
0.00756402120344
0.0102935792652
0.0176711165155
0.0323449448889
0.0549376870176
0.0734836047195
0.00463226431119
0.00576445703353
0.00612522702708
0.0062696269436
0.00633480236814
0.00636317879933
0.00635886431239
0.00631376695953
0.00624232897994
0.00629469552293
0.00638254003891
0.00644224106307
0.00652240480387
0.0069021083421
0.00783425354932
0.0109936327256
0.0187286611759
0.0320992312974
0.0509941064381
0.0708401692964
0.00466013015822
0.0057928798881
0.0061540178484
0.00629976155263
0.00636957586828
0.00641262752099
0.00644487870563
0.00647105073614
0.00649817010131
0.00655396356762
0.00662154720301
0.00668110267236
0.00674154430694
0.00692493119405
0.00746232773173
0.00964891579896
0.0166522352318
0.0313331144719
0.0522265612072
0.0814656054576
0.00468953274375
0.00582421071974
0.00618544959214
0.00633098622747
0.00640131032343
0.00644740202468
0.00648780414414
0.00652898200926
0.006574290956
0.00662872987174
0.0066894390824
0.00675117355978
0.00681672653252
0.00694641580112
0.00739910422047
0.00941609914964
0.0165065038577
0.0320899200258
0.0541886630991
0.0823054931256
0.00471919773606
0.00585686154137
0.00621798858377
0.00636226638782
0.00643116298675
0.00647608250566
0.0065159768386
0.00655753884691
0.00660305305783
0.00665364340798
0.00670870412014
0.00676693439826
0.00683288424603
0.00695401926283
0.00738595794075
0.00930951735197
0.0163401233549
0.0322672528004
0.0541880026866
0.0817726527398
0.004748050665
0.00588942131289
0.00625027439988
0.0063926795713
0.00645929424483
0.00650176497568
0.00653899974359
0.00657769054993
0.00661991885468
0.00666622942747
0.00671641133754
0.00677064688144
0.00683626891721
0.00696503130109
0.00743024505894
0.00941390691778
0.016312098369
0.0312583083146
0.0516072850068
0.0800568446109
0.00477534244733
0.00592084535963
0.00628129994608
0.00642147784652
0.00648544717008
0.00652517774203
0.00655948364716
0.00659496511498
0.00663371658426
0.00667624066472
0.00672258229129
0.00677426991527
0.00684367967063
0.00700162732568
0.0075776816413
0.00975324977909
0.016319906703
0.0295847762064
0.0477559333951
0.0775884483753
0.0048006298894
0.00595042021038
0.00631036950559
0.00644813485744
0.00650931650801
0.0065463149815
0.00657787773488
0.00661047183119
0.00664614622956
0.00668549078656
0.00672894325159
0.0067798454
0.00685964642669
0.00707643057691
0.00785262702074
0.0103488234076
0.0165173827086
0.0279202962467
0.0426372231325
0.0636805738809
0.00482379420928
0.00597774417926
0.0063371012198
0.0064723260624
0.00653075034209
0.00656515062863
0.00659418958915
0.00662423272181
0.00665730091005
0.00669413453577
0.00673606329146
0.00679122389527
0.00690730079562
0.0073003341999
0.00861141077026
0.0117931630966
0.0174817257286
0.0266624847469
0.0380095508391
0.0582423276618
0.00484442182253
0.00600249719223
0.00636121111435
0.00649393915485
0.00654969205598
0.00658168398429
0.00660845691015
0.00663621873328
0.00666694897481
0.00670135827945
0.00674065952129
0.00679134957408
0.00689023349225
0.00720995586262
0.00833479591868
0.0114139044796
0.0173476751358
0.0262969540965
0.0367571832128
0.0498781649801
0.00486263336303
0.00602461421027
0.00638266252265
0.00651293980613
0.00656616142352
0.00659592829543
0.00662068049654
0.00664641036642
0.00667502963544
0.00670723923012
0.006744122237
0.00679107552995
0.0068764473165
0.00713122659395
0.00803253755634
0.010754041816
0.0167618538732
0.026213736147
0.0381973559058
0.0556001864398
0.00487842973718
0.00604411547895
0.0064014537952
0.0065293827867
0.00658024115815
0.00660798299314
0.00663090540157
0.00665483580335
0.00668157414454
0.00671183758455
0.00674695082983
0.00679345694023
0.00688433235392
0.00715993708333
0.00808343397107
0.0107072602289
0.0164385634583
0.0260724950891
0.0402500887959
0.0662412349397
0.00489208797446
0.00606095583729
0.00641757714728
0.00654329063563
0.00659198982508
0.00661791287275
0.00663921226492
0.00666154486973
0.0066866229676
0.00671526527724
0.00674931790085
0.00679797673998
0.00690558267788
0.00724338244792
0.00828257062173
0.0109031805075
0.016485261313
0.0275053755998
0.0447451146508
0.0765042186219
0.00490338134455
0.00607521661612
0.00643116138642
0.00655482272747
0.00660153968654
0.00662583497025
0.00664567944129
0.00666654404574
0.00669006168811
0.00671701971898
0.00674907076402
0.00679414092383
0.00689051225381
0.00719238352864
0.00815487690795
0.0106175708666
0.0155166967396
0.0240247589713
0.0377116105343
0.0686223016559
0.00491257749843
0.00608704058799
0.00644231524126
0.00656409408072
0.00660902575332
0.00663186056008
0.00665038649769
0.00666990785201
0.00669194287434
0.00671719952297
0.00674710712762
0.00678780481807
0.00686796111693
0.00710701122992
0.00789147802806
0.0100093360214
0.0142132636977
0.0208756522118
0.0306760357116
0.0439694347336
0.00491978846208
0.00609650593785
0.00645115910696
0.00657123271337
0.00661456570561
0.00663609163465
0.00665342303916
0.00667169911301
0.00669235020568
0.00671598054731
0.00674386252285
0.00678102655327
0.00684888815433
0.00703279202227
0.00762323333979
0.00935385841131
0.0133996088682
0.0211745370064
0.0359088543071
0.0718775442015
0.00492509367518
0.00610376133697
0.00645781383079
0.00657635688099
0.00661827140374
0.00663863785319
0.00665489763651
0.00667202934173
0.00669138414483
0.00671352669378
0.00673961071536
0.00677411499518
0.00683448850763
0.00698462947194
0.00744175138498
0.008856134108
0.0127806777637
0.021619580898
0.0386160520117
0.0749095131528
0.0049286653858
0.00610891395801
0.00646241368734
0.00657959874273
0.00662026614725
0.0066396085509
0.00665491580923
0.00667102295265
0.00668920104273
0.00670998778476
0.00673451138048
0.00676711026969
0.00682396854956
0.00696082479034
0.0073611803825
0.00861377497709
0.0123500712944
0.0214062740226
0.0388906337769
0.0751966307752
0.00493072488559
0.00611204601815
0.00646502958891
0.00658105495261
0.00662065955452
0.00663911931469
0.00665359068298
0.00666879100998
0.00668592439487
0.00670550390909
0.00672869442227
0.00675997453319
0.00681557185188
0.00694945904022
0.0073331151161
0.00850601116564
0.0119840726074
0.0205514894596
0.0375317168298
0.0746504399134
0.00493172369817
0.00611323400557
0.00646574808328
0.00658082659413
0.00661955859263
0.00663727633911
0.00665102416663
0.00666543185377
0.00668166236766
0.00670021855519
0.00672233190134
0.00675272812825
0.0068081651844
0.00694288865312
0.00732299434747
0.00844145225679
0.0115494814721
0.0187413051718
0.0334087136847
0.071007677697
0.00493147971028
0.00611250188065
0.00646465180634
0.00657901065523
0.00661706709763
0.00663418660595
0.00664733034303
0.00666105900073
0.0066765179897
0.00669422909653
0.00671551266019
0.00674540558254
0.00680128726814
0.00693771996555
0.00731521743826
0.0083805355373
0.0111267067933
0.016692608245
0.0253393923967
0.0366079139826
0.00493030728993
0.00611006984253
0.00646188213173
0.00657571244039
0.00661327256346
0.00662992514198
0.00664257406322
0.00665574392673
0.00667056228094
0.00668759550545
0.00670828701705
0.00673805183569
0.00679501268941
0.00693398558015
0.00730916341729
0.00832376436617
0.0108155876403
0.0157022943227
0.0232019758034
0.0317359679376
0.00492837408419
0.00610617991641
0.00645758588873
0.0065710388589
0.00660825956306
0.00662456186034
0.00663681278543
0.00664952954126
0.00666384265978
0.00668035039337
0.00670067362095
0.00673066256669
0.00678943878133
0.00693291225984
0.00731240144809
0.00831032375107
0.0107365111129
0.0159822914089
0.0298777203716
0.0700178951113
0.00492550698211
0.00610086285206
0.00645187165239
0.00656510762672
0.00660212685701
0.00661818638027
0.00663013673328
0.00664249822315
0.00665641002569
0.00667251856547
0.00669264095678
0.00672311825259
0.00678419648795
0.00693329987411
0.00732062596213
0.00831860984553
0.0107344184627
0.0160937831254
0.0310328731185
0.0734050709453
0.00492150259663
0.00609417047263
0.00644487765554
0.00655802221313
0.00659494124282
0.00661084188975
0.0066225736367
0.0066346721642
0.00664828677424
0.00666412948083
0.00668418060852
0.00671532422945
0.0067789374161
0.00693394136613
0.00732943077639
0.00832964302265
0.0107352740104
0.0160096315744
0.0292806876769
0.0729212665626
0.00491634496194
0.00608625088968
0.00643673602842
0.0065498933663
0.00658679657166
0.00660261483063
0.00661420703908
0.00662611021269
0.00663952305824
0.00665520315032
0.00667529843751
0.00670721118248
0.00677347052649
0.00693429391926
0.00733703180733
0.00833470233188
0.010715728204
0.0159139818369
0.0282778688495
0.0715584695698
0.00491009634824
0.00607725525242
0.00642756304719
0.00654080548059
0.00657775431548
0.00659355093197
0.0066050742942
0.00661687369272
0.00663017514193
0.0066457760601
0.00666601884774
0.00669880378477
0.00676776019777
0.00693426381414
0.0073431747125
0.00833313204972
0.0106693355482
0.015769643396
0.0276193594002
0.0695987082037
0.00490276923691
0.0060672051585
0.00641739271895
0.00653078986239
0.00656785037114
0.00658368418752
0.0065952018079
0.00660698444992
0.00662026432346
0.00663588912394
0.00665637640927
0.00669012323274
0.00676180830154
0.00693403388339
0.00734885634842
0.00832713509234
0.0105988981337
0.0155649216878
0.0269768138926
0.0649920904552
0.00489441736837
0.00605617116294
0.00640626528755
0.00651987052407
0.0065571144548
0.00657306046983
0.0065846429142
0.00659647699588
0.00660981294424
0.00662556334449
0.0066464015222
0.00668120545027
0.00675572670259
0.00693395933596
0.00735531756539
0.00831897128083
0.0105002576459
0.0152252625532
0.0255718343072
0.0609822516579
0.0048851410111
0.00604420521945
0.00639425864565
0.0065081177713
0.00654559277126
0.00656170956032
0.00657342715108
0.00658539303706
0.00659887536889
0.00661484365451
0.00663613312161
0.00667208208898
0.00674955823415
0.00693418972759
0.00736318607332
0.00830834103063
0.0103534165318
0.0146864499612
0.0238090265428
0.0568098882231
0.00487498924248
0.00603140089931
0.00638136512434
0.00649553637571
0.00653330195088
0.00654965098601
0.0065615816647
0.00657375866454
0.00658747446295
0.0066037506074
0.00662557931638
0.00666274462552
0.006743154593
0.00693404473934
0.00736996885528
0.00828622973418
0.0101137917976
0.013722601804
0.0212004860863
0.0566425436114
0.00486394351997
0.00601761436076
0.00636755008694
0.0064821070788
0.00652025162461
0.00653691184131
0.00654912614376
0.00656158843324
0.00657561717474
0.00659228873797
0.00661473516469
0.00665311679417
0.00673612365613
0.00693175592422
0.0073704559527
0.00825092604421
0.00985644657442
0.0127942210867
0.0197931451069
0.0559500971913
0.00485210338893
0.00600289932605
0.00635286826571
0.00646789146223
0.00650647802111
0.00652351772404
0.00653608137095
0.00654890186071
0.00656333054063
0.00658048234336
0.00660363522186
0.00664329334603
0.00672861575678
0.00692757354012
0.00736599626124
0.00821961601995
0.00971577815362
0.0125284547048
0.0201894904568
0.0447133563611
0.00483952219235
0.00598738822015
0.00633738231016
0.00645291403161
0.00649201581824
0.00650950136484
0.00652248668422
0.00653574255307
0.00655064563583
0.00656835788171
0.00659233457571
0.00663345910064
0.00672151340215
0.00692470952277
0.00736645144181
0.00821577545975
0.00971338568932
0.0127305033165
0.0214822317423
0.0494556634178
0.00482614207337
0.00597106568074
0.00632113041215
0.0064372227795
0.00647690329763
0.00649490745062
0.00650839081251
0.00652215428178
0.00653759722639
0.0065559556712
0.00658087873805
0.00662372266651
0.00671523853702
0.00692465343029
0.00737522545551
0.00823545083347
0.00975426767371
0.0129091960482
0.0228397576068
0.0658197404484
0.00481198141012
0.00595399723725
0.0063041300597
0.006420856388
0.00646118944809
0.00647979243073
0.00649385266777
0.00650820167029
0.00652425783413
0.00654334909974
0.00656931505161
0.00661410413503
0.0067095769953
0.00692651696778
0.00738866133412
0.00826350662752
0.00978840274849
0.0128650955593
0.0221291681987
0.0620423195499
0.00479704356127