/*--------------------------------*- C++ -*----------------------------------*\
| =========                 |                                                 |
| \\      /  F ield         | OpenFOAM: The Open Source CFD Toolbox           |
|  \\    /   O peration     | Version:  v2012                                 |
|   \\  /    A nd           | Website:  www.openfoam.com                      |
|    \\/     M anipulation  |                                                 |
\*---------------------------------------------------------------------------*/
FoamFile
{
    version     2.0;
    format      ascii;
    class       volScalarField;
    location    "4.2";
    object      alpha.water;
}
// * * * * * * * * * * * * * * * * * * * * * * * * * * * * * * * * * * * * * //

dimensions      [0 0 0 0 0 0 0];


internalField   nonuniform List<scalar> 
167
(
0.999991857449
0.999992261812
0.999992106088
0.99998958508
0.999987148829
0.999987935107
0.999991517017
0.999997777029
0.999998678505
0.526925898747
0.00474458212485
0
0.999990108571
0.999991165175
0.999990692953
0.999987282595
0.999987148699
0.999987155174
0.999994775526
0.999998199562
0.999998803924
0.529026966071
0.00464719034989
1.59835420446e-22
0.999989014677
0.999988234789
0.99998993458
0.999987959366
0.999987148633
0.999987149002
0.999993418462
0.999997541322
0.999998975984
0.530722206035
0.00485506900906
0
0.99998104084
0.999985520541
0.999985523349
0.999987338939
0.999989535109
0.999993888065
0.999997248492
0.999999220927
0.533870796753
0.00523447470261
-3.40781179442e-22
0.999977626872
0.999983251234
0.999988405109
0.999990144318
0.999993317927
0.999996918629
0.999999483439
0.538529801372
0.0062290673407
0
0.999977484618
0.999983524721
0.999988138142
0.999990023667
0.999992749844
0.999996710947
0.999999733231
0.543386337288
0.00698481496907
7.05860789379e-21
0.999977484432
0.999984564735
0.99998788487
0.99998967811
0.999992990077
0.999996717414
0.999999929021
0.548554594459
0.00693381959725
7.41205527624e-23
0.999977485608
0.999986192563
0.99998771306
0.999989454248
0.999993891515
0.999997530119
1
0.556245996822
0.00779584928278
1.06686777969e-21
0.999978133488
0.999987149336
0.999989125082
0.999989935098
0.99999403779
0.999997519463
1
0.566153114229
0.00907614711965
5.43901031256e-20
0.999981424543
0.999989316146
0.999991542056
0.999991783342
0.999996067881
0.999998682833
1
0.579491553204
0.0126914487068
1.80248611176e-19
0.99998531765
0.999992861852
0.999995072308
0.999994809045
0.999998430185
1.0000001865
1.00000060662
0.592433889139
0.0136162883663
1.70183036319e-20
0.999991430642
0.999997677641
0.999999602132
0.999999452441
1.00000047545
1.00000199687
1.00000140293
0.608790637367
0.0162152508888
5.64916998095e-22
0.999998344195
1.00000268579
1.00000450839
1.00000404871
1.00000377385
1.00000420378
1.00000222292
0.627426562026
0.0209203170023
1.45453368999e-20
1.00000655469
1.00000976025
1.00001184784
1.00001124033
1.00000958409
1.00000833623
1.00000405201
0.647433620833
0.0263620173479
6.2865726554e-21
1.00001624018
1.00001838514
1.00002133711
1.00001964673
1.00001665259
1.00001202555
1.00000543241
0.667408639804
0.0336412569175
-1.23779748025e-19
1.00002146597
1.00002413965
1.00002696363
1.0000249507
1.00001976915
1.00001410941
1.00000645106
0.686098151863
0.0417140295328
-8.82325986723e-22
)
;

boundaryField
{
    back
    {
        type            zeroGradient;
    }
    sides
    {
        type            zeroGradient;
    }
    bottom
    {
        type            zeroGradient;
    }
    front
    {
        type            zeroGradient;
    }
    atmosphere
    {
        type            inletOutlet;
        inletValue      uniform 0;
        value           nonuniform List<scalar> 
16
(
0
0
0
0
0
7.05860789379e-21
0
0
5.43901031256e-20
1.80248611176e-19
0
0
0
0
-1.23779748025e-19
-8.82325986723e-22
)
;
    }
    floatingObject
    {
        type            zeroGradient;
    }
    procBoundary1to0
    {
        type            processor;
        value           nonuniform List<scalar> 10(1.00002309087 1.00003012436 1.00003510361 1.00003280338 1.00002751744 1.00001978298 1.00000931903 0.703011249415 0.0494059839621 -6.07635231278e-15);
    }
    procBoundary1to2
    {
        type            processor;
        value           nonuniform List<scalar> 
18
(
0.999995484259
0.999995166504
0.999994299716
0.999985948847
0.999985948847
0.999980205331
0.999980205331
0.999984626383
0.99998605256
0.999986496982
0.999987126775
0.999987929399
0.999991027681
0.999994510364
0.999999807389
1.00000449903
1.00000969984
1.00001261736
)
;
    }
}


// ************************************************************************* //
