/*--------------------------------*- C++ -*----------------------------------*\
| =========                 |                                                 |
| \\      /  F ield         | OpenFOAM: The Open Source CFD Toolbox           |
|  \\    /   O peration     | Version:  v2012                                 |
|   \\  /    A nd           | Website:  www.openfoam.com                      |
|    \\/     M anipulation  |                                                 |
\*---------------------------------------------------------------------------*/
FoamFile
{
    version     2.0;
    format      ascii;
    class       surfaceVectorField;
    location    "4.2";
    object      ddtCorrDdt0(Uf);
}
// * * * * * * * * * * * * * * * * * * * * * * * * * * * * * * * * * * * * * //

dimensions      [0 1 -2 0 0 0 0];


internalField   nonuniform List<vector> 
306
(
(-0.00475119501201 0.0634792276946 -3.61979207242e-22)
(-0.00842639865106 0.0594477909841 -2.62868321184e-22)
(-0.00490697368557 0.0723953169392 -5.6705292506e-23)
(-0.00881623956008 0.0682379905447 -4.63821115643e-23)
(-0.00499499520935 0.0816647844227 1.28981109975e-22)
(-0.00913715138005 0.0774272882502 1.84178027339e-22)
(-0.00498008535634 0.0911602181663 2.39148503069e-22)
(-0.0093538716181 0.0869190343651 8.99295166103e-23)
(-0.00485321525365 0.100706516539 7.54845237558e-22)
(-0.00942820966586 0.0965471832996 4.5415439321e-22)
(-0.00438498548482 0.110285983375 6.29732518558e-22)
(-0.00949545597373 0.106331697117 1.23431990855e-21)
(-0.00391948679862 0.120155996606 -2.77466685863e-22)
(-0.00982774178905 0.117026742171 5.90869381602e-23)
(-0.00443908706117 0.129781116081 -5.29386635458e-21)
(-0.00960448043576 0.123331802628 -3.65003928717e-22)
(-0.0106302197016 0.139827978554 -9.49402697651e-21)
(-0.0100408829585 0.136139442027 -6.55571761493e-21)
(-0.00279878176669 0.15538068514 3.31636204126e-20)
(-0.0155014790099 0.11053735623 -4.72765515366e-21)
(0.273856073597 0.238893710847 2.93899410379e-20)
(-0.0845866167991 0.258210341479 2.71449349653e-20)
(0.794856847552 0.326551595867 -1.24387026245e-19)
(-0.0128649746112 0.0640103026824 5.27287744934e-23)
(-0.0168731710494 0.0593118969847 -8.42123569618e-23)
(-0.0134041289468 0.0731127145612 1.94501208281e-22)
(-0.0177013692798 0.0682482008408 1.85384901451e-22)
(-0.0138089079299 0.0825639986794 1.45126433974e-22)
(-0.018387010346 0.0776159986715 1.02637450511e-22)
(-0.014055792955 0.09228549674 3.04935406751e-22)
(-0.0188834499937 0.0873120303877 1.37725170212e-22)
(-0.0141432043068 0.102160157684 9.33629064201e-22)
(-0.0191371943295 0.0972458408653 5.23522868657e-22)
(-0.0140143001403 0.111957188596 6.63674328151e-22)
(-0.0191782732966 0.107339687245 3.06424807171e-22)
(-0.0140868116334 0.120881042291 -2.84503046937e-23)
(-0.018682158383 0.118148760364 1.62104803266e-21)
(-0.0129238496774 0.128740243081 -1.62685518907e-21)
(-0.0174329242714 0.125134137932 6.01258992314e-22)
(-0.00909535892143 0.135472930844 -1.78934579208e-21)
(-0.0167655182492 0.14014778799 -1.67731899898e-20)
(-0.180706089184 0.133116921052 -1.07463406009e-20)
(-0.0131796887025 0.116735648665 2.06607251678e-20)
(0.0999578914571 0.607869557055 -1.26632032318e-19)
(-0.55986405839 0.357169560952 -7.01807396592e-20)
(0.37683972559 0.944610707128 -1.24946741108e-19)
(-0.0215160555707 0.0633235202299 4.84437699956e-23)
(-0.0224939262677 0.0725911890106 9.35211436803e-23)
(-0.026556211932 0.0673769933992 6.50422044296e-23)
(-0.0232707957673 0.0822362759037 9.5236186749e-23)
(-0.0277014496391 0.076949441546 6.3390279727e-23)
(-0.0237746666765 0.0922142437525 3.56312632118e-22)
(-0.0285723947192 0.0869077044466 8.83564207022e-23)
(-0.0239604884606 0.102442729646 -1.03681388373e-22)
(-0.0291354622132 0.0971896291356 4.09958321485e-22)
(-0.0236265352594 0.112637838844 1.26379851168e-21)
(-0.0292062901364 0.10775196492 -4.41883670058e-22)
(-0.0227024243041 0.122562300255 2.25075732967e-21)
(-0.0285121403687 0.119182291558 2.34664159951e-21)
(-0.0218564053821 0.132874627338 -1.45450758084e-20)
(-0.0277002292716 0.127995320375 3.38269549931e-21)
(-0.0203073287547 0.143690347745 5.67688097012e-21)
(-0.0275704573101 0.146172927501 -1.31173821978e-20)
(-0.486116970597 0.154125768714 -3.87736738904e-20)
(-0.0236360998844 0.124496777914 2.76162304704e-20)
(-0.556597362102 0.893750768552 -6.84954484492e-20)
(-1.30024242413 0.481590439482 -5.24822580309e-20)
(-0.13990160243 1.31613732419 4.27632038683e-20)
(-0.0316291640548 0.0715608704078 3.49113404762e-23)
(-0.0329056199329 0.0814887794589 5.65105136802e-23)
(-0.03710034425 0.0757390806409 3.82458982169e-23)
(-0.0338276747062 0.0918025034716 1.42002110069e-22)
(-0.038485737716 0.0860386803321 9.47111313614e-23)
(-0.0342943175118 0.102488866272 7.17560397999e-23)
(-0.0395152401551 0.0967515748863 3.26418925833e-22)
(-0.0340227955215 0.113424392458 6.40959417768e-22)
(-0.0399353215609 0.107932349663 -6.04658039945e-23)
(-0.0329467476033 0.12448751967 3.47857976914e-21)
(-0.0394565151249 0.119966501778 4.06072625703e-22)
(-0.0321195863107 0.134841608193 4.81038910995e-21)
(-0.0380017826297 0.130368675731 1.92617885999e-21)
(-0.0278841504912 0.145996822467 8.82196730253e-21)
(-0.0387135956098 0.151835291767 -1.38701820889e-20)
(-0.642810407574 0.151279936374 1.39076463299e-20)
(-0.0289211000256 0.127883593917 1.0730245975e-20)
(-1.8893946795 -0.0613628687069 5.87763942866e-20)
(-1.08843076046 0.147628549878 2.08744139603e-19)
(-4.42114426557 0.104407569259 4.64632527685e-20)
(-0.0426081218857 0.0801639669883 7.64465158981e-23)
(-0.046432633072 0.0738070188341 3.19180693492e-23)
(-0.0441877826983 0.0908397216038 2.79127947126e-22)
(-0.0486764490532 0.0844580372426 1.6748645242e-22)
(-0.0452148393785 0.102110879298 1.94197082038e-22)
(-0.0504358151987 0.0956732199868 5.76936664336e-22)
(-0.0452787514385 0.11390102334 -2.9535259606e-22)
(-0.0514969146799 0.107692134863 1.20904406409e-22)
(-0.0439917055942 0.1257531053 -1.14632828345e-21)
(-0.0511864887288 0.120639285967 -1.12693924459e-22)
(-0.0426525900411 0.137250118791 -1.67543923388e-20)
(-0.0494501711056 0.133610570436 -3.49924610458e-21)
(-0.0365305298475 0.147448627126 -1.19619034163e-20)
(-0.0489018414429 0.15997108049 -2.0257441749e-20)
(-0.342251156893 0.159324263494 2.05566739248e-19)
(-0.0409450006856 0.13516388708 6.37221481714e-21)
(-0.566271130579 -0.677372075185 1.96430998085e-19)
(-0.252755839815 -0.347889847513 5.02293352052e-19)
(-2.21316413149 -1.78716862577 -4.73128390661e-20)
(-0.0525288236342 0.0779769666195 1.22958005871e-22)
(-0.0559897931382 0.0710078189251 4.73205889337e-23)
(-0.0550219964337 0.0890198425181 4.6529516963e-22)
(-0.059212675002 0.0819263935396 2.52389980816e-22)
(-0.0569493047043 0.101012763532 5.03643988706e-22)
(-0.0620757610497 0.0936544304404 7.37441995931e-22)
(-0.0578337557274 0.113947007181 3.0356307801e-22)
(-0.0642181153922 0.106601786869 1.11500944648e-21)
(-0.0569777304367 0.127995282583 -2.46561174559e-21)
(-0.0651352296168 0.120678745584 1.69263046945e-21)
(-0.0558917614766 0.142503748548 -7.0022955148e-21)
(-0.0639282135543 0.136958449592 -3.33858078652e-21)
(-0.0565166753386 0.158408712925 -1.92332351557e-21)
(-0.0648047142805 0.168294935965 -1.98843046306e-20)
(-0.138468272772 0.188637327453 3.03098827621e-19)
(-0.0711862919447 0.1490491518 -3.03963826609e-21)
(0.323801720789 -0.0397271594301 2.58549514901e-19)
(-0.025770655982 0.0437482662591 1.16723754508e-19)
(6.53188979057 0.155488085261 1.86159380316e-19)
(-0.062723974955 0.0747664693838 1.76752563878e-22)
(-0.0656618046453 0.0671852090459 9.87268460076e-23)
(-0.0664057598328 0.0861353502114 5.24536807117e-22)
(-0.0701167875904 0.0781924478888 3.52478461556e-22)
(-0.0696357416334 0.0987808919035 1.3488074537e-21)
(-0.0744169161653 0.0903167704235 7.29665699958e-22)
(-0.0719922101742 0.112932525486 2.50407683792e-21)
(-0.078207861753 0.104048829583 1.7550449745e-21)
(-0.0726523751819 0.128957523068 8.19661428524e-22)
(-0.0811059037776 0.119228937763 5.62954467846e-21)
(-0.0735236903668 0.146697897471 -1.62205899023e-20)
(-0.0816664782724 0.138496950809 2.33362080016e-21)
(-0.0758311804056 0.167584820559 -2.10006193811e-20)
(-0.0856984572366 0.174099597257 -3.89431625614e-20)
(0.137118883835 0.176965015292 -1.89414711379e-19)
(-0.0805797387106 0.16106669604 -2.99232164105e-20)
(1.22562029866 -0.29020459507 4.4333619923e-20)
(0.440649746743 0.639851012555 -3.10263732263e-19)
(-0.0378911357356 2.63763423899 2.19863301829e-19)
(-0.0730782457638 0.0703021350324 2.74452743685e-22)
(-0.0753240162386 0.0621364744592 9.48916720264e-23)
(-0.0782458693579 0.0817933015292 5.57607354397e-22)
(-0.0812437092688 0.0729687160124 3.17101226647e-22)
(-0.08323946083 0.0949028145264 1.13590322075e-21)
(-0.0873110236133 0.085211966026 5.81366018351e-22)
(-0.0876964219305 0.110030794403 4.88051281503e-21)
(-0.09324958229 0.0994173299867 1.238316178e-21)
(-0.0908609866437 0.127698885751 7.14350405009e-21)
(-0.0987754393464 0.115400765144 5.40861944235e-21)
(-0.0950257247241 0.148860262259 -2.03889518589e-20)
(-0.102854783778 0.136692054024 1.87744894547e-21)
(-0.0937634445377 0.174351622698 -4.78657595907e-20)
(-0.111204658874 0.176347829986 -2.08720060839e-20)
(-0.0989629248639 0.193927188642 -1.50772237295e-19)
(-0.100098439706 0.165879302064 -1.84433393085e-20)
(-0.642792231333 1.24132327541 -1.34734050358e-19)
(-0.607888493604 0.561470096389 -1.1616203057e-19)
(-2.82380080414 3.15705450803 1.49494787136e-20)
(-0.0834243529915 0.0643729500667 1.37540154988e-22)
(-0.0847800576845 0.055688258585 5.20454328642e-23)
(-0.0903111880243 0.0756810183629 3.408598906e-22)
(-0.0923211251216 0.0660221216562 2.15853473117e-22)
(-0.0974160544119 0.0888656233476 6.83778975603e-22)
(-0.100386126584 0.0779983607441 3.14107615268e-22)
(-0.104491349988 0.10441870038 1.76642280532e-21)
(-0.108793650243 0.0921814714886 7.25209514888e-22)
(-0.110928770134 0.122983353519 1.42564337725e-22)
(-0.11738732883 0.108400132936 1.8168410682e-21)
(-0.118961206893 0.145417985519 1.39439472048e-21)
(-0.125332374366 0.130672822784 -4.53152683578e-22)
(-0.115206383312 0.172099030589 8.55041419838e-21)
(-0.137899292061 0.173338424409 -7.90198653892e-21)
(-0.262015950179 0.189307312453 1.61668674158e-20)
(-0.117467325684 0.160851914548 7.569004382e-21)
(-3.02759766204 0.158026813644 3.35214985007e-20)
(-0.576661088293 -0.10356311951 6.39117410344e-19)
(-10.9993496719 -3.56359233921 8.24623508839e-20)
(-0.0934741245144 0.0567977070735 1.30358750993e-22)
(-0.0937222137025 0.0477296381647 5.48336470746e-23)
(-0.102234608597 0.0675401584636 1.89101197785e-22)
(-0.102965604953 0.0571986033358 2.09668121394e-22)
(-0.111668616373 0.0803508812704 3.55538154553e-22)
(-0.113178694514 0.0684633461747 7.50095794367e-23)
(-0.121655721678 0.0957647136721 7.75627777769e-22)
(-0.124248540176 0.0821032017606 4.05541830707e-22)
(-0.131680398132 0.114521635791 1.2211240469e-21)
(-0.136203713586 0.0980255851699 -1.07980164548e-21)
(-0.143617291989 0.137384527421 -9.74953394298e-21)
(-0.148227327391 0.120918018398 4.70411395824e-21)
(-0.144259379633 0.163658217705 -8.88339635529e-21)
(-0.164175682973 0.166322360073 -1.39410780755e-20)
(-0.0700931294542 0.204742755285 6.3051954731e-19)
(-0.15881903726 0.157863521566 1.32417693034e-20)
(-0.0292726984619 -0.581717439989 6.88058262727e-19)
(0.209384884957 -0.238100577037 6.87241067494e-19)
(10.0408300382 -3.15095384943 8.07959592293e-20)
(-0.102826262038 0.0475198362533 1.34143017475e-22)
(-0.10173798957 0.0382412298041 -3.47488371641e-23)
(-0.113530256053 0.0572506440237 9.55765030454e-23)
(-0.112693237465 0.0464311211088 2.32908855667e-22)
(-0.125435892718 0.0691544782889 1.25013255591e-22)
(-0.125109120221 0.0564733632521 7.12724846204e-23)
(-0.138628589921 0.0839138620685 -1.44988759254e-21)
(-0.139045415607 0.0689570938068 4.66748963655e-22)
(-0.15291285772 0.102563536964 2.40318826586e-21)
(-0.154872697687 0.0838906362511 -1.37395505721e-21)
(-0.170130187677 0.126787931813 5.12569825688e-22)
(-0.172437234161 0.106076331025 3.49748672129e-21)
(-0.180169338978 0.158616345549 8.18408758313e-21)
(-0.19598972513 0.151977114265 -2.10691988825e-20)
(0.0474617310193 0.200359466319 6.99632894873e-20)
(-0.200269261064 0.152308364594 9.70249509602e-21)
(2.67164052862 0.251513192907 7.99787639964e-20)
(0.157761899675 0.18040734168 1.68652798722e-20)
(1.10281392604 2.72486070489 1.06553952833e-19)
(-0.111024359252 0.0365279006668 6.40170010281e-23)
(-0.108445909795 0.0272920951816 -4.44911908189e-23)
(-0.123630913069 0.0447724242418 2.08604837242e-22)
(-0.120966767357 0.0337630991799 3.61500763726e-22)
(-0.13805516209 0.0551508804018 4.13008192684e-22)
(-0.135493143066 0.0419830072738 1.22451794001e-22)
(-0.154656995813 0.06843049908 5.42681498992e-22)
(-0.152291979724 0.0525093780553 9.14216738181e-22)
(-0.173694509085 0.0857274685584 -2.79656601774e-22)
(-0.172091839285 0.0654988760321 1.96297444017e-21)
(-0.197273215522 0.107376665424 -1.80842819869e-20)
(-0.19399239875 0.0844036344123 3.87516257737e-21)
(-0.214193142168 0.137451766303 -1.95507913696e-20)
(-0.226017097096 0.127301735269 -3.91296141389e-20)
(-0.0385700314179 0.17336413361 -4.33955145191e-20)
(-0.236054985994 0.130562582399 -9.07142462893e-21)
(0.318872000441 0.31028626625 4.34404687085e-20)
(0.0203809241426 0.170105734716 -8.405834274e-20)
(-0.528832941478 0.661503941599 -6.15773029312e-20)
(-0.117567654178 0.0239403429977 2.52992571879e-22)
(-0.113330814294 0.0150501534499 -1.50072848442e-23)
(-0.131882429482 0.0301684368552 2.75347720486e-22)
(-0.127184532528 0.0193836383036 3.01958400591e-22)
(-0.14863337731 0.0382908725973 6.23660339499e-22)
(-0.143530549533 0.0251637229306 -1.51653320255e-22)
(-0.168432197021 0.0489866798114 2.33450967936e-21)
(-0.162821892413 0.0328661541646 9.2790142522e-22)
(-0.191263873547 0.0631677221797 6.11779361931e-21)
(-0.186050771894 0.042675838342 2.3362417204e-21)
(-0.221221280719 0.0821115983395 -1.71701695746e-20)
(-0.212733101201 0.056252535701 1.13092483309e-20)
(-0.245450827812 0.106988688707 -2.86502473982e-20)
(-0.250802661742 0.0944357418309 -1.08601320689e-21)
(-0.197378295813 0.138827396227 -4.97342528498e-20)
(-0.267718726088 0.0988294081413 2.59837591301e-21)
(-0.28589703423 0.342475237436 -1.8907611438e-19)
(-0.183816075165 0.0871808228037 -2.66895439592e-20)
(-1.05473715762 0.320334507374 -4.60803780817e-19)
(-0.121927555337 0.0100185999243 3.39585438677e-23)
(-0.115979825485 0.00180972589818 -2.28197832403e-23)
(-0.137593183834 0.0137452416334 -1.25042640149e-22)
(-0.130762839549 0.00365055968014 1.48536804949e-22)
(-0.156202130767 0.0188904240439 1.52587765466e-22)
(-0.148385268462 0.00646351935683 -3.00496887327e-22)
(-0.17854508098 0.0259961790206 9.29633466253e-22)
(-0.169487443621 0.0105646447117 2.93913909698e-22)
(-0.204919590982 0.0356051108028 7.52769643195e-21)
(-0.195141041299 0.0159236298199 -7.38976979685e-23)
(-0.238825260245 0.0483619906044 2.73934046986e-20)
(-0.225025018073 0.0230898406788 9.59712870743e-21)
(-0.269357381065 0.0638589143467 3.01626101044e-20)
(-0.266079621238 0.055540378748 1.1215842954e-20)
(-0.198183279247 0.0888032436732 2.56430848036e-20)
(-0.292565368349 0.0628902694321 1.26534783969e-20)
(-0.719868966474 0.0869216040957 -2.98417210396e-19)
(-0.180903620204 0.00199256208263 -1.8241886262e-19)
(-2.01163887401 1.27063657587 -6.76185254045e-19)
(-0.123616485278 -0.00481802134524 9.17584778407e-23)
(-0.116013783485 -0.0119765046907 -9.01839155255e-23)
(-0.140080631904 -0.00403312814613 -2.69174422297e-23)
(-0.131158628536 -0.0128730824851 1.16418216753e-22)
(-0.159840712201 -0.00242208911159 -1.59170743096e-22)
(-0.149341534233 -0.0133900146847 -1.68576649196e-22)
(-0.183803500978 0.000216980027748 -7.09617254524e-22)
(-0.171294289402 -0.0134450721029 -1.42900671795e-22)
(-0.212477734637 0.00421367729473 1.99553457751e-21)
(-0.198193814233 -0.0133415431765 -2.66072302879e-21)
(-0.249361679381 0.0102360901523 -6.58043303717e-21)
(-0.230313114925 -0.0135725020927 1.3279730245e-21)
(-0.289201545257 0.018964416188 -6.29328875339e-21)
(-0.274516128531 0.00891262091982 -1.78201830884e-21)
(-0.38543340233 0.049031542384 -1.95408469026e-19)
(-0.322474717115 0.0186202605235 1.11055102345e-20)
(-2.31539377036 0.446160759622 -5.60186906268e-19)
(-0.575892952747 -0.0616603682895 9.90544645949e-20)
(-5.22080697674 0.663221254913 5.40951362106e-19)
(-0.122373500828 -0.0200695262539 -6.55241766132e-23)
(-0.138949666779 -0.022356571614 -2.52409902135e-23)
(-0.158952215674 -0.0246135585319 -1.52306577895e-22)
(-0.183298242953 -0.0268948065047 -2.09400644606e-21)
(-0.212768917566 -0.0295453478664 -3.32828458179e-21)
(-0.249966491501 -0.0327048659253 6.12638775283e-21)
(-0.293070844218 -0.0408307436264 1.5616780679e-20)
(-0.330635986535 -0.0592744978911 3.05568443856e-19)
(-2.66344588428 -0.350568169776 1.20019273297e-18)
)
;

boundaryField
{
    back
    {
        type            calculated;
        value           uniform (0 0 0);
    }
    sides
    {
        type            calculated;
        value           uniform (0 0 0);
    }
    bottom
    {
        type            calculated;
        value           nonuniform List<vector> 0();
    }
    front
    {
        type            calculated;
        value           uniform (0 0 0);
    }
    atmosphere
    {
        type            calculated;
        value           nonuniform List<vector> 
16
(
(0.537315875574 -0.555863646985 -1.66653442847e-20)
(0.117107339203 1.02541849664 -2.90988210265e-21)
(0.00414779836797 1.41012081684 3.69799956403e-22)
(2.34383781253 4.21926963039 -4.13225134323e-19)
(-0.499196467133 -2.88546267568 -1.28848002781e-20)
(0.147832341456 -8.78363357056 -1.06773755531e-19)
(-0.0108377911237 6.27870849183 1.37962328846e-21)
(0.117587781585 4.02690050091 -5.65869457729e-21)
(-0.530253955538 8.3321601407 -1.63705531368e-21)
(-0.0563460539526 -21.6188813821 1.17941414997e-19)
(0.063276459775 9.18821396439 3.46146236918e-19)
(-0.107008825374 1.9427716165 -1.05372765833e-20)
(-0.239450315608 0.869650753664 -2.76951454e-19)
(-1.28573291983 1.0439267328 -6.57350509173e-19)
(-4.6168022653 3.65577870987 -8.44969195003e-19)
(-2.45955239009 -2.36783843189 1.69827853008e-18)
)
;
    }
    floatingObject
    {
        type            calculated;
        value           nonuniform List<vector> 0();
    }
    procBoundary1to0
    {
        type            processor;
        value           nonuniform List<vector> 10((-0.113351912166 -0.0257601860206 -8.59005513309e-23) (-0.128278921046 -0.0294600935654 9.28017542506e-23) (-0.146249013911 -0.033422757092 -3.9645003167e-23) (-0.167919911667 -0.0377465730449 -1.71656202238e-22) (-0.194444748399 -0.0428800263968 -2.50275958349e-21) (-0.226310181978 -0.0498569199173 -3.77495150142e-21) (-0.266049190709 -0.0380257294877 3.37342027046e-22) (-0.303797657839 -0.0236327093852 2.8055510307e-21) (-0.283166699126 -0.0754116438334 3.44653348634e-19) (-3.19964759095 -1.61987853879 1.01437576539e-18));
    }
    procBoundary1to2
    {
        type            processor;
        value           nonuniform List<vector> 
18
(
(-0.0045460207949 0.0549825831549 -4.8691711143e-22)
(-0.012239524806 0.0553559185723 -1.62697276872e-22)
(-0.0204347489163 0.0546087173469 -5.39541848069e-23)
(-0.0252597580778 0.0583151161031 -7.60128171123e-24)
(-0.0301153951816 0.0621089338347 8.99715272274e-24)
(-0.0353213622921 0.0659141865278 2.61263411374e-23)
(-0.0406636059229 0.069857712804 2.94608988781e-23)
(-0.049748071936 0.067371315373 3.30853813505e-23)
(-0.0589217643143 0.0640864714984 7.72353638028e-23)
(-0.0680527031056 0.05979881468 9.37610616841e-23)
(-0.0770055547172 0.0543195982597 3.64561153724e-23)
(-0.085549333989 0.0475346574947 3.25013340093e-23)
(-0.0933743593633 0.0394170627031 7.49699118356e-23)
(-0.100116294824 0.0298815583286 1.4643634635e-23)
(-0.105370996888 0.0191491591551 7.39397769761e-23)
(-0.108731427464 0.00738717752039 3.40009658852e-23)
(-0.109865847809 -0.00507357151389 7.8632160415e-23)
(-0.108590253623 -0.0177243125942 -5.73906644005e-23)
)
;
    }
}


// ************************************************************************* //
