/*--------------------------------*- C++ -*----------------------------------*\
| =========                 |                                                 |
| \\      /  F ield         | OpenFOAM: The Open Source CFD Toolbox           |
|  \\    /   O peration     | Version:  v2012                                 |
|   \\  /    A nd           | Website:  www.openfoam.com                      |
|    \\/     M anipulation  |                                                 |
\*---------------------------------------------------------------------------*/
FoamFile
{
    version     2.0;
    format      ascii;
    class       surfaceVectorField;
    location    "4.2";
    object      Uf;
}
// * * * * * * * * * * * * * * * * * * * * * * * * * * * * * * * * * * * * * //

dimensions      [0 1 -1 0 0 0 0];


internalField   nonuniform List<vector> 
306
(
(-0.0020170393024 0.0345945295928 6.94967292924e-22)
(-0.00393565301803 0.0322981162811 4.58213747594e-22)
(-0.00202067209028 0.0385394194729 4.4179617768e-22)
(-0.00394480589093 0.0362108525462 3.28046523271e-22)
(-0.00201227790964 0.0424564772609 8.16868082583e-23)
(-0.00391700248909 0.0401188768299 3.88109898749e-24)
(-0.00198773896325 0.0463094911937 -1.3938340007e-22)
(-0.00385298524347 0.0439911946894 -1.40036894123e-22)
(-0.00193875397092 0.0500494134422 -7.84916431271e-22)
(-0.00373991946908 0.0477780643387 -3.81662256216e-22)
(-0.00166930289029 0.0535516664324 -1.76214338486e-21)
(-0.00350227608274 0.0514540530143 -1.39788662379e-21)
(-0.000719856431876 0.0563399286208 -2.36561107541e-21)
(-0.00278830041888 0.0542286192109 -3.15128775673e-21)
(0.00021937049938 0.0573949529828 -1.78929450993e-21)
(-0.00105505795459 0.0597243430523 -5.71093746796e-21)
(-0.000812996899128 0.0574139572781 4.61467345688e-22)
(-1.90179294455e-05 0.0521420153568 -3.47847657213e-21)
(-0.0174970558513 0.059204227819 5.32036255398e-21)
(-0.00178993059064 0.0538848912857 -8.22088515462e-24)
(-0.0563720721314 0.0800956329355 6.27358223825e-21)
(-0.020896360894 0.0617936808688 1.67019530801e-21)
(-0.0483237283039 0.0679216138554 -1.27825664013e-21)
(-0.00593039470836 0.0338883455934 9.12929779406e-23)
(-0.00780644176487 0.031679250095 1.40195829907e-22)
(-0.0059339231617 0.0377789829195 -1.09868555422e-22)
(-0.00783535269408 0.035550874386 -7.15733092691e-23)
(-0.00588842542669 0.0416698837183 -2.17842603393e-22)
(-0.00780785399878 0.0394425036674 -1.71506538134e-22)
(-0.00576885637984 0.0455179815695 -3.82315750268e-22)
(-0.00770106884317 0.0433330090251 -2.25452052582e-22)
(-0.00552616453181 0.0492723058153 -9.94632448739e-22)
(-0.00749425983648 0.0471650284233 -5.05950859173e-22)
(-0.00493167586248 0.0528883819432 -2.78703099567e-21)
(-0.00711839002296 0.0509118841666 -1.71425707383e-21)
(-0.00331927211722 0.0563920327078 -6.49661414928e-21)
(-0.00629200009793 0.0540122272665 -2.74570737788e-21)
(-0.00135296715764 0.0593996894577 -7.40011953016e-21)
(-0.00406275308903 0.0601704744332 -9.95507607696e-21)
(-0.00100889827201 0.060966539572 -3.94816480297e-21)
(-0.00158586422243 0.0541075891364 -8.84809713227e-21)
(-0.00546471134644 0.0604015557561 -3.65838813112e-21)
(-0.00122581777539 0.0570677100472 -7.93249797352e-21)
(-0.0150138551012 0.049487439253 -5.88164357037e-21)
(-0.00998129005083 0.0696831060734 -1.31717578634e-20)
(0.0081845671909 0.0077964895445 -5.62612001355e-21)
(-0.00976698745687 0.0333112069903 -2.26704573027e-23)
(-0.00978616946953 0.0371933552805 -1.33211291982e-22)
(-0.0117174407456 0.035101257341 -6.08281849148e-23)
(-0.00973007758219 0.0410974798239 -1.79115987323e-22)
(-0.0117119506743 0.0390212605923 -1.29423248813e-22)
(-0.00956971674475 0.0449994920535 -3.49087161487e-22)
(-0.0116030912708 0.0429732018925 -1.54165048724e-22)
(-0.0092573378375 0.0488389489258 -1.22557548427e-21)
(-0.0113337538661 0.0469168921149 -4.44608619215e-22)
(-0.00863243307907 0.052618609828 -1.67293345604e-21)
(-0.0108981069566 0.0508212145333 -1.36135298287e-21)
(-0.00703014573012 0.0563713548441 -6.20416930556e-21)
(-0.0100448045793 0.0542064014272 -1.14720690791e-21)
(-0.00431405594723 0.0599794807451 -1.14030536791e-20)
(-0.00767092334394 0.0606956028946 -5.00207683774e-21)
(-0.00200006949813 0.0629674706982 -1.28324303028e-20)
(-0.00457386279281 0.0554143265316 -8.23463088272e-21)
(-0.00498892520071 0.0643471824451 -1.74458677058e-20)
(-0.00260582164896 0.0590357534117 -1.14765595353e-20)
(0.0127781714233 0.0614281980351 -1.29162343066e-20)
(-0.00706235392342 0.0751349614466 -1.50832336196e-20)
(0.0914975093487 0.00559134370062 -5.82634379472e-21)
(-0.0136992183172 0.0368875354661 -5.70401417466e-23)
(-0.0136689141967 0.0408523356975 -1.04472310215e-22)
(-0.015676774864 0.038826446184 -6.70174170683e-23)
(-0.0135058415725 0.0448600384331 -2.49686506452e-22)
(-0.0156108393936 0.0428913337662 -1.21986256543e-22)
(-0.0131649685169 0.0488917846007 -5.80386117822e-22)
(-0.0153655634939 0.0470157123885 -4.69878530408e-22)
(-0.0125397363352 0.052908096523 -8.3562643474e-22)
(-0.0149144908624 0.0511902008134 -1.10194707755e-21)
(-0.0109877861536 0.0569790375917 5.48855599003e-23)
(-0.0141158150775 0.0550273591622 -1.11898303272e-21)
(-0.0081717796449 0.0612844468554 -1.8336540414e-21)
(-0.0119763812772 0.0619361246641 -5.75006567454e-22)
(-0.00515526457603 0.0652077720364 -6.87876011518e-21)
(-0.00849719171184 0.057243193756 -6.815330574e-21)
(-0.00139557253877 0.0684317154351 -9.11392544908e-21)
(-0.00583030648062 0.0608758891246 -8.80803681941e-21)
(0.078536219013 0.0534629103082 -7.99334310774e-21)
(0.00790649433701 0.0716496177703 3.41514975264e-21)
(0.168189329357 0.106310973579 -4.56449969482e-21)
(-0.0177270510992 0.0408029850035 -8.4531363397e-23)
(-0.0197719059568 0.0386975178055 -4.86603923107e-23)
(-0.0176216019268 0.0449655447944 -3.42178280499e-22)
(-0.0197734858048 0.0429184138689 -1.46785324624e-22)
(-0.0173289467113 0.0492517976651 -9.91439490138e-22)
(-0.0196519031126 0.0472769139626 -6.6400016255e-22)
(-0.0168041357986 0.0536458573697 -1.38530367553e-21)
(-0.0193086347704 0.0517743261938 -1.7691371771e-21)
(-0.0154749478173 0.0582728070166 -1.74887516007e-21)
(-0.0187428389794 0.0561365099311 -2.10496451295e-21)
(-0.0126813700617 0.0631089364632 -5.55668310005e-21)
(-0.0168125605973 0.063517053572 -3.64436104297e-21)
(-0.00972775993311 0.0677901952423 -8.74460727823e-21)
(-0.0131784504791 0.0593794023037 -9.3254474371e-21)
(-0.00491011715663 0.07372975895 3.72103838231e-21)
(-0.011770369475 0.0631937213358 -8.71863360379e-21)
(0.0854427330751 0.0999876856176 6.84399316556e-21)
(-0.0183557272209 0.0695654178813 1.62550913481e-20)
(0.0319117430158 0.233164193505 -6.09356295849e-21)
(-0.0219312156162 0.0407243309202 -1.10914353538e-22)
(-0.0239875383461 0.0384979132254 -6.19268124186e-23)
(-0.0219668578603 0.0451184918821 -4.68607206675e-22)
(-0.0241677663238 0.0428736762247 -2.18306180462e-22)
(-0.0218394349676 0.049691436394 -1.44169784951e-21)
(-0.0242249485143 0.0474713798339 -8.25362159491e-22)
(-0.0215031910056 0.054504619196 -2.48879801452e-21)
(-0.0241219041017 0.0523163537445 -2.22779197732e-21)
(-0.0204723223298 0.059511663214 -4.00045039585e-21)
(-0.023749954771 0.05723585614 -3.56108483257e-21)
(-0.0179102196621 0.0650722427838 -7.41312538002e-21)
(-0.0223731873118 0.065093879719 -1.1586117615e-20)
(-0.0160609436221 0.070895813611 -9.29947376266e-21)
(-0.0190020214947 0.061405123529 -1.27745293751e-20)
(-0.0272326071113 0.0787788770989 3.81541936201e-21)
(-0.0196537166589 0.066003317461 -8.05424730695e-21)
(-0.0735915457394 0.121388111663 3.31753522407e-21)
(-0.0609720463953 0.0806203371695 -4.51059883267e-21)
(-0.138390822105 0.136217053149 -2.41077806919e-20)
(-0.026294528618 0.0405223893807 -1.69318639342e-22)
(-0.0283156291531 0.0381327116482 -7.6274261434e-23)
(-0.026547936051 0.0450909962747 -5.75061133278e-22)
(-0.0287365068203 0.042635382146 -2.96581109747e-22)
(-0.0266886349872 0.0499366132519 -1.6114562873e-21)
(-0.0290706643694 0.0474326084183 -8.57353716391e-22)
(-0.026650448608 0.0551122111494 -3.30007879537e-21)
(-0.0292975790591 0.0525980097623 -2.02311894762e-21)
(-0.0260377868415 0.0606412739767 -1.11467520518e-20)
(-0.0292790796062 0.0580129721233 -3.34370903735e-21)
(-0.0239613307862 0.0668475905136 -1.69475216101e-20)
(-0.0285795449607 0.0662980614263 -1.49349829641e-20)
(-0.0229702168365 0.0736364212078 -1.15293029194e-20)
(-0.0257908550668 0.0630516811545 -1.83396719653e-20)
(-0.0380308943957 0.080939451737 -1.63802655016e-20)
(-0.026957263295 0.068288802483 -1.33461624632e-20)
(-0.0962310103686 0.0644548381014 -3.19359147487e-20)
(-0.0444854600677 0.0927058271938 -3.25785584482e-20)
(-0.0602209412056 0.0152157029818 -2.39227575345e-20)
(-0.0307978742757 0.0400935369177 -2.03536731838e-22)
(-0.0327303515208 0.0375282696241 -6.80394454658e-23)
(-0.0313400371234 0.0448064953918 -5.7887369286e-22)
(-0.033449585539 0.0421193285685 -2.87904942567e-22)
(-0.0318140837356 0.0498719066809 -1.26901637671e-21)
(-0.0341361541084 0.0470694871247 -7.04386280149e-22)
(-0.0321717175712 0.0553441961469 -2.0667491896e-21)
(-0.0347699253321 0.0524777212598 -1.39068832415e-21)
(-0.0321219408326 0.0613190240628 -7.13193994973e-21)
(-0.0352539547016 0.0582548962215 -2.03756457511e-21)
(-0.030793504511 0.0679616277977 -1.63271333193e-20)
(-0.0352221821566 0.0668398999379 -6.7806296933e-21)
(-0.0303721984962 0.0756034272442 -2.01565315091e-20)
(-0.0334326585529 0.0642179467408 -1.42838630946e-20)
(-0.0381675861389 0.0837330110301 -2.95444554097e-20)
(-0.0350871526813 0.0690648362486 -1.52662411211e-20)
(-0.029239414483 0.0857207163182 -2.4565401234e-20)
(-0.0464722300417 0.0929825577936 -2.50529244616e-20)
(0.0611275782861 0.0681030282504 -1.45196381522e-21)
(-0.0353909125105 0.0393733197303 -1.52407656195e-22)
(-0.0371789426192 0.0366300063013 -5.87396491859e-23)
(-0.0362882440361 0.0441749907156 -4.13417529857e-22)
(-0.0382513377353 0.0412523525083 -2.44167702304e-22)
(-0.0371772865212 0.0494041222437 -8.2605822759e-22)
(-0.039365329728 0.0462918297284 -5.10752688016e-22)
(-0.0379976579385 0.0551296725532 -1.36150370966e-21)
(-0.0404955066461 0.0518690616339 -8.45659527619e-22)
(-0.0385357405224 0.0613943395541 -1.68625431869e-21)
(-0.0415186530563 0.0578948509432 -1.45919805426e-21)
(-0.0380436716227 0.0683154703232 -4.7373594686e-21)
(-0.0421433391038 0.0666339883129 -2.45062091342e-21)
(-0.038547064699 0.0762407947403 -9.39357270663e-21)
(-0.0413579671272 0.0647390845138 -1.01419491517e-20)
(-0.04275905492 0.0862398657883 -1.0774710173e-20)
(-0.0450867802139 0.0681046091383 -1.08902867476e-20)
(0.0677311415276 0.107174439987 -1.9394870428e-21)
(-0.067409917427 0.0819483196968 2.79037652036e-20)
(0.0577301593877 0.179576263907 9.13956218844e-21)
(-0.0400207772233 0.0383029780465 -1.50499695295e-22)
(-0.0416078034613 0.0353914396826 -6.37579453758e-23)
(-0.0413304677588 0.043130353437 -3.41502860464e-22)
(-0.0430787380668 0.0399722127529 -2.40038893425e-22)
(-0.0427154340576 0.048435707251 -5.30353988045e-22)
(-0.0446706874599 0.0450113853509 -4.71908096022e-22)
(-0.0440834182493 0.0543206878132 -9.43353872219e-22)
(-0.046380493261 0.0506550040181 -5.82125505984e-22)
(-0.0451977007905 0.0608053960536 -2.22356464899e-21)
(-0.0480033795253 0.0568330056411 -1.38809468208e-21)
(-0.0453876395332 0.0678838998859 -7.8552105965e-21)
(-0.0492218634317 0.0657342601715 -1.41702481523e-21)
(-0.0481270557298 0.0754381885915 -1.16386631926e-20)
(-0.0489121864564 0.0648301854743 -9.59998753126e-21)
(-0.0615278718323 0.0872490422086 2.77881886291e-20)
(-0.0568978449771 0.0677752678592 -1.07291995693e-20)
(-0.0419857227825 0.121858181883 3.89828144349e-20)
(-0.102066902541 0.0796099268058 2.65872983801e-20)
(-0.0981212768026 0.21597863921 2.48235034757e-20)
(-0.0446194033315 0.0368277685406 -1.53297143506e-22)
(-0.0459668105644 0.033776663471 -6.78469693575e-23)
(-0.0463834741779 0.0415954020004 -3.70444128984e-22)
(-0.0478463395449 0.0382355331312 -2.32994481543e-22)
(-0.0483214521007 0.0468773744727 -5.23679613961e-22)
(-0.0499526291343 0.0431644524958 -4.10909988403e-22)
(-0.0503355700093 0.0527894755555 -1.02686631585e-21)
(-0.0522925823878 0.0487328266617 -5.25547909951e-22)
(-0.0521636952155 0.0594624656337 -5.81554848324e-22)
(-0.0546763794527 0.054916506985 -1.49320673391e-21)
(-0.0531702352429 0.0670545653372 -3.16180175e-21)
(-0.0568139794388 0.0639146583506 -1.22425596017e-21)
(-0.0581256925277 0.0759516175437 -8.69052390787e-21)
(-0.057809239397 0.0642123109401 -9.33142525635e-21)
(-0.0870043223125 0.0869856532165 -1.19300898183e-20)
(-0.0679311629703 0.067895798385 -1.11179830323e-20)
(-0.191653629484 0.103374519242 1.24279874209e-20)
(-0.11846319235 0.0867040247265 -1.42192720469e-20)
(-0.205459461838 0.108158512952 4.69218597434e-20)
(-0.0490895209743 0.0349316633142 -1.47544307395e-22)
(-0.0501245378438 0.0317750816238 -6.78896654607e-23)
(-0.0513260549299 0.0395265431358 -2.73460340963e-22)
(-0.0524411440175 0.0360258725091 -2.071191294e-22)
(-0.0538397388503 0.0446445573092 -4.12778284394e-22)
(-0.0550705906714 0.0407339218385 -3.06360821098e-22)
(-0.0565860365488 0.0504077391885 -9.91888328013e-22)
(-0.0580557433453 0.046074180149 -4.39694876717e-22)
(-0.0593890985007 0.0570679651863 -2.13590784575e-21)
(-0.0613366106427 0.0520695901963 -1.75331896704e-21)
(-0.0616679021522 0.0650334582561 -7.39387946652e-21)
(-0.0647794847931 0.0607968638751 -6.02765259352e-21)
(-0.0677987452228 0.0745939192708 -1.17588843808e-20)
(-0.0673696541824 0.0621326636327 -1.64077590991e-20)
(-0.0962244576177 0.0845356378589 -1.34071652609e-20)
(-0.0778731807165 0.0656855435004 -1.31646178317e-20)
(-0.115380591014 0.0853899020998 2.02746002756e-20)
(-0.119329553642 0.0843201848997 -2.28264033013e-20)
(-0.100511925085 0.0517904344639 1.61627769637e-20)
(-0.0533370115376 0.0326234134321 -1.27464487466e-22)
(-0.0540449401473 0.0294026140697 -6.16806216002e-23)
(-0.0560355017612 0.0369466706944 -2.40019609535e-22)
(-0.0567643075718 0.033356263844 -1.5867970385e-22)
(-0.0591251059901 0.0417714193623 -3.33277413421e-22)
(-0.059895281374 0.0377358644757 -3.08187685149e-22)
(-0.0626430406885 0.0472425797398 -1.20112551575e-21)
(-0.0635268812761 0.042715638633 -2.72764250792e-22)
(-0.0665445208417 0.0536344021208 -5.64506371482e-21)
(-0.0677284339488 0.0483576336594 -1.90108980866e-21)
(-0.070296386002 0.0613228265325 -1.50415322261e-20)
(-0.0724679152767 0.0565068097323 -4.29518663492e-21)
(-0.0775933138658 0.0706615416972 -1.781349255e-20)
(-0.0767083348135 0.0586922917497 -1.07116235604e-20)
(-0.108836152119 0.0810376476171 -2.25838558721e-20)
(-0.0882490227793 0.0614582116702 -1.25531850182e-20)
(-0.109398846188 0.106791185834 -2.69382266132e-20)
(-0.145101763669 0.0777757397055 -1.03372286887e-20)
(-0.0518505347174 0.0844319103428 -3.63369483355e-20)
(-0.0572820920061 0.0299070812563 -9.2895837984e-23)
(-0.0576375735077 0.0266842611603 -4.81059225172e-23)
(-0.0604124144566 0.0338651205178 -2.26847779463e-22)
(-0.0607222546681 0.0302578975211 -9.57500916234e-23)
(-0.0640545418541 0.0383050148995 -2.47674522519e-22)
(-0.0643351216807 0.0342067327807 -2.23145722593e-22)
(-0.0683327951716 0.0433526679093 -9.72728543707e-22)
(-0.0685745104384 0.0387146157417 5.42892918439e-24)
(-0.0733238132575 0.0492934156238 -5.51212728771e-22)
(-0.0736691736612 0.0438565554257 -8.09562580223e-22)
(-0.0785135470033 0.0564739627743 3.47220307394e-23)
(-0.0796484562463 0.0512373481859 2.7374447268e-21)
(-0.0871448713548 0.065135414888 -5.45131602868e-21)
(-0.0853698286428 0.0540079793352 -4.52616336273e-21)
(-0.124147321334 0.0749082507811 -3.06557834855e-22)
(-0.0980208276964 0.0561517023466 -9.23207620629e-21)
(-0.0820408587548 0.095716526676 -1.9735950411e-20)
(-0.165913459769 0.0715543749137 9.62527564422e-21)
(-0.0417824242372 0.130450166147 -3.91024856481e-20)
(-0.0608471576751 0.026814062477 -5.09601761566e-23)
(-0.0608294988784 0.0236513714755 -4.42513932448e-23)
(-0.0643780737721 0.0303466429364 -9.20480347533e-23)
(-0.0642547549449 0.0267657928213 -5.81051819659e-23)
(-0.068536876849 0.0342888078221 2.99577291103e-23)
(-0.0682772373502 0.0301893849698 -1.65730877854e-22)
(-0.0735372300236 0.0387973819945 1.68594892668e-22)
(-0.0730830546986 0.0340965471049 -2.42479071268e-23)
(-0.0795229848429 0.0441049986198 2.47909487535e-21)
(-0.0789767652336 0.0385116488065 -3.28120693138e-22)
(-0.0859609663356 0.0504591027583 -1.82344066667e-21)
(-0.0860025377853 0.0448722150093 4.62647457775e-21)
(-0.0958598991345 0.0581405969544 -8.30692354035e-21)
(-0.0930514552494 0.0478090015559 -1.90786670188e-21)
(-0.13946086683 0.0671657166272 6.99757272783e-22)
(-0.107043773007 0.049657613535 -6.41172804991e-21)
(-0.129135925721 0.0992031211929 -9.74125959287e-21)
(-0.197973522196 0.0616179234765 -7.76482585367e-21)
(-0.148931359798 0.148429950959 -1.64913482383e-21)
(-0.0639518374205 0.0234188655117 -5.13963990542e-23)
(-0.0678302867741 0.0264061601818 -1.31788025066e-22)
(-0.0724390345103 0.0297248999591 -2.19936514091e-22)
(-0.0780736127941 0.0335045319099 -5.20963492933e-22)
(-0.0848738745699 0.0379270549871 1.81925900926e-21)
(-0.0922654133284 0.0431119466133 4.54204854254e-21)
(-0.103013286231 0.0491790254587 -1.26712114436e-23)
(-0.156636328859 0.0555398166579 -1.48763111764e-20)
(-0.205191956059 0.0709621492812 3.27298915374e-22)
)
;

boundaryField
{
    back
    {
        type            calculated;
        value           uniform (0 0 0);
    }
    sides
    {
        type            calculated;
        value           uniform (0 0 0);
    }
    bottom
    {
        type            calculated;
        value           nonuniform List<vector> 0();
    }
    front
    {
        type            calculated;
        value           uniform (0 0 0);
    }
    atmosphere
    {
        type            calculated;
        value           nonuniform List<vector> 
16
(
(-0.0798202935631 0.128426641103 3.89246703217e-21)
(0 -0.00702363253191 0)
(0 -0.0218844356152 0)
(0 -0.0232321593671 0)
(0.172137823604 0.236272415161 -2.27957151486e-21)
(-0.108690588082 0.291703472521 -9.90755440212e-21)
(0 -0.0137211916988 0)
(0 -0.0356345903886 0)
(0.18128014366 0.110555010104 6.63358045691e-21)
(-0.012048369032 0.277811701846 1.164554392e-20)
(-0.272199554597 0.210691419249 3.80014630315e-20)
(0 -0.0195467544031 0)
(-0.0842970860349 0.0581474036285 -2.35167025279e-20)
(-0.00904763299582 0.0856193373459 -4.91571941432e-20)
(-0.0819124316972 0.206425563554 -2.9047777153e-20)
(-0.207161836048 0.13497081108 2.57495075054e-20)
)
;
    }
    floatingObject
    {
        type            calculated;
        value           nonuniform List<vector> 0();
    }
    procBoundary1to0
    {
        type            processor;
        value           nonuniform List<vector> 10((-0.0635781708325 0.0203542817776 -2.99128859346e-23) (-0.0672419883168 0.0229368819274 -5.20417251187e-23) (-0.0715959333655 0.0257482814281 -1.56021796372e-22) (-0.0768626499313 0.0289085060109 -2.29820263207e-22) (-0.0833992543216 0.032366045196 -1.2122625898e-21) (-0.0911873988487 0.037529252938 2.68543191071e-21) (-0.0991186476413 0.0403006751032 2.40456007896e-21) (-0.113403235632 0.0424796402036 -4.35043852523e-21) (-0.213404014197 0.0487523357759 -1.78650188968e-20) (-0.212898796551 0.0908839233109 -3.01805184957e-21));
    }
    procBoundary1to2
    {
        type            processor;
        value           nonuniform List<vector> 
18
(
(-0.00200914492731 0.0306587013266 4.71491659529e-22)
(-0.00589701600715 0.0300173717576 1.80731502777e-23)
(-0.00969848869006 0.0294699649126 -1.20202955945e-23)
(-0.0116474597206 0.0312223745016 2.34441537368e-23)
(-0.013636349526 0.0329692397949 -1.47135738752e-23)
(-0.0156356186111 0.0348318019821 -1.94249135968e-23)
(-0.0176842494345 0.036707923841 -2.94021889185e-23)
(-0.0217657114329 0.0365088783456 -2.85243899059e-23)
(-0.0259470000723 0.0361945554431 -4.41342877547e-23)
(-0.0302038313857 0.0356790920407 -5.14234473253e-23)
(-0.0345007554201 0.0349249668194 -3.59588493274e-23)
(-0.0387918899085 0.0338742567444 -3.37807318897e-23)
(-0.0430145243657 0.032468779188 -3.60864705436e-23)
(-0.0470956225488 0.0307738331119 -4.92138136984e-23)
(-0.0509687443023 0.0287028341945 -4.89683852802e-23)
(-0.0545650438981 0.0263142401104 -3.96454987957e-23)
(-0.0578106325086 0.0236219448602 -1.72170698602e-23)
(-0.0606419005138 0.0206700347833 -3.34579400769e-24)
)
;
    }
}


// ************************************************************************* //
