/*--------------------------------*- C++ -*----------------------------------*\
| =========                 |                                                 |
| \\      /  F ield         | OpenFOAM: The Open Source CFD Toolbox           |
|  \\    /   O peration     | Version:  v2012                                 |
|   \\  /    A nd           | Website:  www.openfoam.com                      |
|    \\/     M anipulation  |                                                 |
\*---------------------------------------------------------------------------*/
FoamFile
{
    version     2.0;
    format      ascii;
    class       volScalarField;
    location    "5.9";
    object      epsilon_0;
}
// * * * * * * * * * * * * * * * * * * * * * * * * * * * * * * * * * * * * * //

dimensions      [0 2 -3 0 0 0 0];


internalField   nonuniform List<scalar> 
167
(
0.000282446723151
0.000317859603237
0.00034299303863
0.000354251233642
0.00036061833877
0.000365399933591
0.000369780350598
0.000374262128814
0.00031877190006
0.000325935327899
0.000356373173385
0.000369316145083
0.00037588786218
0.000380249258455
0.000383945269215
0.000387640871231
0.000344762977066
0.00035793004354
0.000393170630291
0.000407984908227
0.000415237420368
0.000419859762261
0.000423711361668
0.000427560218911
0.000356294809725
0.000371834805133
0.000409163610945
0.000424751237195
0.000432216681997
0.000436861310187
0.000440706603577
0.00044458013508
0.000449060153809
0.000362363857404
0.000378706525122
0.000416949246229
0.000432810970058
0.000440270429715
0.000444821609726
0.000448566924281
0.000452363832448
0.000456801113153
0.000462864143882
0.000366362133201
0.000382887454584
0.000421548873971
0.000437472330406
0.000444834319929
0.000449240751925
0.00045284311945
0.000456510544331
0.000460823828613
0.000466733141462
0.000369556495434
0.000386044641623
0.000424927805509
0.000440832307712
0.000448067414285
0.000452314739852
0.000455758822881
0.000459274532356
0.000463428488227
0.000469130243593
0.000372409595483
0.000388805226077
0.000427833499698
0.000443696276471
0.000450803312947
0.000454896225108
0.000458182781559
0.000461543885553
0.000465529116754
0.000471010535897
0.000375079118846
0.00039136941253
0.000430533971067
0.000446355803683
0.000453347628094
0.000457299140718
0.000460438609241
0.000463648811901
0.000467470165921
0.000472733470162
0.000377603216474
0.000393831027063
0.000433119857278
0.000448908369556
0.000455798851384
0.000459625156076
0.000462631684216
0.000465703274637
0.000469367147988
0.000474415301592
0.000379994227192
0.000396179579875
0.000435606151123
0.000451375333051
0.000458179540482
0.000461895723993
0.000464784588806
0.000467730895977
0.000471247786979
0.000476087226533
0.000382244537532
0.000398421491582
0.000437991963845
0.000453753776486
0.000460485757905
0.000464106321233
0.000466890508671
0.000469724009252
0.00047310449057
0.000477737853667
0.000384345212606
0.000400548923473
0.000440269781938
0.000456034176602
0.000462705204929
0.000466242350503
0.0004689343293
0.000471664755915
0.00047491566919
0.000479346269506
0.000386282330296
0.000402550482632
0.000442429082693
0.000458203122978
0.000464823779383
0.000468288752335
0.000470899626319
0.00047353773073
0.000476668160597
0.000480903984851
0.000388055501864
0.00040442036269
0.000444455098586
0.000460246162701
0.000466826901194
0.00047023038943
0.000472770278028
0.000475326252559
0.000478346644608
0.000482402659671
0.000389676692762
0.0004061492601
0.00044634003764
0.000462154150368
0.000468702324687
0.000472053150493
0.00047453069512
0.000477014694695
0.000479937091985
0.000483820755537
0.000391129883471
0.000407728478306
0.000448071921966
0.000463915024188
0.000470438522597
0.000473744564208
0.000476169599533
0.00039239720401
0.000409151909275
0.000449651352353
0.000465528713647
0.000472035263825
0.000451073384949
0.00046699234441
)
;

boundaryField
{
    back
    {
        lowReCorrection 0;
        blending        stepwise;
        n               2;
        type            epsilonWallFunction;
        value           nonuniform List<scalar> 
167
(
0.000282446723151
0.000317859603237
0.00034299303863
0.000354251233642
0.00036061833877
0.000365399933591
0.000369780350598
0.000374262128814
0.00031877190006
0.000325935327899
0.000356373173385
0.000369316145083
0.00037588786218
0.000380249258455
0.000383945269215
0.000387640871231
0.000344762977066
0.00035793004354
0.000393170630291
0.000407984908227
0.000415237420368
0.000419859762261
0.000423711361668
0.000427560218911
0.000356294809725
0.000371834805133
0.000409163610945
0.000424751237195
0.000432216681997
0.000436861310187
0.000440706603577
0.00044458013508
0.000449060153809
0.000362363857404
0.000378706525122
0.000416949246229
0.000432810970058
0.000440270429715
0.000444821609726
0.000448566924281
0.000452363832448
0.000456801113153
0.000462864143882
0.000366362133201
0.000382887454584
0.000421548873971
0.000437472330406
0.000444834319929
0.000449240751925
0.00045284311945
0.000456510544331
0.000460823828613
0.000466733141462
0.000369556495434
0.000386044641623
0.000424927805509
0.000440832307712
0.000448067414285
0.000452314739852
0.000455758822881
0.000459274532356
0.000463428488227
0.000469130243593
0.000372409595483
0.000388805226077
0.000427833499698
0.000443696276471
0.000450803312947
0.000454896225108
0.000458182781559
0.000461543885553
0.000465529116754
0.000471010535897
0.000375079118846
0.00039136941253
0.000430533971067
0.000446355803683
0.000453347628094
0.000457299140718
0.000460438609241
0.000463648811901
0.000467470165921
0.000472733470162
0.000377603216474
0.000393831027063
0.000433119857278
0.000448908369556
0.000455798851384
0.000459625156076
0.000462631684216
0.000465703274637
0.000469367147988
0.000474415301592
0.000379994227192
0.000396179579875
0.000435606151123
0.000451375333051
0.000458179540482
0.000461895723993
0.000464784588806
0.000467730895977
0.000471247786979
0.000476087226533
0.000382244537532
0.000398421491582
0.000437991963845
0.000453753776486
0.000460485757905
0.000464106321233
0.000466890508671
0.000469724009252
0.00047310449057
0.000477737853667
0.000384345212606
0.000400548923473
0.000440269781938
0.000456034176602
0.000462705204929
0.000466242350503
0.0004689343293
0.000471664755915
0.00047491566919
0.000479346269506
0.000386282330296
0.000402550482632
0.000442429082693
0.000458203122978
0.000464823779383
0.000468288752335
0.000470899626319
0.00047353773073
0.000476668160597
0.000480903984851
0.000388055501864
0.00040442036269
0.000444455098586
0.000460246162701
0.000466826901194
0.00047023038943
0.000472770278028
0.000475326252559
0.000478346644608
0.000482402659671
0.000389676692762
0.0004061492601
0.00044634003764
0.000462154150368
0.000468702324687
0.000472053150493
0.00047453069512
0.000477014694695
0.000479937091985
0.000483820755537
0.000391129883471
0.000407728478306
0.000448071921966
0.000463915024188
0.000470438522597
0.000473744564208
0.000476169599533
0.00039239720401
0.000409151909275
0.000449651352353
0.000465528713647
0.000472035263825
0.000451073384949
0.00046699234441
)
;
    }
    sides
    {
        lowReCorrection 0;
        blending        stepwise;
        n               2;
        type            epsilonWallFunction;
        value           nonuniform List<scalar> 8(0.000282446723151 0.000317859603237 0.00034299303863 0.000354251233642 0.00036061833877 0.000365399933591 0.000369780350598 0.000374262128814);
    }
    bottom
    {
        lowReCorrection 0;
        blending        stepwise;
        n               2;
        type            epsilonWallFunction;
        value           nonuniform List<scalar> 
18
(
0.000282446723151
0.00031877190006
0.000344762977066
0.000356294809725
0.000362363857404
0.000366362133201
0.000369556495434
0.000372409595483
0.000375079118846
0.000377603216474
0.000379994227192
0.000382244537532
0.000384345212606
0.000386282330296
0.000388055501864
0.000389676692762
0.000391129883471
0.00039239720401
)
;
    }
    front
    {
        lowReCorrection 0;
        blending        stepwise;
        n               2;
        type            epsilonWallFunction;
        value           nonuniform List<scalar> 
167
(
0.000282446723151
0.000317859603237
0.00034299303863
0.000354251233642
0.00036061833877
0.000365399933591
0.000369780350598
0.000374262128814
0.00031877190006
0.000325935327899
0.000356373173385
0.000369316145083
0.00037588786218
0.000380249258455
0.000383945269215
0.000387640871231
0.000344762977066
0.00035793004354
0.000393170630291
0.000407984908227
0.000415237420368
0.000419859762261
0.000423711361668
0.000427560218911
0.000356294809725
0.000371834805133
0.000409163610945
0.000424751237195
0.000432216681997
0.000436861310187
0.000440706603577
0.00044458013508
0.000449060153809
0.000362363857404
0.000378706525122
0.000416949246229
0.000432810970058
0.000440270429715
0.000444821609726
0.000448566924281
0.000452363832448
0.000456801113153
0.000462864143882
0.000366362133201
0.000382887454584
0.000421548873971
0.000437472330406
0.000444834319929
0.000449240751925
0.00045284311945
0.000456510544331
0.000460823828613
0.000466733141462
0.000369556495434
0.000386044641623
0.000424927805509
0.000440832307712
0.000448067414285
0.000452314739852
0.000455758822881
0.000459274532356
0.000463428488227
0.000469130243593
0.000372409595483
0.000388805226077
0.000427833499698
0.000443696276471
0.000450803312947
0.000454896225108
0.000458182781559
0.000461543885553
0.000465529116754
0.000471010535897
0.000375079118846
0.00039136941253
0.000430533971067
0.000446355803683
0.000453347628094
0.000457299140718
0.000460438609241
0.000463648811901
0.000467470165921
0.000472733470162
0.000377603216474
0.000393831027063
0.000433119857278
0.000448908369556
0.000455798851384
0.000459625156076
0.000462631684216
0.000465703274637
0.000469367147988
0.000474415301592
0.000379994227192
0.000396179579875
0.000435606151123
0.000451375333051
0.000458179540482
0.000461895723993
0.000464784588806
0.000467730895977
0.000471247786979
0.000476087226533
0.000382244537532
0.000398421491582
0.000437991963845
0.000453753776486
0.000460485757905
0.000464106321233
0.000466890508671
0.000469724009252
0.00047310449057
0.000477737853667
0.000384345212606
0.000400548923473
0.000440269781938
0.000456034176602
0.000462705204929
0.000466242350503
0.0004689343293
0.000471664755915
0.00047491566919
0.000479346269506
0.000386282330296
0.000402550482632
0.000442429082693
0.000458203122978
0.000464823779383
0.000468288752335
0.000470899626319
0.00047353773073
0.000476668160597
0.000480903984851
0.000388055501864
0.00040442036269
0.000444455098586
0.000460246162701
0.000466826901194
0.00047023038943
0.000472770278028
0.000475326252559
0.000478346644608
0.000482402659671
0.000389676692762
0.0004061492601
0.00044634003764
0.000462154150368
0.000468702324687
0.000472053150493
0.00047453069512
0.000477014694695
0.000479937091985
0.000483820755537
0.000391129883471
0.000407728478306
0.000448071921966
0.000463915024188
0.000470438522597
0.000473744564208
0.000476169599533
0.00039239720401
0.000409151909275
0.000449651352353
0.000465528713647
0.000472035263825
0.000451073384949
0.00046699234441
)
;
    }
    atmosphere
    {
        type            inletOutlet;
        inletValue      nonuniform List<scalar> 0();
        value           nonuniform List<scalar> 0();
    }
    floatingObject
    {
        lowReCorrection 0;
        blending        stepwise;
        n               2;
        type            epsilonWallFunction;
        value           nonuniform List<scalar> 0();
    }
    procBoundary2to0
    {
        type            processor;
        value           nonuniform List<scalar> 
14
(
0.000478590787788
0.000481420224171
0.000485149263797
0.000475306386407
0.000478590787788
0.000477684828373
0.000393486596161
0.000410415895266
0.000475306386407
0.000473490484775
0.000410415895266
0.000452332236749
0.000473490484775
0.000468297731706
)
;
    }
    procBoundary2to1
    {
        type            processor;
        value           nonuniform List<scalar> 
18
(
0.000379292567145
0.000391809997022
0.000431969711471
0.000431969711471
0.000455169164694
0.000455169164694
0.000473040193316
0.000476576454712
0.0004785849867
0.000480096574334
0.000481468865998
0.000482784803444
0.000484076313229
0.000485335284862
0.000486541269198
0.000487708756586
0.000488831824224
0.000489907565235
)
;
    }
}


// ************************************************************************* //
