/*--------------------------------*- C++ -*----------------------------------*\
| =========                 |                                                 |
| \\      /  F ield         | OpenFOAM: The Open Source CFD Toolbox           |
|  \\    /   O peration     | Version:  v2012                                 |
|   \\  /    A nd           | Website:  www.openfoam.com                      |
|    \\/     M anipulation  |                                                 |
\*---------------------------------------------------------------------------*/
FoamFile
{
    version     2.0;
    format      ascii;
    class       volScalarField;
    location    "5.9";
    object      p_rgh;
}
// * * * * * * * * * * * * * * * * * * * * * * * * * * * * * * * * * * * * * //

dimensions      [1 -1 -2 0 0 0 0];


internalField   nonuniform List<scalar> 
167
(
8560.98535641
8560.84491406
8560.55094237
8560.11557501
8559.55233665
8558.87685258
8558.10957037
8557.27701822
8561.11382224
8560.96994447
8560.66892807
8560.22204794
8559.64320458
8558.94672998
8558.1526504
8557.28829494
8561.39331334
8561.24294446
8560.92799279
8560.45975309
8559.85052236
8559.11313761
8558.26817436
8557.33339497
8561.82762698
8561.66795321
8561.33316784
8560.83375617
8560.18040854
8559.38455836
8558.46305287
8557.43704319
8556.30846684
8562.42521858
8562.25317213
8561.89295822
8561.35406968
8560.64479983
8559.7746639
8558.7568085
8557.60568597
8556.33454784
8554.95411115
8563.19829188
8563.01163452
8562.62152851
8562.03638046
8561.26185693
8560.30481138
8559.17404447
8557.8781701
8556.42797864
8554.83089469
8564.16157382
8563.95871368
8563.53571701
8562.89945414
8562.05322053
8561.00028097
8559.74540293
8558.29100742
8556.64187244
8554.78296259
8565.33155495
8565.11151379
8564.65407873
8563.96423876
8563.04274251
8561.8894779
8560.50466692
8558.88405647
8557.02212077
8554.89208196
8566.72557061
8566.4881549
8565.99608659
8565.25249422
8564.25576039
8563.00230484
8561.48713497
8559.69988406
8557.6238123
8555.22078464
8568.36073308
8568.10664379
8567.58143616
8566.78642293
8565.71769003
8564.36863544
8562.72918557
8560.78201384
8558.50166935
8555.87056623
8570.25390807
8569.9843971
8569.42896034
8568.58721504
8567.45275481
8566.01647726
8564.26381904
8562.16719548
8559.72347058
8556.91349692
8572.42031741
8572.13742942
8571.55590563
8570.6738959
8569.48331209
8567.97008814
8566.11913835
8563.91726344
8561.33948886
8558.34429339
8574.87332263
8574.57950341
8573.97702389
8573.06287392
8571.82822157
8570.25662923
8568.33647655
8566.04426963
8563.3424965
8560.20111496
8577.62379173
8577.32197162
8576.70479221
8575.76790184
8574.50186793
8572.89396537
8570.9235565
8568.56431679
8565.79031302
8562.55663732
8580.67943213
8580.3726453
8579.74728307
8578.79917292
8577.51661411
8575.8886442
8573.89145258
8571.5017107
8568.69456286
8565.42494706
8584.04554764
8583.73731571
8583.11048264
8582.16033834
8580.87660255
8579.24472474
8577.24902791
8574.85919917
8572.05909768
8568.79762986
8587.72318753
8587.41714442
8586.79558136
8585.84856982
8584.5703253
8582.94362482
8580.98824775
8591.7094548
8591.40812943
8590.79769343
8589.87059589
8588.61330434
8595.11135176
8594.21327263
)
;

boundaryField
{
    back
    {
        type            fixedFluxPressure;
        gradient        uniform 0;
        value           nonuniform List<scalar> 
167
(
8560.98535641
8560.84491406
8560.55094237
8560.11557501
8559.55233665
8558.87685258
8558.10957037
8557.27701822
8561.11382224
8560.96994447
8560.66892807
8560.22204794
8559.64320458
8558.94672998
8558.1526504
8557.28829494
8561.39331334
8561.24294446
8560.92799279
8560.45975309
8559.85052236
8559.11313761
8558.26817436
8557.33339497
8561.82762698
8561.66795321
8561.33316784
8560.83375617
8560.18040854
8559.38455836
8558.46305287
8557.43704319
8556.30846684
8562.42521858
8562.25317213
8561.89295822
8561.35406968
8560.64479983
8559.7746639
8558.7568085
8557.60568597
8556.33454784
8554.95411115
8563.19829188
8563.01163452
8562.62152851
8562.03638046
8561.26185693
8560.30481138
8559.17404447
8557.8781701
8556.42797864
8554.83089469
8564.16157382
8563.95871368
8563.53571701
8562.89945414
8562.05322053
8561.00028097
8559.74540293
8558.29100742
8556.64187244
8554.78296259
8565.33155495
8565.11151379
8564.65407873
8563.96423876
8563.04274251
8561.8894779
8560.50466692
8558.88405647
8557.02212077
8554.89208196
8566.72557061
8566.4881549
8565.99608659
8565.25249422
8564.25576039
8563.00230484
8561.48713497
8559.69988406
8557.6238123
8555.22078464
8568.36073308
8568.10664379
8567.58143616
8566.78642293
8565.71769003
8564.36863544
8562.72918557
8560.78201384
8558.50166935
8555.87056623
8570.25390807
8569.9843971
8569.42896034
8568.58721504
8567.45275481
8566.01647726
8564.26381904
8562.16719548
8559.72347058
8556.91349692
8572.42031741
8572.13742942
8571.55590563
8570.6738959
8569.48331209
8567.97008814
8566.11913835
8563.91726344
8561.33948886
8558.34429339
8574.87332263
8574.57950341
8573.97702389
8573.06287392
8571.82822157
8570.25662923
8568.33647655
8566.04426963
8563.3424965
8560.20111496
8577.62379173
8577.32197162
8576.70479221
8575.76790184
8574.50186793
8572.89396537
8570.9235565
8568.56431679
8565.79031302
8562.55663732
8580.67943213
8580.3726453
8579.74728307
8578.79917292
8577.51661411
8575.8886442
8573.89145258
8571.5017107
8568.69456286
8565.42494706
8584.04554764
8583.73731571
8583.11048264
8582.16033834
8580.87660255
8579.24472474
8577.24902791
8574.85919917
8572.05909768
8568.79762986
8587.72318753
8587.41714442
8586.79558136
8585.84856982
8584.5703253
8582.94362482
8580.98824775
8591.7094548
8591.40812943
8590.79769343
8589.87059589
8588.61330434
8595.11135176
8594.21327263
)
;
    }
    sides
    {
        type            fixedFluxPressure;
        gradient        uniform 0;
        value           nonuniform List<scalar> 8(8560.98535641 8560.84491406 8560.55094237 8560.11557501 8559.55233665 8558.87685258 8558.10957037 8557.27701822);
    }
    bottom
    {
        type            fixedFluxPressure;
        gradient        uniform 0;
        value           nonuniform List<scalar> 
18
(
8560.98535641
8561.11382224
8561.39331334
8561.82762698
8562.42521858
8563.19829188
8564.16157382
8565.33155495
8566.72557061
8568.36073308
8570.25390807
8572.42031741
8574.87332263
8577.62379173
8580.67943213
8584.04554764
8587.72318753
8591.7094548
)
;
    }
    front
    {
        type            fixedFluxPressure;
        gradient        uniform 0;
        value           nonuniform List<scalar> 
167
(
8560.98535641
8560.84491406
8560.55094237
8560.11557501
8559.55233665
8558.87685258
8558.10957037
8557.27701822
8561.11382224
8560.96994447
8560.66892807
8560.22204794
8559.64320458
8558.94672998
8558.1526504
8557.28829494
8561.39331334
8561.24294446
8560.92799279
8560.45975309
8559.85052236
8559.11313761
8558.26817436
8557.33339497
8561.82762698
8561.66795321
8561.33316784
8560.83375617
8560.18040854
8559.38455836
8558.46305287
8557.43704319
8556.30846684
8562.42521858
8562.25317213
8561.89295822
8561.35406968
8560.64479983
8559.7746639
8558.7568085
8557.60568597
8556.33454784
8554.95411115
8563.19829188
8563.01163452
8562.62152851
8562.03638046
8561.26185693
8560.30481138
8559.17404447
8557.8781701
8556.42797864
8554.83089469
8564.16157382
8563.95871368
8563.53571701
8562.89945414
8562.05322053
8561.00028097
8559.74540293
8558.29100742
8556.64187244
8554.78296259
8565.33155495
8565.11151379
8564.65407873
8563.96423876
8563.04274251
8561.8894779
8560.50466692
8558.88405647
8557.02212077
8554.89208196
8566.72557061
8566.4881549
8565.99608659
8565.25249422
8564.25576039
8563.00230484
8561.48713497
8559.69988406
8557.6238123
8555.22078464
8568.36073308
8568.10664379
8567.58143616
8566.78642293
8565.71769003
8564.36863544
8562.72918557
8560.78201384
8558.50166935
8555.87056623
8570.25390807
8569.9843971
8569.42896034
8568.58721504
8567.45275481
8566.01647726
8564.26381904
8562.16719548
8559.72347058
8556.91349692
8572.42031741
8572.13742942
8571.55590563
8570.6738959
8569.48331209
8567.97008814
8566.11913835
8563.91726344
8561.33948886
8558.34429339
8574.87332263
8574.57950341
8573.97702389
8573.06287392
8571.82822157
8570.25662923
8568.33647655
8566.04426963
8563.3424965
8560.20111496
8577.62379173
8577.32197162
8576.70479221
8575.76790184
8574.50186793
8572.89396537
8570.9235565
8568.56431679
8565.79031302
8562.55663732
8580.67943213
8580.3726453
8579.74728307
8578.79917292
8577.51661411
8575.8886442
8573.89145258
8571.5017107
8568.69456286
8565.42494706
8584.04554764
8583.73731571
8583.11048264
8582.16033834
8580.87660255
8579.24472474
8577.24902791
8574.85919917
8572.05909768
8568.79762986
8587.72318753
8587.41714442
8586.79558136
8585.84856982
8584.5703253
8582.94362482
8580.98824775
8591.7094548
8591.40812943
8590.79769343
8589.87059589
8588.61330434
8595.11135176
8594.21327263
)
;
    }
    atmosphere
    {
        type            totalPressure;
        rho             rho;
        psi             none;
        gamma           1;
        p0              nonuniform List<scalar> 0();
        value           nonuniform List<scalar> 0();
    }
    floatingObject
    {
        type            fixedFluxPressure;
        gradient        nonuniform List<scalar> 0();
        value           nonuniform List<scalar> 0();
    }
    procBoundary2to0
    {
        type            processor;
        value           nonuniform List<scalar> 
14
(
8578.63649962
8575.87251448
8572.6667051
8587.02935612
8578.63649962
8585.09443273
8595.99989888
8595.70553454
8587.02935612
8593.0011154
8595.70553454
8599.73401795
8593.0011154
8598.87596273
)
;
    }
    procBoundary2to1
    {
        type            processor;
        value           nonuniform List<scalar> 
18
(
8556.41243059
8556.37633787
8556.33851941
8556.33851941
8555.13360213
8555.13360213
8553.5222773
8553.09053734
8552.73716229
8552.55730292
8552.59045351
8552.91737883
8553.66918062
8554.88410108
8556.55974599
8558.80474301
8561.62977314
8565.0289426
)
;
    }
}


// ************************************************************************* //
