/*--------------------------------*- C++ -*----------------------------------*\
| =========                 |                                                 |
| \\      /  F ield         | OpenFOAM: The Open Source CFD Toolbox           |
|  \\    /   O peration     | Version:  v2012                                 |
|   \\  /    A nd           | Website:  www.openfoam.com                      |
|    \\/     M anipulation  |                                                 |
\*---------------------------------------------------------------------------*/
FoamFile
{
    version     2.0;
    format      ascii;
    class       surfaceVectorField;
    location    "2.9";
    object      ddtCorrDdt0(Uf);
}
// * * * * * * * * * * * * * * * * * * * * * * * * * * * * * * * * * * * * * //

dimensions      [0 1 -2 0 0 0 0];


internalField   nonuniform List<vector> 
296
(
(0.178823185684 0.122849517177 -1.38322483257e-22)
(0.161255490617 0.121223753953 8.05452846016e-22)
(0.197320066771 0.141292173425 -3.36530078241e-22)
(0.177704763752 0.141284714476 -3.5970569622e-22)
(0.219625082595 0.159998559632 -3.77802633563e-22)
(0.197847811344 0.161858030805 -2.12351315886e-21)
(0.246058350307 0.178568829573 -8.21992345675e-22)
(0.222230543228 0.182699107344 -2.18615131992e-21)
(0.276599062019 0.196721000718 -7.78287340996e-22)
(0.251007247499 0.203280994868 -5.20275033551e-21)
(0.311125310561 0.21448037667 -5.02984456246e-22)
(0.283654166579 0.223179197491 -4.89933285988e-21)
(0.351126054058 0.2319220989 1.21863759758e-21)
(0.319792613866 0.243791264365 -4.5870886321e-21)
(0.395717336112 0.248124163664 5.34570388756e-21)
(0.363706385058 0.265394135257 6.90192736419e-22)
(0.446772347551 0.266469627894 2.4371449267e-20)
(0.409723455159 0.289263086399 4.44448750045e-21)
(0.571641222091 0.273019096365 6.78669929711e-20)
(0.471253690606 0.240082740495 2.74567033623e-20)
(0.579832648047 0.261378962637 4.63100554405e-20)
(0.673533076839 0.249591868884 5.95747728219e-20)
(0.225987075076 0.324226083813 -1.2745822831e-19)
(0.440007304088 0.494630604881 1.01062026805e-20)
(-0.0341294219982 0.4596306925 -1.30258046337e-19)
(0.111692508372 0.0144799822714 2.31266851899e-22)
(0.103944387006 0.00779517811327 -7.2797800353e-22)
(0.11313872777 0.029289597003 5.45478422214e-22)
(0.10477061136 0.0224843546039 9.83382150245e-22)
(0.11577195039 0.0446850664114 7.83383703886e-23)
(0.106340732102 0.0379501994473 1.19146051721e-22)
(0.109252853279 0.0545744242631 1.76333319256e-22)
(0.133745170663 0.0974405924232 7.63994685919e-22)
(0.119536095628 0.0915654831059 2.2847065498e-21)
(0.144566879916 0.117787800196 1.19094011735e-21)
(0.127959748553 0.112667681452 3.9346772587e-21)
(0.158827543324 0.139325801708 5.84069633053e-22)
(0.139716944026 0.135464758688 5.64193881214e-21)
(0.176801057773 0.161506506357 -2.14668877684e-21)
(0.155484859905 0.159269076424 4.75633981304e-24)
(0.198859054588 0.184192037525 -3.93186184522e-21)
(0.175082956813 0.18388962777 -1.30094598575e-20)
(0.225401338866 0.206892290706 -6.56690930975e-21)
(0.199403763376 0.209183441416 -2.02805747041e-20)
(0.256167781321 0.229041978057 -9.32379585439e-21)
(0.228694310287 0.234207473234 -3.35418218686e-20)
(0.290246405338 0.250991098568 -8.98343703574e-21)
(0.261514531259 0.257413455413 -2.39126591873e-20)
(0.329707150441 0.274867999488 -5.11553349326e-21)
(0.29572694847 0.283005944523 -2.13860847514e-20)
(0.3734763636 0.299574316044 -2.11023650689e-22)
(0.338841556934 0.313766309107 -5.42277210244e-21)
(0.424702128745 0.32837421396 7.52974159573e-21)
(0.380837024667 0.367537799402 -3.20562993123e-21)
(0.541911156141 0.365804312111 1.91644832131e-20)
(0.433811557916 0.323295476201 -2.98583737879e-20)
(0.523114263213 0.466585943088 2.33709200619e-20)
(0.571169351918 0.343584152816 2.14633634824e-20)
(0.196872483715 0.585328598555 7.30638465285e-21)
(0.322824419788 0.794433251859 -2.53014538925e-20)
(-0.00506189369774 0.784430232594 -7.91429890999e-20)
(0.096619284369 0.015335085953 2.41372948169e-23)
(0.0886392419082 0.00814076975234 -1.02866504636e-21)
(0.097550334337 0.0310679043106 5.57049779752e-22)
(0.0890776677937 0.0235028346609 8.0675843964e-22)
(0.099316993602 0.0475622484838 2.17141000588e-22)
(0.0898941107682 0.0397508332267 1.72654524891e-22)
(0.102214893674 0.0652714333066 8.60703243569e-22)
(0.0915956687073 0.0574015818364 1.18363149245e-21)
(0.106502372295 0.0846392563326 2.62055251184e-21)
(0.0942079372665 0.0764988451242 3.62562720706e-21)
(0.112776613245 0.105993702578 5.45538912258e-21)
(0.0982278494903 0.0977826081982 1.13450239342e-20)
(0.121966252635 0.129580876964 8.3856759535e-21)
(0.104403493625 0.121786823971 2.22987500433e-20)
(0.135068251722 0.155073250587 5.0626255189e-21)
(0.114229946623 0.148604236435 3.60217022463e-20)
(0.152299770216 0.181366719461 -1.08580147408e-20)
(0.129157031139 0.176655842412 1.04084353621e-21)
(0.173961804075 0.208416877375 -2.93581727163e-20)
(0.147950882736 0.205734915252 -5.85094685542e-20)
(0.200778243879 0.235690118906 -4.72554872629e-20)
(0.171998606397 0.236105482127 7.3549948371e-21)
(0.232544012788 0.26221696559 -4.81306852015e-20)
(0.201993874001 0.266825280454 -7.21317508311e-20)
(0.26510093145 0.286603020629 -3.63153069029e-20)
(0.236929820033 0.290776051385 -2.08732548211e-20)
(0.301930318313 0.319376159092 -2.16933233605e-20)
(0.262756955144 0.320050215598 -3.55225930519e-20)
(0.346473454052 0.354242289865 -8.41737838298e-21)
(0.303816071412 0.364087982632 -9.81071223713e-21)
(0.373521192451 0.381212329259 -4.05937453148e-20)
(0.353784991757 0.432590307257 -4.71282348343e-20)
(0.433593409484 0.498226654647 -2.75594935186e-20)
(0.316779864212 0.406535225441 -1.48364236403e-19)
(0.353415306079 0.72915069754 -2.72090104721e-20)
(0.339329665826 0.52273669992 -9.16777607392e-20)
(0.11404511284 0.902710549686 -1.11750827645e-19)
(0.150854210404 1.23064332101 -2.43859949175e-19)
(0.0472112442978 1.23579932498 -4.84424145227e-20)
(0.0808727001347 0.0158008487058 -2.46043901536e-22)
(0.0728870471764 0.00827269718742 -8.18185245842e-22)
(0.0811754721524 0.0320599020613 4.22363184779e-22)
(0.0728762107443 0.0238865846879 6.9566309173e-22)
(0.0818390086302 0.0492140360454 1.13914501675e-21)
(0.0728044333385 0.0404400138602 7.63876858561e-22)
(0.0830864034871 0.06790594704 3.94855545594e-21)
(0.0729726264793 0.058571947964 4.02679799933e-21)
(0.0851914308565 0.0887795630383 1.23500986294e-20)
(0.0734033027108 0.0785249205416 1.51206685164e-20)
(0.088801322497 0.11245207933 2.81883848549e-20)
(0.0746170642086 0.101297413087 4.8674033767e-20)
(0.0953563018204 0.139651209265 4.99347763361e-20)
(0.0772471837893 0.128292055334 1.07629934184e-19)
(0.106899365483 0.170036461169 3.19999202636e-20)
(0.0838565529049 0.160587264705 1.34317754001e-19)
(0.123307287996 0.20081267267 -4.66106102772e-20)
(0.0983474777031 0.193966721384 -2.86484929393e-19)
(0.144432337016 0.232813226126 -2.17963010008e-20)
(0.115863860587 0.227725384957 1.59405297216e-19)
(0.172338788077 0.265014366853 -1.75212687311e-20)
(0.139655586618 0.264983585508 1.37463177008e-19)
(0.207853277369 0.297855544615 -4.48743204507e-20)
(0.168965944002 0.30483920105 -6.52327607514e-19)
(0.234614230107 0.31689319418 -2.00805409701e-20)
(0.21767822697 0.321334671287 -7.37059473522e-20)
(0.256511133196 0.360518338247 -2.36399819285e-20)
(0.218921720141 0.345210569093 1.37959318107e-19)
(0.286089521347 0.424951536273 -4.85215686885e-20)
(0.239217642413 0.399112079346 1.22103779388e-19)
(0.28380721814 0.535831939621 -1.54898725923e-19)
(0.242822339012 0.465412714165 -1.46216987984e-19)
(0.201359961676 0.657362634104 -2.12482503624e-19)
(0.195239112562 0.465537441536 -3.96025876179e-19)
(0.0910298773336 1.27784336627 -3.08328699442e-19)
(-0.281122915318 0.654306504659 -5.83803900637e-19)
(0.0534258066046 1.34252763858 -1.80551536052e-19)
(0.0880421150628 1.49605872412 -6.05781467483e-19)
(0.107731322229 1.84742068925 4.62426660512e-20)
(0.0648795613885 0.0158275647559 1.23521747424e-22)
(0.0571234340911 0.0081795901937 -4.02877245427e-22)
(0.0645009903964 0.0321226643195 1.03717676551e-21)
(0.0566529289858 0.023587136379 1.0494720279e-21)
(0.0639102665639 0.0493270072437 3.65152984114e-21)
(0.0556779072627 0.0398669164539 2.90739888741e-21)
(0.0631038753876 0.0683007818707 1.51989110597e-20)
(0.0540807996098 0.0576668312967 1.33753624566e-20)
(0.0621305729512 0.0900044476285 5.14446036539e-20)
(0.0517811106206 0.0773978200856 4.74184509405e-20)
(0.0613571784264 0.115538413699 1.28115583096e-19)
(0.0491554973943 0.100480748005 1.07645862103e-19)
(0.0636110704512 0.147588763047 1.92012911849e-19)
(0.0452477159391 0.13143721704 2.56122910034e-19)
(0.0739471098215 0.184951799304 -1.84167095656e-19)
(0.0465091545439 0.173086126367 2.71670263999e-19)
(0.090330226381 0.220644819497 -8.04690219002e-20)
(0.0626211215869 0.21266979606 -9.89511992602e-19)
(0.111090418413 0.258604641448 3.18664775224e-19)
(0.0778099699772 0.250669334231 1.53161387203e-19)
(0.139895702458 0.299047881273 -4.97343161775e-19)
(0.0990572191749 0.293180614105 1.99661137416e-19)
(0.172309433684 0.343207781689 -6.81159234416e-19)
(0.124601102561 0.333892065714 -2.37838825477e-18)
(0.191977436476 0.331948055009 8.43339117253e-20)
(0.228671975661 0.352114303646 -3.16952705879e-19)
(0.200911711673 0.380090508142 2.83703079423e-19)
(0.170504779488 0.365341292313 1.60218670985e-18)
(0.199872575172 0.450609314273 2.44083600915e-20)
(0.168483303529 0.403459706737 9.50792439909e-19)
(0.150082268318 0.563384943023 -3.8734413824e-19)
(0.129942115579 0.457664701777 9.60827278554e-20)
(-0.258360578173 0.760907696309 -7.67347273192e-19)
(-0.00223305996936 0.488656581561 -7.31995337573e-19)
(-0.231299728483 1.32951983187 -8.81256668678e-19)
(-0.851403129714 0.540052954389 -1.03192015577e-18)
(0.136180736687 1.75388213189 -3.7898726538e-19)
(-0.328768724627 0.973824669475 -1.9650089557e-18)
(0.0887699483842 2.42229301245 1.10600274195e-19)
(0.049066399496 0.0154428032252 5.23073035048e-22)
(0.0417517504824 0.0078599101302 -6.10473572952e-23)
(0.0480647739393 0.031269423749 2.9196941498e-21)
(0.0409035857976 0.0226590144514 2.10362424467e-21)
(0.0463819192565 0.0477376931655 1.26312315028e-20)
(0.0392922184434 0.0381956386913 8.10819459875e-21)
(0.0436733206413 0.0657818432877 4.55949023373e-20)
(0.0361229496938 0.0548978480227 3.33087588647e-20)
(0.0397379984558 0.0866915901931 1.0361970939e-19)
(0.0309565152952 0.0735098959118 1.08829628188e-19)
(0.0343154865591 0.112774165213 2.35653189041e-19)
(0.0231476997232 0.0956953122511 2.13605585117e-19)
(0.0279408066641 0.151420266981 3.35780262184e-19)
(0.00665384493002 0.126847986381 -3.15041324121e-19)
(0.0348265719724 0.203125541346 -5.33674632947e-19)
(-0.00517882189053 0.177814990843 -2.56186668632e-18)
(0.0497238243064 0.241118349582 -7.55881583498e-19)
(0.024587569479 0.22612707311 -5.71093323247e-18)
(0.0638907989103 0.282476733331 3.4157749395e-20)
(0.0363447667049 0.263591920966 -2.80445679485e-18)
(0.0945469177021 0.319744015183 -1.68138395558e-18)
(0.0616192625894 0.297328427247 3.99360964418e-18)
(0.155770741391 0.359719880151 -2.01418172623e-18)
(0.0843317001771 0.37206737571 -3.2905505111e-18)
(0.176685247759 0.378363979995 1.20090009225e-18)
(0.209649638896 0.383372600381 4.17342380703e-18)
(0.150242853649 0.384545801386 2.26927607033e-18)
(0.163943865352 0.368815921163 2.49880021799e-18)
(0.121147775915 0.430389865312 1.02246680767e-18)
(0.122367018211 0.377320868727 1.14728514391e-18)
(0.0301860465448 0.496876190282 -2.48568471478e-19)
(0.0633422296822 0.398604612476 5.72808487895e-19)
(-0.45967706612 0.574144363639 -9.9656822015e-19)
(-0.0794640980843 0.458270395198 -5.16448778315e-19)
(-1.15424939492 0.477675561094 -2.11567244279e-18)
(-0.75194969181 0.3042712168 -6.02616028204e-19)
(-0.735781923562 1.78176434516 -1.47542141613e-18)
(-1.62296632454 0.0799700086872 -2.24188378726e-18)
(-0.555816605962 2.21360916862 1.76549300299e-18)
(0.0339000494468 0.014794406865 1.51950385232e-21)
(0.02702550427 0.00744339012146 5.49048214568e-22)
(0.0324503089206 0.0296703319337 7.29212469362e-21)
(0.0261000008212 0.0212913594487 4.06913860179e-21)
(0.029606687491 0.0450403925644 2.87857219606e-20)
(0.0239992051304 0.0353630033976 1.62731800595e-20)
(0.0239598768222 0.0614922514732 9.65434847158e-20)
(0.0197516221785 0.0492059350239 5.72860763457e-20)
(0.0125178265148 0.0806461324079 2.18815503915e-19)
(0.0118817680428 0.0625028317287 1.4125667633e-19)
(-0.00835061011732 0.103575795986 -3.37088928045e-19)
(0.00028725339541 0.0755441503756 4.44984458234e-19)
(-0.0384903246827 0.133533521774 -3.21268827263e-18)
(-0.0232531111309 0.0879597884135 -6.0390059649e-20)
(-0.0243085012826 0.21653014447 -7.73912528585e-18)
(-0.0881570329392 0.107251194801 -2.02651034242e-18)
(0.0155180053802 0.241077956117 -7.75950844383e-18)
(0.0372689597802 0.277349036166 1.15499509993e-18)
(0.0842318791468 0.338824083497 2.38444308865e-18)
(0.20418955089 0.422948273813 2.89705502216e-18)
(0.236923417167 0.375512612697 5.47132393278e-18)
(0.150703432874 0.349650462711 1.37680929157e-18)
(0.0822273361893 0.364254917471 6.97626824135e-19)
(-0.00656713647906 0.386752723425 3.04928181057e-19)
(-0.237190815206 0.334814231727 -1.22496586369e-19)
(-1.28369622225 -0.419459592553 -7.28827372666e-19)
(-2.10236097936 1.07576274179 9.9903063186e-19)
(0.0197053505046 0.0138864396055 3.09868296403e-21)
(0.0131953470891 0.00710496583699 8.1350632133e-22)
(0.0185028661446 0.0273268076697 1.30501939677e-20)
(0.0127187521404 0.0201420965143 6.60112305045e-21)
(0.0160177754297 0.0399119915324 4.47735344446e-20)
(0.0114777604146 0.0328612143139 2.62081175011e-20)
(0.01102242121 0.05047236449 1.01999267959e-19)
(0.00925882820322 0.0441270899767 6.86117200875e-20)
(0.000783745730947 0.0566008441103 3.67425630648e-19)
(0.00582073560864 0.0525239632366 1.43922744436e-19)
(-0.0184122478833 0.0563259541137 7.21683326629e-19)
(0.00062367170031 0.0568318669836 5.17635420714e-19)
(-0.0508466829049 0.0551597632174 1.12578787056e-18)
(-0.0220331803179 0.0498512439238 1.89006206749e-19)
(-0.0329701197594 0.0288727274443 -2.36661361891e-18)
(0.00635546194702 0.0133807992503 4.31594640775e-21)
(-0.000145903111746 0.00696484264504 6.38468870674e-22)
(0.00595033370579 0.026294378704 1.97590465839e-20)
(-0.000151545048395 0.0197490631763 7.75706122228e-21)
(0.00520466752716 0.0379862903319 5.00463031441e-20)
(-0.000164326077887 0.032124014145 3.14276594744e-20)
(0.00402207883511 0.0474824044599 1.10535196564e-19)
(-0.000180599113115 0.0429804106798 6.85521665505e-20)
(0.00248956987312 0.0535657725769 2.94132534502e-19)
(-0.000201826143974 0.0511492882482 1.523783019e-19)
(-0.000203927435119 0.0544664907698 -1.50416991666e-20)
(-0.000216551681118 0.0552349932409 4.35322375381e-19)
(-0.0060705394443 0.0326867945864 -3.30339528272e-18)
(-0.00019394082922 0.0453356582924 -4.65870571475e-19)
(-0.000250875304249 0.0190030141984 -6.14274226378e-18)
(-0.00665328387895 0.0133764273363 4.07958368521e-21)
(-0.0134978847256 0.00709851853176 3.53897132363e-22)
(-0.00626663006738 0.0262823328481 1.94256741129e-20)
(-0.013024798425 0.0201245472241 5.72162376697e-21)
(-0.00554881500531 0.0379693790272 4.99335228809e-20)
(-0.0118072567069 0.03283435657 2.5800384202e-20)
(-0.00440391353544 0.0474626406005 1.10395271886e-19)
(-0.00961727326938 0.0440893988769 6.86300839206e-20)
(-0.00291978353629 0.0535455121651 2.93568142779e-19)
(-0.00621963591494 0.0524746295747 1.45319443123e-19)
(-0.000276792421327 0.0544885812133 -1.55064969268e-20)
(-0.00108935075822 0.056779137742 5.18306396344e-19)
(0.00555712047829 0.0326286098043 -3.30521755253e-18)
(0.0217366741323 0.0498153748252 1.90678166386e-19)
(0.0324201776553 0.0288646245071 -2.36795753412e-18)
(-0.0200152394827 0.0138662794962 1.99593721413e-21)
(-0.0188255865505 0.0272935544472 1.20963338561e-20)
(-0.0163597409209 0.039866350592 4.44969452416e-20)
(-0.0113876296282 0.0504065772494 1.03554255157e-19)
(-0.00117725338453 0.0565044403761 3.70057696687e-19)
(0.017966889563 0.056197192588 7.24491059656e-19)
(0.050339571564 0.05517233309 1.1279381848e-18)
)
;

boundaryField
{
    back
    {
        type            calculated;
        value           uniform (0 0 0);
    }
    sides
    {
        type            calculated;
        value           nonuniform List<vector> 0();
    }
    bottom
    {
        type            calculated;
        value           uniform (0 0 0);
    }
    front
    {
        type            calculated;
        value           uniform (0 0 0);
    }
    atmosphere
    {
        type            calculated;
        value           nonuniform List<vector> 7((0 0.325214478188 0) (-1.02994713033e-47 0.556534475677 1.22156612323e-68) (3.22587572848e-38 0.851044712942 -1.33587149869e-58) (-1.69328059588e-32 1.28324697139 -1.87511021389e-52) (1.40449928005 1.77624199554 6.44005700222e-19) (0.248870489771 2.43141996902 1.22054903932e-18) (-1.99937737373 0.956541833548 3.62391644372e-18));
    }
    floatingObject
    {
        type            calculated;
        value           nonuniform List<vector> 8((0 1.66573753933e-14 -2.08217192417e-15) (0 0 -2.08217192417e-15) (0 0 0) (0 3.33147507866e-14 -2.08217192417e-15) (-4.16434384833e-15 0 0) (0 0 -2.08217192417e-15) (0 0 -2.08217192417e-15) (0 0 0));
    }
    procBoundary3to4
    {
        type            processor;
        value           nonuniform List<vector> 
13
(
(0.179289469658 0.106212890273 -4.63263547279e-23)
(0.196238384184 0.122795224343 -2.82664891705e-22)
(0.216671210021 0.139580761177 -1.10764104751e-22)
(0.118411874577 0.00727025819179 -6.08792092908e-22)
(0.119555392294 0.0209459278671 7.97376805849e-22)
(0.12170896822 0.035283602388 6.0520092041e-23)
(0.125524164352 0.0505190155075 -2.01768989244e-23)
(0.138394797319 0.0836063234511 3.01072457375e-22)
(0.163794625617 0.104821618159 7.34304527237e-23)
(0.148283305984 0.101889455592 4.58917724056e-22)
(0.119910141444 0.0610064969254 1.3138098241e-22)
(0.125743999986 0.0785231981157 4.79904944683e-22)
(0.113500778088 0.0722686547843 8.15750906723e-22)
)
;
    }
    procBoundary3to5
    {
        type            processor;
        value           nonuniform List<vector> 10((0.241009794014 0.156291045209 -4.12408031549e-22) (0.269399085064 0.172601487303 -8.5428830832e-22) (0.301703014157 0.188220407086 -9.20285463151e-22) (0.33751302967 0.203144467377 3.48097775007e-23) (0.380165025208 0.218354037338 3.18275297184e-21) (0.428223439477 0.228254925013 -3.7428772644e-22) (0.477846863388 0.185717247265 1.75592203896e-20) (0.663140795711 0.191982415192 5.47837228334e-20) (0.502382346725 0.292264745883 -9.48280866094e-21) (-0.0328943636616 0.246191765879 -5.44056520795e-20));
    }
    procBoundary3to6
    {
        type            processor;
        value           nonuniform List<vector> 8((0.256623619672 0.248038081474 4.15853102656e-18) (0.189370465951 0.267178763042 1.16033629602e-18) (0.107463794284 0.317321512626 2.96656167574e-19) (0.0407355221791 0.32974551289 6.13506522939e-19) (-0.0274021324278 0.400191170988 -1.03573590283e-19) (0.00341464370366 0.179020830562 8.17461835716e-21) (-3.10811078578 0.206768975262 -5.10710325009e-20) (-0.432733860708 0.516868787576 8.00965883651e-19));
    }
    procBoundary3to8
    {
        type            processor;
        value           nonuniform List<vector> 8((-0.0273472778093 0.00743232183525 1.02746429649e-22) (-0.0264221959955 0.0212606113464 3.27595646476e-21) (-0.0243345576511 0.0353170111264 1.60973331123e-20) (-0.0200972426723 0.0491441998327 5.78004767035e-20) (-0.0122441639806 0.0624230289054 1.42006031937e-19) (-0.000703373659492 0.0754368145041 4.42732801675e-19) (0.0228481801856 0.0878610973799 -6.11080579936e-20) (0.0876305453547 0.107140320082 -2.01781408022e-18));
    }
}


// ************************************************************************* //
