/*--------------------------------*- C++ -*----------------------------------*\
| =========                 |                                                 |
| \\      /  F ield         | OpenFOAM: The Open Source CFD Toolbox           |
|  \\    /   O peration     | Version:  v2012                                 |
|   \\  /    A nd           | Website:  www.openfoam.com                      |
|    \\/     M anipulation  |                                                 |
\*---------------------------------------------------------------------------*/
FoamFile
{
    version     2.0;
    format      ascii;
    class       surfaceVectorField;
    location    "4.3";
    object      ddtCorrDdt0(Uf);
}
// * * * * * * * * * * * * * * * * * * * * * * * * * * * * * * * * * * * * * //

dimensions      [0 1 -2 0 0 0 0];


internalField   nonuniform List<vector> 
296
(
(0.0565607325029 0.0357582405191 1.20850038942e-20)
(0.0513223141338 0.0356393811785 2.80267150841e-20)
(0.0625731769797 0.0407869155591 1.48575088142e-20)
(0.0567891965557 0.041209581322 3.86798898999e-20)
(0.0697652091558 0.0457828445484 1.64286359551e-20)
(0.0633779068881 0.0467314145806 4.25295314754e-20)
(0.078356386481 0.0508343058031 1.9441179525e-20)
(0.071079488418 0.0523971239748 5.00323483915e-20)
(0.088647841037 0.0556902535811 2.62135516951e-20)
(0.0804890756355 0.058447963041 5.96217022899e-20)
(0.100836306716 0.0600600898675 2.61310422965e-20)
(0.0920207700087 0.064183124977 5.34251799849e-20)
(0.115872579543 0.0635985084285 1.35326755318e-20)
(0.105673723212 0.0696772750215 5.92016592532e-20)
(0.136893299807 0.0659193760333 5.45696300271e-21)
(0.123259242372 0.0744952547433 1.32907904473e-20)
(0.163445879427 0.0675703470662 8.07063708566e-22)
(0.148324455508 0.0774222550449 9.31209478309e-21)
(0.172737876683 0.0708542968032 5.12789895978e-21)
(0.175910570644 0.076931447983 1.85468515054e-21)
(0.60400731007 0.064211513646 -6.21685701422e-20)
(0.169072741486 0.0571078223304 1.66389931718e-20)
(0.303658113337 -1.05961333826 -9.77579601115e-20)
(0.603868234649 0.0283898127536 -5.3938358932e-20)
(-0.568973735377 -0.36359938591 -1.61067983792e-20)
(0.0356173037966 0.00442558658967 1.13936308743e-22)
(0.0335119666309 0.00202813890687 -4.00948202382e-22)
(0.0357714121671 0.00883946006646 3.43392217855e-22)
(0.0332733416217 0.00691997186408 4.05739701115e-22)
(0.0365666172274 0.0134274411244 5.47109577964e-22)
(0.0337247553367 0.011561675527 5.37189043697e-22)
(0.034647794972 0.0164605395332 1.953115496e-21)
(0.0424535043268 0.0290134138828 1.71491254054e-20)
(0.0381058049817 0.0274507904436 2.47458493911e-20)
(0.0460863185642 0.0349498951713 3.53248120907e-20)
(0.0410313459793 0.0336846419156 6.1330456585e-20)
(0.0509049179948 0.041084442832 5.46216010898e-20)
(0.0451609679097 0.0403152749733 1.10883912635e-19)
(0.0569062491049 0.0472523620506 6.63519125611e-20)
(0.0505957600418 0.0470077544108 1.47460942394e-19)
(0.0639874009622 0.0535343250189 7.61332439118e-20)
(0.0570755587723 0.0536750917277 1.63237455558e-19)
(0.0724562163674 0.0602907789385 9.02128711564e-20)
(0.0643089501545 0.060741716676 2.0869279951e-19)
(0.0829580316896 0.0671411189777 8.68333305797e-20)
(0.0736343753505 0.0688734317987 2.57919145125e-19)
(0.0957092241435 0.0734963601268 8.64957969417e-20)
(0.0856711880304 0.0763814887302 2.24497768854e-19)
(0.111298827774 0.0795238685304 5.89597741687e-20)
(0.0996616261555 0.0840418840579 1.32205120563e-19)
(0.131869373542 0.0859434928611 1.71459222277e-20)
(0.116859179869 0.0917888795598 4.26578742827e-20)
(0.156534922327 0.0958407633151 1.03597162251e-20)
(0.138443135072 0.101580398959 2.27066672289e-20)
(0.166784027511 0.110101682872 1.33657793625e-20)
(0.161656937902 0.105313300915 1.45668013281e-20)
(0.546483346852 0.118547248397 2.4869204382e-20)
(0.160540661337 0.0880938355054 4.31700168957e-20)
(0.312659829621 0.447137820536 2.77128028003e-20)
(0.275454889785 0.352873048908 2.04942222096e-19)
(0.140115331992 0.450284970327 7.27742977288e-21)
(0.0310294579619 0.0047060138288 -1.0914481001e-22)
(0.0287872435158 0.00215612816416 -7.20551370005e-22)
(0.0310730870682 0.00944251445941 5.99536526957e-22)
(0.0285116993022 0.0072901449402 5.12545137149e-22)
(0.0316163658305 0.0143953602194 1.94319496173e-21)
(0.0287396024036 0.0122035726142 1.64652329507e-21)
(0.0325683238239 0.0196910578543 7.67056897258e-21)
(0.0293140778453 0.0174470378469 7.10998258094e-21)
(0.0340127119642 0.0254547901532 2.60277806988e-20)
(0.030238805078 0.0231691618516 2.75808989726e-20)
(0.0361716913391 0.0318417711998 6.89271805707e-20)
(0.0316827883376 0.029530544676 8.88720357266e-20)
(0.0394585120433 0.0388599938644 1.36889557129e-19)
(0.0339802288294 0.0367695454165 2.11185878892e-19)
(0.0441672502738 0.0461747692662 2.03723253938e-19)
(0.0378177850939 0.0446460097687 3.55517626104e-19)
(0.050089396555 0.0534947313581 2.4434648539e-19)
(0.0432522916541 0.0525366963796 4.45701891399e-19)
(0.0567795481012 0.0611009328471 2.95797011156e-19)
(0.0494527324703 0.0604353604167 4.60388481024e-19)
(0.0649008453807 0.069619252877 3.76399073479e-19)
(0.0557829999947 0.0689954502415 6.33530497809e-19)
(0.0757172593818 0.0782615867758 3.955835834e-19)
(0.0649950528348 0.0793728619658 8.55728869843e-19)
(0.0887184099629 0.0862499684223 2.70207092475e-19)
(0.0776964999123 0.0879262792052 6.62803641998e-19)
(0.103703913833 0.0942555610196 1.15903220677e-19)
(0.0916775849503 0.0972131413186 2.86383145936e-19)
(0.120911163688 0.104737829094 4.82186192839e-20)
(0.106401148891 0.106681841972 6.82826551071e-20)
(0.139362754344 0.122285597245 2.69137523319e-20)
(0.12091387223 0.122744918186 3.62358205925e-20)
(0.14970207296 0.148468588814 4.43710388612e-20)
(0.135480811276 0.129575660405 2.92270641949e-20)
(-0.29715554064 0.170519101706 2.2324303461e-19)
(0.138529464061 0.11804781789 7.70615465052e-20)
(-0.311293662915 0.635940442402 1.84506849069e-19)
(-0.189957811124 0.302557783431 2.37126842123e-19)
(0.311362099748 0.390620541124 -2.87117978351e-20)
(0.0261944905591 0.00487443079533 -9.88614228467e-23)
(0.0238888075959 0.00222069147339 -6.31292560436e-22)
(0.0260937842733 0.00982633156334 1.55953190527e-21)
(0.023531269478 0.00747619768468 1.11851960753e-21)
(0.026328808441 0.0150058054194 6.81331091428e-21)
(0.0235268958558 0.0125286176 4.99640378911e-21)
(0.026811649415 0.0206026710158 2.70203125809e-20)
(0.0236805287157 0.0179529390041 2.17513736305e-20)
(0.0276026094748 0.0268008355671 9.04251540003e-20)
(0.0240029751835 0.0239144541482 8.23845811245e-20)
(0.0289105424925 0.0339325178043 2.31130734048e-19)
(0.0245146981406 0.0306616749865 2.55591117566e-19)
(0.031487139799 0.0422378482912 4.29813947867e-19)
(0.0256413194132 0.0389242709976 5.67199407646e-19)
(0.0360180273451 0.0509461782275 5.97496263565e-19)
(0.0290810093632 0.0485236122225 8.72233433835e-19)
(0.0417956401411 0.0595048044793 6.61743887033e-19)
(0.034671793447 0.0581809955232 9.8940302054e-19)
(0.0476664330448 0.068715328428 7.98121967677e-19)
(0.0402292738276 0.0677473587672 8.53494155869e-19)
(0.0551740892654 0.079151243423 1.11286029417e-18)
(0.0453442916203 0.0782303489427 1.25511543444e-18)
(0.0666711864789 0.0891388320609 1.12294892844e-18)
(0.0550160681317 0.0915731746895 1.65223850681e-18)
(0.0805136096523 0.098116660626 6.78979695459e-19)
(0.0687370474807 0.0991907590746 1.20895399964e-18)
(0.0937629524938 0.106455341885 2.38762580366e-19)
(0.0833638884994 0.107672984484 2.12652601599e-19)
(0.104775903534 0.119320324302 5.62998564158e-20)
(0.0935627950468 0.116961194136 -1.1020677668e-19)
(0.113903531079 0.142408367399 3.85491324556e-20)
(0.0978455806349 0.136922317328 -1.13015667673e-20)
(0.119831478447 0.177779084221 6.1917571839e-20)
(0.100117739403 0.145490821435 2.88737266376e-20)
(-0.0389987932527 0.217649987082 9.0945354018e-20)
(0.0987017086887 0.140276324525 9.76010820377e-20)
(-0.0127851744055 0.181386114136 2.39081952189e-20)
(-0.153694552717 0.117006483296 -1.20322854737e-19)
(0.0362885868608 0.239816546508 -1.38562399062e-19)
(0.0212269367529 0.00495158696417 5.86088469944e-22)
(0.0189099683151 0.00222668876239 -1.11206669268e-22)
(0.0209703472427 0.00994761522986 4.55539149138e-21)
(0.0185050155309 0.00746546287474 2.60001059359e-21)
(0.0208670077248 0.0152074210852 1.99344665053e-20)
(0.0182340443312 0.0124981402011 1.26928364316e-20)
(0.0208490987186 0.0208879219503 7.7115642174e-20)
(0.0179647968851 0.0179436436234 5.37357790875e-20)
(0.0209836542585 0.0271544352107 2.4755054469e-19)
(0.0177004874637 0.024018077304 1.95915272599e-19)
(0.0213352944151 0.0346117010136 5.91659791164e-19)
(0.0170226208712 0.0308313364892 5.92735318908e-19)
(0.0229257179267 0.04457684203 1.00961889361e-18)
(0.015644577502 0.0398422971961 1.22899239876e-18)
(0.02727169376 0.0561000504895 1.26414019081e-18)
(0.0175315682335 0.052455434024 1.51117429424e-18)
(0.0323816081622 0.0663879663856 1.18115328938e-18)
(0.0243644221857 0.0646795826753 1.07648305772e-18)
(0.0355696301603 0.0777591602742 1.31048762264e-18)
(0.0288478845134 0.0757549861198 4.69195521557e-19)
(0.0415122450248 0.0913803438846 1.79449364708e-18)
(0.0317238277003 0.0890787108231 1.06145250776e-18)
(0.0558403062274 0.102851449663 1.73824357801e-18)
(0.0435563874077 0.108022462745 1.20049741277e-18)
(0.0727090608229 0.107542855735 7.42626905784e-19)
(0.0640655473883 0.1121571703 1.19490814453e-19)
(0.0838196728045 0.11410852216 -1.36316755447e-19)
(0.0768239486671 0.111739886096 -7.77104823511e-19)
(0.087521661311 0.12711585217 -1.77808199863e-19)
(0.0805845829329 0.121683855052 -6.61813709725e-19)
(0.0855540409973 0.152450770374 -2.09769725852e-20)
(0.072533925681 0.142849382221 -1.84273300451e-19)
(0.0844547734928 0.185371423076 6.45572368363e-20)
(0.0672061250342 0.151905385272 -5.25649865607e-20)
(0.126490141246 0.216282030225 -1.13667126718e-19)
(0.0679039376224 0.151507871699 9.92939241371e-20)
(0.106541949882 0.0662910581235 -2.82793449018e-19)
(-0.00369433561831 0.0885393074682 -4.75526785689e-19)
(-0.0679815246732 0.268454360723 -3.86820186164e-19)
(0.0162824210622 0.00487262250005 1.90271545438e-21)
(0.0140109257346 0.00218901418996 5.64298790196e-22)
(0.0158811646007 0.00978579997392 1.07374555338e-20)
(0.0135640259304 0.00727486603344 5.58387182498e-21)
(0.0153871675866 0.0149343007331 4.64941490138e-20)
(0.0130561817401 0.0120629057158 2.5016282121e-20)
(0.0145645735951 0.0206306790628 1.72535409512e-19)
(0.012237798102 0.0171188278914 1.00660064849e-19)
(0.0133339092976 0.0270347565472 5.41100046816e-19)
(0.0112655371177 0.0228155713798 3.47403329471e-19)
(0.012065567258 0.0342775718198 1.23006792651e-18)
(0.0097503800986 0.0295965344613 1.03920057885e-18)
(0.0118499282064 0.0458715371424 1.73054779939e-18)
(0.00402436491211 0.0397297354778 2.10176430594e-18)
(0.01551093693 0.063425507949 1.32351716115e-18)
(-4.53293881675e-05 0.0580589475727 2.13209223656e-18)
(0.0213125107732 0.0739477749287 3.645252899e-19)
(0.0138250661783 0.0758662918174 9.10735715129e-19)
(0.0245457708279 0.085355291543 2.20160406678e-19)
(0.0174327284582 0.0889147173702 -1.97737063074e-18)
(0.0306517918501 0.105376307944 4.67456273447e-19)
(0.0117054139896 0.107567796729 7.1212495279e-20)
(0.0532704442982 0.124637128508 -4.18255350788e-19)
(0.0243083615123 0.130470411727 -1.25743052494e-18)
(0.0741929969194 0.112912849291 -1.40024091484e-18)
(0.0758068164574 0.117869135972 -2.04180935378e-18)
(0.076652770278 0.115073112903 -1.30260177779e-18)
(0.0746908834425 0.107312670126 -2.14648071823e-18)
(0.0699712774232 0.129707951524 -6.68278810313e-19)
(0.0659832067441 0.11905517859 -1.16481567355e-18)
(0.0578704316663 0.151427929564 -2.15861314426e-19)
(0.0508404376753 0.141628467007 -3.48500100962e-19)
(0.0511192076017 0.183396173013 -1.782829926e-20)
(0.0352467047941 0.150966976784 -1.31285325411e-19)
(0.0574496646696 0.217615159724 -2.62565734835e-19)
(0.0338520609667 0.152712895569 5.9068294276e-20)
(0.047934670995 0.199342948066 -5.79553522835e-19)
(0.0147209060809 0.117137401399 -4.72677895727e-19)
(0.0563722771512 0.27218859016 -6.22243040297e-19)
(0.0114763787818 0.00473775222801 4.2454551608e-21)
(0.00925199571527 0.00214249626246 1.66713739353e-21)
(0.0110603786498 0.00938973381653 1.98626984122e-20)
(0.00889096946237 0.0070338770428 9.90787346388e-21)
(0.0104656781735 0.0140225451503 7.91821979564e-20)
(0.00840168363294 0.0115240464239 3.96966738092e-20)
(0.00931091406503 0.0187788781793 2.75527984808e-19)
(0.00745921390897 0.015993716943 1.41324655075e-19)
(0.00661805231537 0.0244828437662 8.45503861504e-19)
(0.00553956840784 0.0203046571631 4.29392224901e-19)
(0.000405678609984 0.0326341304448 1.91089695828e-18)
(0.00157841303116 0.0246056792091 1.11547231544e-18)
(-0.0100324867361 0.0473404116294 2.50330874311e-18)
(-0.0107016103799 0.0309277417079 1.80178676133e-18)
(-0.00323492383747 0.07667493495 1.71931079054e-18)
(-0.029397443756 0.0356622980313 1.36661154312e-18)
(0.00850833840378 0.090494175015 -1.43116020552e-18)
(0.00621453727184 0.107925930177 -2.12631854214e-18)
(0.0143975144096 0.119636025158 -1.65367430311e-18)
(0.0616610200723 0.143949841023 -2.88098452794e-18)
(0.0882109601619 0.104943773115 -2.78804915717e-18)
(0.0667637430947 0.106077976258 -2.00869461399e-18)
(0.0480726401923 0.123584687233 -8.45036964202e-19)
(0.0310533405234 0.14592084982 -2.63924111947e-19)
(0.0223412719388 0.170200418416 -5.43887318751e-20)
(-0.0285945782783 0.191472024798 -1.51043866617e-19)
(-0.00921989485035 0.145161809516 -5.15367413189e-19)
(0.00681714345229 0.00463516642968 7.32955569661e-21)
(0.00460429897123 0.00210096648096 2.56452953121e-21)
(0.00647043609439 0.00914538137612 2.97418488608e-20)
(0.00436942879436 0.00680875489516 1.3840777108e-20)
(0.00589326883625 0.0135489250674 1.01839130928e-19)
(0.00398684701257 0.010995996349 5.61515327839e-20)
(0.00473279707984 0.0176721982535 2.95188895169e-19)
(0.00332452172318 0.0148914826947 1.87081688948e-19)
(0.00215852260736 0.0203798390637 6.99360678838e-19)
(0.00282062886909 0.018004548484 4.30649106573e-19)
(-0.00415703219728 0.0217813857188 1.00636211848e-18)
(0.000165702326206 0.0196084833577 9.53161290844e-19)
(-0.0175073344767 0.0150794909271 6.65089561335e-19)
(-0.00401099243029 0.0200240743867 8.09015723949e-19)
(-0.0143227887452 0.0084907684453 -3.97351261464e-19)
(0.00230741440778 0.00451037145328 9.07575094261e-21)
(9.51215374952e-05 0.00208009312544 2.64841954001e-21)
(0.00214862724825 0.00878429569023 4.02504610311e-20)
(9.75757613995e-05 0.00669145429844 1.54133663319e-20)
(0.00182720901341 0.0126694093605 1.41394090804e-19)
(0.000103967961951 0.0106814842629 6.49902937358e-20)
(0.00114203184136 0.0158773645338 3.22541900352e-19)
(0.000118325820912 0.0142322389522 2.18381549175e-19)
(0.000122413903752 0.0185278863894 6.8444971858e-19)
(0.000170781066348 0.0170707579852 4.25268804684e-19)
(-0.00137002976601 0.0185688821311 7.5581489631e-19)
(0.000122989876104 0.018429436972 9.42323165369e-19)
(-0.00533255435717 0.0144397074925 -2.53425098849e-19)
(0.000111592948287 0.0176418423816 5.86320112309e-19)
(0.000109998162896 0.00719872830021 -1.06725652669e-18)
(-0.00210664367067 0.00451705674745 8.98603492931e-21)
(-0.0044063219432 0.00210745296464 2.19976994591e-21)
(-0.00193932758641 0.00878904509367 4.01531990366e-20)
(-0.00415815581086 0.00682115622128 1.33892789526e-20)
(-0.00160415341158 0.0126776047944 1.41977752107e-19)
(-0.00376884851496 0.0110084884714 5.59833221178e-20)
(-0.000903776492995 0.0159198488713 3.21108453506e-19)
(-0.00311049358209 0.0148980612211 1.87742421675e-19)
(0.000151687522132 0.0184444886736 6.83142251473e-19)
(-0.00234458646668 0.0180231817228 4.29750078879e-19)
(0.00165819304393 0.0185293905195 7.72828381367e-19)
(3.85073774701e-05 0.0195961700206 9.58489449615e-19)
(0.00561607492772 0.0143794693857 -2.27511315529e-19)
(0.00424957317034 0.0199950067971 8.22887171755e-19)
(0.0144774555636 0.00857571769427 -3.77566501724e-19)
(-0.00660362761545 0.00465226000774 6.60301396924e-21)
(-0.00624128427257 0.00916799625573 2.92194020338e-20)
(-0.00563565325425 0.0135648889639 1.01747991686e-19)
(-0.00444629538025 0.0176342438416 2.96384047047e-19)
(-0.0018315170496 0.020537134675 7.05097277021e-19)
(0.004469100839 0.0217413512484 1.00854824e-18)
(0.0178227739248 0.015139522144 6.7283198556e-19)
)
;

boundaryField
{
    back
    {
        type            calculated;
        value           uniform (0 0 0);
    }
    sides
    {
        type            calculated;
        value           nonuniform List<vector> 0();
    }
    bottom
    {
        type            calculated;
        value           uniform (0 0 0);
    }
    front
    {
        type            calculated;
        value           uniform (0 0 0);
    }
    atmosphere
    {
        type            calculated;
        value           nonuniform List<vector> 7((8.46679998821e-08 -1.06339304773 -3.02775202175e-27) (6.91744614733e-09 -0.261942982746 2.76097732611e-26) (-1.97738179992e-10 0.464734525741 1.57143005039e-28) (1.23435234475e-08 0.456532516677 1.66070089702e-27) (2.21227095371e-08 0.170759105465 1.07942257163e-25) (-9.3673216002e-08 0.0752451224924 -6.14792500138e-25) (3.81433502714e-06 0.0937603934116 6.97263554163e-24));
    }
    floatingObject
    {
        type            calculated;
        value           nonuniform List<vector> 8((0 -4.78286469567e-20 5.97858086959e-21) (0 0 5.97858086959e-21) (0 0 0) (0 -9.56572939134e-20 5.97858086959e-21) (1.19571617392e-20 0 0) (0 0 5.97858086959e-21) (0 0 5.97858086959e-21) (0 0 0));
    }
    procBoundary3to4
    {
        type            processor;
        value           nonuniform List<vector> 
13
(
(0.0564138569591 0.0307845753443 5.9955711078e-21)
(0.061865616055 0.0352705040404 8.46129580124e-21)
(0.0684080090332 0.0396423231122 9.33042537933e-21)
(0.0379573960599 0.00184890659935 -3.54491278744e-22)
(0.0377182572995 0.00639530097386 3.60747912563e-22)
(0.03835022475 0.0106581783598 2.04560284792e-22)
(0.039542250238 0.0150967085516 4.96387077327e-22)
(0.0437454356228 0.0248133480519 5.84447656151e-21)
(0.0516723522943 0.0307156145193 7.6072550451e-21)
(0.0470127306172 0.0301150760375 1.49053520517e-20)
(0.0378883749937 0.0182653649676 1.89381844244e-21)
(0.0398006560389 0.0234543074086 6.32934061134e-21)
(0.0360652839173 0.0217327971617 7.61127191902e-21)
)
;
    }
    procBoundary3to5
    {
        type            processor;
        value           nonuniform List<vector> 10((0.0761707705567 0.0439233884239 1.02912799285e-20) (0.0853667013465 0.0481312441184 1.28246430132e-20) (0.0963995413213 0.0518283645866 1.75923208288e-20) (0.109202034197 0.0549804589712 1.22709585295e-20) (0.12556177599 0.056930803138 3.43558754838e-21) (0.149955186376 0.0544161813509 2.76916615375e-21) (0.17918586642 0.0494306022363 -5.02602301224e-21) (0.162416480315 0.0267313557393 1.80249507972e-20) (-0.519982186083 -0.185732851935 -3.49706125227e-20) (-0.572886384886 -1.18008687845 2.05717010558e-20));
    }
    procBoundary3to6
    {
        type            processor;
        value           nonuniform List<vector> 8((0.114829272105 0.07239335135 -2.25406435228e-18) (0.0735809256009 0.0925352518708 -2.10542215617e-18) (0.0485063766086 0.11247728788 -1.09883468359e-18) (0.028527572771 0.137313188329 -3.71868624853e-19) (0.0109763054073 0.145432972131 -1.83880627386e-19) (0.0128374019049 0.145938319755 3.81412494787e-21) (0.0611738590042 0.0919215976894 -3.38535555317e-19) (0.108035884155 0.139207044506 -9.48767504005e-19));
    }
    procBoundary3to8
    {
        type            processor;
        value           nonuniform List<vector> 8((-0.00903531972332 0.00215473455222 1.44919410788e-21) (-0.00865054300788 0.00706188968226 9.41682326443e-21) (-0.00814413927226 0.011561481285 3.97420532868e-20) (-0.00716204468298 0.016020651407 1.41402819165e-19) (-0.00523828219602 0.0203519649485 4.32427763211e-19) (-0.00116898119968 0.024554921253 1.12276045344e-18) (0.0108315168352 0.0309216780733 1.79434386212e-18) (0.0296014967806 0.0358168522928 1.37130327406e-18));
    }
}


// ************************************************************************* //
